<LesHouchesEvents version="3.0">
<header>
<!--
#*********************************************************************
#                                                                    *
#                        MadGraph5_aMC@NLO                           *
#                                                                    *
#                           Going Beyond                             *
#                                                                    *
#                   http://madgraph.hep.uiuc.edu                     *
#                   http://madgraph.phys.ucl.ac.be                   *
#                   http://amcatnlo.cern.ch                          *
#                                                                    *
#                     The MadGraph5_aMC@NLO team                     *
#                                                                    *
#....................................................................*
#                                                                    *
# This file contains all the information necessary to reproduce      *
# the events generated:                                              *
#                                                                    *
# 1. software version                                                *
# 2. proc_card          : code generation info including model       *
# 3. param_card         : model primary parameters in the LH format  *
# 4. run_card           : running parameters (collider and cuts)     *
# 5. pythia_card        : present only if pythia has been run        *
# 6. pgs_card           : present only if pgs has been run           *
# 7. delphes_cards      : present only if delphes has been run       *
#                                                                    *
#                                                                    *
#*********************************************************************
-->
<MGVersion>
#5.2.2.3
</MGVersion>
<MG5ProcCard>
#************************************************************
#*                     MadGraph5_aMC@NLO                    *
#*                                                          *
#*                *                       *                 *
#*                  *        * *        *                   *
#*                    * * * * 5 * * * *                     *
#*                  *        * *        *                   *
#*                *                       *                 *
#*                                                          *
#*                                                          *
#*         VERSION 2.2.3                 2015-02-10         *
#*                                                          *
#*    The MadGraph5_aMC@NLO Development Team - Find us at   *
#*    https://server06.fynu.ucl.ac.be/projects/madgraph     *
#*                                                          *
#************************************************************
#*                                                          *
#*               Command File for MadGraph5_aMC@NLO         *
#*                                                          *
#*     run as ./bin/mg5_aMC  filename                       *
#*                                                          *
#************************************************************
set group_subprocesses Auto
set ignore_six_quark_processes False
set loop_optimized_output True
set gauge unitary
set complex_mass_scheme False
import model sm
define p = g u c d s u~ c~ d~ s~
define j = g u c d s u~ c~ d~ s~
define l+ = e+ mu+
define l- = e- mu-
define vl = ve vm vt
define vl~ = ve~ vm~ vt~
import model Zprime_UFO
generate p p > zph, zph > j j
add process p p > zph, zph > b b~
output Dijet_signal
</MG5ProcCard>
<MGProcCard>
#*********************************************************************
#                        MadGraph/MadEvent                           *
#                   http://madgraph.hep.uiuc.edu                     *
#                                                                    *
#                          proc_card.dat                             *
#*********************************************************************
#                                                                    *
#            This Files is generated by MADGRAPH 5                   *
#                                                                    *
# WARNING: This Files is generated for MADEVENT (compatibility issue)*
#          This files is NOT a valid MG4 proc_card.dat               *
#          Running this in MG4 will NEVER reproduce the result of MG5*
#                                                                    *
#*********************************************************************
#*********************************************************************
# Process(es) requested : mg2 input                                  *
#*********************************************************************
# Begin PROCESS # This is TAG. Do not modify this line
p p > zph , zph > j j           #Process
# Be carefull the coupling are here in MG5 convention
          
end_coup           # End the couplings input

done               # this tells MG there are no more procs
# End PROCESS  # This is TAG. Do not modify this line
#*********************************************************************
# Model information                                                  *
#*********************************************************************
# Begin MODEL  # This is TAG. Do not modify this line
Zprime_UFO
# End   MODEL  # This is TAG. Do not modify this line
#*********************************************************************
# Start multiparticle definitions                                    *
#*********************************************************************
# Begin MULTIPARTICLES # This is TAG. Do not modify this line

# End  MULTIPARTICLES # This is TAG. Do not modify this line
</MGProcCard>
<MGRunCard>
#*********************************************************************
#                       MadGraph5_aMC@NLO                            *
#                                                                    *
#                     run_card.dat MadEvent                          *
#                                                                    *
#  This file is used to set the parameters of the run.               *
#                                                                    *
#  Some notation/conventions:                                        *
#                                                                    *
#   Lines starting with a '# ' are info or comments                  *
#                                                                    *
#   mind the format:   value    = variable     ! comment             *
#*********************************************************************
#
#*******************                                                 
# Running parameters
#*******************                                                 
#                                                                    
#*********************************************************************
# Tag name for the run (one word)                                    *
#*********************************************************************
  tag_1     = run_tag ! name of the run 
#*********************************************************************
# Run to generate the grid pack                                      *
#*********************************************************************
  .false.     = gridpack  !True = setting up the grid pack
#*********************************************************************
# Number of events and rnd seed                                      *
# Warning: Do not generate more than 1M events in a single run       *
# If you want to run Pythia, avoid more than 50k events in a run.    *
#*********************************************************************
  2000 = nevents ! Number of unweighted events requested 
 2325 = iseed   ! rnd seed (0=assigned automatically=default))
#*********************************************************************
# Collider type and energy                                           *
# lpp: 0=No PDF, 1=proton, -1=antiproton, 2=photon from proton,      *
#                                         3=photon from electron     *
#*********************************************************************
        1     = lpp1    ! beam 1 type 
        1     = lpp2    ! beam 2 type
     4000     = ebeam1  ! beam 1 total energy in GeV
     4000     = ebeam2  ! beam 2 total energy in GeV
#*********************************************************************
# Beam polarization from -100 (left-handed) to 100 (right-handed)    *
#*********************************************************************
        0     = polbeam1 ! beam polarization for beam 1
        0     = polbeam2 ! beam polarization for beam 2
#*********************************************************************
# PDF CHOICE: this automatically fixes also alpha_s and its evol.    *
#*********************************************************************
 'nn23lo1'    = pdlabel     ! PDF set                                     
 230000    = lhaid     ! if pdlabel=lhapdf, this is the lhapdf number
#*********************************************************************
# Renormalization and factorization scales                           *
#*********************************************************************
 F        = fixed_ren_scale  ! if .true. use fixed ren scale
 F        = fixed_fac_scale  ! if .true. use fixed fac scale
 91.1880  = scale            ! fixed ren scale
 91.1880  = dsqrt_q2fact1    ! fixed fact scale for pdf1
 91.1880  = dsqrt_q2fact2    ! fixed fact scale for pdf2
 1        = scalefact        ! scale factor for event-by-event scales
#*********************************************************************
# Matching - Warning! ickkw > 1 is still beta
#*********************************************************************
 0        = ickkw            ! 0 no matching, 1 MLM, 2 CKKW matching
 1        = highestmult      ! for ickkw=2, highest mult group
 1        = ktscheme         ! for ickkw=1, 1 Durham kT, 2 Pythia pTE
 1        = alpsfact         ! scale factor for QCD emission vx
 F        = chcluster        ! cluster only according to channel diag
 T        = pdfwgt           ! for ickkw=1, perform pdf reweighting
 5        = asrwgtflavor     ! highest quark flavor for a_s reweight
 T        = clusinfo         ! include clustering tag in output
 3.0      = lhe_version       ! Change the way clustering information pass to shower.        
#*********************************************************************
#**********************************************************
#
#**********************************************************
# Automatic ptj and mjj cuts if xqcut > 0
# (turn off for VBF and single top processes)
#**********************************************************
   T  = auto_ptj_mjj  ! Automatic setting of ptj and mjj
#**********************************************************
#                                                                    
#**********************************
# BW cutoff (M+/-bwcutoff*Gamma)
#**********************************
  15  = bwcutoff      ! (M+/-bwcutoff*Gamma)
#**********************************************************
# Apply pt/E/eta/dr/mij cuts on decay products or not
# (note that etmiss/ptll/ptheavy/ht/sorted cuts always apply)
#**********************************************************
   T  = cut_decays    ! Cut decay products 
#*************************************************************
# Number of helicities to sum per event (0 = all helicities)
# 0 gives more stable result, but longer run time (needed for
# long decay chains e.g.).
# Use >=2 if most helicities contribute, e.g. pure QCD.
#*************************************************************
   0  = nhel          ! Number of helicities used per event
#*******************                                                 
# Standard Cuts
#*******************                                                 
#                                                                    
#*********************************************************************
# Minimum and maximum pt's (for max, -1 means no cut)                *
#*********************************************************************
 20  = ptj       ! minimum pt for the jets 
  0  = ptb       ! minimum pt for the b 
 10  = pta       ! minimum pt for the photons 
 10  = ptl       ! minimum pt for the charged leptons 
  0  = misset    ! minimum missing Et (sum of neutrino's momenta)
  0  = ptheavy   ! minimum pt for one heavy final state
 1.0 = ptonium   ! minimum pt for the quarkonium states
 -1  = ptjmax    ! maximum pt for the jets
 -1  = ptbmax    ! maximum pt for the b
 -1  = ptamax    ! maximum pt for the photons
 -1  = ptlmax    ! maximum pt for the charged leptons
 -1  = missetmax ! maximum missing Et (sum of neutrino's momenta)
#*********************************************************************
# Minimum and maximum E's (in the center of mass frame)              *
#*********************************************************************
  0  = ej     ! minimum E for the jets 
  0  = eb     ! minimum E for the b 
  0  = ea     ! minimum E for the photons 
  0  = el     ! minimum E for the charged leptons 
 -1   = ejmax ! maximum E for the jets
 -1   = ebmax ! maximum E for the b
 -1   = eamax ! maximum E for the photons
 -1   = elmax ! maximum E for the charged leptons
#*********************************************************************
# Maximum and minimum absolute rapidity (for max, -1 means no cut)   *
#*********************************************************************
   5  = etaj    ! max rap for the jets 
  -1  = etab    ! max rap for the b
 2.5  = etaa    ! max rap for the photons 
 2.5  = etal    ! max rap for the charged leptons 
 0.6  = etaonium ! max rap for the quarkonium states
   0  = etajmin ! min rap for the jets
   0  = etabmin ! min rap for the b
   0  = etaamin ! min rap for the photons
   0  = etalmin ! main rap for the charged leptons
#*********************************************************************
# Minimum and maximum DeltaR distance                                *
#*********************************************************************
 0.4 = drjj    ! min distance between jets 
 0   = drbb    ! min distance between b's 
 0.4 = drll    ! min distance between leptons 
 0.4 = draa    ! min distance between gammas 
 0   = drbj    ! min distance between b and jet 
 0.4 = draj    ! min distance between gamma and jet 
 0.4 = drjl    ! min distance between jet and lepton 
 0   = drab    ! min distance between gamma and b 
 0   = drbl    ! min distance between b and lepton 
 0.4 = dral    ! min distance between gamma and lepton 
 -1  = drjjmax ! max distance between jets
 -1  = drbbmax ! max distance between b's
 -1  = drllmax ! max distance between leptons
 -1  = draamax ! max distance between gammas
 -1  = drbjmax ! max distance between b and jet
 -1  = drajmax ! max distance between gamma and jet
 -1  = drjlmax ! max distance between jet and lepton
 -1  = drabmax ! max distance between gamma and b
 -1  = drblmax ! max distance between b and lepton
 -1  = dralmax ! maxdistance between gamma and lepton
#*********************************************************************
# Minimum and maximum invariant mass for pairs                       *
# WARNING: for four lepton final state mmll cut require to have      *
#          different lepton masses for each flavor!                  *           
#*********************************************************************
 0   = mmjj    ! min invariant mass of a jet pair 
 0   = mmbb    ! min invariant mass of a b pair 
 0   = mmaa    ! min invariant mass of gamma gamma pair
 0   = mmll    ! min invariant mass of l+l- (same flavour) lepton pair
 -1  = mmjjmax ! max invariant mass of a jet pair
 -1  = mmbbmax ! max invariant mass of a b pair
 -1  = mmaamax ! max invariant mass of gamma gamma pair
 -1  = mmllmax ! max invariant mass of l+l- (same flavour) lepton pair
#*********************************************************************
# Minimum and maximum invariant mass for all letpons                 *
#*********************************************************************
 0   = mmnl    ! min invariant mass for all letpons (l+- and vl) 
 -1  = mmnlmax ! max invariant mass for all letpons (l+- and vl) 
#*********************************************************************
# Minimum and maximum pt for 4-momenta sum of leptons                *
#*********************************************************************
 0   = ptllmin  ! Minimum pt for 4-momenta sum of leptons(l and vl)
 -1  = ptllmax  ! Maximum pt for 4-momenta sum of leptons(l and vl)
#*********************************************************************
# Inclusive cuts                                                     *
#*********************************************************************
 0  = xptj ! minimum pt for at least one jet  
 0  = xptb ! minimum pt for at least one b 
 0  = xpta ! minimum pt for at least one photon 
 0  = xptl ! minimum pt for at least one charged lepton 
#*********************************************************************
# Control the pt's of the jets sorted by pt                          *
#*********************************************************************
 0   = ptj1min ! minimum pt for the leading jet in pt
 0   = ptj2min ! minimum pt for the second jet in pt
 0   = ptj3min ! minimum pt for the third jet in pt
 0   = ptj4min ! minimum pt for the fourth jet in pt
 -1  = ptj1max ! maximum pt for the leading jet in pt 
 -1  = ptj2max ! maximum pt for the second jet in pt
 -1  = ptj3max ! maximum pt for the third jet in pt
 -1  = ptj4max ! maximum pt for the fourth jet in pt
 0   = cutuse  ! reject event if fails any (0) / all (1) jet pt cuts
#*********************************************************************
# Control the pt's of leptons sorted by pt                           *
#*********************************************************************
 0   = ptl1min ! minimum pt for the leading lepton in pt
 0   = ptl2min ! minimum pt for the second lepton in pt
 0   = ptl3min ! minimum pt for the third lepton in pt
 0   = ptl4min ! minimum pt for the fourth lepton in pt
 -1  = ptl1max ! maximum pt for the leading lepton in pt 
 -1  = ptl2max ! maximum pt for the second lepton in pt
 -1  = ptl3max ! maximum pt for the third lepton in pt
 -1  = ptl4max ! maximum pt for the fourth lepton in pt
#*********************************************************************
# Control the Ht(k)=Sum of k leading jets                            *
#*********************************************************************
 0   = htjmin ! minimum jet HT=Sum(jet pt)
 -1  = htjmax ! maximum jet HT=Sum(jet pt)
 0   = ihtmin  !inclusive Ht for all partons (including b)
 -1  = ihtmax  !inclusive Ht for all partons (including b)
 0   = ht2min ! minimum Ht for the two leading jets
 0   = ht3min ! minimum Ht for the three leading jets
 0   = ht4min ! minimum Ht for the four leading jets
 -1  = ht2max ! maximum Ht for the two leading jets
 -1  = ht3max ! maximum Ht for the three leading jets
 -1  = ht4max ! maximum Ht for the four leading jets
#***********************************************************************
# Photon-isolation cuts, according to hep-ph/9801442                   *
# When ptgmin=0, all the other parameters are ignored                  *
# When ptgmin>0, pta and draj are not going to be used                 *
#***********************************************************************
   0 = ptgmin ! Min photon transverse momentum
 0.4 = R0gamma ! Radius of isolation code
 1.0 = xn ! n parameter of eq.(3.4) in hep-ph/9801442
 1.0 = epsgamma ! epsilon_gamma parameter of eq.(3.4) in hep-ph/9801442
 .true. = isoEM ! isolate photons from EM energy (photons and leptons)
#*********************************************************************
# WBF cuts                                                           *
#*********************************************************************
 0   = xetamin ! minimum rapidity for two jets in the WBF case  
 0   = deltaeta ! minimum rapidity for two jets in the WBF case 
#*********************************************************************
# KT DURHAM CUT                                                      *
#*********************************************************************
 -1    =  ktdurham        
 0.4  =  dparameter 
#*********************************************************************
# maximal pdg code for quark to be considered as a light jet         *
# (otherwise b cuts are applied)                                     *
#*********************************************************************
 4 = maxjetflavor    ! Maximum jet pdg code
#*********************************************************************
# Jet measure cuts                                                   *
#*********************************************************************
 0   = xqcut   ! minimum kt jet measure between partons
#*********************************************************************
#
#*********************************************************************
# Store info for systematics studies                                 *
# WARNING: If use_syst is T, matched Pythia output is                *
#          meaningful ONLY if plotted taking matchscale              *
#          reweighting into account!                                 *
#*********************************************************************
   F  = use_syst      ! Enable systematics studies
#
#**************************************
# Parameter of the systematics study
#  will be used by SysCalc (if installed)
#**************************************                                  
#
0.5 1 2 = sys_scalefact  # factorization/renormalization scale factor
0.5 1 2 = sys_alpsfact  # \alpha_s emission scale factors
30 50 = sys_matchscale # variation of merging scale
# PDF sets and number of members (0 or none for all members).
CT10nlo.LHgrid = sys_pdf # matching scales
# MSTW2008nlo68cl.LHgrid 1  = sys_pdf
</MGRunCard>
<slha>
######################################################################
## PARAM_CARD AUTOMATICALY GENERATED BY MG5 FOLLOWING UFO MODEL   ####
######################################################################
##                                                                  ##
##  Width set on Auto will be computed following the information    ##
##        present in the decay.py files of the model.               ##
##        See  arXiv:1402.1178 for more details.                    ##
##                                                                  ##
######################################################################

###################################
## INFORMATION FOR CKMBLOCK
###################################
Block ckmblock 
    1 2.277360e-01 # cabi 

###################################
## INFORMATION FOR FRBLOCK
###################################
Block frblock 
    1 1.200000e+00 # gz 

###################################
## INFORMATION FOR MASS
###################################
Block mass 
    1 5.040000e-03 # MD 
    2 2.550000e-03 # MU 
    3 1.010000e-01 # MS 
    4 1.270000e+00 # MC 
    5 4.700000e+00 # MB 
    6 1.720000e+02 # MT 
   11 5.110000e-04 # Me 
   13 1.056600e-01 # MM 
   15 1.777000e+00 # MTA 
   23 9.118760e+01 # MZ 
   25 1.200000e+02 # MH 
  10030 2.800000e+03 # MZph 
  10031 3.000000e+02 # MZpl 
## Dependent parameters, given by model restrictions.
## Those values should be edited following the 
## analytical expression. MG5 ignores those values 
## but they are important for interfacing the output of MG5
## to external program such as Pythia.
  12 0.000000 # ve : 0.0 
  14 0.000000 # vm : 0.0 
  16 0.000000 # vt : 0.0 
  21 0.000000 # g : 0.0 
  22 0.000000 # a : 0.0 
  24 79.824360 # w+ : cmath.sqrt(MZ__exp__2/2. + cmath.sqrt(MZ__exp__4/4. - (aEW*cmath.pi*MZ__exp__2)/(Gf*sqrt__2))) 

###################################
## INFORMATION FOR SMINPUTS
###################################
Block sminputs 
    1 1.279000e+02 # aEWM1 
    2 1.166370e-05 # Gf 
    3 1.184000e-01 # aS 

###################################
## INFORMATION FOR YUKAWA
###################################
Block yukawa 
    1 5.040000e-03 # ymdo 
    2 2.550000e-03 # ymup 
    3 1.010000e-01 # yms 
    4 1.270000e+00 # ymc 
    5 4.700000e+00 # ymb 
    6 1.720000e+02 # ymt 
   11 5.110000e-04 # yme 
   13 1.056600e-01 # ymm 
   15 1.777000e+00 # ymtau 

###################################
## INFORMATION FOR DECAY
###################################
DECAY   6 1.508336e+00 # WT 
DECAY  23 2.495200e+00 # WZ 
DECAY  24 2.085000e+00 # WW 
DECAY  25 5.753088e-03 # WH 
## Dependent parameters, given by model restrictions.
## Those values should be edited following the 
## analytical expression. MG5 ignores those values 
## but they are important for interfacing the output of MG5
## to external program such as Pythia.
DECAY  1 0.000000 # d : 0.0 
DECAY  2 0.000000 # u : 0.0 
DECAY  3 0.000000 # s : 0.0 
DECAY  4 0.000000 # c : 0.0 
DECAY  5 0.000000 # b : 0.0 
DECAY  11 0.000000 # e- : 0.0 
DECAY  12 0.000000 # ve : 0.0 
DECAY  13 0.000000 # mu- : 0.0 
DECAY  14 0.000000 # vm : 0.0 
DECAY  15 0.000000 # ta- : 0.0 
DECAY  16 0.000000 # vt : 0.0 
DECAY  21 0.000000 # g : 0.0 
DECAY  22 0.000000 # a : 0.0 
DECAY  10030 0.308725 # zph : (gz__exp__2*MZph*(5 + cmath.sqrt(1 - (4*MT__exp__2)/MZph__exp__2)))/(144.*cmath.pi) 
DECAY  10031 0.132629 # zpl : (5*gz__exp__2*MZpl)/(144.*cmath.pi) 
#===========================================================
# QUANTUM NUMBERS OF NEW STATE(S) (NON SM PDG CODE)
#===========================================================

Block QNUMBERS 10030  # zph 
        1 0  # 3 times electric charge
        2 3  # number of spin states (2S+1)
        3 1  # colour rep (1: singlet, 3: triplet, 8: octet)
        4 0  # Particle/Antiparticle distinction (0=own anti)
Block QNUMBERS 10031  # zpl 
        1 0  # 3 times electric charge
        2 3  # number of spin states (2S+1)
        3 1  # colour rep (1: singlet, 3: triplet, 8: octet)
        4 0  # Particle/Antiparticle distinction (0=own anti)
</slha>
## END BANNER##
<MGGenerationInfo>
#  Number of Events        :         3939
#  Integrated weight (pb)  :  0.35580E-02
#  Max wgt                 :  0.13883E-05
#  Average wgt             :  0.90327E-06
</MGGenerationInfo>
</header>
<init>
     2212     2212  0.40000000000E+04  0.40000000000E+04 0 0  247000  247000 2   1
  0.35604474139E-02  0.10648319542E-04  0.13882690000E-05   0
</init>
<event>
 5   0  0.1388269E-05  0.2718463E+04  0.7818609E-02  0.8329039E-01
       -2   -1    0    0    0  501  0.00000000000E+00  0.00000000000E+00  0.16723193258E+04  0.16723193258E+04  0.25500000920E-02 0.  1.
        2   -1    0    0  501    0  0.00000000000E+00  0.00000000000E+00 -0.11047595443E+04  0.11047595443E+04  0.25500000920E-02 0. -1.
    10030    2    1    2    0    0  0.00000000000E+00  0.00000000000E+00  0.56755978151E+03  0.27770788701E+04  0.27184633426E+04 0.  0.
        1    1    3    3  502    0 -0.60100457510E+03  0.53837799607E+03 -0.83363028423E+03  0.11601710291E+04  0.50400001928E-02 0. -1.
       -1    1    3    3    0  502  0.60100457510E+03 -0.53837799607E+03  0.14011900657E+04  0.16169078410E+04  0.50400001928E-02 0.  1.
</event>
<event>
 5   0  0.1388269E-05  0.2424678E+04  0.7818609E-02  0.8430322E-01
        2   -1    0    0  501    0  0.00000000000E+00  0.00000000000E+00  0.13552992597E+04  0.13552992597E+04  0.25500000920E-02 0. -1.
       -2   -1    0    0    0  501  0.00000000000E+00  0.00000000000E+00 -0.10844589490E+04  0.10844589490E+04  0.25500000920E-02 0.  1.
    10030    2    1    2    0    0  0.00000000000E+00  0.00000000000E+00  0.27084031073E+03  0.24397582088E+04  0.24246784618E+04 0.  0.
        1    1    3    3  502    0  0.71605477756E+03  0.92843863355E+02 -0.84450103585E+03  0.11110969476E+04  0.50400001928E-02 0.  1.
       -1    1    3    3    0  502 -0.71605477756E+03 -0.92843863355E+02  0.11153413466E+04  0.13286612611E+04  0.50400001928E-02 0. -1.
</event>
<event>
 5   0  0.1350863E-05  0.2807806E+04  0.7818609E-02  0.8300849E-01
       -2   -1    0    0    0  501  0.00000000000E+00  0.00000000000E+00  0.10963140640E+04  0.10963140640E+04  0.25500000920E-02 0. -1.
        2   -1    0    0  501    0  0.00000000000E+00  0.00000000000E+00 -0.17977907389E+04  0.17977907389E+04  0.25500000920E-02 0.  1.
    10030    2    1    2    0    0  0.00000000000E+00  0.00000000000E+00 -0.70147667493E+03  0.28941048029E+04  0.28078057419E+04 0.  0.
        3    1    3    3  502    0 -0.10215788124E+04  0.67144176972E+03 -0.10622339750E+04  0.16195055875E+04  0.10100000352E+00 0.  1.
       -3    1    3    3    0  502  0.10215788124E+04 -0.67144176972E+03  0.36075730007E+03  0.12745992154E+04  0.10100000352E+00 0. -1.
</event>
<event>
 5   0  0.1388269E-05  0.2842982E+04  0.7818609E-02  0.8290047E-01
       -2   -1    0    0    0  501  0.00000000000E+00  0.00000000000E+00  0.14936816690E+04  0.14936816690E+04  0.25500000920E-02 0.  1.
        2   -1    0    0  501    0  0.00000000000E+00  0.00000000000E+00 -0.13527896707E+04  0.13527896708E+04  0.25500000920E-02 0. -1.
    10030    2    1    2    0    0  0.00000000000E+00  0.00000000000E+00  0.14089199828E+03  0.28464713398E+04  0.28429823308E+04 0.  0.
        1    1    3    3  502    0  0.80568364151E+03 -0.80443797564E+03 -0.78170987455E+03  0.13810564488E+04  0.50400001928E-02 0. -1.
       -1    1    3    3    0  502 -0.80568364151E+03  0.80443797564E+03  0.92260187283E+03  0.14654148910E+04  0.50400001928E-02 0.  1.
</event>
<event>
 5   0  0.1350863E-05  0.2810859E+04  0.7818609E-02  0.8299905E-01
       -2   -1    0    0    0  501  0.00000000000E+00  0.00000000000E+00  0.15242115766E+04  0.15242115766E+04  0.25500000920E-02 0. -1.
        2   -1    0    0  501    0  0.00000000000E+00  0.00000000000E+00 -0.12959041295E+04  0.12959041295E+04  0.25500000920E-02 0.  1.
    10030    2    1    2    0    0  0.00000000000E+00  0.00000000000E+00  0.22830744711E+03  0.28201157062E+04  0.28108589978E+04 0.  0.
        3    1    3    3  502    0  0.15990119743E+03  0.13887304560E+04 -0.31553307519E+02  0.13982618831E+04  0.10100000352E+00 0.  1.
       -3    1    3    3    0  502 -0.15990119743E+03 -0.13887304560E+04  0.25986075463E+03  0.14218538231E+04  0.10100000352E+00 0. -1.
</event>
<event>
 5   0  0.5217999E-06  0.2513230E+04  0.7818609E-02  0.8398287E-01
        1   -1    0    0  501    0  0.00000000000E+00  0.00000000000E+00  0.20177542078E+04  0.20177542078E+04  0.50400001928E-02 0. -1.
       -1   -1    0    0    0  501  0.00000000000E+00  0.00000000000E+00 -0.78259374497E+03  0.78259374498E+03  0.50400001928E-02 0.  1.
    10030    2    1    2    0    0  0.00000000000E+00  0.00000000000E+00  0.12351604628E+04  0.28003479528E+04  0.25132304486E+04 0.  0.
        1    1    3    3  502    0 -0.20777586882E+03  0.73075373198E+03 -0.49772576916E+03  0.90824158117E+03  0.50400001928E-02 0.  1.
       -1    1    3    3    0  502  0.20777586882E+03 -0.73075373198E+03  0.17328862320E+04  0.18921063716E+04  0.50400001928E-02 0. -1.
</event>
<event>
 5   0  0.4764214E-06  0.2730073E+04  0.7818609E-02  0.8325313E-01
       -1   -1    0    0    0  501  0.00000000000E+00  0.00000000000E+00  0.11145317629E+04  0.11145317629E+04  0.50400001928E-02 0.  1.
        1   -1    0    0  501    0  0.00000000000E+00  0.00000000000E+00 -0.16718455414E+04  0.16718455414E+04  0.50400001928E-02 0. -1.
    10030    2    1    2    0    0  0.00000000000E+00  0.00000000000E+00 -0.55731377851E+03  0.27863773043E+04  0.27300732288E+04 0.  0.
        3    1    3    3  502    0 -0.11627876370E+04  0.65569660058E+02 -0.10053455722E+04  0.15385363820E+04  0.10100000352E+00 0. -1.
       -3    1    3    3    0  502  0.11627876370E+04 -0.65569660058E+02  0.44803179367E+03  0.12478409223E+04  0.10100000352E+00 0.  1.
</event>
<event>
 5   0  0.1388269E-05  0.2814466E+04  0.7818609E-02  0.8298791E-01
        2   -1    0    0  501    0  0.00000000000E+00  0.00000000000E+00  0.17945397022E+04  0.17945397022E+04  0.25500000920E-02 0. -1.
       -2   -1    0    0    0  501  0.00000000000E+00  0.00000000000E+00 -0.11035171097E+04  0.11035171097E+04  0.25500000920E-02 0.  1.
    10030    2    1    2    0    0  0.00000000000E+00  0.00000000000E+00  0.69102259245E+03  0.28980568119E+04  0.28144663902E+04 0.  0.
        1    1    3    3  502    0  0.10970188108E+04 -0.26257065135E+03  0.12118752149E+04  0.16556071861E+04  0.50400001928E-02 0. -1.
       -1    1    3    3    0  502 -0.10970188108E+04  0.26257065135E+03 -0.52085262246E+03  0.12424496258E+04  0.50400001928E-02 0.  1.
</event>
<event>
 5   0  0.5107453E-06  0.2761432E+04  0.7818609E-02  0.8315343E-01
        1   -1    0    0  501    0  0.00000000000E+00  0.00000000000E+00  0.16429447745E+04  0.16429447746E+04  0.50400001928E-02 0.  1.
       -1   -1    0    0    0  501  0.00000000000E+00  0.00000000000E+00 -0.11603413786E+04  0.11603413786E+04  0.50400001928E-02 0. -1.
    10030    2    1    2    0    0  0.00000000000E+00  0.00000000000E+00  0.48260339598E+03  0.28032861531E+04  0.27614320956E+04 0.  0.
        2    1    3    3  502    0  0.11096182448E+04  0.77357913050E+03 -0.39842603476E+02  0.13532423114E+04  0.25500000920E-02 0. -1.
       -2    1    3    3    0  502 -0.11096182448E+04 -0.77357913050E+03  0.52244599946E+03  0.14500438417E+04  0.25500000920E-02 0.  1.
</event>
<event>
 5   0  0.1388269E-05  0.2652247E+04  0.7818609E-02  0.8350667E-01
        2   -1    0    0  501    0  0.00000000000E+00  0.00000000000E+00  0.16004344218E+04  0.16004344218E+04  0.25500000920E-02 0. -1.
       -2   -1    0    0    0  501  0.00000000000E+00  0.00000000000E+00 -0.10988291585E+04  0.10988291585E+04  0.25500000920E-02 0.  1.
    10030    2    1    2    0    0  0.00000000000E+00  0.00000000000E+00  0.50160526330E+03  0.26992635803E+04  0.26522473557E+04 0.  0.
        1    1    3    3  502    0  0.40300610948E+03  0.86046917841E+03 -0.69068163411E+03  0.11746753811E+04  0.50400001928E-02 0. -1.
       -1    1    3    3    0  502 -0.40300610948E+03 -0.86046917841E+03  0.11922868974E+04  0.15245881992E+04  0.50400001928E-02 0.  1.
</event>
<event>
 5   0  0.4447500E-06  0.2829451E+04  0.7818609E-02  0.8294183E-01
       -4   -1    0    0    0  501  0.00000000000E+00  0.00000000000E+00  0.12412822716E+04  0.12412829213E+04  0.12699999809E+01 0.  1.
        4   -1    0    0  501    0  0.00000000000E+00  0.00000000000E+00 -0.16124028631E+04  0.16124033633E+04  0.12699999809E+01 0. -1.
    10030    2    1    2    0    0  0.00000000000E+00  0.00000000000E+00 -0.37112059151E+03  0.28536862846E+04  0.28294513457E+04 0.  0.
        5    1    3    3  502    0  0.18630263147E+03 -0.13455298862E+04  0.21313218394E+03  0.13749933683E+04  0.46999998093E+01 0.  1.
       -5    1    3    3    0  502 -0.18630263147E+03  0.13455298862E+04 -0.58425277545E+03  0.14786929163E+04  0.46999998093E+01 0. -1.
</event>
<event>
 5   0  0.1283052E-05  0.2222876E+04  0.7818609E-02  0.8508966E-01
       -2   -1    0    0    0  501  0.00000000000E+00  0.00000000000E+00  0.93890305289E+03  0.93890305289E+03  0.25500000920E-02 0. -1.
        2   -1    0    0  501    0  0.00000000000E+00  0.00000000000E+00 -0.13156787872E+04  0.13156787872E+04  0.25500000920E-02 0.  1.
    10030    2    1    2    0    0  0.00000000000E+00  0.00000000000E+00 -0.37677573428E+03  0.22545818401E+04  0.22228763617E+04 0.  0.
        5    1    3    3  502    0 -0.33060570284E+02 -0.96852002574E+03  0.36356959750E+03  0.10350502325E+04  0.46999998093E+01 0. -1.
       -5    1    3    3    0  502  0.33060570284E+02  0.96852002574E+03 -0.74034533178E+03  0.12195316076E+04  0.46999998093E+01 0.  1.
</event>
<event>
 5   0  0.5023691E-06  0.2785127E+04  0.7818609E-02  0.8307901E-01
       -1   -1    0    0    0  501  0.00000000000E+00  0.00000000000E+00  0.13438833258E+04  0.13438833259E+04  0.50400001928E-02 0.  1.
        1   -1    0    0  501    0  0.00000000000E+00  0.00000000000E+00 -0.14430073471E+04  0.14430073472E+04  0.50400001928E-02 0. -1.
    10030    2    1    2    0    0  0.00000000000E+00  0.00000000000E+00 -0.99124021306E+02  0.27868906730E+04  0.27851272954E+04 0.  0.
        5    1    3    3  502    0 -0.51689950707E+03  0.66188665155E+03  0.10619663891E+04  0.13539105367E+04  0.46999998093E+01 0.  1.
       -5    1    3    3    0  502  0.51689950707E+03 -0.66188665155E+03 -0.11610904104E+04  0.14329801363E+04  0.46999998093E+01 0. -1.
</event>
<event>
 5   0  0.5217999E-06  0.2804412E+04  0.7818609E-02  0.8301900E-01
        1   -1    0    0  501    0  0.00000000000E+00  0.00000000000E+00  0.22822306017E+04  0.22822306018E+04  0.50400001928E-02 0.  1.
       -1   -1    0    0    0  501  0.00000000000E+00  0.00000000000E+00 -0.86151730825E+03  0.86151730827E+03  0.50400001928E-02 0. -1.
    10030    2    1    2    0    0  0.00000000000E+00  0.00000000000E+00  0.14207132935E+04  0.31437479100E+04  0.28044116423E+04 0.  0.
        1    1    3    3  502    0 -0.78005554710E+02  0.68584227657E+03 -0.65786920245E+03  0.95354936026E+03  0.50400001928E-02 0. -1.
       -1    1    3    3    0  502  0.78005554710E+02 -0.68584227657E+03  0.20785824959E+04  0.21901985498E+04  0.50400001928E-02 0.  1.
</event>
<event>
 5   0  0.4764214E-06  0.2802642E+04  0.7818609E-02  0.8302448E-01
       -1   -1    0    0    0  501  0.00000000000E+00  0.00000000000E+00  0.70138784132E+03  0.70138784134E+03  0.50400001928E-02 0.  1.
        1   -1    0    0  501    0  0.00000000000E+00  0.00000000000E+00 -0.27997363335E+04  0.27997363335E+04  0.50400001928E-02 0. -1.
    10030    2    1    2    0    0  0.00000000000E+00  0.00000000000E+00 -0.20983484922E+04  0.35011241749E+04  0.28026423413E+04 0.  0.
        3    1    3    3  502    0  0.12495185485E+04 -0.63012640387E+03 -0.11405053652E+04  0.18053000820E+04  0.10100000352E+00 0. -1.
       -3    1    3    3    0  502 -0.12495185485E+04  0.63012640387E+03 -0.95784312705E+03  0.16958240929E+04  0.10100000352E+00 0.  1.
</event>
<event>
 5   0  0.4764214E-06  0.2821621E+04  0.7818609E-02  0.8296587E-01
       -1   -1    0    0    0  501  0.00000000000E+00  0.00000000000E+00  0.12595781647E+04  0.12595781648E+04  0.50400001928E-02 0.  1.
        1   -1    0    0  501    0  0.00000000000E+00  0.00000000000E+00 -0.15802012249E+04  0.15802012249E+04  0.50400001928E-02 0. -1.
    10030    2    1    2    0    0  0.00000000000E+00  0.00000000000E+00 -0.32062306018E+03  0.28397793897E+04  0.28216214905E+04 0.  0.
        3    1    3    3  502    0 -0.12612193000E+04  0.17154996419E+03  0.45211358273E+03  0.13507443188E+04  0.10100000352E+00 0.  1.
       -3    1    3    3    0  502  0.12612193000E+04 -0.17154996419E+03 -0.77273664291E+03  0.14890350709E+04  0.10100000352E+00 0. -1.
</event>
<event>
 5   0  0.1388269E-05  0.2788780E+04  0.7818609E-02  0.8306760E-01
       -2   -1    0    0    0  501  0.00000000000E+00  0.00000000000E+00  0.28874966886E+04  0.28874966886E+04  0.25500000920E-02 0. -1.
        2   -1    0    0  501    0  0.00000000000E+00  0.00000000000E+00 -0.67335934203E+03  0.67335934204E+03  0.25500000920E-02 0.  1.
    10030    2    1    2    0    0  0.00000000000E+00  0.00000000000E+00  0.22141373466E+04  0.35608560306E+04  0.27887795685E+04 0.  0.
        1    1    3    3  502    0  0.48470190715E+03  0.48830795646E+03  0.26556643460E+04  0.27433435289E+04  0.50400001928E-02 0. -1.
       -1    1    3    3    0  502 -0.48470190715E+03 -0.48830795646E+03 -0.44152699945E+03  0.81751250168E+03  0.50400001928E-02 0.  1.
</event>
<event>
 5   0  0.5281919E-06  0.2818547E+04  0.7818609E-02  0.8297533E-01
       -1   -1    0    0    0  501  0.00000000000E+00  0.00000000000E+00  0.11417927148E+04  0.11417927148E+04  0.50400001928E-02 0. -1.
        1   -1    0    0  501    0  0.00000000000E+00  0.00000000000E+00 -0.17394157700E+04  0.17394157701E+04  0.50400001928E-02 0.  1.
    10030    2    1    2    0    0  0.00000000000E+00  0.00000000000E+00 -0.59762305522E+03  0.28812084849E+04  0.28185473239E+04 0.  0.
        4    1    3    3  502    0 -0.12399788714E+04 -0.26243469712E+03  0.33102845768E+03  0.13099622225E+04  0.12699999809E+01 0. -1.
       -4    1    3    3    0  502  0.12399788714E+04  0.26243469712E+03 -0.92865151290E+03  0.15712462624E+04  0.12699999809E+01 0.  1.
</event>
<event>
 5   0  0.5217999E-06  0.2896349E+04  0.7818609E-02  0.8273965E-01
       -1   -1    0    0    0  501  0.00000000000E+00  0.00000000000E+00  0.18704785833E+04  0.18704785833E+04  0.50400001928E-02 0.  1.
        1   -1    0    0  501    0  0.00000000000E+00  0.00000000000E+00 -0.11212151739E+04  0.11212151739E+04  0.50400001928E-02 0. -1.
    10030    2    1    2    0    0  0.00000000000E+00  0.00000000000E+00  0.74926340941E+03  0.29916937572E+04  0.28963487152E+04 0.  0.
        1    1    3    3  502    0 -0.70513670930E+03  0.56486584132E+03 -0.79440167530E+03  0.12030649273E+04  0.50400001928E-02 0. -1.
       -1    1    3    3    0  502  0.70513670930E+03 -0.56486584132E+03  0.15436650847E+04  0.17886288299E+04  0.50400001928E-02 0.  1.
</event>
<event>
 5   0  0.1302063E-05  0.2783775E+04  0.7818609E-02  0.8308323E-01
        2   -1    0    0  501    0  0.00000000000E+00  0.00000000000E+00  0.25524700228E+04  0.25524700228E+04  0.25500000920E-02 0.  1.
       -2   -1    0    0    0  501  0.00000000000E+00  0.00000000000E+00 -0.75901005647E+03  0.75901005648E+03  0.25500000920E-02 0. -1.
    10030    2    1    2    0    0  0.00000000000E+00  0.00000000000E+00  0.17934599664E+04  0.33114800793E+04  0.27837747152E+04 0.  0.
        2    1    3    3  502    0 -0.77568277874E+03 -0.55579211793E+03  0.21021069956E+04  0.23085585269E+04  0.25500000920E-02 0.  1.
       -2    1    3    3    0  502  0.77568277874E+03  0.55579211793E+03 -0.30864702918E+03  0.10029215524E+04  0.25500000920E-02 0. -1.
</event>
<event>
 5   0  0.4764214E-06  0.2798966E+04  0.7818609E-02  0.8303589E-01
       -1   -1    0    0    0  501  0.00000000000E+00  0.00000000000E+00  0.11651558396E+04  0.11651558396E+04  0.50400001928E-02 0. -1.
        1   -1    0    0  501    0  0.00000000000E+00  0.00000000000E+00 -0.16809365293E+04  0.16809365294E+04  0.50400001928E-02 0.  1.
    10030    2    1    2    0    0  0.00000000000E+00  0.00000000000E+00 -0.51578068973E+03  0.28460923690E+04  0.27989662472E+04 0.  0.
        3    1    3    3  502    0  0.82189444569E+03  0.55041203229E+03 -0.12645533605E+04  0.16054778407E+04  0.10100000352E+00 0.  1.
       -3    1    3    3    0  502 -0.82189444569E+03 -0.55041203229E+03  0.74877267077E+03  0.12406145283E+04  0.10100000352E+00 0. -1.
</event>
<event>
 5   0  0.1350863E-05  0.2829889E+04  0.7818609E-02  0.8294049E-01
        2   -1    0    0  501    0  0.00000000000E+00  0.00000000000E+00  0.15443426004E+04  0.15443426004E+04  0.25500000920E-02 0. -1.
       -2   -1    0    0    0  501  0.00000000000E+00  0.00000000000E+00 -0.12963888197E+04  0.12963888197E+04  0.25500000920E-02 0.  1.
    10030    2    1    2    0    0  0.00000000000E+00  0.00000000000E+00  0.24795378069E+03  0.28407314200E+04  0.28298893836E+04 0.  0.
        3    1    3    3  502    0  0.91499071022E+03  0.10185815768E+04 -0.23425452729E+03  0.13890974128E+04  0.10100000352E+00 0.  1.
       -3    1    3    3    0  502 -0.91499071022E+03 -0.10185815768E+04  0.48220830799E+03  0.14516340072E+04  0.10100000352E+00 0. -1.
</event>
<event>
 5   0  0.5217999E-06  0.2793587E+04  0.7818609E-02  0.8305262E-01
        1   -1    0    0  501    0  0.00000000000E+00  0.00000000000E+00  0.14980799707E+04  0.14980799707E+04  0.50400001928E-02 0. -1.
       -1   -1    0    0    0  501  0.00000000000E+00  0.00000000000E+00 -0.13023551105E+04  0.13023551105E+04  0.50400001928E-02 0.  1.
    10030    2    1    2    0    0  0.00000000000E+00  0.00000000000E+00  0.19572486021E+03  0.28004350812E+04  0.27935870172E+04 0.  0.
        1    1    3    3  502    0  0.11730896735E+04 -0.54821646626E+03 -0.42720722421E+03  0.13635199626E+04  0.50400001928E-02 0.  1.
       -1    1    3    3    0  502 -0.11730896735E+04  0.54821646626E+03  0.62293208443E+03  0.14369151185E+04  0.50400001928E-02 0. -1.
</event>
<event>
 5   0  0.1302063E-05  0.2663765E+04  0.7818609E-02  0.8346858E-01
       -2   -1    0    0    0  501  0.00000000000E+00  0.00000000000E+00  0.11788045545E+04  0.11788045545E+04  0.25500000920E-02 0. -1.
        2   -1    0    0  501    0  0.00000000000E+00  0.00000000000E+00 -0.15048394435E+04  0.15048394435E+04  0.25500000920E-02 0.  1.
    10030    2    1    2    0    0  0.00000000000E+00  0.00000000000E+00 -0.32603488897E+03  0.26836439980E+04  0.26637654475E+04 0.  0.
        2    1    3    3  502    0 -0.12355610966E+04 -0.23082021154E+03  0.28074940306E+03  0.12879089334E+04  0.25500000920E-02 0. -1.
       -2    1    3    3    0  502  0.12355610966E+04  0.23082021154E+03 -0.60678429202E+03  0.13957350646E+04  0.25500000920E-02 0.  1.
</event>
<event>
 5   0  0.5107453E-06  0.2771821E+04  0.7818609E-02  0.8312071E-01
       -1   -1    0    0    0  501  0.00000000000E+00  0.00000000000E+00  0.77931391206E+03  0.77931391208E+03  0.50400001928E-02 0.  1.
        1   -1    0    0  501    0  0.00000000000E+00  0.00000000000E+00 -0.24646649760E+04  0.24646649761E+04  0.50400001928E-02 0. -1.
    10030    2    1    2    0    0  0.00000000000E+00  0.00000000000E+00 -0.16853510640E+04  0.32439788881E+04  0.27718208488E+04 0.  0.
        2    1    3    3  502    0 -0.27033258614E+03  0.12020488602E+04 -0.99949290467E+02  0.12361193430E+04  0.25500000920E-02 0.  1.
       -2    1    3    3    0  502  0.27033258614E+03 -0.12020488602E+04 -0.15854017735E+04  0.20078595451E+04  0.25500000920E-02 0. -1.
</event>
<event>
 5   0  0.1350863E-05  0.2830347E+04  0.7818609E-02  0.8293908E-01
        2   -1    0    0  501    0  0.00000000000E+00  0.00000000000E+00  0.14584828791E+04  0.14584828791E+04  0.25500000920E-02 0. -1.
       -2   -1    0    0    0  501  0.00000000000E+00  0.00000000000E+00 -0.13731501937E+04  0.13731501937E+04  0.25500000920E-02 0.  1.
    10030    2    1    2    0    0  0.00000000000E+00  0.00000000000E+00  0.85332685381E+02  0.28316330728E+04  0.28303470090E+04 0.  0.
        3    1    3    3  502    0  0.42787673097E+03  0.20711007163E+03 -0.12908845458E+04  0.13756293103E+04  0.10100000352E+00 0.  1.
       -3    1    3    3    0  502 -0.42787673097E+03 -0.20711007163E+03  0.13762172312E+04  0.14560037624E+04  0.10100000352E+00 0. -1.
</event>
<event>
 5   0  0.1283052E-05  0.2823274E+04  0.7818609E-02  0.8296079E-01
        2   -1    0    0  501    0  0.00000000000E+00  0.00000000000E+00  0.11628941155E+04  0.11628941155E+04  0.25500000920E-02 0. -1.
       -2   -1    0    0    0  501  0.00000000000E+00  0.00000000000E+00 -0.17135861523E+04  0.17135861523E+04  0.25500000920E-02 0.  1.
    10030    2    1    2    0    0  0.00000000000E+00  0.00000000000E+00 -0.55069203687E+03  0.28764802678E+04  0.28232741652E+04 0.  0.
        5    1    3    3  502    0  0.46970462970E+03 -0.69411579045E+03 -0.14326567763E+04  0.16598032107E+04  0.46999998093E+01 0.  1.
       -5    1    3    3    0  502 -0.46970462970E+03  0.69411579045E+03  0.88196473941E+03  0.12166770571E+04  0.46999998093E+01 0. -1.
</event>
<event>
 5   0  0.5107453E-06  0.2721615E+04  0.7818609E-02  0.8328026E-01
        1   -1    0    0  501    0  0.00000000000E+00  0.00000000000E+00  0.11014704299E+04  0.11014704300E+04  0.50400001928E-02 0. -1.
       -1   -1    0    0    0  501  0.00000000000E+00  0.00000000000E+00 -0.16812047144E+04  0.16812047144E+04  0.50400001928E-02 0.  1.
    10030    2    1    2    0    0  0.00000000000E+00  0.00000000000E+00 -0.57973428448E+03  0.27826751444E+04  0.27216151672E+04 0.  0.
        2    1    3    3  502    0  0.26462068392E+03 -0.83643524255E+03  0.77373542105E+03  0.11697497695E+04  0.25500000920E-02 0. -1.
       -2    1    3    3    0  502 -0.26462068392E+03  0.83643524255E+03 -0.13534697055E+04  0.16129253749E+04  0.25500000920E-02 0.  1.
</event>
<event>
 5   0  0.1350863E-05  0.2659798E+04  0.7818609E-02  0.8348168E-01
       -2   -1    0    0    0  501  0.00000000000E+00  0.00000000000E+00  0.78203651215E+03  0.78203651215E+03  0.25500000920E-02 0.  1.
        2   -1    0    0  501    0  0.00000000000E+00  0.00000000000E+00 -0.22615715599E+04  0.22615715599E+04  0.25500000920E-02 0. -1.
    10030    2    1    2    0    0  0.00000000000E+00  0.00000000000E+00 -0.14795350478E+04  0.30436080721E+04  0.26597981387E+04 0.  0.
        3    1    3    3  502    0 -0.66170689181E+03 -0.84451260474E+03  0.15949095700E+03  0.10846635081E+04  0.10100000352E+00 0.  1.
       -3    1    3    3    0  502  0.66170689181E+03  0.84451260474E+03 -0.16390260048E+04  0.19589445640E+04  0.10100000352E+00 0. -1.
</event>
<event>
 5   0  0.1388269E-05  0.2803200E+04  0.7818609E-02  0.8302276E-01
        2   -1    0    0  501    0  0.00000000000E+00  0.00000000000E+00  0.15923650179E+04  0.15923650179E+04  0.25500000920E-02 0. -1.
       -2   -1    0    0    0  501  0.00000000000E+00  0.00000000000E+00 -0.12336885592E+04  0.12336885592E+04  0.25500000920E-02 0.  1.
    10030    2    1    2    0    0  0.00000000000E+00  0.00000000000E+00  0.35867645866E+03  0.28260535771E+04  0.28031999605E+04 0.  0.
        1    1    3    3  502    0  0.13471436286E+04 -0.36484041382E+03  0.49532860682E+02  0.13965521788E+04  0.50400001928E-02 0. -1.
       -1    1    3    3    0  502 -0.13471436286E+04  0.36484041382E+03  0.30914359798E+03  0.14295013984E+04  0.50400001928E-02 0.  1.
</event>
<event>
 5   0  0.5023691E-06  0.2789445E+04  0.7818609E-02  0.8306553E-01
       -1   -1    0    0    0  501  0.00000000000E+00  0.00000000000E+00  0.11378115762E+04  0.11378115763E+04  0.50400001928E-02 0.  1.
        1   -1    0    0  501    0  0.00000000000E+00  0.00000000000E+00 -0.17096428192E+04  0.17096428192E+04  0.50400001928E-02 0. -1.
    10030    2    1    2    0    0  0.00000000000E+00  0.00000000000E+00 -0.57183124299E+03  0.28474543955E+04  0.27894453865E+04 0.  0.
        5    1    3    3  502    0  0.97586924591E+03 -0.67429055284E+03  0.46299020306E+03  0.12733304963E+04  0.46999998093E+01 0.  1.
       -5    1    3    3    0  502 -0.97586924591E+03  0.67429055284E+03 -0.10348214460E+04  0.15741238992E+04  0.46999998093E+01 0. -1.
</event>
<event>
 5   0  0.1350863E-05  0.2795424E+04  0.7818609E-02  0.8304690E-01
       -2   -1    0    0    0  501  0.00000000000E+00  0.00000000000E+00  0.12523105266E+04  0.12523105266E+04  0.25500000920E-02 0.  1.
        2   -1    0    0  501    0  0.00000000000E+00  0.00000000000E+00 -0.15599957981E+04  0.15599957981E+04  0.25500000920E-02 0. -1.
    10030    2    1    2    0    0  0.00000000000E+00  0.00000000000E+00 -0.30768527142E+03  0.28123063247E+04  0.27954242321E+04 0.  0.
        3    1    3    3  502    0  0.82747427084E+03  0.11114645948E+04  0.30380514640E+02  0.13859979077E+04  0.10100000352E+00 0. -1.
       -3    1    3    3    0  502 -0.82747427084E+03 -0.11114645948E+04 -0.33806578606E+03  0.14263084170E+04  0.10100000352E+00 0.  1.
</event>
<event>
 5   0  0.5281919E-06  0.2737696E+04  0.7818609E-02  0.8322877E-01
       -1   -1    0    0    0  501  0.00000000000E+00  0.00000000000E+00  0.12275730457E+04  0.12275730458E+04  0.50400001928E-02 0.  1.
        1   -1    0    0  501    0  0.00000000000E+00  0.00000000000E+00 -0.15263812973E+04  0.15263812973E+04  0.50400001928E-02 0. -1.
    10030    2    1    2    0    0  0.00000000000E+00  0.00000000000E+00 -0.29880825155E+03  0.27539543431E+04  0.27376957743E+04 0.  0.
        4    1    3    3  502    0 -0.90734934944E+03  0.23205784446E+03  0.85482775613E+03  0.12680164789E+04  0.12699999809E+01 0.  1.
       -4    1    3    3    0  502  0.90734934944E+03 -0.23205784446E+03 -0.11536360077E+04  0.14859378642E+04  0.12699999809E+01 0. -1.
</event>
<event>
 5   0  0.5217999E-06  0.2811827E+04  0.7818609E-02  0.8299606E-01
       -1   -1    0    0    0  501  0.00000000000E+00  0.00000000000E+00  0.98496725722E+03  0.98496725723E+03  0.50400001928E-02 0.  1.
        1   -1    0    0  501    0  0.00000000000E+00  0.00000000000E+00 -0.20067597629E+04  0.20067597629E+04  0.50400001928E-02 0. -1.
    10030    2    1    2    0    0  0.00000000000E+00  0.00000000000E+00 -0.10217925057E+04  0.29917270202E+04  0.28118269218E+04 0.  0.
        1    1    3    3  502    0 -0.41532899754E+03 -0.12134831252E+04 -0.11235427903E+04  0.17051064110E+04  0.50400001928E-02 0. -1.
       -1    1    3    3    0  502  0.41532899754E+03  0.12134831252E+04  0.10175028460E+03  0.12866206091E+04  0.50400001928E-02 0.  1.
</event>
<event>
 5   0  0.4764214E-06  0.2835951E+04  0.7818609E-02  0.8292193E-01
        1   -1    0    0  501    0  0.00000000000E+00  0.00000000000E+00  0.11848494482E+04  0.11848494483E+04  0.50400001928E-02 0.  1.
       -1   -1    0    0    0  501  0.00000000000E+00  0.00000000000E+00 -0.16969706754E+04  0.16969706754E+04  0.50400001928E-02 0. -1.
    10030    2    1    2    0    0  0.00000000000E+00  0.00000000000E+00 -0.51212122716E+03  0.28818201237E+04  0.28359511762E+04 0.  0.
        3    1    3    3  502    0  0.16281821411E+03  0.47709274901E+03  0.10907160925E+04  0.12015776574E+04  0.10100000352E+00 0.  1.
       -3    1    3    3    0  502 -0.16281821411E+03 -0.47709274901E+03 -0.16028373197E+04  0.16802424663E+04  0.10100000352E+00 0. -1.
</event>
<event>
 5   0  0.1330962E-05  0.2681084E+04  0.7818609E-02  0.8341169E-01
       -2   -1    0    0    0  501  0.00000000000E+00  0.00000000000E+00  0.81749025810E+03  0.81749025811E+03  0.25500000920E-02 0.  1.
        2   -1    0    0  501    0  0.00000000000E+00  0.00000000000E+00 -0.21982555364E+04  0.21982555364E+04  0.25500000920E-02 0. -1.
    10030    2    1    2    0    0  0.00000000000E+00  0.00000000000E+00 -0.13807652783E+04  0.30157457945E+04  0.26810837255E+04 0.  0.
        4    1    3    3  502    0  0.44978037911E+02 -0.24915690716E+03 -0.21711171752E+04  0.21858301831E+04  0.12699999809E+01 0. -1.
       -4    1    3    3    0  502 -0.44978037911E+02  0.24915690716E+03  0.79035189685E+03  0.82991561140E+03  0.12699999809E+01 0.  1.
</event>
<event>
 5   0  0.1330962E-05  0.2816032E+04  0.7818609E-02  0.8298308E-01
       -2   -1    0    0    0  501  0.00000000000E+00  0.00000000000E+00  0.13535373312E+04  0.13535373312E+04  0.25500000920E-02 0. -1.
        2   -1    0    0  501    0  0.00000000000E+00  0.00000000000E+00 -0.14646870936E+04  0.14646870936E+04  0.25500000920E-02 0.  1.
    10030    2    1    2    0    0  0.00000000000E+00  0.00000000000E+00 -0.11114976239E+03  0.28182244249E+04  0.28160317184E+04 0.  0.
        4    1    3    3  502    0 -0.10020593436E+04 -0.28106930087E+03  0.89352222937E+03  0.13716801622E+04  0.12699999809E+01 0. -1.
       -4    1    3    3    0  502  0.10020593436E+04  0.28106930087E+03 -0.10046719918E+04  0.14465442627E+04  0.12699999809E+01 0.  1.
</event>
<event>
 5   0  0.5107453E-06  0.2701710E+04  0.7818609E-02  0.8334450E-01
       -1   -1    0    0    0  501  0.00000000000E+00  0.00000000000E+00  0.10422702350E+04  0.10422702350E+04  0.50400001928E-02 0. -1.
        1   -1    0    0  501    0  0.00000000000E+00  0.00000000000E+00 -0.17508029412E+04  0.17508029412E+04  0.50400001928E-02 0.  1.
    10030    2    1    2    0    0  0.00000000000E+00  0.00000000000E+00 -0.70853270621E+03  0.27930731762E+04  0.27017104160E+04 0.  0.
        2    1    3    3  502    0  0.82790453475E+03 -0.60632523487E+03 -0.12624691695E+04  0.16269248947E+04  0.25500000920E-02 0.  1.
       -2    1    3    3    0  502 -0.82790453475E+03  0.60632523487E+03  0.55393646330E+03  0.11661482815E+04  0.25500000920E-02 0. -1.
</event>
<event>
 5   0  0.4764214E-06  0.2800568E+04  0.7818609E-02  0.8303092E-01
        1   -1    0    0  501    0  0.00000000000E+00  0.00000000000E+00  0.15126059184E+04  0.15126059184E+04  0.50400001928E-02 0. -1.
       -1   -1    0    0    0  501  0.00000000000E+00  0.00000000000E+00 -0.12963029642E+04  0.12963029642E+04  0.50400001928E-02 0.  1.
    10030    2    1    2    0    0  0.00000000000E+00  0.00000000000E+00  0.21630295423E+03  0.28089088826E+04  0.28005681821E+04 0.  0.
        3    1    3    3  502    0 -0.87141378444E+03 -0.36624105919E+03  0.11443309035E+04  0.14842465173E+04  0.10100000352E+00 0. -1.
       -3    1    3    3    0  502  0.87141378444E+03  0.36624105919E+03 -0.92802794929E+03  0.13246623653E+04  0.10100000352E+00 0.  1.
</event>
<event>
 5   0  0.5023691E-06  0.2818682E+04  0.7818609E-02  0.8297492E-01
        1   -1    0    0  501    0  0.00000000000E+00  0.00000000000E+00  0.63232009531E+03  0.63232009533E+03  0.50400001928E-02 0. -1.
       -1   -1    0    0    0  501  0.00000000000E+00  0.00000000000E+00 -0.31411976482E+04  0.31411976482E+04  0.50400001928E-02 0.  1.
    10030    2    1    2    0    0  0.00000000000E+00  0.00000000000E+00 -0.25088775529E+04  0.37735177435E+04  0.28186822427E+04 0.  0.
        5    1    3    3  502    0  0.44955038406E+03 -0.47834717006E+03  0.41514641352E+03  0.77671114166E+03  0.46999998093E+01 0. -1.
       -5    1    3    3    0  502 -0.44955038406E+03  0.47834717006E+03 -0.29240239664E+04  0.29968066019E+04  0.46999998093E+01 0.  1.
</event>
<event>
 5   0  0.1302063E-05  0.2793679E+04  0.7818609E-02  0.8305234E-01
       -2   -1    0    0    0  501  0.00000000000E+00  0.00000000000E+00  0.11592657866E+04  0.11592657866E+04  0.25500000920E-02 0.  1.
        2   -1    0    0  501    0  0.00000000000E+00  0.00000000000E+00 -0.16831001083E+04  0.16831001083E+04  0.25500000920E-02 0. -1.
    10030    2    1    2    0    0  0.00000000000E+00  0.00000000000E+00 -0.52383432165E+03  0.28423658949E+04  0.27936788441E+04 0.  0.
        2    1    3    3  502    0  0.10662879518E+04  0.40535630667E+03 -0.10821156548E+04  0.15723415729E+04  0.25500000920E-02 0. -1.
       -2    1    3    3    0  502 -0.10662879518E+04 -0.40535630667E+03  0.55828133312E+03  0.12700243220E+04  0.25500000920E-02 0.  1.
</event>
<event>
 5   0  0.1350863E-05  0.2825402E+04  0.7818609E-02  0.8295425E-01
       -2   -1    0    0    0  501  0.00000000000E+00  0.00000000000E+00  0.14470118421E+04  0.14470118421E+04  0.25500000920E-02 0. -1.
        2   -1    0    0  501    0  0.00000000000E+00  0.00000000000E+00 -0.13792037899E+04  0.13792037899E+04  0.25500000920E-02 0.  1.
    10030    2    1    2    0    0  0.00000000000E+00  0.00000000000E+00  0.67808052255E+02  0.28262156320E+04  0.28254020717E+04 0.  0.
        3    1    3    3  502    0 -0.10129452220E+04  0.65504480908E+03  0.76935888038E+03  0.14307532358E+04  0.10100000352E+00 0. -1.
       -3    1    3    3    0  502  0.10129452220E+04 -0.65504480908E+03 -0.70155082812E+03  0.13954623962E+04  0.10100000352E+00 0.  1.
</event>
<event>
 5   0  0.1388269E-05  0.2709323E+04  0.7818609E-02  0.8331986E-01
        2   -1    0    0  501    0  0.00000000000E+00  0.00000000000E+00  0.13385004614E+04  0.13385004614E+04  0.25500000920E-02 0.  1.
       -2   -1    0    0    0  501  0.00000000000E+00  0.00000000000E+00 -0.13710175332E+04  0.13710175332E+04  0.25500000920E-02 0. -1.
    10030    2    1    2    0    0  0.00000000000E+00  0.00000000000E+00 -0.32517071851E+02  0.27095179946E+04  0.27093228680E+04 0.  0.
        1    1    3    3  502    0  0.32210934677E+03  0.80498974181E+03 -0.10571719505E+04  0.13672510554E+04  0.50400001928E-02 0. -1.
       -1    1    3    3    0  502 -0.32210934677E+03 -0.80498974181E+03  0.10246548786E+04  0.13422669392E+04  0.50400001928E-02 0.  1.
</event>
<event>
 5   0  0.1302063E-05  0.2522495E+04  0.7818609E-02  0.8395015E-01
        2   -1    0    0  501    0  0.00000000000E+00  0.00000000000E+00  0.64932517904E+03  0.64932517905E+03  0.25500000920E-02 0.  1.
       -2   -1    0    0    0  501  0.00000000000E+00  0.00000000000E+00 -0.24498439319E+04  0.24498439319E+04  0.25500000920E-02 0. -1.
    10030    2    1    2    0    0  0.00000000000E+00  0.00000000000E+00 -0.18005187528E+04  0.30991691109E+04  0.25224950741E+04 0.  0.
        2    1    3    3  502    0 -0.23215566027E+03  0.11277255210E+04 -0.15328269262E+04  0.19170861970E+04  0.25500000920E-02 0.  1.
       -2    1    3    3    0  502  0.23215566027E+03 -0.11277255210E+04 -0.26769182662E+03  0.11820829139E+04  0.25500000920E-02 0. -1.
</event>
<event>
 5   0  0.1350863E-05  0.2783447E+04  0.7818609E-02  0.8308426E-01
       -2   -1    0    0    0  501  0.00000000000E+00  0.00000000000E+00  0.20076928672E+04  0.20076928672E+04  0.25500000920E-02 0. -1.
        2   -1    0    0  501    0  0.00000000000E+00  0.00000000000E+00 -0.96473647808E+03  0.96473647809E+03  0.25500000920E-02 0.  1.
    10030    2    1    2    0    0  0.00000000000E+00  0.00000000000E+00  0.10429563891E+04  0.29724293453E+04  0.27834471763E+04 0.  0.
        3    1    3    3  502    0 -0.27044961353E+03  0.12925637546E+03  0.19728116819E+04  0.19954538698E+04  0.10100000352E+00 0. -1.
       -3    1    3    3    0  502  0.27044961353E+03 -0.12925637546E+03 -0.92985529277E+03  0.97697547551E+03  0.10100000352E+00 0.  1.
</event>
<event>
 5   0  0.4764214E-06  0.2838407E+04  0.7818609E-02  0.8291443E-01
        1   -1    0    0  501    0  0.00000000000E+00  0.00000000000E+00  0.81160617635E+03  0.81160617636E+03  0.50400001928E-02 0. -1.
       -1   -1    0    0    0  501  0.00000000000E+00  0.00000000000E+00 -0.24816705343E+04  0.24816705343E+04  0.50400001928E-02 0.  1.
    10030    2    1    2    0    0  0.00000000000E+00  0.00000000000E+00 -0.16700643580E+04  0.32932767107E+04  0.28384073938E+04 0.  0.
        3    1    3    3  502    0  0.10589460540E+02  0.14187326490E+04 -0.87563542695E+03  0.16672288016E+04  0.10100000352E+00 0.  1.
       -3    1    3    3    0  502 -0.10589460540E+02 -0.14187326490E+04 -0.79442893103E+03  0.16260479091E+04  0.10100000352E+00 0. -1.
</event>
<event>
 5   0  0.1283052E-05  0.2402400E+04  0.7818609E-02  0.8438605E-01
        2   -1    0    0  501    0  0.00000000000E+00  0.00000000000E+00  0.87780360595E+03  0.87780360595E+03  0.25500000920E-02 0. -1.
       -2   -1    0    0    0  501  0.00000000000E+00  0.00000000000E+00 -0.16437409345E+04  0.16437409345E+04  0.25500000920E-02 0.  1.
    10030    2    1    2    0    0  0.00000000000E+00  0.00000000000E+00 -0.76593732859E+03  0.25215445405E+04  0.24024002328E+04 0.  0.
        5    1    3    3  502    0  0.40580972106E+03  0.16600805367E+03 -0.15567409954E+04  0.16173140760E+04  0.46999998093E+01 0.  1.
       -5    1    3    3    0  502 -0.40580972106E+03 -0.16600805367E+03  0.79080366679E+03  0.90423046454E+03  0.46999998093E+01 0. -1.
</event>
<event>
 5   0  0.5023691E-06  0.2780051E+04  0.7818609E-02  0.8309489E-01
       -1   -1    0    0    0  501  0.00000000000E+00  0.00000000000E+00  0.12262626205E+04  0.12262626205E+04  0.50400001928E-02 0.  1.
        1   -1    0    0  501    0  0.00000000000E+00  0.00000000000E+00 -0.15756581142E+04  0.15756581142E+04  0.50400001928E-02 0. -1.
    10030    2    1    2    0    0  0.00000000000E+00  0.00000000000E+00 -0.34939549373E+03  0.28019207347E+04  0.27800508256E+04 0.  0.
        5    1    3    3  502    0  0.15014163072E+03 -0.12513492848E+04  0.41620018541E+03  0.13272762434E+04  0.46999998093E+01 0.  1.
       -5    1    3    3    0  502 -0.15014163072E+03  0.12513492848E+04 -0.76559567915E+03  0.14746444913E+04  0.46999998093E+01 0. -1.
</event>
<event>
 5   0  0.4764214E-06  0.2855582E+04  0.7818609E-02  0.8286217E-01
       -1   -1    0    0    0  501  0.00000000000E+00  0.00000000000E+00  0.18639733640E+04  0.18639733640E+04  0.50400001928E-02 0.  1.
        1   -1    0    0  501    0  0.00000000000E+00  0.00000000000E+00 -0.10936779536E+04  0.10936779536E+04  0.50400001928E-02 0. -1.
    10030    2    1    2    0    0  0.00000000000E+00  0.00000000000E+00  0.77029541033E+03  0.29576513176E+04  0.28555816040E+04 0.  0.
        3    1    3    3  502    0  0.78602395229E+03  0.78049777292E+03  0.13182237331E+04  0.17218374626E+04  0.10100000352E+00 0.  1.
       -3    1    3    3    0  502 -0.78602395229E+03 -0.78049777292E+03 -0.54792832273E+03  0.12358138550E+04  0.10100000352E+00 0. -1.
</event>
<event>
 5   0  0.1350863E-05  0.2835733E+04  0.7818609E-02  0.8292260E-01
        2   -1    0    0  501    0  0.00000000000E+00  0.00000000000E+00  0.22766050072E+04  0.22766050072E+04  0.25500000920E-02 0.  1.
       -2   -1    0    0    0  501  0.00000000000E+00  0.00000000000E+00 -0.88304518368E+03  0.88304518368E+03  0.25500000920E-02 0. -1.
    10030    2    1    2    0    0  0.00000000000E+00  0.00000000000E+00  0.13935598235E+04  0.31596501909E+04  0.28357327707E+04 0.  0.
        3    1    3    3  502    0 -0.23648299399E+03 -0.13280793355E+04  0.21029996967E+03  0.13652637164E+04  0.10100000352E+00 0.  1.
       -3    1    3    3    0  502  0.23648299399E+03  0.13280793355E+04  0.11832598538E+04  0.17943864745E+04  0.10100000352E+00 0. -1.
</event>
<event>
 5   0  0.5217999E-06  0.2950708E+04  0.7818609E-02  0.8257948E-01
       -1   -1    0    0    0  501  0.00000000000E+00  0.00000000000E+00  0.14856602922E+04  0.14856602922E+04  0.50400001928E-02 0.  1.
        1   -1    0    0  501    0  0.00000000000E+00  0.00000000000E+00 -0.14651187396E+04  0.14651187396E+04  0.50400001928E-02 0. -1.
    10030    2    1    2    0    0  0.00000000000E+00  0.00000000000E+00  0.20541552612E+02  0.29507790318E+04  0.29507075320E+04 0.  0.
        1    1    3    3  502    0  0.13731215342E+04  0.66786394293E+02 -0.52522848732E+03  0.14716616914E+04  0.50400001928E-02 0. -1.
       -1    1    3    3    0  502 -0.13731215342E+04 -0.66786394293E+02  0.54577003993E+03  0.14791173404E+04  0.50400001928E-02 0.  1.
</event>
<event>
 5   0  0.4764214E-06  0.2797748E+04  0.7818609E-02  0.8303968E-01
        1   -1    0    0  501    0  0.00000000000E+00  0.00000000000E+00  0.24238633922E+04  0.24238633922E+04  0.50400001928E-02 0. -1.
       -1   -1    0    0    0  501  0.00000000000E+00  0.00000000000E+00 -0.80732607465E+03  0.80732607467E+03  0.50400001928E-02 0.  1.
    10030    2    1    2    0    0  0.00000000000E+00  0.00000000000E+00  0.16165373176E+04  0.32311894669E+04  0.27977477499E+04 0.  0.
        3    1    3    3  502    0  0.71366547290E+02 -0.14404252088E+03  0.24131604545E+04  0.24185088012E+04  0.10100000352E+00 0. -1.
       -3    1    3    3    0  502 -0.71366547290E+02  0.14404252088E+03 -0.79662313696E+03  0.81268066571E+03  0.10100000352E+00 0.  1.
</event>
<event>
 5   0  0.5107453E-06  0.2793087E+04  0.7818609E-02  0.8305418E-01
       -1   -1    0    0    0  501  0.00000000000E+00  0.00000000000E+00  0.11985101769E+04  0.11985101769E+04  0.50400001928E-02 0. -1.
        1   -1    0    0  501    0  0.00000000000E+00  0.00000000000E+00 -0.16272979951E+04  0.16272979951E+04  0.50400001928E-02 0.  1.
    10030    2    1    2    0    0  0.00000000000E+00  0.00000000000E+00 -0.42878781818E+03  0.28258081720E+04  0.27930866138E+04 0.  0.
        2    1    3    3  502    0  0.59006426106E+03 -0.15883006819E+03  0.10560764411E+04  0.12201230562E+04  0.25500000920E-02 0. -1.
       -2    1    3    3    0  502 -0.59006426106E+03  0.15883006819E+03 -0.14848642593E+04  0.16056851158E+04  0.25500000920E-02 0.  1.
</event>
<event>
 5   0  0.5023691E-06  0.2740585E+04  0.7818609E-02  0.8321955E-01
       -1   -1    0    0    0  501  0.00000000000E+00  0.00000000000E+00  0.18655388969E+04  0.18655388970E+04  0.50400001928E-02 0. -1.
        1   -1    0    0  501    0  0.00000000000E+00  0.00000000000E+00 -0.10065195345E+04  0.10065195345E+04  0.50400001928E-02 0.  1.
    10030    2    1    2    0    0  0.00000000000E+00  0.00000000000E+00  0.85901936244E+03  0.28720584315E+04  0.27405848589E+04 0.  0.
        5    1    3    3  502    0 -0.12446702500E+04  0.11866877388E+03 -0.15809657602E+03  0.12602789082E+04  0.46999998093E+01 0.  1.
       -5    1    3    3    0  502  0.12446702500E+04 -0.11866877388E+03  0.10171159385E+04  0.16117795232E+04  0.46999998093E+01 0. -1.
</event>
<event>
 5   0  0.1330962E-05  0.2798030E+04  0.7818609E-02  0.8303880E-01
       -2   -1    0    0    0  501  0.00000000000E+00  0.00000000000E+00  0.97269505497E+03  0.97269505498E+03  0.25500000920E-02 0. -1.
        2   -1    0    0  501    0  0.00000000000E+00  0.00000000000E+00 -0.20121859580E+04  0.20121859580E+04  0.25500000920E-02 0.  1.
    10030    2    1    2    0    0  0.00000000000E+00  0.00000000000E+00 -0.10394909030E+04  0.29848810130E+04  0.27980302579E+04 0.  0.
        4    1    3    3  502    0 -0.51945402023E+03 -0.11360292674E+04 -0.11917713756E+04  0.17264749057E+04  0.12699999809E+01 0.  1.
       -4    1    3    3    0  502  0.51945402023E+03  0.11360292674E+04  0.15228047262E+03  0.12584061072E+04  0.12699999809E+01 0. -1.
</event>
<event>
 5   0  0.1388269E-05  0.3153266E+04  0.7818609E-02  0.8201270E-01
       -2   -1    0    0    0  501  0.00000000000E+00  0.00000000000E+00  0.15117290606E+04  0.15117290606E+04  0.25500000920E-02 0. -1.
        2   -1    0    0  501    0  0.00000000000E+00  0.00000000000E+00 -0.16443233472E+04  0.16443233472E+04  0.25500000920E-02 0.  1.
    10030    2    1    2    0    0  0.00000000000E+00  0.00000000000E+00 -0.13259428659E+03  0.31560524077E+04  0.31532658555E+04 0.  0.
        1    1    3    3  502    0  0.11996075293E+04 -0.22325722057E+03 -0.10656129245E+04  0.16200101591E+04  0.50400001928E-02 0.  1.
       -1    1    3    3    0  502 -0.11996075293E+04  0.22325722057E+03  0.93301863787E+03  0.15360422486E+04  0.50400001928E-02 0. -1.
</event>
<event>
 5   0  0.5281919E-06  0.2836372E+04  0.7818609E-02  0.8292064E-01
       -1   -1    0    0    0  501  0.00000000000E+00  0.00000000000E+00  0.81386053560E+03  0.81386053561E+03  0.50400001928E-02 0.  1.
        1   -1    0    0  501    0  0.00000000000E+00  0.00000000000E+00 -0.24712485721E+04  0.24712485721E+04  0.50400001928E-02 0. -1.
    10030    2    1    2    0    0  0.00000000000E+00  0.00000000000E+00 -0.16573880365E+04  0.32851091077E+04  0.28363721100E+04 0.  0.
        4    1    3    3  502    0 -0.74649395471E+03 -0.82380453038E+03 -0.18485374700E+04  0.21570812501E+04  0.12699999809E+01 0. -1.
       -4    1    3    3    0  502  0.74649395471E+03  0.82380453038E+03  0.19114943350E+03  0.11280278576E+04  0.12699999809E+01 0.  1.
</event>
<event>
 5   0  0.1302063E-05  0.2815462E+04  0.7818609E-02  0.8298484E-01
        2   -1    0    0  501    0  0.00000000000E+00  0.00000000000E+00  0.23399986388E+04  0.23399986388E+04  0.25500000920E-02 0.  1.
       -2   -1    0    0    0  501  0.00000000000E+00  0.00000000000E+00 -0.84688393113E+03  0.84688393113E+03  0.25500000920E-02 0. -1.
    10030    2    1    2    0    0  0.00000000000E+00  0.00000000000E+00  0.14931147076E+04  0.31868825699E+04  0.28154624814E+04 0.  0.
        2    1    3    3  502    0  0.49237448013E+03  0.97827596390E+03  0.17476846719E+04  0.20624883521E+04  0.25500000920E-02 0.  1.
       -2    1    3    3    0  502 -0.49237448013E+03 -0.97827596390E+03 -0.25456996428E+03  0.11243942178E+04  0.25500000920E-02 0. -1.
</event>
<event>
 5   0  0.5023691E-06  0.2734489E+04  0.7818609E-02  0.8323901E-01
       -1   -1    0    0    0  501  0.00000000000E+00  0.00000000000E+00  0.23265608319E+04  0.23265608320E+04  0.50400001928E-02 0.  1.
        1   -1    0    0  501    0  0.00000000000E+00  0.00000000000E+00 -0.80348526122E+03  0.80348526124E+03  0.50400001928E-02 0. -1.
    10030    2    1    2    0    0  0.00000000000E+00  0.00000000000E+00  0.15230755707E+04  0.31300460932E+04  0.27344888647E+04 0.  0.
        5    1    3    3  502    0 -0.38691801281E+03  0.91108065851E+03  0.18411371491E+04  0.20903544213E+04  0.46999998093E+01 0.  1.
       -5    1    3    3    0  502  0.38691801281E+03 -0.91108065851E+03 -0.31806157836E+03  0.10396916719E+04  0.46999998093E+01 0. -1.
</event>
<event>
 5   0  0.1302063E-05  0.2787156E+04  0.7818609E-02  0.8307267E-01
       -2   -1    0    0    0  501  0.00000000000E+00  0.00000000000E+00  0.11784985887E+04  0.11784985887E+04  0.25500000920E-02 0.  1.
        2   -1    0    0  501    0  0.00000000000E+00  0.00000000000E+00 -0.16479098170E+04  0.16479098170E+04  0.25500000920E-02 0. -1.
    10030    2    1    2    0    0  0.00000000000E+00  0.00000000000E+00 -0.46941122824E+03  0.28264084057E+04  0.27871558217E+04 0.  0.
        2    1    3    3  502    0 -0.44075284045E+03  0.72618266341E+03 -0.13550062019E+04  0.15992642478E+04  0.25500000920E-02 0. -1.
       -2    1    3    3    0  502  0.44075284045E+03 -0.72618266341E+03  0.88559497365E+03  0.12271441579E+04  0.25500000920E-02 0.  1.
</event>
<event>
 5   0  0.5281919E-06  0.2753275E+04  0.7818609E-02  0.8317923E-01
        1   -1    0    0  501    0  0.00000000000E+00  0.00000000000E+00  0.17438026713E+04  0.17438026714E+04  0.50400001928E-02 0. -1.
       -1   -1    0    0    0  501  0.00000000000E+00  0.00000000000E+00 -0.10867803583E+04  0.10867803583E+04  0.50400001928E-02 0.  1.
    10030    2    1    2    0    0  0.00000000000E+00  0.00000000000E+00  0.65702231305E+03  0.28305830297E+04  0.27532747716E+04 0.  0.
        4    1    3    3  502    0  0.80881140046E+03  0.19204909557E+03 -0.79960089011E+03  0.11534391761E+04  0.12699999809E+01 0.  1.
       -4    1    3    3    0  502 -0.80881140046E+03 -0.19204909557E+03  0.14566232032E+04  0.16771438536E+04  0.12699999809E+01 0. -1.
</event>
<event>
 5   0  0.5281919E-06  0.2803296E+04  0.7818609E-02  0.8302246E-01
        1   -1    0    0  501    0  0.00000000000E+00  0.00000000000E+00  0.82264893455E+03  0.82264893456E+03  0.50400001928E-02 0.  1.
       -1   -1    0    0    0  501  0.00000000000E+00  0.00000000000E+00 -0.23881598476E+04  0.23881598476E+04  0.50400001928E-02 0. -1.
    10030    2    1    2    0    0  0.00000000000E+00  0.00000000000E+00 -0.15655109131E+04  0.32108087822E+04  0.28032960273E+04 0.  0.
        4    1    3    3  502    0  0.39312613973E+03  0.12828054688E+04 -0.31824152879E+03  0.13789188940E+04  0.12699999809E+01 0.  1.
       -4    1    3    3    0  502 -0.39312613973E+03 -0.12828054688E+04 -0.12472693843E+04  0.18318898882E+04  0.12699999809E+01 0. -1.
</event>
<event>
 5   0  0.5107453E-06  0.2770676E+04  0.7818609E-02  0.8312431E-01
        1   -1    0    0  501    0  0.00000000000E+00  0.00000000000E+00  0.12438344538E+04  0.12438344539E+04  0.50400001928E-02 0. -1.
       -1   -1    0    0    0  501  0.00000000000E+00  0.00000000000E+00 -0.15429391946E+04  0.15429391946E+04  0.50400001928E-02 0.  1.
    10030    2    1    2    0    0  0.00000000000E+00  0.00000000000E+00 -0.29910474072E+03  0.27867736484E+04  0.27706756796E+04 0.  0.
        2    1    3    3  502    0 -0.13357793980E+04  0.21837795860E+03 -0.44650560479E+03  0.14252588495E+04  0.25500000920E-02 0.  1.
       -2    1    3    3    0  502  0.13357793980E+04 -0.21837795860E+03  0.14740086407E+03  0.13615147989E+04  0.25500000920E-02 0. -1.
</event>
<event>
 5   0  0.1302063E-05  0.2876162E+04  0.7818609E-02  0.8280006E-01
       -2   -1    0    0    0  501  0.00000000000E+00  0.00000000000E+00  0.10803322026E+04  0.10803322026E+04  0.25500000920E-02 0.  1.
        2   -1    0    0  501    0  0.00000000000E+00  0.00000000000E+00 -0.19142968825E+04  0.19142968825E+04  0.25500000920E-02 0. -1.
    10030    2    1    2    0    0  0.00000000000E+00  0.00000000000E+00 -0.83396467998E+03  0.29946290851E+04  0.28761617253E+04 0.  0.
        2    1    3    3  502    0 -0.11462525406E+04 -0.18009347834E+03  0.46756796427E+03  0.12509789563E+04  0.25500000920E-02 0.  1.
       -2    1    3    3    0  502  0.11462525406E+04  0.18009347834E+03 -0.13015326442E+04  0.17436501288E+04  0.25500000920E-02 0. -1.
</event>
<event>
 5   0  0.5023691E-06  0.2826177E+04  0.7818609E-02  0.8295187E-01
       -1   -1    0    0    0  501  0.00000000000E+00  0.00000000000E+00  0.12156412290E+04  0.12156412290E+04  0.50400001928E-02 0. -1.
        1   -1    0    0  501    0  0.00000000000E+00  0.00000000000E+00 -0.16426059660E+04  0.16426059660E+04  0.50400001928E-02 0.  1.
    10030    2    1    2    0    0  0.00000000000E+00  0.00000000000E+00 -0.42696473701E+03  0.28582471949E+04  0.28261773017E+04 0.  0.
        5    1    3    3  502    0  0.34088954215E+03 -0.44960909454E+03  0.10967663263E+04  0.12333987524E+04  0.46999998093E+01 0. -1.
       -5    1    3    3    0  502 -0.34088954215E+03  0.44960909454E+03 -0.15237310633E+04  0.16248484425E+04  0.46999998093E+01 0.  1.
</event>
<event>
 5   0  0.1283052E-05  0.2873907E+04  0.7818609E-02  0.8280684E-01
       -2   -1    0    0    0  501  0.00000000000E+00  0.00000000000E+00  0.15118359020E+04  0.15118359020E+04  0.25500000920E-02 0.  1.
        2   -1    0    0  501    0  0.00000000000E+00  0.00000000000E+00 -0.13657798624E+04  0.13657798624E+04  0.25500000920E-02 0. -1.
    10030    2    1    2    0    0  0.00000000000E+00  0.00000000000E+00  0.14605603965E+03  0.28776157644E+04  0.28739067697E+04 0.  0.
        5    1    3    3  502    0  0.12466543516E+04  0.57040917591E+02  0.78627605143E+03  0.14750094432E+04  0.46999998093E+01 0.  1.
       -5    1    3    3    0  502 -0.12466543516E+04 -0.57040917591E+02 -0.64022001178E+03  0.14026063211E+04  0.46999998093E+01 0. -1.
</event>
<event>
 5   0  0.1283052E-05  0.2786741E+04  0.7818609E-02  0.8307397E-01
       -2   -1    0    0    0  501  0.00000000000E+00  0.00000000000E+00  0.12686518867E+04  0.12686518867E+04  0.25500000920E-02 0.  1.
        2   -1    0    0  501    0  0.00000000000E+00  0.00000000000E+00 -0.15303499078E+04  0.15303499078E+04  0.25500000920E-02 0. -1.
    10030    2    1    2    0    0  0.00000000000E+00  0.00000000000E+00 -0.26169802107E+03  0.27990017944E+04  0.27867409623E+04 0.  0.
        5    1    3    3  502    0  0.57195328528E+03 -0.12227855068E+04  0.21581333268E+03  0.13670890390E+04  0.46999998093E+01 0.  1.
       -5    1    3    3    0  502 -0.57195328528E+03  0.12227855068E+04 -0.47751135375E+03  0.14319127554E+04  0.46999998093E+01 0. -1.
</event>
<event>
 5   0  0.1330962E-05  0.2748266E+04  0.7818609E-02  0.8319512E-01
        2   -1    0    0  501    0  0.00000000000E+00  0.00000000000E+00  0.12989145771E+04  0.12989145772E+04  0.25500000920E-02 0.  1.
       -2   -1    0    0    0  501  0.00000000000E+00  0.00000000000E+00 -0.14537076451E+04  0.14537076451E+04  0.25500000920E-02 0. -1.
    10030    2    1    2    0    0  0.00000000000E+00  0.00000000000E+00 -0.15479306798E+03  0.27526222223E+04  0.27482663999E+04 0.  0.
        4    1    3    3  502    0  0.39819086920E+03  0.10035030685E+04  0.77404849276E+03  0.13284302989E+04  0.12699999809E+01 0.  1.
       -4    1    3    3    0  502 -0.39819086920E+03 -0.10035030685E+04 -0.92884156074E+03  0.14241919234E+04  0.12699999809E+01 0. -1.
</event>
<event>
 5   0  0.5281919E-06  0.2825367E+04  0.7818609E-02  0.8295436E-01
       -1   -1    0    0    0  501  0.00000000000E+00  0.00000000000E+00  0.73062507339E+03  0.73062507340E+03  0.50400001928E-02 0.  1.
        1   -1    0    0  501    0  0.00000000000E+00  0.00000000000E+00 -0.27314624271E+04  0.27314624271E+04  0.50400001928E-02 0. -1.
    10030    2    1    2    0    0  0.00000000000E+00  0.00000000000E+00 -0.20008373537E+04  0.34620875005E+04  0.28253671877E+04 0.  0.
        4    1    3    3  502    0  0.13409412324E+04  0.54827526526E+02 -0.15408890920E+04  0.20433967440E+04  0.12699999809E+01 0. -1.
       -4    1    3    3    0  502 -0.13409412324E+04 -0.54827526526E+02 -0.45994826172E+03  0.14186907566E+04  0.12699999809E+01 0.  1.
</event>
<event>
 5   0  0.5107453E-06  0.2809879E+04  0.7818609E-02  0.8300208E-01
        1   -1    0    0  501    0  0.00000000000E+00  0.00000000000E+00  0.19922786160E+04  0.19922786160E+04  0.50400001928E-02 0. -1.
       -1   -1    0    0    0  501  0.00000000000E+00  0.00000000000E+00 -0.99075257066E+03  0.99075257067E+03  0.50400001928E-02 0.  1.
    10030    2    1    2    0    0  0.00000000000E+00  0.00000000000E+00  0.10015260454E+04  0.29830311867E+04  0.28098791151E+04 0.  0.
        2    1    3    3  502    0  0.11622865765E+02  0.13841236150E+04  0.24526266549E+03  0.14057336332E+04  0.25500000920E-02 0.  1.
       -2    1    3    3    0  502 -0.11622865765E+02 -0.13841236150E+04  0.75626337988E+03  0.15772975535E+04  0.25500000920E-02 0. -1.
</event>
<event>
 5   0  0.1302063E-05  0.2779151E+04  0.7818609E-02  0.8309771E-01
        2   -1    0    0  501    0  0.00000000000E+00  0.00000000000E+00  0.24710917390E+04  0.24710917390E+04  0.25500000920E-02 0.  1.
       -2   -1    0    0    0  501  0.00000000000E+00  0.00000000000E+00 -0.78140337913E+03  0.78140337913E+03  0.25500000920E-02 0. -1.
    10030    2    1    2    0    0  0.00000000000E+00  0.00000000000E+00  0.16896883599E+04  0.32524951181E+04  0.27791505429E+04 0.  0.
        2    1    3    3  502    0  0.48013208383E+03  0.51149420932E+03 -0.55893794448E+03  0.89697534519E+03  0.25500000920E-02 0. -1.
       -2    1    3    3    0  502 -0.48013208383E+03 -0.51149420932E+03  0.22486263043E+04  0.23555197729E+04  0.25500000920E-02 0.  1.
</event>
<event>
 5   0  0.5107453E-06  0.2779207E+04  0.7818609E-02  0.8309753E-01
        1   -1    0    0  501    0  0.00000000000E+00  0.00000000000E+00  0.22087616983E+04  0.22087616983E+04  0.50400001928E-02 0.  1.
       -1   -1    0    0    0  501  0.00000000000E+00  0.00000000000E+00 -0.87424476758E+03  0.87424476759E+03  0.50400001928E-02 0. -1.
    10030    2    1    2    0    0  0.00000000000E+00  0.00000000000E+00  0.13345169307E+04  0.30830064659E+04  0.27792073385E+04 0.  0.
        2    1    3    3  502    0 -0.72122739438E+03 -0.16355036542E+03  0.19723296211E+04  0.21064191915E+04  0.25500000920E-02 0.  1.
       -2    1    3    3    0  502  0.72122739438E+03  0.16355036542E+03 -0.63781269034E+03  0.97658727434E+03  0.25500000920E-02 0. -1.
</event>
<event>
 5   0  0.1350863E-05  0.2695534E+04  0.7818609E-02  0.8336456E-01
       -2   -1    0    0    0  501  0.00000000000E+00  0.00000000000E+00  0.10852102471E+04  0.10852102471E+04  0.25500000920E-02 0. -1.
        2   -1    0    0  501    0  0.00000000000E+00  0.00000000000E+00 -0.16738465465E+04  0.16738465465E+04  0.25500000920E-02 0.  1.
    10030    2    1    2    0    0  0.00000000000E+00  0.00000000000E+00 -0.58863629938E+03  0.27590567936E+04  0.26955336573E+04 0.  0.
        3    1    3    3  502    0  0.10703684121E+04  0.51988764772E+03 -0.94208564760E+03  0.15177276045E+04  0.10100000352E+00 0.  1.
       -3    1    3    3    0  502 -0.10703684121E+04 -0.51988764772E+03  0.35344934822E+03  0.12413291891E+04  0.10100000352E+00 0. -1.
</event>
<event>
 5   0  0.1283052E-05  0.2783362E+04  0.7818609E-02  0.8308452E-01
        2   -1    0    0  501    0  0.00000000000E+00  0.00000000000E+00  0.13836390562E+04  0.13836390562E+04  0.25500000920E-02 0. -1.
       -2   -1    0    0    0  501  0.00000000000E+00  0.00000000000E+00 -0.13997699994E+04  0.13997699994E+04  0.25500000920E-02 0.  1.
    10030    2    1    2    0    0  0.00000000000E+00  0.00000000000E+00 -0.16130943232E+02  0.27834090556E+04  0.27833623127E+04 0.  0.
        5    1    3    3  502    0  0.68826489946E+03  0.95370497025E+03 -0.75204880432E+03  0.13960162020E+04  0.46999998093E+01 0.  1.
       -5    1    3    3    0  502 -0.68826489946E+03 -0.95370497025E+03  0.73591786109E+03  0.13873928537E+04  0.46999998093E+01 0. -1.
</event>
<event>
 5   0  0.5023691E-06  0.2809512E+04  0.7818609E-02  0.8300321E-01
        1   -1    0    0  501    0  0.00000000000E+00  0.00000000000E+00  0.23822668686E+04  0.23822668686E+04  0.50400001928E-02 0.  1.
       -1   -1    0    0    0  501  0.00000000000E+00  0.00000000000E+00 -0.82834512398E+03  0.82834512400E+03  0.50400001928E-02 0. -1.
    10030    2    1    2    0    0  0.00000000000E+00  0.00000000000E+00  0.15539217446E+04  0.32106119926E+04  0.28095118043E+04 0.  0.
        5    1    3    3  502    0  0.12984059416E+04 -0.52022900923E+03  0.92517201197E+03  0.16770395204E+04  0.46999998093E+01 0.  1.
       -5    1    3    3    0  502 -0.12984059416E+04  0.52022900923E+03  0.62874973266E+03  0.15335724722E+04  0.46999998093E+01 0. -1.
</event>
<event>
 5   0  0.4764214E-06  0.2791271E+04  0.7818609E-02  0.8305983E-01
        1   -1    0    0  501    0  0.00000000000E+00  0.00000000000E+00  0.13585649643E+04  0.13585649643E+04  0.50400001928E-02 0. -1.
       -1   -1    0    0    0  501  0.00000000000E+00  0.00000000000E+00 -0.14337176325E+04  0.14337176325E+04  0.50400001928E-02 0.  1.
    10030    2    1    2    0    0  0.00000000000E+00  0.00000000000E+00 -0.75152668203E+02  0.27922825968E+04  0.27912710683E+04 0.  0.
        3    1    3    3  502    0 -0.11206257677E+04 -0.67699464736E+03  0.44599792455E+03  0.13831261774E+04  0.10100000352E+00 0. -1.
       -3    1    3    3    0  502  0.11206257677E+04  0.67699464736E+03 -0.52115059276E+03  0.14091564194E+04  0.10100000352E+00 0.  1.
</event>
<event>
 5   0  0.1350863E-05  0.2818063E+04  0.7818609E-02  0.8297682E-01
        2   -1    0    0  501    0  0.00000000000E+00  0.00000000000E+00  0.14882315986E+04  0.14882315986E+04  0.25500000920E-02 0. -1.
       -2   -1    0    0    0  501  0.00000000000E+00  0.00000000000E+00 -0.13340463598E+04  0.13340463598E+04  0.25500000920E-02 0.  1.
    10030    2    1    2    0    0  0.00000000000E+00  0.00000000000E+00  0.15418523879E+03  0.28222779584E+04  0.28180631268E+04 0.  0.
        3    1    3    3  502    0  0.28863129572E+03 -0.12466364376E+04  0.66785579760E+03  0.14434132495E+04  0.10100000352E+00 0. -1.
       -3    1    3    3    0  502 -0.28863129572E+03  0.12466364376E+04 -0.51367055880E+03  0.13788647089E+04  0.10100000352E+00 0.  1.
</event>
<event>
 5   0  0.1388269E-05  0.2714017E+04  0.7818609E-02  0.8330471E-01
       -2   -1    0    0    0  501  0.00000000000E+00  0.00000000000E+00  0.17905814456E+04  0.17905814456E+04  0.25500000920E-02 0. -1.
        2   -1    0    0  501    0  0.00000000000E+00  0.00000000000E+00 -0.10284210830E+04  0.10284210830E+04  0.25500000920E-02 0.  1.
    10030    2    1    2    0    0  0.00000000000E+00  0.00000000000E+00  0.76216036265E+03  0.28190025286E+04  0.27140167350E+04 0.  0.
        1    1    3    3  502    0  0.74317783161E+03  0.88293752754E+03  0.11225423919E+04  0.16099668905E+04  0.50400001928E-02 0. -1.
       -1    1    3    3    0  502 -0.74317783161E+03 -0.88293752754E+03 -0.36038202929E+03  0.12090356380E+04  0.50400001928E-02 0.  1.
</event>
<event>
 5   0  0.1388269E-05  0.2816979E+04  0.7818609E-02  0.8298017E-01
        2   -1    0    0  501    0  0.00000000000E+00  0.00000000000E+00  0.19711667619E+04  0.19711667619E+04  0.25500000920E-02 0. -1.
       -2   -1    0    0    0  501  0.00000000000E+00  0.00000000000E+00 -0.10064303753E+04  0.10064303753E+04  0.25500000920E-02 0.  1.
    10030    2    1    2    0    0  0.00000000000E+00  0.00000000000E+00  0.96473638658E+03  0.29775971372E+04  0.28169785969E+04 0.  0.
        1    1    3    3  502    0 -0.52543656265E+03  0.71081159987E+03 -0.67674515496E+03  0.11132478236E+04  0.50400001928E-02 0.  1.
       -1    1    3    3    0  502  0.52543656265E+03 -0.71081159987E+03  0.16414815415E+04  0.18643493136E+04  0.50400001928E-02 0. -1.
</event>
<event>
 5   0  0.1302063E-05  0.2807559E+04  0.7818609E-02  0.8300925E-01
       -2   -1    0    0    0  501  0.00000000000E+00  0.00000000000E+00  0.98115370935E+03  0.98115370935E+03  0.25500000920E-02 0.  1.
        2   -1    0    0  501    0  0.00000000000E+00  0.00000000000E+00 -0.20084488849E+04  0.20084488849E+04  0.25500000920E-02 0. -1.
    10030    2    1    2    0    0  0.00000000000E+00  0.00000000000E+00 -0.10272951756E+04  0.29896025943E+04  0.28075591345E+04 0.  0.
        2    1    3    3  502    0  0.82830473446E+03  0.80298030750E+03  0.33804572222E+03  0.12021401822E+04  0.25500000920E-02 0.  1.
       -2    1    3    3    0  502 -0.82830473446E+03 -0.80298030750E+03 -0.13653408978E+04  0.17874624121E+04  0.25500000920E-02 0. -1.
</event>
<event>
 5   0  0.5217999E-06  0.2717810E+04  0.7818609E-02  0.8329249E-01
       -1   -1    0    0    0  501  0.00000000000E+00  0.00000000000E+00  0.16204665767E+04  0.16204665768E+04  0.50400001928E-02 0.  1.
        1   -1    0    0  501    0  0.00000000000E+00  0.00000000000E+00 -0.11395620029E+04  0.11395620029E+04  0.50400001928E-02 0. -1.
    10030    2    1    2    0    0  0.00000000000E+00  0.00000000000E+00  0.48090457384E+03  0.27600285797E+04  0.27178095135E+04 0.  0.
        1    1    3    3  502    0  0.94254298118E+03  0.27078521558E+03 -0.71485738201E+03  0.12135621043E+04  0.50400001928E-02 0. -1.
       -1    1    3    3    0  502 -0.94254298118E+03 -0.27078521558E+03  0.11957619559E+04  0.15464664754E+04  0.50400001928E-02 0.  1.
</event>
<event>
 5   0  0.1388269E-05  0.2815062E+04  0.7818609E-02  0.8298608E-01
       -2   -1    0    0    0  501  0.00000000000E+00  0.00000000000E+00  0.86178356791E+03  0.86178356791E+03  0.25500000920E-02 0.  1.
        2   -1    0    0  501    0  0.00000000000E+00  0.00000000000E+00 -0.22988867419E+04  0.22988867419E+04  0.25500000920E-02 0. -1.
    10030    2    1    2    0    0  0.00000000000E+00  0.00000000000E+00 -0.14371031740E+04  0.31606703098E+04  0.28150615046E+04 0.  0.
        1    1    3    3  502    0  0.71686539073E+03 -0.11806708789E+04 -0.10224538765E+04  0.17185143707E+04  0.50400001928E-02 0. -1.
       -1    1    3    3    0  502 -0.71686539073E+03  0.11806708789E+04 -0.41464929746E+03  0.14421559391E+04  0.50400001928E-02 0.  1.
</event>
<event>
 5   0  0.1330962E-05  0.2773449E+04  0.7818609E-02  0.8311559E-01
       -2   -1    0    0    0  501  0.00000000000E+00  0.00000000000E+00  0.87691498167E+03  0.87691498168E+03  0.25500000920E-02 0.  1.
        2   -1    0    0  501    0  0.00000000000E+00  0.00000000000E+00 -0.21929210935E+04  0.21929210935E+04  0.25500000920E-02 0. -1.
    10030    2    1    2    0    0  0.00000000000E+00  0.00000000000E+00 -0.13160061118E+04  0.30698360752E+04  0.27734493762E+04 0.  0.
        4    1    3    3  502    0 -0.10944974642E+03  0.10958609879E+03  0.86731069043E+03  0.88103223930E+03  0.12699999809E+01 0.  1.
       -4    1    3    3    0  502  0.10944974642E+03 -0.10958609879E+03 -0.21833168023E+04  0.21888038359E+04  0.12699999809E+01 0. -1.
</event>
<event>
 5   0  0.1350863E-05  0.2842695E+04  0.7818609E-02  0.8290135E-01
        2   -1    0    0  501    0  0.00000000000E+00  0.00000000000E+00  0.17933801650E+04  0.17933801651E+04  0.25500000920E-02 0. -1.
       -2   -1    0    0    0  501  0.00000000000E+00  0.00000000000E+00 -0.11264921658E+04  0.11264921658E+04  0.25500000920E-02 0.  1.
    10030    2    1    2    0    0  0.00000000000E+00  0.00000000000E+00  0.66688799922E+03  0.29198723309E+04  0.28426949933E+04 0.  0.
        3    1    3    3  502    0 -0.55285543507E+03 -0.10616944918E+04  0.11206615922E+04  0.16397337407E+04  0.10100000352E+00 0. -1.
       -3    1    3    3    0  502  0.55285543507E+03  0.10616944918E+04 -0.45377359301E+03  0.12801385901E+04  0.10100000352E+00 0.  1.
</event>
<event>
 5   0  0.5023691E-06  0.2833343E+04  0.7818609E-02  0.8292991E-01
       -1   -1    0    0    0  501  0.00000000000E+00  0.00000000000E+00  0.13843697503E+04  0.13843697503E+04  0.50400001928E-02 0. -1.
        1   -1    0    0  501    0  0.00000000000E+00  0.00000000000E+00 -0.14497269531E+04  0.14497269531E+04  0.50400001928E-02 0.  1.
    10030    2    1    2    0    0  0.00000000000E+00  0.00000000000E+00 -0.65357202852E+02  0.28340967034E+04  0.28333430008E+04 0.  0.
        5    1    3    3  502    0  0.13036753262E+04 -0.13702071124E+03  0.50467191434E+03  0.14046564927E+04  0.46999998093E+01 0. -1.
       -5    1    3    3    0  502 -0.13036753262E+04  0.13702071124E+03 -0.57002911720E+03  0.14294402107E+04  0.46999998093E+01 0.  1.
</event>
<event>
 5   0  0.5107453E-06  0.2805751E+04  0.7818609E-02  0.8301485E-01
       -1   -1    0    0    0  501  0.00000000000E+00  0.00000000000E+00  0.87383966744E+03  0.87383966745E+03  0.50400001928E-02 0.  1.
        1   -1    0    0  501    0  0.00000000000E+00  0.00000000000E+00 -0.22521975130E+04  0.22521975130E+04  0.50400001928E-02 0. -1.
    10030    2    1    2    0    0  0.00000000000E+00  0.00000000000E+00 -0.13783578456E+04  0.31260371805E+04  0.28057508983E+04 0.  0.
        2    1    3    3  502    0  0.68466746103E+03 -0.41314659410E+03 -0.19734069205E+04  0.21292708879E+04  0.25500000920E-02 0. -1.
       -2    1    3    3    0  502 -0.68466746103E+03  0.41314659410E+03  0.59504907490E+03  0.99676629254E+03  0.25500000920E-02 0.  1.
</event>
<event>
 5   0  0.1388269E-05  0.2724222E+04  0.7818609E-02  0.8327188E-01
       -2   -1    0    0    0  501  0.00000000000E+00  0.00000000000E+00  0.13495981628E+04  0.13495981628E+04  0.25500000920E-02 0.  1.
        2   -1    0    0  501    0  0.00000000000E+00  0.00000000000E+00 -0.13747402362E+04  0.13747402362E+04  0.25500000920E-02 0. -1.
    10030    2    1    2    0    0  0.00000000000E+00  0.00000000000E+00 -0.25142073329E+02  0.27243383990E+04  0.27242223824E+04 0.  0.
        1    1    3    3  502    0 -0.74438217115E+03 -0.44450424454E+03  0.10380250142E+04  0.13524735747E+04  0.50400001928E-02 0.  1.
       -1    1    3    3    0  502  0.74438217115E+03  0.44450424454E+03 -0.10631670875E+04  0.13718648243E+04  0.50400001928E-02 0. -1.
</event>
<event>
 5   0  0.1330962E-05  0.2808420E+04  0.7818609E-02  0.8300659E-01
        2   -1    0    0  501    0  0.00000000000E+00  0.00000000000E+00  0.21811343135E+04  0.21811343135E+04  0.25500000920E-02 0.  1.
       -2   -1    0    0    0  501  0.00000000000E+00  0.00000000000E+00 -0.90402747810E+03  0.90402747811E+03  0.25500000920E-02 0. -1.
    10030    2    1    2    0    0  0.00000000000E+00  0.00000000000E+00  0.12771068354E+04  0.30851617916E+04  0.28084197356E+04 0.  0.
        4    1    3    3  502    0 -0.56022399769E+03  0.12227052871E+04  0.19511235636E+03  0.13590178775E+04  0.12699999809E+01 0.  1.
       -4    1    3    3    0  502  0.56022399769E+03 -0.12227052871E+04  0.10819944791E+04  0.17261439142E+04  0.12699999809E+01 0. -1.
</event>
<event>
 5   0  0.1350863E-05  0.2971375E+04  0.7818609E-02  0.8251952E-01
        2   -1    0    0  501    0  0.00000000000E+00  0.00000000000E+00  0.14206507898E+04  0.14206507898E+04  0.25500000920E-02 0. -1.
       -2   -1    0    0    0  501  0.00000000000E+00  0.00000000000E+00 -0.15537018492E+04  0.15537018492E+04  0.25500000920E-02 0.  1.
    10030    2    1    2    0    0  0.00000000000E+00  0.00000000000E+00 -0.13305105941E+03  0.29743526391E+04  0.29713752771E+04 0.  0.
        3    1    3    3  502    0 -0.86166560155E+03  0.56254812186E+03 -0.11392054496E+04  0.15351602734E+04  0.10100000352E+00 0.  1.
       -3    1    3    3    0  502  0.86166560155E+03 -0.56254812186E+03  0.10061543902E+04  0.14391923657E+04  0.10100000352E+00 0. -1.
</event>
<event>
 5   0  0.5217999E-06  0.2830900E+04  0.7818609E-02  0.8293739E-01
        1   -1    0    0  501    0  0.00000000000E+00  0.00000000000E+00  0.17652656993E+04  0.17652656993E+04  0.50400001928E-02 0.  1.
       -1   -1    0    0    0  501  0.00000000000E+00  0.00000000000E+00 -0.11349562102E+04  0.11349562102E+04  0.50400001928E-02 0. -1.
    10030    2    1    2    0    0  0.00000000000E+00  0.00000000000E+00  0.63030948910E+03  0.29002219095E+04  0.28309003996E+04 0.  0.
        1    1    3    3  502    0 -0.31724567841E+03 -0.10931999240E+04 -0.54673599713E+03  0.12627949734E+04  0.50400001928E-02 0. -1.
       -1    1    3    3    0  502  0.31724567841E+03  0.10931999240E+04  0.11770454862E+04  0.16374269361E+04  0.50400001928E-02 0.  1.
</event>
<event>
 5   0  0.1302063E-05  0.2772413E+04  0.7818609E-02  0.8311885E-01
       -2   -1    0    0    0  501  0.00000000000E+00  0.00000000000E+00  0.11535162815E+04  0.11535162816E+04  0.25500000920E-02 0.  1.
        2   -1    0    0  501    0  0.00000000000E+00  0.00000000000E+00 -0.16658352812E+04  0.16658352812E+04  0.25500000920E-02 0. -1.
    10030    2    1    2    0    0  0.00000000000E+00  0.00000000000E+00 -0.51231899968E+03  0.28193515628E+04  0.27724127537E+04 0.  0.
        2    1    3    3  502    0 -0.43989816568E+03 -0.10737802922E+04 -0.10273213065E+04  0.15498075942E+04  0.25500000920E-02 0. -1.
       -2    1    3    3    0  502  0.43989816568E+03  0.10737802922E+04  0.51500230684E+03  0.12695439686E+04  0.25500000920E-02 0.  1.
</event>
<event>
 5   0  0.5217999E-06  0.2845222E+04  0.7818609E-02  0.8289365E-01
        1   -1    0    0  501    0  0.00000000000E+00  0.00000000000E+00  0.16705484602E+04  0.16705484602E+04  0.50400001928E-02 0.  1.
       -1   -1    0    0    0  501  0.00000000000E+00  0.00000000000E+00 -0.12114715768E+04  0.12114715768E+04  0.50400001928E-02 0. -1.
    10030    2    1    2    0    0  0.00000000000E+00  0.00000000000E+00  0.45907688336E+03  0.28820200370E+04  0.28452219437E+04 0.  0.
        1    1    3    3  502    0 -0.27426114878E+03 -0.12383829663E+04 -0.42300638535E+03  0.13370661730E+04  0.50400001928E-02 0.  1.
       -1    1    3    3    0  502  0.27426114878E+03  0.12383829663E+04  0.88208326871E+03  0.15449538640E+04  0.50400001928E-02 0. -1.
</event>
<event>
 5   0  0.5107453E-06  0.2954065E+04  0.7818609E-02  0.8256971E-01
       -1   -1    0    0    0  501  0.00000000000E+00  0.00000000000E+00  0.14268620583E+04  0.14268620583E+04  0.50400001928E-02 0. -1.
        1   -1    0    0  501    0  0.00000000000E+00  0.00000000000E+00 -0.15289670819E+04  0.15289670819E+04  0.50400001928E-02 0.  1.
    10030    2    1    2    0    0  0.00000000000E+00  0.00000000000E+00 -0.10210502358E+03  0.29558291402E+04  0.29540650755E+04 0.  0.
        2    1    3    3  502    0  0.12030564353E+04  0.64583694825E+03  0.51246669104E+03  0.14584485798E+04  0.25500000920E-02 0. -1.
       -2    1    3    3    0  502 -0.12030564353E+04 -0.64583694825E+03 -0.61457171462E+03  0.14973805604E+04  0.25500000920E-02 0.  1.
</event>
<event>
 5   0  0.1283052E-05  0.2835680E+04  0.7818609E-02  0.8292276E-01
       -2   -1    0    0    0  501  0.00000000000E+00  0.00000000000E+00  0.82247312207E+03  0.82247312208E+03  0.25500000920E-02 0.  1.
        2   -1    0    0  501    0  0.00000000000E+00  0.00000000000E+00 -0.24441773534E+04  0.24441773534E+04  0.25500000920E-02 0. -1.
    10030    2    1    2    0    0  0.00000000000E+00  0.00000000000E+00 -0.16217042313E+04  0.32666504754E+04  0.28356799387E+04 0.  0.
        5    1    3    3  502    0  0.47344595307E+03 -0.10576409695E+04 -0.17520234357E+04  0.21005627103E+04  0.46999998093E+01 0. -1.
       -5    1    3    3    0  502 -0.47344595307E+03  0.10576409695E+04  0.13031920440E+03  0.11660877651E+04  0.46999998093E+01 0.  1.
</event>
<event>
 5   0  0.5217999E-06  0.2809430E+04  0.7818609E-02  0.8300347E-01
        1   -1    0    0  501    0  0.00000000000E+00  0.00000000000E+00  0.93403518082E+03  0.93403518084E+03  0.50400001928E-02 0. -1.
       -1   -1    0    0    0  501  0.00000000000E+00  0.00000000000E+00 -0.21125807169E+04  0.21125807169E+04  0.50400001928E-02 0.  1.
    10030    2    1    2    0    0  0.00000000000E+00  0.00000000000E+00 -0.11785455361E+04  0.30466158977E+04  0.28094303422E+04 0.  0.
        1    1    3    3  502    0  0.11581355858E+04  0.33410669605E+03 -0.13715027208E+04  0.18259038946E+04  0.50400001928E-02 0.  1.
       -1    1    3    3    0  502 -0.11581355858E+04 -0.33410669605E+03  0.19295718471E+03  0.12207120031E+04  0.50400001928E-02 0. -1.
</event>
<event>
 5   0  0.1330962E-05  0.2711705E+04  0.7818609E-02  0.8331217E-01
        2   -1    0    0  501    0  0.00000000000E+00  0.00000000000E+00  0.24640717680E+04  0.24640717680E+04  0.25500000920E-02 0.  1.
       -2   -1    0    0    0  501  0.00000000000E+00  0.00000000000E+00 -0.74605593585E+03  0.74605593585E+03  0.25500000920E-02 0. -1.
    10030    2    1    2    0    0  0.00000000000E+00  0.00000000000E+00  0.17180158322E+04  0.32101277039E+04  0.27117045332E+04 0.  0.
        4    1    3    3  502    0  0.57467453449E+03  0.81519259791E+03  0.19462688994E+04  0.21869508531E+04  0.12699999809E+01 0.  1.
       -4    1    3    3    0  502 -0.57467453449E+03 -0.81519259791E+03 -0.22825306724E+03  0.10231768507E+04  0.12699999809E+01 0. -1.
</event>
<event>
 5   0  0.4447500E-06  0.2947948E+04  0.7818609E-02  0.8258753E-01
       -3   -1    0    0    0  501  0.00000000000E+00  0.00000000000E+00  0.11691810745E+04  0.11691810789E+04  0.10100000352E+00 0. -1.
        3   -1    0    0  501    0  0.00000000000E+00  0.00000000000E+00 -0.18582236773E+04  0.18582236800E+04  0.10100000352E+00 0.  1.
    10030    2    1    2    0    0  0.00000000000E+00  0.00000000000E+00 -0.68904260274E+03  0.30274047589E+04  0.29479484164E+04 0.  0.
        2    1    3    3  502    0 -0.43289939800E+03  0.77699686871E+03  0.86251952125E+03  0.12389777832E+04  0.25500000920E-02 0. -1.
       -2    1    3    3    0  502  0.43289939800E+03 -0.77699686871E+03 -0.15515621240E+04  0.17884269757E+04  0.25500000920E-02 0.  1.
</event>
<event>
 5   0  0.1350863E-05  0.2764385E+04  0.7818609E-02  0.8314411E-01
        2   -1    0    0  501    0  0.00000000000E+00  0.00000000000E+00  0.18320212952E+04  0.18320212952E+04  0.25500000920E-02 0.  1.
       -2   -1    0    0    0  501  0.00000000000E+00  0.00000000000E+00 -0.10428134578E+04  0.10428134578E+04  0.25500000920E-02 0. -1.
    10030    2    1    2    0    0  0.00000000000E+00  0.00000000000E+00  0.78920783734E+03  0.28748347530E+04  0.27643852566E+04 0.  0.
        3    1    3    3  502    0  0.86398452657E+03 -0.91832209196E+03 -0.19430028183E+03  0.12757497154E+04  0.10100000352E+00 0. -1.
       -3    1    3    3    0  502 -0.86398452657E+03  0.91832209196E+03  0.98350811917E+03  0.15990850376E+04  0.10100000352E+00 0.  1.
</event>
<event>
 5   0  0.1350863E-05  0.2659866E+04  0.7818609E-02  0.8348146E-01
       -2   -1    0    0    0  501  0.00000000000E+00  0.00000000000E+00  0.63663585698E+03  0.63663585699E+03  0.25500000920E-02 0. -1.
        2   -1    0    0  501    0  0.00000000000E+00  0.00000000000E+00 -0.27782315440E+04  0.27782315440E+04  0.25500000920E-02 0.  1.
    10030    2    1    2    0    0  0.00000000000E+00  0.00000000000E+00 -0.21415956871E+04  0.34148674010E+04  0.26598660267E+04 0.  0.
        3    1    3    3  502    0 -0.11934027480E+04  0.35577700510E+03 -0.16701429854E+04  0.20833062660E+04  0.10100000352E+00 0.  1.
       -3    1    3    3    0  502  0.11934027480E+04 -0.35577700510E+03 -0.47145270170E+03  0.13315611350E+04  0.10100000352E+00 0. -1.
</event>
<event>
 5   0  0.4764214E-06  0.2810881E+04  0.7818609E-02  0.8299898E-01
       -1   -1    0    0    0  501  0.00000000000E+00  0.00000000000E+00  0.21630811120E+04  0.21630811120E+04  0.50400001928E-02 0.  1.
        1   -1    0    0  501    0  0.00000000000E+00  0.00000000000E+00 -0.91317076331E+03  0.91317076333E+03  0.50400001928E-02 0. -1.
    10030    2    1    2    0    0  0.00000000000E+00  0.00000000000E+00  0.12499103487E+04  0.30762518753E+04  0.28108805952E+04 0.  0.
        3    1    3    3  502    0  0.18156805962E+03 -0.74171765211E+03  0.19162415531E+04  0.20627878553E+04  0.10100000352E+00 0.  1.
       -3    1    3    3    0  502 -0.18156805962E+03  0.74171765211E+03 -0.66633120445E+03  0.10134640201E+04  0.10100000352E+00 0. -1.
</event>
<event>
 5   0  0.1302063E-05  0.2343768E+04  0.7818609E-02  0.8460861E-01
        2   -1    0    0  501    0  0.00000000000E+00  0.00000000000E+00  0.20352468602E+04  0.20352468602E+04  0.25500000920E-02 0. -1.
       -2   -1    0    0    0  501  0.00000000000E+00  0.00000000000E+00 -0.67476448673E+03  0.67476448674E+03  0.25500000920E-02 0.  1.
    10030    2    1    2    0    0  0.00000000000E+00  0.00000000000E+00  0.13604823734E+04  0.27100113469E+04  0.23437681651E+04 0.  0.
        2    1    3    3  502    0 -0.39590970432E+03 -0.19194060324E+03 -0.57563592841E+03  0.72452909619E+03  0.25500000920E-02 0.  1.
       -2    1    3    3    0  502  0.39590970432E+03  0.19194060324E+03  0.19361183018E+04  0.19854822507E+04  0.25500000920E-02 0. -1.
</event>
<event>
 5   0  0.1330962E-05  0.2804777E+04  0.7818609E-02  0.8301787E-01
        2   -1    0    0  501    0  0.00000000000E+00  0.00000000000E+00  0.27298330380E+04  0.27298330380E+04  0.25500000920E-02 0.  1.
       -2   -1    0    0    0  501  0.00000000000E+00  0.00000000000E+00 -0.72044481481E+03  0.72044481481E+03  0.25500000920E-02 0. -1.
    10030    2    1    2    0    0  0.00000000000E+00  0.00000000000E+00  0.20093882232E+04  0.34502778528E+04  0.28047773940E+04 0.  0.
        4    1    3    3  502    0 -0.23564727945E+03  0.88057376093E+02  0.27018498518E+04  0.27135360650E+04  0.12699999809E+01 0.  1.
       -4    1    3    3    0  502  0.23564727945E+03 -0.88057376093E+02 -0.69246162862E+03  0.73674178774E+03  0.12699999809E+01 0. -1.
</event>
<event>
 5   0  0.1330962E-05  0.2717218E+04  0.7818609E-02  0.8329440E-01
        2   -1    0    0  501    0  0.00000000000E+00  0.00000000000E+00  0.10583423541E+04  0.10583423541E+04  0.25500000920E-02 0. -1.
       -2   -1    0    0    0  501  0.00000000000E+00  0.00000000000E+00 -0.17440651741E+04  0.17440651741E+04  0.25500000920E-02 0.  1.
    10030    2    1    2    0    0  0.00000000000E+00  0.00000000000E+00 -0.68572282003E+03  0.28024075282E+04  0.27172177255E+04 0.  0.
        4    1    3    3  502    0 -0.66311202784E+03 -0.68305394406E+03 -0.13425473997E+04  0.16458175432E+04  0.12699999809E+01 0.  1.
       -4    1    3    3    0  502  0.66311202784E+03  0.68305394406E+03  0.65682457972E+03  0.11565899850E+04  0.12699999809E+01 0. -1.
</event>
<event>
 5   0  0.5281919E-06  0.2807685E+04  0.7818609E-02  0.8300886E-01
        1   -1    0    0  501    0  0.00000000000E+00  0.00000000000E+00  0.17666759273E+04  0.17666759273E+04  0.50400001928E-02 0. -1.
       -1   -1    0    0    0  501  0.00000000000E+00  0.00000000000E+00 -0.11155265861E+04  0.11155265861E+04  0.50400001928E-02 0.  1.
    10030    2    1    2    0    0  0.00000000000E+00  0.00000000000E+00  0.65114934122E+03  0.28822025134E+04  0.28076851433E+04 0.  0.
        4    1    3    3  502    0  0.40436093040E+03  0.12421767643E+04 -0.20213252706E+03  0.13218812531E+04  0.12699999809E+01 0. -1.
       -4    1    3    3    0  502 -0.40436093040E+03 -0.12421767643E+04  0.85328186827E+03  0.15603212603E+04  0.12699999809E+01 0.  1.
</event>
<event>
 5   0  0.4764214E-06  0.2729084E+04  0.7818609E-02  0.8325630E-01
        1   -1    0    0  501    0  0.00000000000E+00  0.00000000000E+00  0.15682154381E+04  0.15682154381E+04  0.50400001928E-02 0. -1.
       -1   -1    0    0    0  501  0.00000000000E+00  0.00000000000E+00 -0.11873204479E+04  0.11873204479E+04  0.50400001928E-02 0.  1.
    10030    2    1    2    0    0  0.00000000000E+00  0.00000000000E+00  0.38089499026E+03  0.27555358860E+04  0.27290835505E+04 0.  0.
        3    1    3    3  502    0  0.28911259362E+03 -0.51811309235E+03  0.14311569397E+04  0.15492699780E+04  0.10100000352E+00 0. -1.
       -3    1    3    3    0  502 -0.28911259362E+03  0.51811309235E+03 -0.10502619495E+04  0.12062659081E+04  0.10100000352E+00 0.  1.
</event>
<event>
 5   0  0.5217999E-06  0.2777058E+04  0.7818609E-02  0.8310426E-01
       -1   -1    0    0    0  501  0.00000000000E+00  0.00000000000E+00  0.15242306485E+04  0.15242306485E+04  0.50400001928E-02 0. -1.
        1   -1    0    0  501    0  0.00000000000E+00  0.00000000000E+00 -0.12649089051E+04  0.12649089051E+04  0.50400001928E-02 0.  1.
    10030    2    1    2    0    0  0.00000000000E+00  0.00000000000E+00  0.25932174344E+03  0.27891395536E+04  0.27770580985E+04 0.  0.
        1    1    3    3  502    0  0.99766879619E+03  0.27613452666E+03 -0.79979458658E+03  0.13081531579E+04  0.50400001928E-02 0.  1.
       -1    1    3    3    0  502 -0.99766879619E+03 -0.27613452666E+03  0.10591163300E+04  0.14809863957E+04  0.50400001928E-02 0. -1.
</event>
<event>
 5   0  0.5281919E-06  0.2734436E+04  0.7818609E-02  0.8323917E-01
       -1   -1    0    0    0  501  0.00000000000E+00  0.00000000000E+00  0.16721356349E+04  0.16721356349E+04  0.50400001928E-02 0.  1.
        1   -1    0    0  501    0  0.00000000000E+00  0.00000000000E+00 -0.11179029801E+04  0.11179029801E+04  0.50400001928E-02 0. -1.
    10030    2    1    2    0    0  0.00000000000E+00  0.00000000000E+00  0.55423265479E+03  0.27900386149E+04  0.27344362558E+04 0.  0.
        4    1    3    3  502    0 -0.25949826528E+03  0.49655019703E+03 -0.99539305565E+03  0.11422392026E+04  0.12699999809E+01 0. -1.
       -4    1    3    3    0  502  0.25949826528E+03 -0.49655019703E+03  0.15496257104E+04  0.16477994123E+04  0.12699999809E+01 0.  1.
</event>
<event>
 5   0  0.5217999E-06  0.2825252E+04  0.7818609E-02  0.8295471E-01
       -1   -1    0    0    0  501  0.00000000000E+00  0.00000000000E+00  0.66415965228E+03  0.66415965230E+03  0.50400001928E-02 0. -1.
        1   -1    0    0  501    0  0.00000000000E+00  0.00000000000E+00 -0.30045677637E+04  0.30045677637E+04  0.50400001928E-02 0.  1.
    10030    2    1    2    0    0  0.00000000000E+00  0.00000000000E+00 -0.23404081114E+04  0.36687274160E+04  0.28252523294E+04 0.  0.
        1    1    3    3  502    0  0.13773760448E+04 -0.31275215770E+03 -0.11401966162E+04  0.18152209244E+04  0.50400001928E-02 0. -1.
       -1    1    3    3    0  502 -0.13773760448E+04  0.31275215770E+03 -0.12002114952E+04  0.18535064915E+04  0.50400001928E-02 0.  1.
</event>
<event>
 5   0  0.1302063E-05  0.2821813E+04  0.7818609E-02  0.8296528E-01
        2   -1    0    0  501    0  0.00000000000E+00  0.00000000000E+00  0.11749946212E+04  0.11749946212E+04  0.25500000920E-02 0.  1.
       -2   -1    0    0    0  501  0.00000000000E+00  0.00000000000E+00 -0.16941845258E+04  0.16941845258E+04  0.25500000920E-02 0. -1.
    10030    2    1    2    0    0  0.00000000000E+00  0.00000000000E+00 -0.51918990464E+03  0.28691791471E+04  0.28218133923E+04 0.  0.
        2    1    3    3  502    0  0.84372861669E+02 -0.67618367108E+03 -0.15157735802E+04  0.16619003229E+04  0.25500000920E-02 0. -1.
       -2    1    3    3    0  502 -0.84372861669E+02  0.67618367108E+03  0.99658367557E+03  0.12072788241E+04  0.25500000920E-02 0.  1.
</event>
<event>
 5   0  0.5281919E-06  0.2827323E+04  0.7818609E-02  0.8294836E-01
       -1   -1    0    0    0  501  0.00000000000E+00  0.00000000000E+00  0.15421846464E+04  0.15421846464E+04  0.50400001928E-02 0.  1.
        1   -1    0    0  501    0  0.00000000000E+00  0.00000000000E+00 -0.12958492428E+04  0.12958492429E+04  0.50400001928E-02 0. -1.
    10030    2    1    2    0    0  0.00000000000E+00  0.00000000000E+00  0.24633540356E+03  0.28380338893E+04  0.28273229786E+04 0.  0.
        4    1    3    3  502    0 -0.68357442519E+03  0.86773871939E+03  0.10086619291E+04  0.14958759908E+04  0.12699999809E+01 0.  1.
       -4    1    3    3    0  502  0.68357442519E+03 -0.86773871939E+03 -0.76232652551E+03  0.13421578984E+04  0.12699999809E+01 0. -1.
</event>
<event>
 5   0  0.1302063E-05  0.2818259E+04  0.7818609E-02  0.8297622E-01
       -2   -1    0    0    0  501  0.00000000000E+00  0.00000000000E+00  0.14255428034E+04  0.14255428034E+04  0.25500000920E-02 0.  1.
        2   -1    0    0  501    0  0.00000000000E+00  0.00000000000E+00 -0.13929048702E+04  0.13929048702E+04  0.25500000920E-02 0. -1.
    10030    2    1    2    0    0  0.00000000000E+00  0.00000000000E+00  0.32637933214E+02  0.28184476735E+04  0.28182586918E+04 0.  0.
        2    1    3    3  502    0 -0.23305468601E+03 -0.44423175201E+03  0.13332174952E+04  0.14244736662E+04  0.25500000920E-02 0.  1.
       -2    1    3    3    0  502  0.23305468601E+03  0.44423175201E+03 -0.13005795620E+04  0.13939740074E+04  0.25500000920E-02 0. -1.
</event>
<event>
 5   0  0.5217999E-06  0.2806634E+04  0.7818609E-02  0.8301212E-01
       -1   -1    0    0    0  501  0.00000000000E+00  0.00000000000E+00  0.15982934768E+04  0.15982934768E+04  0.50400001928E-02 0. -1.
        1   -1    0    0  501    0  0.00000000000E+00  0.00000000000E+00 -0.12321253672E+04  0.12321253672E+04  0.50400001928E-02 0.  1.
    10030    2    1    2    0    0  0.00000000000E+00  0.00000000000E+00  0.36616810963E+03  0.28304188440E+04  0.28066335258E+04 0.  0.
        1    1    3    3  502    0 -0.93718905319E+03  0.90935588456E+03 -0.33512523994E+03  0.13481692671E+04  0.50400001928E-02 0.  1.
       -1    1    3    3    0  502  0.93718905319E+03 -0.90935588456E+03  0.70129334957E+03  0.14822495770E+04  0.50400001928E-02 0. -1.
</event>
<event>
 5   0  0.4764214E-06  0.2780277E+04  0.7818609E-02  0.8309418E-01
        1   -1    0    0  501    0  0.00000000000E+00  0.00000000000E+00  0.12757357944E+04  0.12757357944E+04  0.50400001928E-02 0. -1.
       -1   -1    0    0    0  501  0.00000000000E+00  0.00000000000E+00 -0.15148003935E+04  0.15148003935E+04  0.50400001928E-02 0.  1.
    10030    2    1    2    0    0  0.00000000000E+00  0.00000000000E+00 -0.23906459908E+03  0.27905361879E+04  0.27802770246E+04 0.  0.
        3    1    3    3  502    0  0.24270107443E+03 -0.11538074408E+04 -0.85866642641E+03  0.14585895461E+04  0.10100000352E+00 0.  1.
       -3    1    3    3    0  502 -0.24270107443E+03  0.11538074408E+04  0.61960182734E+03  0.13319466418E+04  0.10100000352E+00 0. -1.
</event>
<event>
 5   0  0.1302063E-05  0.2811900E+04  0.7818609E-02  0.8299583E-01
       -2   -1    0    0    0  501  0.00000000000E+00  0.00000000000E+00  0.94996055976E+03  0.94996055977E+03  0.25500000920E-02 0. -1.
        2   -1    0    0  501    0  0.00000000000E+00  0.00000000000E+00 -0.20808190906E+04  0.20808190906E+04  0.25500000920E-02 0.  1.
    10030    2    1    2    0    0  0.00000000000E+00  0.00000000000E+00 -0.11308585308E+04  0.30307796504E+04  0.28119004734E+04 0.  0.
        2    1    3    3  502    0  0.66417485838E+03  0.36439637983E+03  0.71115556928E+03  0.10390645831E+04  0.25500000920E-02 0. -1.
       -2    1    3    3    0  502 -0.66417485838E+03 -0.36439637983E+03 -0.18420141001E+04  0.19917150673E+04  0.25500000920E-02 0.  1.
</event>
<event>
 5   0  0.1350863E-05  0.2796915E+04  0.7818609E-02  0.8304227E-01
       -2   -1    0    0    0  501  0.00000000000E+00  0.00000000000E+00  0.12707250390E+04  0.12707250390E+04  0.25500000920E-02 0. -1.
        2   -1    0    0  501    0  0.00000000000E+00  0.00000000000E+00 -0.15390291080E+04  0.15390291080E+04  0.25500000920E-02 0.  1.
    10030    2    1    2    0    0  0.00000000000E+00  0.00000000000E+00 -0.26830406903E+03  0.28097541470E+04  0.27969146024E+04 0.  0.
        3    1    3    3  502    0  0.34203616253E+03  0.33988849282E+03  0.11845696970E+04  0.12789520324E+04  0.10100000352E+00 0. -1.
       -3    1    3    3    0  502 -0.34203616253E+03 -0.33988849282E+03 -0.14528737660E+04  0.15308021146E+04  0.10100000352E+00 0.  1.
</event>
<event>
 5   0  0.1283052E-05  0.2369711E+04  0.7818609E-02  0.8450931E-01
        2   -1    0    0  501    0  0.00000000000E+00  0.00000000000E+00  0.15735507239E+04  0.15735507239E+04  0.25500000920E-02 0. -1.
       -2   -1    0    0    0  501  0.00000000000E+00  0.00000000000E+00 -0.89217519154E+03  0.89217519154E+03  0.25500000920E-02 0.  1.
    10030    2    1    2    0    0  0.00000000000E+00  0.00000000000E+00  0.68137553240E+03  0.24657259155E+04  0.23697113061E+04 0.  0.
        5    1    3    3  502    0 -0.39162693943E+03  0.10766436540E+04  0.26238628634E+02  0.11459684870E+04  0.46999998093E+01 0.  1.
       -5    1    3    3    0  502  0.39162693943E+03 -0.10766436540E+04  0.65513690377E+03  0.13197574285E+04  0.46999998093E+01 0. -1.
</event>
<event>
 5   0  0.5281919E-06  0.2162507E+04  0.7818609E-02  0.8534198E-01
       -1   -1    0    0    0  501  0.00000000000E+00  0.00000000000E+00  0.11101892503E+04  0.11101892503E+04  0.50400001928E-02 0. -1.
        1   -1    0    0  501    0  0.00000000000E+00  0.00000000000E+00 -0.10530718112E+04  0.10530718112E+04  0.50400001928E-02 0.  1.
    10030    2    1    2    0    0  0.00000000000E+00  0.00000000000E+00  0.57117439048E+02  0.21632610615E+04  0.21625068829E+04 0.  0.
        4    1    3    3  502    0  0.25408691796E+03  0.55837433750E+03  0.91924294106E+03  0.11051476192E+04  0.12699999809E+01 0. -1.
       -4    1    3    3    0  502 -0.25408691796E+03 -0.55837433750E+03 -0.86212550201E+03  0.10581134423E+04  0.12699999809E+01 0.  1.
</event>
<event>
 5   0  0.5217999E-06  0.2766459E+04  0.7818609E-02  0.8313758E-01
       -1   -1    0    0    0  501  0.00000000000E+00  0.00000000000E+00  0.11540838776E+04  0.11540838776E+04  0.50400001928E-02 0. -1.
        1   -1    0    0  501    0  0.00000000000E+00  0.00000000000E+00 -0.16578729721E+04  0.16578729721E+04  0.50400001928E-02 0.  1.
    10030    2    1    2    0    0  0.00000000000E+00  0.00000000000E+00 -0.50378909450E+03  0.28119568497E+04  0.27664594471E+04 0.  0.
        1    1    3    3  502    0 -0.12347825378E+04 -0.57879124572E+03 -0.48730057593E+03  0.14481536773E+04  0.50400001928E-02 0.  1.
       -1    1    3    3    0  502  0.12347825378E+04  0.57879124572E+03 -0.16488518565E+02  0.13638031724E+04  0.50400001928E-02 0. -1.
</event>
<event>
 5   0  0.4764214E-06  0.2827982E+04  0.7818609E-02  0.8294633E-01
       -1   -1    0    0    0  501  0.00000000000E+00  0.00000000000E+00  0.10980475928E+04  0.10980475928E+04  0.50400001928E-02 0.  1.
        1   -1    0    0  501    0  0.00000000000E+00  0.00000000000E+00 -0.18208417931E+04  0.18208417931E+04  0.50400001928E-02 0. -1.
    10030    2    1    2    0    0  0.00000000000E+00  0.00000000000E+00 -0.72279420027E+03  0.29188893859E+04  0.28279822827E+04 0.  0.
        3    1    3    3  502    0 -0.11905457100E+04  0.47484055686E+03  0.25487099141E+03  0.13068404166E+04  0.10100000352E+00 0.  1.
       -3    1    3    3    0  502  0.11905457100E+04 -0.47484055686E+03 -0.97766519168E+03  0.16120489693E+04  0.10100000352E+00 0. -1.
</event>
<event>
 5   0  0.1350863E-05  0.2831290E+04  0.7818609E-02  0.8293619E-01
        2   -1    0    0  501    0  0.00000000000E+00  0.00000000000E+00  0.13100949378E+04  0.13100949378E+04  0.25500000920E-02 0.  1.
       -2   -1    0    0    0  501  0.00000000000E+00  0.00000000000E+00 -0.15296994092E+04  0.15296994092E+04  0.25500000920E-02 0. -1.
    10030    2    1    2    0    0  0.00000000000E+00  0.00000000000E+00 -0.21960447145E+03  0.28397943470E+04  0.28312904848E+04 0.  0.
        3    1    3    3  502    0 -0.39797140890E+03 -0.11885774066E+03  0.12476077039E+04  0.13149271454E+04  0.10100000352E+00 0.  1.
       -3    1    3    3    0  502  0.39797140890E+03  0.11885774066E+03 -0.14672121753E+04  0.15248672016E+04  0.10100000352E+00 0. -1.
</event>
<event>
 5   0  0.1302063E-05  0.2810344E+04  0.7818609E-02  0.8300064E-01
        2   -1    0    0  501    0  0.00000000000E+00  0.00000000000E+00  0.29165207573E+04  0.29165207573E+04  0.25500000920E-02 0. -1.
       -2   -1    0    0    0  501  0.00000000000E+00  0.00000000000E+00 -0.67700794358E+03  0.67700794358E+03  0.25500000920E-02 0.  1.
    10030    2    1    2    0    0  0.00000000000E+00  0.00000000000E+00  0.22395128137E+04  0.35935287009E+04  0.28103435522E+04 0.  0.
        2    1    3    3  502    0  0.95193426129E+03 -0.45290870315E+03  0.23077608673E+04  0.25371372356E+04  0.25500000920E-02 0. -1.
       -2    1    3    3    0  502 -0.95193426129E+03  0.45290870315E+03 -0.68248053612E+02  0.10563914653E+04  0.25500000920E-02 0.  1.
</event>
<event>
 5   0  0.5107453E-06  0.2829509E+04  0.7818609E-02  0.8294165E-01
        1   -1    0    0  501    0  0.00000000000E+00  0.00000000000E+00  0.18940381045E+04  0.18940381045E+04  0.50400001928E-02 0. -1.
       -1   -1    0    0    0  501  0.00000000000E+00  0.00000000000E+00 -0.10567528450E+04  0.10567528450E+04  0.50400001928E-02 0.  1.
    10030    2    1    2    0    0  0.00000000000E+00  0.00000000000E+00  0.83728525951E+03  0.29507909495E+04  0.28295089012E+04 0.  0.
        2    1    3    3  502    0  0.30850468225E+03  0.11282308495E+04 -0.41136790698E+03  0.12398804554E+04  0.25500000920E-02 0.  1.
       -2    1    3    3    0  502 -0.30850468225E+03 -0.11282308495E+04  0.12486531665E+04  0.17109104941E+04  0.25500000920E-02 0. -1.
</event>
<event>
 5   0  0.5107453E-06  0.2974491E+04  0.7818609E-02  0.8251053E-01
        1   -1    0    0  501    0  0.00000000000E+00  0.00000000000E+00  0.21270169015E+04  0.21270169015E+04  0.50400001928E-02 0.  1.
       -1   -1    0    0    0  501  0.00000000000E+00  0.00000000000E+00 -0.10399065207E+04  0.10399065207E+04  0.50400001928E-02 0. -1.
    10030    2    1    2    0    0  0.00000000000E+00  0.00000000000E+00  0.10871103809E+04  0.31669234222E+04  0.29744907097E+04 0.  0.
        2    1    3    3  502    0  0.11005689271E+03  0.92759047117E+03  0.17757346223E+04  0.20064321695E+04  0.25500000920E-02 0.  1.
       -2    1    3    3    0  502 -0.11005689271E+03 -0.92759047117E+03 -0.68862424142E+03  0.11604912528E+04  0.25500000920E-02 0. -1.
</event>
<event>
 5   0  0.1330962E-05  0.2825031E+04  0.7818609E-02  0.8295539E-01
        2   -1    0    0  501    0  0.00000000000E+00  0.00000000000E+00  0.23442361010E+04  0.23442361010E+04  0.25500000920E-02 0. -1.
       -2   -1    0    0    0  501  0.00000000000E+00  0.00000000000E+00 -0.85110867625E+03  0.85110867625E+03  0.25500000920E-02 0.  1.
    10030    2    1    2    0    0  0.00000000000E+00  0.00000000000E+00  0.14931274247E+04  0.31953447772E+04  0.28250307501E+04 0.  0.
        4    1    3    3  502    0 -0.11982531885E+04  0.90833066996E+02 -0.93136417504E+02  0.12052955467E+04  0.12699999809E+01 0. -1.
       -4    1    3    3    0  502  0.11982531885E+04 -0.90833066996E+02  0.15862638422E+04  0.19900492305E+04  0.12699999809E+01 0.  1.
</event>
<event>
 5   0  0.4764214E-06  0.2803438E+04  0.7818609E-02  0.8302202E-01
       -1   -1    0    0    0  501  0.00000000000E+00  0.00000000000E+00  0.68483384612E+03  0.68483384614E+03  0.50400001928E-02 0. -1.
        1   -1    0    0  501    0  0.00000000000E+00  0.00000000000E+00 -0.28690411192E+04  0.28690411192E+04  0.50400001928E-02 0.  1.
    10030    2    1    2    0    0  0.00000000000E+00  0.00000000000E+00 -0.21842072730E+04  0.35538749653E+04  0.28034382207E+04 0.  0.
        3    1    3    3  502    0  0.52645907767E+03  0.94332607625E+03  0.40182842506E+02  0.10810355765E+04  0.10100000352E+00 0. -1.
       -3    1    3    3    0  502 -0.52645907767E+03 -0.94332607625E+03 -0.22243901156E+04  0.24728393888E+04  0.10100000352E+00 0.  1.
</event>
<event>
 5   0  0.1388269E-05  0.2769258E+04  0.7818609E-02  0.8312877E-01
        2   -1    0    0  501    0  0.00000000000E+00  0.00000000000E+00  0.19488689677E+04  0.19488689677E+04  0.25500000920E-02 0.  1.
       -2   -1    0    0    0  501  0.00000000000E+00  0.00000000000E+00 -0.98374845951E+03  0.98374845952E+03  0.25500000920E-02 0. -1.
    10030    2    1    2    0    0  0.00000000000E+00  0.00000000000E+00  0.96512050815E+03  0.29326174272E+04  0.27692575501E+04 0.  0.
        1    1    3    3  502    0 -0.13036925808E+04 -0.27422445279E+03  0.82963624060E+02  0.13348019923E+04  0.50400001928E-02 0.  1.
       -1    1    3    3    0  502  0.13036925808E+04  0.27422445279E+03  0.88215688409E+03  0.15978154349E+04  0.50400001928E-02 0. -1.
</event>
<event>
 5   0  0.5107453E-06  0.2814196E+04  0.7818609E-02  0.8298875E-01
       -1   -1    0    0    0  501  0.00000000000E+00  0.00000000000E+00  0.11737200232E+04  0.11737200232E+04  0.50400001928E-02 0. -1.
        1   -1    0    0  501    0  0.00000000000E+00  0.00000000000E+00 -0.16868796527E+04  0.16868796527E+04  0.50400001928E-02 0.  1.
    10030    2    1    2    0    0  0.00000000000E+00  0.00000000000E+00 -0.51315962945E+03  0.28605996759E+04  0.28141957466E+04 0.  0.
        2    1    3    3  502    0  0.75917034782E+03 -0.11054249518E+04 -0.68977657205E+03  0.15080104975E+04  0.25500000920E-02 0.  1.
       -2    1    3    3    0  502 -0.75917034782E+03  0.11054249518E+04  0.17661694260E+03  0.13525891784E+04  0.25500000920E-02 0. -1.
</event>
<event>
 5   0  0.5281919E-06  0.2759126E+04  0.7818609E-02  0.8316072E-01
       -1   -1    0    0    0  501  0.00000000000E+00  0.00000000000E+00  0.82300788352E+03  0.82300788353E+03  0.50400001928E-02 0.  1.
        1   -1    0    0  501    0  0.00000000000E+00  0.00000000000E+00 -0.23124861120E+04  0.23124861120E+04  0.50400001928E-02 0. -1.
    10030    2    1    2    0    0  0.00000000000E+00  0.00000000000E+00 -0.14894782284E+04  0.31354939955E+04  0.27591261665E+04 0.  0.
        4    1    3    3  502    0 -0.46825103663E+03  0.73894519756E+03  0.46749150746E+03  0.99189160736E+03  0.12699999809E+01 0.  1.
       -4    1    3    3    0  502  0.46825103663E+03 -0.73894519756E+03 -0.19569697359E+04  0.21436023881E+04  0.12699999809E+01 0. -1.
</event>
<event>
 5   0  0.1330962E-05  0.2703994E+04  0.7818609E-02  0.8333710E-01
        2   -1    0    0  501    0  0.00000000000E+00  0.00000000000E+00  0.25878844184E+04  0.25878844184E+04  0.25500000920E-02 0. -1.
       -2   -1    0    0    0  501  0.00000000000E+00  0.00000000000E+00 -0.70632812748E+03  0.70632812749E+03  0.25500000920E-02 0.  1.
    10030    2    1    2    0    0  0.00000000000E+00  0.00000000000E+00  0.18815562909E+04  0.32942125459E+04  0.27039937540E+04 0.  0.
        4    1    3    3  502    0 -0.10092478746E+04 -0.85855396745E+03  0.12681247040E+04  0.18340768973E+04  0.12699999809E+01 0. -1.
       -4    1    3    3    0  502  0.10092478746E+04  0.85855396745E+03  0.61343158693E+03  0.14601356486E+04  0.12699999809E+01 0.  1.
</event>
<event>
 5   0  0.1302063E-05  0.2791414E+04  0.7818609E-02  0.8305939E-01
       -2   -1    0    0    0  501  0.00000000000E+00  0.00000000000E+00  0.16906149214E+04  0.16906149214E+04  0.25500000920E-02 0. -1.
        2   -1    0    0  501    0  0.00000000000E+00  0.00000000000E+00 -0.11522423414E+04  0.11522423414E+04  0.25500000920E-02 0.  1.
    10030    2    1    2    0    0  0.00000000000E+00  0.00000000000E+00  0.53837258007E+03  0.28428572628E+04  0.27914140470E+04 0.  0.
        2    1    3    3  502    0  0.38808456098E+03 -0.10589438928E+04 -0.56817444296E+03  0.12628515322E+04  0.25500000920E-02 0.  1.
       -2    1    3    3    0  502 -0.38808456098E+03  0.10589438928E+04  0.11065470230E+04  0.15800057306E+04  0.25500000920E-02 0. -1.
</event>
<event>
 5   0  0.5023691E-06  0.2752538E+04  0.7818609E-02  0.8318157E-01
        1   -1    0    0  501    0  0.00000000000E+00  0.00000000000E+00  0.14768325102E+04  0.14768325102E+04  0.50400001928E-02 0. -1.
       -1   -1    0    0    0  501  0.00000000000E+00  0.00000000000E+00 -0.12825529599E+04  0.12825529599E+04  0.50400001928E-02 0.  1.
    10030    2    1    2    0    0  0.00000000000E+00  0.00000000000E+00  0.19427955023E+03  0.27593854701E+04  0.27525376708E+04 0.  0.
        5    1    3    3  502    0 -0.13126479876E+04  0.28364019021E+03 -0.20460292888E+03  0.13584479914E+04  0.46999998093E+01 0.  1.
       -5    1    3    3    0  502  0.13126479876E+04 -0.28364019021E+03  0.39888247911E+03  0.14009374786E+04  0.46999998093E+01 0. -1.
</event>
<event>
 5   0  0.1283052E-05  0.2780662E+04  0.7818609E-02  0.8309297E-01
       -2   -1    0    0    0  501  0.00000000000E+00  0.00000000000E+00  0.10343735537E+04  0.10343735537E+04  0.25500000920E-02 0.  1.
        2   -1    0    0  501    0  0.00000000000E+00  0.00000000000E+00 -0.18687839286E+04  0.18687839286E+04  0.25500000920E-02 0. -1.
    10030    2    1    2    0    0  0.00000000000E+00  0.00000000000E+00 -0.83441037491E+03  0.29031574823E+04  0.27806622760E+04 0.  0.
        5    1    3    3  502    0 -0.67069729946E+03 -0.68153008782E+03  0.63655390905E+03  0.11487128002E+04  0.46999998093E+01 0.  1.
       -5    1    3    3    0  502  0.67069729946E+03  0.68153008782E+03 -0.14709642840E+04  0.17544446822E+04  0.46999998093E+01 0. -1.
</event>
<event>
 5   0  0.1302063E-05  0.2807998E+04  0.7818609E-02  0.8300790E-01
        2   -1    0    0  501    0  0.00000000000E+00  0.00000000000E+00  0.16943807781E+04  0.16943807781E+04  0.25500000920E-02 0. -1.
       -2   -1    0    0    0  501  0.00000000000E+00  0.00000000000E+00 -0.11633828062E+04  0.11633828062E+04  0.25500000920E-02 0.  1.
    10030    2    1    2    0    0  0.00000000000E+00  0.00000000000E+00  0.53099797183E+03  0.28577635843E+04  0.28079981940E+04 0.  0.
        2    1    3    3  502    0 -0.22305033556E+03 -0.96062489413E+03  0.12825405411E+04  0.16178571875E+04  0.25500000920E-02 0. -1.
       -2    1    3    3    0  502  0.22305033556E+03  0.96062489413E+03 -0.75154256930E+03  0.12399063968E+04  0.25500000920E-02 0.  1.
</event>
<event>
 5   0  0.4447500E-06  0.2792617E+04  0.7818609E-02  0.8305564E-01
       -4   -1    0    0    0  501  0.00000000000E+00  0.00000000000E+00  0.11980086312E+04  0.11980093044E+04  0.12699999809E+01 0. -1.
        4   -1    0    0  501    0  0.00000000000E+00  0.00000000000E+00 -0.16274302310E+04  0.16274307265E+04  0.12699999809E+01 0.  1.
    10030    2    1    2    0    0  0.00000000000E+00  0.00000000000E+00 -0.42942159979E+03  0.28254400309E+04  0.27926167760E+04 0.  0.
        4    1    3    3  502    0 -0.38231587172E+03 -0.36760346624E+03  0.10921277837E+04  0.12141014962E+04  0.12699999809E+01 0. -1.
       -4    1    3    3    0  502  0.38231587172E+03  0.36760346624E+03 -0.15215493835E+04  0.16113385347E+04  0.12699999809E+01 0.  1.
</event>
<event>
 5   0  0.4764214E-06  0.2798202E+04  0.7818609E-02  0.8303827E-01
        1   -1    0    0  501    0  0.00000000000E+00  0.00000000000E+00  0.21962408869E+04  0.21962408869E+04  0.50400001928E-02 0.  1.
       -1   -1    0    0    0  501  0.00000000000E+00  0.00000000000E+00 -0.89128833721E+03  0.89128833722E+03  0.50400001928E-02 0. -1.
    10030    2    1    2    0    0  0.00000000000E+00  0.00000000000E+00  0.13049525497E+04  0.30875292241E+04  0.27982022001E+04 0.  0.
        3    1    3    3  502    0  0.90650875242E+03  0.19623755238E+02  0.18281723829E+04  0.20406757415E+04  0.10100000352E+00 0.  1.
       -3    1    3    3    0  502 -0.90650875242E+03 -0.19623755238E+02 -0.52321983324E+03  0.10468534826E+04  0.10100000352E+00 0. -1.
</event>
<event>
 5   0  0.1388269E-05  0.2792389E+04  0.7818609E-02  0.8305635E-01
        2   -1    0    0  501    0  0.00000000000E+00  0.00000000000E+00  0.13840405658E+04  0.13840405658E+04  0.25500000920E-02 0.  1.
       -2   -1    0    0    0  501  0.00000000000E+00  0.00000000000E+00 -0.14084547149E+04  0.14084547149E+04  0.25500000920E-02 0. -1.
    10030    2    1    2    0    0  0.00000000000E+00  0.00000000000E+00 -0.24414149102E+02  0.27924952807E+04  0.27923885550E+04 0.  0.
        1    1    3    3  502    0  0.28211940885E+03  0.19889498703E+03  0.13406963915E+04  0.13844195140E+04  0.50400001928E-02 0.  1.
       -1    1    3    3    0  502 -0.28211940885E+03 -0.19889498703E+03 -0.13651105406E+04  0.14080757667E+04  0.50400001928E-02 0. -1.
</event>
<event>
 5   0  0.4764214E-06  0.2786554E+04  0.7818609E-02  0.8307455E-01
       -1   -1    0    0    0  501  0.00000000000E+00  0.00000000000E+00  0.13485006345E+04  0.13485006345E+04  0.50400001928E-02 0.  1.
        1   -1    0    0  501    0  0.00000000000E+00  0.00000000000E+00 -0.14395400227E+04  0.14395400228E+04  0.50400001928E-02 0. -1.
    10030    2    1    2    0    0  0.00000000000E+00  0.00000000000E+00 -0.91039388275E+02  0.27880406572E+04  0.27865538818E+04 0.  0.
        3    1    3    3  502    0  0.90496649007E+03 -0.52725391330E+03  0.87380654946E+03  0.13640010753E+04  0.10100000352E+00 0.  1.
       -3    1    3    3    0  502 -0.90496649007E+03  0.52725391330E+03 -0.96484593774E+03  0.14240395820E+04  0.10100000352E+00 0. -1.
</event>
<event>
 5   0  0.1302063E-05  0.2716254E+04  0.7818609E-02  0.8329750E-01
        2   -1    0    0  501    0  0.00000000000E+00  0.00000000000E+00  0.11431866909E+04  0.11431866909E+04  0.25500000920E-02 0. -1.
       -2   -1    0    0    0  501  0.00000000000E+00  0.00000000000E+00 -0.16134798976E+04  0.16134798976E+04  0.25500000920E-02 0.  1.
    10030    2    1    2    0    0  0.00000000000E+00  0.00000000000E+00 -0.47029320662E+03  0.27566665885E+04  0.27162538504E+04 0.  0.
        2    1    3    3  502    0 -0.72282072044E+03 -0.37925851180E+03 -0.13367461610E+04  0.15662685312E+04  0.25500000920E-02 0.  1.
       -2    1    3    3    0  502  0.72282072044E+03  0.37925851180E+03  0.86645295442E+03  0.11903980573E+04  0.25500000920E-02 0. -1.
</event>
<event>
 5   0  0.1350863E-05  0.2787754E+04  0.7818609E-02  0.8307080E-01
       -2   -1    0    0    0  501  0.00000000000E+00  0.00000000000E+00  0.13698876669E+04  0.13698876669E+04  0.25500000920E-02 0.  1.
        2   -1    0    0  501    0  0.00000000000E+00  0.00000000000E+00 -0.14182866284E+04  0.14182866284E+04  0.25500000920E-02 0. -1.
    10030    2    1    2    0    0  0.00000000000E+00  0.00000000000E+00 -0.48398961406E+02  0.27881742953E+04  0.27877541932E+04 0.  0.
        3    1    3    3  502    0  0.12295895399E+03 -0.71312491504E+03 -0.12156922738E+04  0.14147698624E+04  0.10100000352E+00 0. -1.
       -3    1    3    3    0  502 -0.12295895399E+03  0.71312491504E+03  0.11672933124E+04  0.13734044329E+04  0.10100000352E+00 0.  1.
</event>
<event>
 5   0  0.1388269E-05  0.2467386E+04  0.7818609E-02  0.8414698E-01
        2   -1    0    0  501    0  0.00000000000E+00  0.00000000000E+00  0.17683653872E+04  0.17683653872E+04  0.25500000920E-02 0. -1.
       -2   -1    0    0    0  501  0.00000000000E+00  0.00000000000E+00 -0.86068071905E+03  0.86068071905E+03  0.25500000920E-02 0.  1.
    10030    2    1    2    0    0  0.00000000000E+00  0.00000000000E+00  0.90768466816E+03  0.26290461063E+04  0.24673856553E+04 0.  0.
        1    1    3    3  502    0  0.10847911942E+04 -0.27114383250E+03  0.10092497122E+04  0.15062788236E+04  0.50400001928E-02 0. -1.
       -1    1    3    3    0  502 -0.10847911942E+04  0.27114383250E+03 -0.10156504403E+03  0.11227672827E+04  0.50400001928E-02 0.  1.
</event>
<event>
 5   0  0.1283052E-05  0.2823124E+04  0.7818609E-02  0.8296125E-01
       -2   -1    0    0    0  501  0.00000000000E+00  0.00000000000E+00  0.96828655261E+03  0.96828655262E+03  0.25500000920E-02 0. -1.
        2   -1    0    0  501    0  0.00000000000E+00  0.00000000000E+00 -0.20577665081E+04  0.20577665081E+04  0.25500000920E-02 0.  1.
    10030    2    1    2    0    0  0.00000000000E+00  0.00000000000E+00 -0.10894799555E+04  0.30260530607E+04  0.28231242539E+04 0.  0.
        5    1    3    3  502    0  0.50466690166E+03 -0.11421316563E+04 -0.12503374231E+04  0.17670651271E+04  0.46999998093E+01 0.  1.
       -5    1    3    3    0  502 -0.50466690166E+03  0.11421316563E+04  0.16085746768E+03  0.12589879335E+04  0.46999998093E+01 0. -1.
</event>
<event>
 5   0  0.5281919E-06  0.2849372E+04  0.7818609E-02  0.8288102E-01
        1   -1    0    0  501    0  0.00000000000E+00  0.00000000000E+00  0.11360015725E+04  0.11360015726E+04  0.50400001928E-02 0.  1.
       -1   -1    0    0    0  501  0.00000000000E+00  0.00000000000E+00 -0.17867318248E+04  0.17867318248E+04  0.50400001928E-02 0. -1.
    10030    2    1    2    0    0  0.00000000000E+00  0.00000000000E+00 -0.65073025223E+03  0.29227333973E+04  0.28493719748E+04 0.  0.
        4    1    3    3  502    0  0.33984211335E+03 -0.11551581221E+04  0.45571616777E+03  0.12874633150E+04  0.12699999809E+01 0.  1.
       -4    1    3    3    0  502 -0.33984211335E+03  0.11551581221E+04 -0.11064464200E+04  0.16352700823E+04  0.12699999809E+01 0. -1.
</event>
<event>
 5   0  0.5023691E-06  0.2827025E+04  0.7818609E-02  0.8294927E-01
       -1   -1    0    0    0  501  0.00000000000E+00  0.00000000000E+00  0.13858954445E+04  0.13858954445E+04  0.50400001928E-02 0.  1.
        1   -1    0    0  501    0  0.00000000000E+00  0.00000000000E+00 -0.14416795327E+04  0.14416795327E+04  0.50400001928E-02 0. -1.
    10030    2    1    2    0    0  0.00000000000E+00  0.00000000000E+00 -0.55784088164E+02  0.28275749772E+04  0.28270246527E+04 0.  0.
        5    1    3    3  502    0  0.80788163770E+03  0.61985436669E+03 -0.10084414075E+04  0.14331323521E+04  0.46999998093E+01 0. -1.
       -5    1    3    3    0  502 -0.80788163770E+03 -0.61985436669E+03  0.95265731931E+03  0.13944426250E+04  0.46999998093E+01 0.  1.
</event>
<event>
 5   0  0.1330962E-05  0.2310398E+04  0.7818609E-02  0.8473833E-01
       -2   -1    0    0    0  501  0.00000000000E+00  0.00000000000E+00  0.96986480592E+03  0.96986480592E+03  0.25500000920E-02 0.  1.
        2   -1    0    0  501    0  0.00000000000E+00  0.00000000000E+00 -0.13759493812E+04  0.13759493812E+04  0.25500000920E-02 0. -1.
    10030    2    1    2    0    0  0.00000000000E+00  0.00000000000E+00 -0.40608457524E+03  0.23458141871E+04  0.23103981298E+04 0.  0.
        4    1    3    3  502    0 -0.85305865178E+03 -0.33668114666E+03 -0.91624857397E+03  0.12963704409E+04  0.12699999809E+01 0. -1.
       -4    1    3    3    0  502  0.85305865178E+03  0.33668114666E+03  0.51016399872E+03  0.10494437462E+04  0.12699999809E+01 0.  1.
</event>
<event>
 5   0  0.5281919E-06  0.2828878E+04  0.7818609E-02  0.8294359E-01
       -1   -1    0    0    0  501  0.00000000000E+00  0.00000000000E+00  0.13005417479E+04  0.13005417479E+04  0.50400001928E-02 0.  1.
        1   -1    0    0  501    0  0.00000000000E+00  0.00000000000E+00 -0.15383112349E+04  0.15383112349E+04  0.50400001928E-02 0. -1.
    10030    2    1    2    0    0  0.00000000000E+00  0.00000000000E+00 -0.23776948699E+03  0.28388529827E+04  0.28288782103E+04 0.  0.
        4    1    3    3  502    0  0.61443837453E+03 -0.11100959821E+04  0.50845049835E+03  0.13668837287E+04  0.12699999809E+01 0.  1.
       -4    1    3    3    0  502 -0.61443837453E+03  0.11100959821E+04 -0.74621998534E+03  0.14719692541E+04  0.12699999809E+01 0. -1.
</event>
<event>
 5   0  0.5217999E-06  0.2893791E+04  0.7818609E-02  0.8274727E-01
        1   -1    0    0  501    0  0.00000000000E+00  0.00000000000E+00  0.19741649249E+04  0.19741649249E+04  0.50400001928E-02 0.  1.
       -1   -1    0    0    0  501  0.00000000000E+00  0.00000000000E+00 -0.10604513738E+04  0.10604513738E+04  0.50400001928E-02 0. -1.
    10030    2    1    2    0    0  0.00000000000E+00  0.00000000000E+00  0.91371355109E+03  0.30346162987E+04  0.28937905292E+04 0.  0.
        1    1    3    3  502    0  0.99265290432E+03 -0.10538121742E+03 -0.64151182271E+03  0.11865927727E+04  0.50400001928E-02 0. -1.
       -1    1    3    3    0  502 -0.99265290432E+03  0.10538121742E+03  0.15552253738E+04  0.18480235260E+04  0.50400001928E-02 0.  1.
</event>
<event>
 5   0  0.1388269E-05  0.3125307E+04  0.7818609E-02  0.8208827E-01
        2   -1    0    0  501    0  0.00000000000E+00  0.00000000000E+00  0.16675689272E+04  0.16675689272E+04  0.25500000920E-02 0.  1.
       -2   -1    0    0    0  501  0.00000000000E+00  0.00000000000E+00 -0.14643386954E+04  0.14643386954E+04  0.25500000920E-02 0. -1.
    10030    2    1    2    0    0  0.00000000000E+00  0.00000000000E+00  0.20323023180E+03  0.31319076227E+04  0.31253068377E+04 0.  0.
        1    1    3    3  502    0 -0.44041631175E+03  0.14737864319E+04  0.37764693339E+03  0.15838655817E+04  0.50400001928E-02 0.  1.
       -1    1    3    3    0  502  0.44041631175E+03 -0.14737864319E+04 -0.17441670159E+03  0.15480420409E+04  0.50400001928E-02 0. -1.
</event>
<event>
 5   0  0.5023691E-06  0.2528905E+04  0.7818609E-02  0.8392760E-01
       -1   -1    0    0    0  501  0.00000000000E+00  0.00000000000E+00  0.13386391434E+04  0.13386391434E+04  0.50400001928E-02 0.  1.
        1   -1    0    0  501    0  0.00000000000E+00  0.00000000000E+00 -0.11943774332E+04  0.11943774332E+04  0.50400001928E-02 0. -1.
    10030    2    1    2    0    0  0.00000000000E+00  0.00000000000E+00  0.14426171025E+03  0.25330165766E+04  0.25289052051E+04 0.  0.
        5    1    3    3  502    0  0.65485269584E+03 -0.28530621394E+03  0.11171806267E+04  0.13260265200E+04  0.46999998093E+01 0.  1.
       -5    1    3    3    0  502 -0.65485269584E+03  0.28530621394E+03 -0.97291891645E+03  0.12069900567E+04  0.46999998093E+01 0. -1.
</event>
<event>
 5   0  0.1330962E-05  0.2843073E+04  0.7818609E-02  0.8290019E-01
       -2   -1    0    0    0  501  0.00000000000E+00  0.00000000000E+00  0.92256825117E+03  0.92256825117E+03  0.25500000920E-02 0. -1.
        2   -1    0    0  501    0  0.00000000000E+00  0.00000000000E+00 -0.21903703584E+04  0.21903703584E+04  0.25500000920E-02 0.  1.
    10030    2    1    2    0    0  0.00000000000E+00  0.00000000000E+00 -0.12678021072E+04  0.31129386095E+04  0.28430730915E+04 0.  0.
        4    1    3    3  502    0 -0.59019844618E+03  0.11812096540E+04 -0.12103473360E+04  0.17912377674E+04  0.12699999809E+01 0.  1.
       -4    1    3    3    0  502  0.59019844618E+03 -0.11812096540E+04 -0.57454771195E+02  0.13217008422E+04  0.12699999809E+01 0. -1.
</event>
<event>
 5   0  0.1388269E-05  0.2649029E+04  0.7818609E-02  0.8351735E-01
       -2   -1    0    0    0  501  0.00000000000E+00  0.00000000000E+00  0.13421498483E+04  0.13421498483E+04  0.25500000920E-02 0. -1.
        2   -1    0    0  501    0  0.00000000000E+00  0.00000000000E+00 -0.13071110832E+04  0.13071110832E+04  0.25500000920E-02 0.  1.
    10030    2    1    2    0    0  0.00000000000E+00  0.00000000000E+00  0.35038765079E+02  0.26492609315E+04  0.26490292124E+04 0.  0.
        1    1    3    3  502    0  0.67676335801E+03  0.21711285670E+03 -0.11002511029E+04  0.13098469852E+04  0.50400001928E-02 0.  1.
       -1    1    3    3    0  502 -0.67676335801E+03 -0.21711285670E+03  0.11352898679E+04  0.13394139463E+04  0.50400001928E-02 0. -1.
</event>
<event>
 5   0  0.1350863E-05  0.2828856E+04  0.7818609E-02  0.8294365E-01
       -2   -1    0    0    0  501  0.00000000000E+00  0.00000000000E+00  0.92086552638E+03  0.92086552639E+03  0.25500000920E-02 0.  1.
        2   -1    0    0  501    0  0.00000000000E+00  0.00000000000E+00 -0.21725285662E+04  0.21725285662E+04  0.25500000920E-02 0. -1.
    10030    2    1    2    0    0  0.00000000000E+00  0.00000000000E+00 -0.12516630398E+04  0.30933940926E+04  0.28288560668E+04 0.  0.
        3    1    3    3  502    0  0.12810981922E+04 -0.29286638270E+03 -0.11978380451E+04  0.17781449009E+04  0.10100000352E+00 0. -1.
       -3    1    3    3    0  502 -0.12810981922E+04  0.29286638270E+03 -0.53824994750E+02  0.13152491917E+04  0.10100000352E+00 0.  1.
</event>
<event>
 5   0  0.1302063E-05  0.2834332E+04  0.7818609E-02  0.8292688E-01
       -2   -1    0    0    0  501  0.00000000000E+00  0.00000000000E+00  0.18335346315E+04  0.18335346315E+04  0.25500000920E-02 0. -1.
        2   -1    0    0  501    0  0.00000000000E+00  0.00000000000E+00 -0.10953486831E+04  0.10953486831E+04  0.25500000920E-02 0.  1.
    10030    2    1    2    0    0  0.00000000000E+00  0.00000000000E+00  0.73818594843E+03  0.29288833146E+04  0.28343321923E+04 0.  0.
        2    1    3    3  502    0  0.18956284323E+03  0.83893780584E+03 -0.79480582382E+03  0.11710964995E+04  0.25500000920E-02 0.  1.
       -2    1    3    3    0  502 -0.18956284323E+03 -0.83893780584E+03  0.15329917722E+04  0.17577868151E+04  0.25500000920E-02 0. -1.
</event>
<event>
 5   0  0.1388269E-05  0.2821731E+04  0.7818609E-02  0.8296553E-01
        2   -1    0    0  501    0  0.00000000000E+00  0.00000000000E+00  0.17543227770E+04  0.17543227770E+04  0.25500000920E-02 0.  1.
       -2   -1    0    0    0  501  0.00000000000E+00  0.00000000000E+00 -0.11346494083E+04  0.11346494083E+04  0.25500000920E-02 0. -1.
    10030    2    1    2    0    0  0.00000000000E+00  0.00000000000E+00  0.61967336870E+03  0.28889721853E+04  0.28217308879E+04 0.  0.
        1    1    3    3  502    0  0.23709888758E+03 -0.13817271520E+04  0.14745231983E+03  0.14096552740E+04  0.50400001928E-02 0. -1.
       -1    1    3    3    0  502 -0.23709888758E+03  0.13817271520E+04  0.47222104887E+03  0.14793169113E+04  0.50400001928E-02 0.  1.
</event>
<event>
 5   0  0.1283052E-05  0.2332941E+04  0.7818609E-02  0.8465045E-01
        2   -1    0    0  501    0  0.00000000000E+00  0.00000000000E+00  0.13390219838E+04  0.13390219838E+04  0.25500000920E-02 0. -1.
       -2   -1    0    0    0  501  0.00000000000E+00  0.00000000000E+00 -0.10161546253E+04  0.10161546253E+04  0.25500000920E-02 0.  1.
    10030    2    1    2    0    0  0.00000000000E+00  0.00000000000E+00  0.32286735844E+03  0.23551766091E+04  0.23329409613E+04 0.  0.
        5    1    3    3  502    0 -0.94369635189E+02  0.10633204292E+04 -0.31323422947E+03  0.11125168474E+04  0.46999998093E+01 0. -1.
       -5    1    3    3    0  502  0.94369635189E+02 -0.10633204292E+04  0.63610158790E+03  0.12426597617E+04  0.46999998093E+01 0.  1.
</event>
<event>
 5   0  0.1302063E-05  0.2815848E+04  0.7818609E-02  0.8298365E-01
       -2   -1    0    0    0  501  0.00000000000E+00  0.00000000000E+00  0.91907089405E+03  0.91907089406E+03  0.25500000920E-02 0.  1.
        2   -1    0    0  501    0  0.00000000000E+00  0.00000000000E+00 -0.21567972942E+04  0.21567972942E+04  0.25500000920E-02 0. -1.
    10030    2    1    2    0    0  0.00000000000E+00  0.00000000000E+00 -0.12377264002E+04  0.30758681883E+04  0.28158477356E+04 0.  0.
        2    1    3    3  502    0  0.90860280167E+03  0.10754948911E+04 -0.61761509038E+03  0.15374318560E+04  0.25500000920E-02 0. -1.
       -2    1    3    3    0  502 -0.90860280167E+03 -0.10754948911E+04 -0.62011130977E+03  0.15384363323E+04  0.25500000920E-02 0.  1.
</event>
<event>
 5   0  0.4764214E-06  0.2642372E+04  0.7818609E-02  0.8353949E-01
       -1   -1    0    0    0  501  0.00000000000E+00  0.00000000000E+00  0.11775203722E+04  0.11775203722E+04  0.50400001928E-02 0. -1.
        1   -1    0    0  501    0  0.00000000000E+00  0.00000000000E+00 -0.14823798346E+04  0.14823798346E+04  0.50400001928E-02 0.  1.
    10030    2    1    2    0    0  0.00000000000E+00  0.00000000000E+00 -0.30485946237E+03  0.26599002068E+04  0.26423720060E+04 0.  0.
        3    1    3    3  502    0 -0.98848969559E+03  0.22265422330E+03  0.70104213958E+03  0.12321310292E+04  0.10100000352E+00 0. -1.
       -3    1    3    3    0  502  0.98848969559E+03 -0.22265422330E+03 -0.10059016020E+04  0.14277691776E+04  0.10100000352E+00 0.  1.
</event>
<event>
 5   0  0.5217999E-06  0.2740113E+04  0.7818609E-02  0.8322106E-01
        1   -1    0    0  501    0  0.00000000000E+00  0.00000000000E+00  0.19372258391E+04  0.19372258391E+04  0.50400001928E-02 0. -1.
       -1   -1    0    0    0  501  0.00000000000E+00  0.00000000000E+00 -0.96893941651E+03  0.96893941653E+03  0.50400001928E-02 0.  1.
    10030    2    1    2    0    0  0.00000000000E+00  0.00000000000E+00  0.96828642260E+03  0.29061652556E+04  0.27401127526E+04 0.  0.
        1    1    3    3  502    0  0.95685059577E+03  0.22066872751E+03  0.14974452323E+04  0.17906981805E+04  0.50400001928E-02 0. -1.
       -1    1    3    3    0  502 -0.95685059577E+03 -0.22066872751E+03 -0.52915880966E+03  0.11154670752E+04  0.50400001928E-02 0.  1.
</event>
<event>
 5   0  0.1302063E-05  0.2811513E+04  0.7818609E-02  0.8299703E-01
       -2   -1    0    0    0  501  0.00000000000E+00  0.00000000000E+00  0.72056481246E+03  0.72056481246E+03  0.25500000920E-02 0. -1.
        2   -1    0    0  501    0  0.00000000000E+00  0.00000000000E+00 -0.27425028302E+04  0.27425028302E+04  0.25500000920E-02 0.  1.
    10030    2    1    2    0    0  0.00000000000E+00  0.00000000000E+00 -0.20219380177E+04  0.34630676426E+04  0.28115127867E+04 0.  0.
        2    1    3    3  502    0  0.33187458627E+03  0.80409399487E+03 -0.23711656236E+04  0.25256948169E+04  0.25500000920E-02 0.  1.
       -2    1    3    3    0  502 -0.33187458627E+03 -0.80409399487E+03  0.34922760592E+03  0.93737282569E+03  0.25500000920E-02 0. -1.
</event>
<event>
 5   0  0.1283052E-05  0.3357857E+04  0.7818609E-02  0.8148328E-01
       -2   -1    0    0    0  501  0.00000000000E+00  0.00000000000E+00  0.15718881251E+04  0.15718881251E+04  0.25500000920E-02 0.  1.
        2   -1    0    0  501    0  0.00000000000E+00  0.00000000000E+00 -0.17932579379E+04  0.17932579379E+04  0.25500000920E-02 0. -1.
    10030    2    1    2    0    0  0.00000000000E+00  0.00000000000E+00 -0.22136981276E+03  0.33651460630E+04  0.33578569700E+04 0.  0.
        5    1    3    3  502    0 -0.35082624922E+03  0.15742299853E+04  0.35669605927E+03  0.16518272526E+04  0.46999998093E+01 0.  1.
       -5    1    3    3    0  502  0.35082624922E+03 -0.15742299853E+04 -0.57806587202E+03  0.17133188104E+04  0.46999998093E+01 0. -1.
</event>
<event>
 5   0  0.1283052E-05  0.2761784E+04  0.7818609E-02  0.8315232E-01
       -2   -1    0    0    0  501  0.00000000000E+00  0.00000000000E+00  0.80083784318E+03  0.80083784319E+03  0.25500000920E-02 0. -1.
        2   -1    0    0  501    0  0.00000000000E+00  0.00000000000E+00 -0.23810840540E+04  0.23810840540E+04  0.25500000920E-02 0.  1.
    10030    2    1    2    0    0  0.00000000000E+00  0.00000000000E+00 -0.15802462108E+04  0.31819218971E+04  0.27617836398E+04 0.  0.
        5    1    3    3  502    0 -0.62543621933E+03 -0.47671943596E+03  0.51763255987E+03  0.94148682524E+03  0.46999998093E+01 0. -1.
       -5    1    3    3    0  502  0.62543621933E+03  0.47671943596E+03 -0.20978787706E+04  0.22404350719E+04  0.46999998093E+01 0.  1.
</event>
<event>
 5   0  0.5281919E-06  0.2789413E+04  0.7818609E-02  0.8306563E-01
       -1   -1    0    0    0  501  0.00000000000E+00  0.00000000000E+00  0.14952267252E+04  0.14952267252E+04  0.50400001928E-02 0.  1.
        1   -1    0    0  501    0  0.00000000000E+00  0.00000000000E+00 -0.13009440908E+04  0.13009440908E+04  0.50400001928E-02 0. -1.
    10030    2    1    2    0    0  0.00000000000E+00  0.00000000000E+00  0.19428263440E+03  0.27961708161E+04  0.27894131086E+04 0.  0.
        4    1    3    3  502    0  0.94832448003E+02  0.83236362574E+03 -0.10206306461E+04  0.13204207387E+04  0.12699999809E+01 0. -1.
       -4    1    3    3    0  502 -0.94832448003E+02 -0.83236362574E+03  0.12149132805E+04  0.14757500773E+04  0.12699999809E+01 0.  1.
</event>
<event>
 5   0  0.5023691E-06  0.2797865E+04  0.7818609E-02  0.8303932E-01
       -1   -1    0    0    0  501  0.00000000000E+00  0.00000000000E+00  0.10393858607E+04  0.10393858607E+04  0.50400001928E-02 0. -1.
        1   -1    0    0  501    0  0.00000000000E+00  0.00000000000E+00 -0.18828538656E+04  0.18828538656E+04  0.50400001928E-02 0.  1.
    10030    2    1    2    0    0  0.00000000000E+00  0.00000000000E+00 -0.84346800494E+03  0.29222397263E+04  0.27978646755E+04 0.  0.
        5    1    3    3  502    0  0.20281076100E+02  0.11753287952E+04 -0.12138544263E+04  0.16897555317E+04  0.46999998093E+01 0.  1.
       -5    1    3    3    0  502 -0.20281076100E+02 -0.11753287952E+04  0.37038642131E+03  0.12324841946E+04  0.46999998093E+01 0. -1.
</event>
<event>
 5   0  0.1388269E-05  0.2845081E+04  0.7818609E-02  0.8289408E-01
        2   -1    0    0  501    0  0.00000000000E+00  0.00000000000E+00  0.17920439585E+04  0.17920439585E+04  0.25500000920E-02 0. -1.
       -2   -1    0    0    0  501  0.00000000000E+00  0.00000000000E+00 -0.11292252791E+04  0.11292252791E+04  0.25500000920E-02 0.  1.
    10030    2    1    2    0    0  0.00000000000E+00  0.00000000000E+00  0.66281867943E+03  0.29212692376E+04  0.28450809052E+04 0.  0.
        1    1    3    3  502    0  0.13362048646E+04 -0.46799972141E+03  0.47351406398E+03  0.14928773387E+04  0.50400001928E-02 0. -1.
       -1    1    3    3    0  502 -0.13362048646E+04  0.46799972141E+03  0.18930461545E+03  0.14283918989E+04  0.50400001928E-02 0.  1.
</event>
<event>
 5   0  0.1330962E-05  0.2818811E+04  0.7818609E-02  0.8297452E-01
       -2   -1    0    0    0  501  0.00000000000E+00  0.00000000000E+00  0.15704455001E+04  0.15704455001E+04  0.25500000920E-02 0.  1.
        2   -1    0    0  501    0  0.00000000000E+00  0.00000000000E+00 -0.12648794625E+04  0.12648794625E+04  0.25500000920E-02 0. -1.
    10030    2    1    2    0    0  0.00000000000E+00  0.00000000000E+00  0.30556603757E+03  0.28353249625E+04  0.28188112814E+04 0.  0.
        4    1    3    3  502    0 -0.11720946805E+04 -0.46386161535E+03  0.78691200340E+03  0.14860032477E+04  0.12699999809E+01 0.  1.
       -4    1    3    3    0  502  0.11720946805E+04  0.46386161535E+03 -0.48134596583E+03  0.13493217148E+04  0.12699999809E+01 0. -1.
</event>
<event>
 5   0  0.1302063E-05  0.2812315E+04  0.7818609E-02  0.8299455E-01
       -2   -1    0    0    0  501  0.00000000000E+00  0.00000000000E+00  0.10297957586E+04  0.10297957586E+04  0.25500000920E-02 0. -1.
        2   -1    0    0  501    0  0.00000000000E+00  0.00000000000E+00 -0.19200692891E+04  0.19200692892E+04  0.25500000920E-02 0.  1.
    10030    2    1    2    0    0  0.00000000000E+00  0.00000000000E+00 -0.89027353058E+03  0.29498650477E+04  0.28123152100E+04 0.  0.
        2    1    3    3  502    0 -0.84997272853E+03 -0.69296844529E+03 -0.13683086951E+04  0.17535471452E+04  0.25500000920E-02 0.  1.
       -2    1    3    3    0  502  0.84997272853E+03  0.69296844529E+03  0.47803516448E+03  0.11963179025E+04  0.25500000920E-02 0. -1.
</event>
<event>
 5   0  0.1302063E-05  0.2882249E+04  0.7818609E-02  0.8278179E-01
       -2   -1    0    0    0  501  0.00000000000E+00  0.00000000000E+00  0.13591296359E+04  0.13591296359E+04  0.25500000920E-02 0. -1.
        2   -1    0    0  501    0  0.00000000000E+00  0.00000000000E+00 -0.15280656408E+04  0.15280656408E+04  0.25500000920E-02 0.  1.
    10030    2    1    2    0    0  0.00000000000E+00  0.00000000000E+00 -0.16893600490E+03  0.28871952768E+04  0.28822486348E+04 0.  0.
        2    1    3    3  502    0 -0.27063342954E+03 -0.75615510217E+03  0.11141750848E+04  0.13734624535E+04  0.25500000920E-02 0. -1.
       -2    1    3    3    0  502  0.27063342954E+03  0.75615510217E+03 -0.12831110897E+04  0.15137328233E+04  0.25500000920E-02 0.  1.
</event>
<event>
 5   0  0.5107453E-06  0.2868330E+04  0.7818609E-02  0.8282363E-01
       -1   -1    0    0    0  501  0.00000000000E+00  0.00000000000E+00  0.10139210231E+04  0.10139210231E+04  0.50400001928E-02 0. -1.
        1   -1    0    0  501    0  0.00000000000E+00  0.00000000000E+00 -0.20285898114E+04  0.20285898115E+04  0.50400001928E-02 0.  1.
    10030    2    1    2    0    0  0.00000000000E+00  0.00000000000E+00 -0.10146687884E+04  0.30425108345E+04  0.28683304252E+04 0.  0.
        2    1    3    3  502    0 -0.31865966424E+03  0.13735404104E+04 -0.22936642719E+03  0.14285538837E+04  0.25500000920E-02 0. -1.
       -2    1    3    3    0  502  0.31865966424E+03 -0.13735404104E+04 -0.78530236119E+03  0.16139569508E+04  0.25500000920E-02 0.  1.
</event>
<event>
 5   0  0.4764214E-06  0.2800074E+04  0.7818609E-02  0.8303245E-01
        1   -1    0    0  501    0  0.00000000000E+00  0.00000000000E+00  0.16352312273E+04  0.16352312273E+04  0.50400001928E-02 0.  1.
       -1   -1    0    0    0  501  0.00000000000E+00  0.00000000000E+00 -0.11986708500E+04  0.11986708500E+04  0.50400001928E-02 0. -1.
    10030    2    1    2    0    0  0.00000000000E+00  0.00000000000E+00  0.43656037734E+03  0.28339020773E+04  0.28000742884E+04 0.  0.
        3    1    3    3  502    0  0.12769898470E+03  0.13934912827E+04  0.17325669291E+03  0.14100152047E+04  0.10100000352E+00 0.  1.
       -3    1    3    3    0  502 -0.12769898470E+03 -0.13934912827E+04  0.26330368443E+03  0.14238868726E+04  0.10100000352E+00 0. -1.
</event>
<event>
 5   0  0.1283052E-05  0.2808467E+04  0.7818609E-02  0.8300644E-01
       -2   -1    0    0    0  501  0.00000000000E+00  0.00000000000E+00  0.99286718281E+03  0.99286718281E+03  0.25500000920E-02 0. -1.
        2   -1    0    0  501    0  0.00000000000E+00  0.00000000000E+00 -0.19860383810E+04  0.19860383810E+04  0.25500000920E-02 0.  1.
    10030    2    1    2    0    0  0.00000000000E+00  0.00000000000E+00 -0.99317119817E+03  0.29789055638E+04  0.28084674342E+04 0.  0.
        5    1    3    3  502    0 -0.42984348967E+03 -0.99532340192E+03 -0.14431656995E+04  0.18050438849E+04  0.46999998093E+01 0.  1.
       -5    1    3    3    0  502  0.42984348967E+03  0.99532340192E+03  0.44999450134E+03  0.11738616789E+04  0.46999998093E+01 0. -1.
</event>
<event>
 5   0  0.1388269E-05  0.2820853E+04  0.7818609E-02  0.8296823E-01
       -2   -1    0    0    0  501  0.00000000000E+00  0.00000000000E+00  0.23106696992E+04  0.23106696992E+04  0.25500000920E-02 0. -1.
        2   -1    0    0  501    0  0.00000000000E+00  0.00000000000E+00 -0.86092046279E+03  0.86092046279E+03  0.25500000920E-02 0.  1.
    10030    2    1    2    0    0  0.00000000000E+00  0.00000000000E+00  0.14497492364E+04  0.31715901620E+04  0.28208529396E+04 0.  0.
        1    1    3    3  502    0 -0.13078951377E+04 -0.33051792576E+03  0.11877289782E+04  0.17973680525E+04  0.50400001928E-02 0.  1.
       -1    1    3    3    0  502  0.13078951377E+04  0.33051792576E+03  0.26202025816E+03  0.13742221095E+04  0.50400001928E-02 0. -1.
</event>
<event>
 5   0  0.5281919E-06  0.2825152E+04  0.7818609E-02  0.8295502E-01
        1   -1    0    0  501    0  0.00000000000E+00  0.00000000000E+00  0.25216342480E+04  0.25216342480E+04  0.50400001928E-02 0.  1.
       -1   -1    0    0    0  501  0.00000000000E+00  0.00000000000E+00 -0.79130095792E+03  0.79130095794E+03  0.50400001928E-02 0. -1.
    10030    2    1    2    0    0  0.00000000000E+00  0.00000000000E+00  0.17303332901E+04  0.33129352060E+04  0.28251524532E+04 0.  0.
        4    1    3    3  502    0  0.73610711232E+03 -0.40093347295E+03 -0.46814434803E+03  0.96008440985E+03  0.12699999809E+01 0. -1.
       -4    1    3    3    0  502 -0.73610711232E+03  0.40093347295E+03  0.21984776381E+04  0.23528507961E+04  0.12699999809E+01 0.  1.
</event>
<event>
 5   0  0.4764214E-06  0.2806822E+04  0.7818609E-02  0.8301153E-01
       -1   -1    0    0    0  501  0.00000000000E+00  0.00000000000E+00  0.18164386251E+04  0.18164386251E+04  0.50400001928E-02 0.  1.
        1   -1    0    0  501    0  0.00000000000E+00  0.00000000000E+00 -0.10842991493E+04  0.10842991494E+04  0.50400001928E-02 0. -1.
    10030    2    1    2    0    0  0.00000000000E+00  0.00000000000E+00  0.73213947578E+03  0.29007377745E+04  0.28068223001E+04 0.  0.
        3    1    3    3  502    0 -0.53504518440E+03 -0.12938417675E+04  0.46553440883E+03  0.14754735391E+04  0.10100000352E+00 0. -1.
       -3    1    3    3    0  502  0.53504518440E+03  0.12938417675E+04  0.26660506696E+03  0.14252642354E+04  0.10100000352E+00 0.  1.
</event>
<event>
 5   0  0.1283052E-05  0.2196173E+04  0.7818609E-02  0.8520023E-01
        2   -1    0    0  501    0  0.00000000000E+00  0.00000000000E+00  0.11337696589E+04  0.11337696589E+04  0.25500000920E-02 0.  1.
       -2   -1    0    0    0  501  0.00000000000E+00  0.00000000000E+00 -0.10635266791E+04  0.10635266791E+04  0.25500000920E-02 0. -1.
    10030    2    1    2    0    0  0.00000000000E+00  0.00000000000E+00  0.70242979791E+02  0.21972963379E+04  0.21961732902E+04 0.  0.
        5    1    3    3  502    0 -0.15130219982E+03 -0.74552190913E+03  0.82740831469E+03  0.11239759258E+04  0.46999998093E+01 0.  1.
       -5    1    3    3    0  502  0.15130219982E+03  0.74552190913E+03 -0.75716533490E+03  0.10733204121E+04  0.46999998093E+01 0. -1.
</event>
<event>
 5   0  0.1283052E-05  0.2732268E+04  0.7818609E-02  0.8324611E-01
        2   -1    0    0  501    0  0.00000000000E+00  0.00000000000E+00  0.19257594096E+04  0.19257594096E+04  0.25500000920E-02 0. -1.
       -2   -1    0    0    0  501  0.00000000000E+00  0.00000000000E+00 -0.96913531005E+03  0.96913531006E+03  0.25500000920E-02 0.  1.
    10030    2    1    2    0    0  0.00000000000E+00  0.00000000000E+00  0.95662409958E+03  0.28948947197E+04  0.27322675144E+04 0.  0.
        5    1    3    3  502    0  0.94505425687E+03 -0.80142496288E+03 -0.13115645417E+03  0.12460472002E+04  0.46999998093E+01 0.  1.
       -5    1    3    3    0  502 -0.94505425687E+03  0.80142496288E+03  0.10877805538E+04  0.16488475195E+04  0.46999998093E+01 0. -1.
</event>
<event>
 5   0  0.1302063E-05  0.2774276E+04  0.7818609E-02  0.8311299E-01
       -2   -1    0    0    0  501  0.00000000000E+00  0.00000000000E+00  0.89195077716E+03  0.89195077716E+03  0.25500000920E-02 0. -1.
        2   -1    0    0  501    0  0.00000000000E+00  0.00000000000E+00 -0.21572399324E+04  0.21572399324E+04  0.25500000920E-02 0.  1.
    10030    2    1    2    0    0  0.00000000000E+00  0.00000000000E+00 -0.12652891552E+04  0.30491907095E+04  0.27742760023E+04 0.  0.
        2    1    3    3  502    0  0.19629459015E+03  0.12583381835E+04 -0.28437303547E+02  0.12738741031E+04  0.25500000920E-02 0. -1.
       -2    1    3    3    0  502 -0.19629459015E+03 -0.12583381835E+04 -0.12368518517E+04  0.17753166065E+04  0.25500000920E-02 0.  1.
</event>
<event>
 5   0  0.1330962E-05  0.2775345E+04  0.7818609E-02  0.8310964E-01
       -2   -1    0    0    0  501  0.00000000000E+00  0.00000000000E+00  0.62544456006E+03  0.62544456006E+03  0.25500000920E-02 0.  1.
        2   -1    0    0  501    0  0.00000000000E+00  0.00000000000E+00 -0.30788252004E+04  0.30788252004E+04  0.25500000920E-02 0. -1.
    10030    2    1    2    0    0  0.00000000000E+00  0.00000000000E+00 -0.24533806403E+04  0.37042697604E+04  0.27753446438E+04 0.  0.
        4    1    3    3  502    0 -0.93588487058E+02 -0.19890464645E+03  0.60205739549E+03  0.64093414924E+03  0.12699999809E+01 0.  1.
       -4    1    3    3    0  502  0.93588487058E+02  0.19890464645E+03 -0.30554380358E+04  0.30633356112E+04  0.12699999809E+01 0. -1.
</event>
<event>
 5   0  0.5217999E-06  0.2744210E+04  0.7818609E-02  0.8320801E-01
        1   -1    0    0  501    0  0.00000000000E+00  0.00000000000E+00  0.16401079343E+04  0.16401079343E+04  0.50400001928E-02 0. -1.
       -1   -1    0    0    0  501  0.00000000000E+00  0.00000000000E+00 -0.11478949819E+04  0.11478949819E+04  0.50400001928E-02 0.  1.
    10030    2    1    2    0    0  0.00000000000E+00  0.00000000000E+00  0.49221295243E+03  0.27880029162E+04  0.27442096622E+04 0.  0.
        1    1    3    3  502    0 -0.42652626948E+03  0.18245749902E+03  0.15580138139E+04  0.16256144813E+04  0.50400001928E-02 0. -1.
       -1    1    3    3    0  502  0.42652626948E+03 -0.18245749902E+03 -0.10658008614E+04  0.11623884350E+04  0.50400001928E-02 0.  1.
</event>
<event>
 5   0  0.5217999E-06  0.2717208E+04  0.7818609E-02  0.8329443E-01
        1   -1    0    0  501    0  0.00000000000E+00  0.00000000000E+00  0.20392724335E+04  0.20392724335E+04  0.50400001928E-02 0.  1.
       -1   -1    0    0    0  501  0.00000000000E+00  0.00000000000E+00 -0.90512907789E+03  0.90512907790E+03  0.50400001928E-02 0. -1.
    10030    2    1    2    0    0  0.00000000000E+00  0.00000000000E+00  0.11341433556E+04  0.29444015114E+04  0.27172079621E+04 0.  0.
        1    1    3    3  502    0 -0.12596011436E+04  0.28438053208E+03  0.10246815961E+04  0.16484658630E+04  0.50400001928E-02 0.  1.
       -1    1    3    3    0  502  0.12596011436E+04 -0.28438053208E+03  0.10946175952E+03  0.12959356484E+04  0.50400001928E-02 0. -1.
</event>
<event>
 5   0  0.4764214E-06  0.3011525E+04  0.7818609E-02  0.8240448E-01
       -1   -1    0    0    0  501  0.00000000000E+00  0.00000000000E+00  0.11001804719E+04  0.11001804719E+04  0.50400001928E-02 0.  1.
        1   -1    0    0  501    0  0.00000000000E+00  0.00000000000E+00 -0.20608619818E+04  0.20608619818E+04  0.50400001928E-02 0. -1.
    10030    2    1    2    0    0  0.00000000000E+00  0.00000000000E+00 -0.96068150994E+03  0.31610424537E+04  0.30115246024E+04 0.  0.
        3    1    3    3  502    0 -0.42932792512E+03 -0.13701198594E+04 -0.42013787322E+01  0.14358163386E+04  0.10100000352E+00 0.  1.
       -3    1    3    3    0  502  0.42932792512E+03  0.13701198594E+04 -0.95648013121E+03  0.17252261151E+04  0.10100000352E+00 0. -1.
</event>
<event>
 5   0  0.1388269E-05  0.2504873E+04  0.7818609E-02  0.8401252E-01
       -2   -1    0    0    0  501  0.00000000000E+00  0.00000000000E+00  0.92217212139E+03  0.92217212139E+03  0.25500000920E-02 0. -1.
        2   -1    0    0  501    0  0.00000000000E+00  0.00000000000E+00 -0.17009807557E+04  0.17009807557E+04  0.25500000920E-02 0.  1.
    10030    2    1    2    0    0  0.00000000000E+00  0.00000000000E+00 -0.77880863431E+03  0.26231528771E+04  0.25048728766E+04 0.  0.
        1    1    3    3  502    0  0.10448995814E+04 -0.65784403894E+03 -0.16967990736E+03  0.12463407182E+04  0.50400001928E-02 0.  1.
       -1    1    3    3    0  502 -0.10448995814E+04  0.65784403894E+03 -0.60912872695E+03  0.13768121589E+04  0.50400001928E-02 0. -1.
</event>
<event>
 5   0  0.1302063E-05  0.2856363E+04  0.7818609E-02  0.8285980E-01
        2   -1    0    0  501    0  0.00000000000E+00  0.00000000000E+00  0.15216497921E+04  0.15216497921E+04  0.25500000920E-02 0.  1.
       -2   -1    0    0    0  501  0.00000000000E+00  0.00000000000E+00 -0.13404548482E+04  0.13404548482E+04  0.25500000920E-02 0. -1.
    10030    2    1    2    0    0  0.00000000000E+00  0.00000000000E+00  0.18119494397E+03  0.28621046403E+04  0.28563633110E+04 0.  0.
        2    1    3    3  502    0  0.69034496428E+03  0.12463425949E+03  0.13371208738E+04  0.15099675823E+04  0.25500000920E-02 0.  1.
       -2    1    3    3    0  502 -0.69034496428E+03 -0.12463425949E+03 -0.11559259299E+04  0.13521370580E+04  0.25500000920E-02 0. -1.
</event>
<event>
 5   0  0.5281919E-06  0.2852620E+04  0.7818609E-02  0.8287116E-01
       -1   -1    0    0    0  501  0.00000000000E+00  0.00000000000E+00  0.92122093960E+03  0.92122093962E+03  0.50400001928E-02 0. -1.
        1   -1    0    0  501    0  0.00000000000E+00  0.00000000000E+00 -0.22083302600E+04  0.22083302600E+04  0.50400001928E-02 0.  1.
    10030    2    1    2    0    0  0.00000000000E+00  0.00000000000E+00 -0.12871093204E+04  0.31295511996E+04  0.28526199026E+04 0.  0.
        4    1    3    3  502    0  0.13688281804E+04 -0.29748450837E+03 -0.93828106451E+03  0.16859894985E+04  0.12699999809E+01 0.  1.
       -4    1    3    3    0  502 -0.13688281804E+04  0.29748450837E+03 -0.34882825590E+03  0.14435617012E+04  0.12699999809E+01 0. -1.
</event>
<event>
 5   0  0.5023691E-06  0.2844799E+04  0.7818609E-02  0.8289493E-01
        1   -1    0    0  501    0  0.00000000000E+00  0.00000000000E+00  0.24353276704E+04  0.24353276704E+04  0.50400001928E-02 0.  1.
       -1   -1    0    0    0  501  0.00000000000E+00  0.00000000000E+00 -0.83077946752E+03  0.83077946754E+03  0.50400001928E-02 0. -1.
    10030    2    1    2    0    0  0.00000000000E+00  0.00000000000E+00  0.16045482029E+04  0.32661071379E+04  0.28447989210E+04 0.  0.
        5    1    3    3  502    0  0.11445781251E+04  0.73315313011E+03  0.32113274658E+03  0.13966821140E+04  0.46999998093E+01 0.  1.
       -5    1    3    3    0  502 -0.11445781251E+04 -0.73315313011E+03  0.12834154563E+04  0.18694250239E+04  0.46999998093E+01 0. -1.
</event>
<event>
 5   0  0.1388269E-05  0.2794521E+04  0.7818609E-02  0.8304971E-01
       -2   -1    0    0    0  501  0.00000000000E+00  0.00000000000E+00  0.14801171588E+04  0.14801171588E+04  0.25500000920E-02 0.  1.
        2   -1    0    0  501    0  0.00000000000E+00  0.00000000000E+00 -0.13190419915E+04  0.13190419916E+04  0.25500000920E-02 0. -1.
    10030    2    1    2    0    0  0.00000000000E+00  0.00000000000E+00  0.16107516729E+03  0.27991591504E+04  0.27945208426E+04 0.  0.
        1    1    3    3  502    0 -0.72515265328E+03 -0.47858090342E+03 -0.10155595638E+04  0.13365056227E+04  0.50400001928E-02 0. -1.
       -1    1    3    3    0  502  0.72515265328E+03  0.47858090342E+03  0.11766347311E+04  0.14626535277E+04  0.50400001928E-02 0.  1.
</event>
<event>
 5   0  0.4764214E-06  0.2796684E+04  0.7818609E-02  0.8304299E-01
        1   -1    0    0  501    0  0.00000000000E+00  0.00000000000E+00  0.19213473582E+04  0.19213473582E+04  0.50400001928E-02 0. -1.
       -1   -1    0    0    0  501  0.00000000000E+00  0.00000000000E+00 -0.10177024105E+04  0.10177024106E+04  0.50400001928E-02 0.  1.
    10030    2    1    2    0    0  0.00000000000E+00  0.00000000000E+00  0.90364494761E+03  0.29390497687E+04  0.27966836345E+04 0.  0.
        3    1    3    3  502    0 -0.36886263194E+03  0.10056259821E+04  0.13964785729E+04  0.17599703611E+04  0.10100000352E+00 0. -1.
       -3    1    3    3    0  502  0.36886263194E+03 -0.10056259821E+04 -0.49283362531E+03  0.11790794076E+04  0.10100000352E+00 0.  1.
</event>
<event>
 5   0  0.1302063E-05  0.2691529E+04  0.7818609E-02  0.8337759E-01
       -2   -1    0    0    0  501  0.00000000000E+00  0.00000000000E+00  0.19143288547E+04  0.19143288547E+04  0.25500000920E-02 0.  1.
        2   -1    0    0  501    0  0.00000000000E+00  0.00000000000E+00 -0.94606640589E+03  0.94606640589E+03  0.25500000920E-02 0. -1.
    10030    2    1    2    0    0  0.00000000000E+00  0.00000000000E+00  0.96826244877E+03  0.28603952606E+04  0.26915290964E+04 0.  0.
        2    1    3    3  502    0 -0.48414421570E+02  0.68763905606E+03  0.17124538422E+04  0.18459928465E+04  0.25500000920E-02 0.  1.
       -2    1    3    3    0  502  0.48414421570E+02 -0.68763905606E+03 -0.74419139341E+03  0.10144024141E+04  0.25500000920E-02 0. -1.
</event>
<event>
 5   0  0.1302063E-05  0.2683534E+04  0.7818609E-02  0.8340367E-01
        2   -1    0    0  501    0  0.00000000000E+00  0.00000000000E+00  0.10309729335E+04  0.10309729335E+04  0.25500000920E-02 0. -1.
       -2   -1    0    0    0  501  0.00000000000E+00  0.00000000000E+00 -0.17462522885E+04  0.17462522885E+04  0.25500000920E-02 0.  1.
    10030    2    1    2    0    0  0.00000000000E+00  0.00000000000E+00 -0.71527935497E+03  0.27772252221E+04  0.26835341210E+04 0.  0.
        2    1    3    3  502    0 -0.39508709837E+03 -0.11719103677E+04  0.18098386313E+03  0.12498891486E+04  0.25500000920E-02 0. -1.
       -2    1    3    3    0  502  0.39508709837E+03  0.11719103677E+04 -0.89626321810E+03  0.15273360734E+04  0.25500000920E-02 0.  1.
</event>
<event>
 5   0  0.1330962E-05  0.2759663E+04  0.7818609E-02  0.8315902E-01
        2   -1    0    0  501    0  0.00000000000E+00  0.00000000000E+00  0.21658723041E+04  0.21658723041E+04  0.25500000920E-02 0. -1.
       -2   -1    0    0    0  501  0.00000000000E+00  0.00000000000E+00 -0.87906174862E+03  0.87906174862E+03  0.25500000920E-02 0.  1.
    10030    2    1    2    0    0  0.00000000000E+00  0.00000000000E+00  0.12868105555E+04  0.30449340527E+04  0.27596633816E+04 0.  0.
        4    1    3    3  502    0  0.21799937267E+03 -0.11215102014E+04  0.14970933506E+04  0.18832416127E+04  0.12699999809E+01 0. -1.
       -4    1    3    3    0  502 -0.21799937267E+03  0.11215102014E+04 -0.21028279518E+03  0.11616924400E+04  0.12699999809E+01 0.  1.
</event>
<event>
 5   0  0.1283052E-05  0.2805959E+04  0.7818609E-02  0.8301421E-01
       -2   -1    0    0    0  501  0.00000000000E+00  0.00000000000E+00  0.11883968857E+04  0.11883968858E+04  0.25500000920E-02 0. -1.
        2   -1    0    0  501    0  0.00000000000E+00  0.00000000000E+00 -0.16563084161E+04  0.16563084161E+04  0.25500000920E-02 0.  1.
    10030    2    1    2    0    0  0.00000000000E+00  0.00000000000E+00 -0.46791153031E+03  0.28447053018E+04  0.28059592039E+04 0.  0.
        5    1    3    3  502    0  0.34703102887E+03 -0.13116686800E+04 -0.59585048731E+03  0.14818789270E+04  0.46999998093E+01 0.  1.
       -5    1    3    3    0  502 -0.34703102887E+03  0.13116686800E+04  0.12793895700E+03  0.13628263748E+04  0.46999998093E+01 0. -1.
</event>
<event>
 5   0  0.1388269E-05  0.2654612E+04  0.7818609E-02  0.8349884E-01
        2   -1    0    0  501    0  0.00000000000E+00  0.00000000000E+00  0.19443915347E+04  0.19443915347E+04  0.25500000920E-02 0. -1.
       -2   -1    0    0    0  501  0.00000000000E+00  0.00000000000E+00 -0.90606272054E+03  0.90606272054E+03  0.25500000920E-02 0.  1.
    10030    2    1    2    0    0  0.00000000000E+00  0.00000000000E+00  0.10383288141E+04  0.28504542552E+04  0.26546115977E+04 0.  0.
        1    1    3    3  502    0  0.70864641054E+03 -0.11812025818E+03 -0.67924132917E+03  0.98868645881E+03  0.50400001928E-02 0.  1.
       -1    1    3    3    0  502 -0.70864641054E+03  0.11812025818E+03  0.17175701433E+04  0.18617677964E+04  0.50400001928E-02 0. -1.
</event>
<event>
 5   0  0.1283052E-05  0.2786591E+04  0.7818609E-02  0.8307443E-01
        2   -1    0    0  501    0  0.00000000000E+00  0.00000000000E+00  0.22885566334E+04  0.22885566334E+04  0.25500000920E-02 0.  1.
       -2   -1    0    0    0  501  0.00000000000E+00  0.00000000000E+00 -0.84825185086E+03  0.84825185087E+03  0.25500000920E-02 0. -1.
    10030    2    1    2    0    0  0.00000000000E+00  0.00000000000E+00  0.14403047825E+04  0.31368084843E+04  0.27865910357E+04 0.  0.
        5    1    3    3  502    0  0.67467948783E+02  0.99190598501E+03 -0.37865205046E+03  0.10638744628E+04  0.46999998093E+01 0. -1.
       -5    1    3    3    0  502 -0.67467948783E+02 -0.99190598501E+03  0.18189568330E+04  0.20729340215E+04  0.46999998093E+01 0.  1.
</event>
<event>
 5   0  0.5281919E-06  0.2586066E+04  0.7818609E-02  0.8372950E-01
        1   -1    0    0  501    0  0.00000000000E+00  0.00000000000E+00  0.10145025944E+04  0.10145025944E+04  0.50400001928E-02 0. -1.
       -1   -1    0    0    0  501  0.00000000000E+00  0.00000000000E+00 -0.16480337509E+04  0.16480337509E+04  0.50400001928E-02 0.  1.
    10030    2    1    2    0    0  0.00000000000E+00  0.00000000000E+00 -0.63353115647E+03  0.26625363453E+04  0.25860661367E+04 0.  0.
        4    1    3    3  502    0  0.12602211471E+04  0.20790797079E+03 -0.52409001080E+03  0.13805995133E+04  0.12699999809E+01 0.  1.
       -4    1    3    3    0  502 -0.12602211471E+04 -0.20790797079E+03 -0.10944114568E+03  0.12819368319E+04  0.12699999809E+01 0. -1.
</event>
<event>
 5   0  0.5023691E-06  0.2739288E+04  0.7818609E-02  0.8322369E-01
       -1   -1    0    0    0  501  0.00000000000E+00  0.00000000000E+00  0.12460475389E+04  0.12460475390E+04  0.50400001928E-02 0.  1.
        1   -1    0    0  501    0  0.00000000000E+00  0.00000000000E+00 -0.15055002768E+04  0.15055002768E+04  0.50400001928E-02 0. -1.
    10030    2    1    2    0    0  0.00000000000E+00  0.00000000000E+00 -0.25945273785E+03  0.27515478158E+04  0.27392881665E+04 0.  0.
        5    1    3    3  502    0  0.61863334494E+03 -0.55020941124E+03  0.96624118619E+03  0.12724314251E+04  0.46999998093E+01 0.  1.
       -5    1    3    3    0  502 -0.61863334494E+03  0.55020941124E+03 -0.12256939240E+04  0.14791163907E+04  0.46999998093E+01 0. -1.
</event>
<event>
 5   0  0.1330962E-05  0.2789335E+04  0.7818609E-02  0.8306587E-01
        2   -1    0    0  501    0  0.00000000000E+00  0.00000000000E+00  0.24933819756E+04  0.24933819756E+04  0.25500000920E-02 0.  1.
       -2   -1    0    0    0  501  0.00000000000E+00  0.00000000000E+00 -0.78010421558E+03  0.78010421559E+03  0.25500000920E-02 0. -1.
    10030    2    1    2    0    0  0.00000000000E+00  0.00000000000E+00  0.17132777600E+04  0.32734861912E+04  0.27893352543E+04 0.  0.
        4    1    3    3  502    0 -0.47172700541E+03 -0.51200918318E+03  0.22748737166E+04  0.23790190858E+04  0.12699999809E+01 0.  1.
       -4    1    3    3    0  502  0.47172700541E+03  0.51200918318E+03 -0.56159595657E+03  0.89446710539E+03  0.12699999809E+01 0. -1.
</event>
<event>
 5   0  0.1302063E-05  0.2756494E+04  0.7818609E-02  0.8316904E-01
        2   -1    0    0  501    0  0.00000000000E+00  0.00000000000E+00  0.17017197147E+04  0.17017197147E+04  0.25500000920E-02 0. -1.
       -2   -1    0    0    0  501  0.00000000000E+00  0.00000000000E+00 -0.11162618442E+04  0.11162618442E+04  0.25500000920E-02 0.  1.
    10030    2    1    2    0    0  0.00000000000E+00  0.00000000000E+00  0.58545787047E+03  0.28179815589E+04  0.27564939957E+04 0.  0.
        2    1    3    3  502    0  0.53400705522E+03  0.43458327839E+03  0.15133211360E+04  0.16625784257E+04  0.25500000920E-02 0. -1.
       -2    1    3    3    0  502 -0.53400705522E+03 -0.43458327839E+03 -0.92786326549E+03  0.11554031333E+04  0.25500000920E-02 0.  1.
</event>
<event>
 5   0  0.5023691E-06  0.2811414E+04  0.7818609E-02  0.8299734E-01
        1   -1    0    0  501    0  0.00000000000E+00  0.00000000000E+00  0.19653678573E+04  0.19653678573E+04  0.50400001928E-02 0. -1.
       -1   -1    0    0    0  501  0.00000000000E+00  0.00000000000E+00 -0.10054159476E+04  0.10054159476E+04  0.50400001928E-02 0.  1.
    10030    2    1    2    0    0  0.00000000000E+00  0.00000000000E+00  0.95995190975E+03  0.29707838049E+04  0.28114140119E+04 0.  0.
        5    1    3    3  502    0  0.77757027325E+03  0.11408696425E+04  0.20082055491E+03  0.13951881795E+04  0.46999998093E+01 0.  1.
       -5    1    3    3    0  502 -0.77757027325E+03 -0.11408696425E+04  0.75913135484E+03  0.15755956254E+04  0.46999998093E+01 0. -1.
</event>
<event>
 5   0  0.5281919E-06  0.2770388E+04  0.7818609E-02  0.8312521E-01
        1   -1    0    0  501    0  0.00000000000E+00  0.00000000000E+00  0.22170147562E+04  0.22170147562E+04  0.50400001928E-02 0. -1.
       -1   -1    0    0    0  501  0.00000000000E+00  0.00000000000E+00 -0.86547148902E+03  0.86547148903E+03  0.50400001928E-02 0.  1.
    10030    2    1    2    0    0  0.00000000000E+00  0.00000000000E+00  0.13515432672E+04  0.30824862453E+04  0.27703884654E+04 0.  0.
        4    1    3    3  502    0 -0.11889185187E+04 -0.70967297903E+03  0.72025651823E+03  0.15607479124E+04  0.12699999809E+01 0. -1.
       -4    1    3    3    0  502  0.11889185187E+04  0.70967297903E+03  0.63128674898E+03  0.15217383328E+04  0.12699999809E+01 0.  1.
</event>
<event>
 5   0  0.1283052E-05  0.2848937E+04  0.7818609E-02  0.8288234E-01
        2   -1    0    0  501    0  0.00000000000E+00  0.00000000000E+00  0.77202842374E+03  0.77202842374E+03  0.25500000920E-02 0. -1.
       -2   -1    0    0    0  501  0.00000000000E+00  0.00000000000E+00 -0.26282849053E+04  0.26282849053E+04  0.25500000920E-02 0.  1.
    10030    2    1    2    0    0  0.00000000000E+00  0.00000000000E+00 -0.18562564816E+04  0.34003133291E+04  0.28489371019E+04 0.  0.
        5    1    3    3  502    0 -0.41009042368E+03  0.11505363740E+04 -0.18029028720E+04  0.21777026793E+04  0.46999998093E+01 0.  1.
       -5    1    3    3    0  502  0.41009042368E+03 -0.11505363740E+04 -0.53353609628E+02  0.12226106498E+04  0.46999998093E+01 0. -1.
</event>
<event>
 5   0  0.5107453E-06  0.2717827E+04  0.7818609E-02  0.8329244E-01
       -1   -1    0    0    0  501  0.00000000000E+00  0.00000000000E+00  0.74767139202E+03  0.74767139204E+03  0.50400001928E-02 0.  1.
        1   -1    0    0  501    0  0.00000000000E+00  0.00000000000E+00 -0.24698634036E+04  0.24698634036E+04  0.50400001928E-02 0. -1.
    10030    2    1    2    0    0  0.00000000000E+00  0.00000000000E+00 -0.17221920116E+04  0.32175347956E+04  0.27178272271E+04 0.  0.
        2    1    3    3  502    0 -0.60745447827E+03  0.12639140671E+03 -0.22923810883E+04  0.23748656351E+04  0.25500000920E-02 0. -1.
       -2    1    3    3    0  502  0.60745447827E+03 -0.12639140671E+03  0.57018907673E+03  0.84266916052E+03  0.25500000920E-02 0.  1.
</event>
<event>
 5   0  0.4764214E-06  0.2796447E+04  0.7818609E-02  0.8304372E-01
       -1   -1    0    0    0  501  0.00000000000E+00  0.00000000000E+00  0.11549733013E+04  0.11549733013E+04  0.50400001928E-02 0. -1.
        1   -1    0    0  501    0  0.00000000000E+00  0.00000000000E+00 -0.16927050375E+04  0.16927050375E+04  0.50400001928E-02 0.  1.
    10030    2    1    2    0    0  0.00000000000E+00  0.00000000000E+00 -0.53773173622E+03  0.28476783388E+04  0.27964471211E+04 0.  0.
        3    1    3    3  502    0  0.11262600340E+04 -0.34936092441E+03  0.49624052484E+03  0.12793628838E+04  0.10100000352E+00 0. -1.
       -3    1    3    3    0  502 -0.11262600340E+04  0.34936092441E+03 -0.10339722611E+04  0.15683154550E+04  0.10100000352E+00 0.  1.
</event>
<event>
 5   0  0.5217999E-06  0.2790054E+04  0.7818609E-02  0.8306363E-01
       -1   -1    0    0    0  501  0.00000000000E+00  0.00000000000E+00  0.98708178134E+03  0.98708178135E+03  0.50400001928E-02 0. -1.
        1   -1    0    0  501    0  0.00000000000E+00  0.00000000000E+00 -0.19715692687E+04  0.19715692687E+04  0.50400001928E-02 0.  1.
    10030    2    1    2    0    0  0.00000000000E+00  0.00000000000E+00 -0.98448748732E+03  0.29586510500E+04  0.27900538387E+04 0.  0.
        1    1    3    3  502    0 -0.65785963924E+02 -0.35904054727E+03  0.93554370311E+03  0.10042310133E+04  0.50400001928E-02 0. -1.
       -1    1    3    3    0  502  0.65785963924E+02  0.35904054727E+03 -0.19200311904E+04  0.19544200367E+04  0.50400001928E-02 0.  1.
</event>
<event>
 5   0  0.1388269E-05  0.2820138E+04  0.7818609E-02  0.8297044E-01
       -2   -1    0    0    0  501  0.00000000000E+00  0.00000000000E+00  0.14442364844E+04  0.14442364844E+04  0.25500000920E-02 0. -1.
        2   -1    0    0  501    0  0.00000000000E+00  0.00000000000E+00 -0.13767097118E+04  0.13767097118E+04  0.25500000920E-02 0.  1.
    10030    2    1    2    0    0  0.00000000000E+00  0.00000000000E+00  0.67526772596E+02  0.28209461961E+04  0.28201378648E+04 0.  0.
        1    1    3    3  502    0  0.56842603593E+03  0.66714609267E+03  0.11386624128E+04  0.14369217646E+04  0.50400001928E-02 0. -1.
       -1    1    3    3    0  502 -0.56842603593E+03 -0.66714609267E+03 -0.10711356402E+04  0.13840244315E+04  0.50400001928E-02 0.  1.
</event>
<event>
 5   0  0.1350863E-05  0.2791483E+04  0.7818609E-02  0.8305917E-01
        2   -1    0    0  501    0  0.00000000000E+00  0.00000000000E+00  0.25220049531E+04  0.25220049531E+04  0.25500000920E-02 0. -1.
       -2   -1    0    0    0  501  0.00000000000E+00  0.00000000000E+00 -0.77243863171E+03  0.77243863171E+03  0.25500000920E-02 0.  1.
    10030    2    1    2    0    0  0.00000000000E+00  0.00000000000E+00  0.17495663214E+04  0.32944435848E+04  0.27914827996E+04 0.  0.
        3    1    3    3  502    0 -0.96963604348E+03  0.55737423302E+03  0.18602372192E+04  0.21705627414E+04  0.10100000352E+00 0. -1.
       -3    1    3    3    0  502  0.96963604348E+03 -0.55737423302E+03 -0.11067089778E+03  0.11238808434E+04  0.10100000352E+00 0.  1.
</event>
<event>
 5   0  0.1283052E-05  0.2817365E+04  0.7818609E-02  0.8297897E-01
       -2   -1    0    0    0  501  0.00000000000E+00  0.00000000000E+00  0.10238056489E+04  0.10238056489E+04  0.25500000920E-02 0.  1.
        2   -1    0    0  501    0  0.00000000000E+00  0.00000000000E+00 -0.19382452457E+04  0.19382452457E+04  0.25500000920E-02 0. -1.
    10030    2    1    2    0    0  0.00000000000E+00  0.00000000000E+00 -0.91443959678E+03  0.29620508946E+04  0.28173650324E+04 0.  0.
        5    1    3    3  502    0  0.19480947067E+02  0.13340461564E+04  0.17994636314E+02  0.13343180099E+04  0.46999998093E+01 0.  1.
       -5    1    3    3    0  502 -0.19480947067E+02 -0.13340461564E+04 -0.93243423310E+03  0.16277328846E+04  0.46999998093E+01 0. -1.
</event>
<event>
 5   0  0.1330962E-05  0.2763486E+04  0.7818609E-02  0.8314695E-01
        2   -1    0    0  501    0  0.00000000000E+00  0.00000000000E+00  0.16561368581E+04  0.16561368581E+04  0.25500000920E-02 0.  1.
       -2   -1    0    0    0  501  0.00000000000E+00  0.00000000000E+00 -0.11528114842E+04  0.11528114842E+04  0.25500000920E-02 0. -1.
    10030    2    1    2    0    0  0.00000000000E+00  0.00000000000E+00  0.50332537392E+03  0.28089483423E+04  0.27634859069E+04 0.  0.
        4    1    3    3  502    0  0.36104494905E+03  0.12353290952E+04 -0.25942178033E+03  0.13128947794E+04  0.12699999809E+01 0. -1.
       -4    1    3    3    0  502 -0.36104494905E+03 -0.12353290952E+04  0.76274715424E+03  0.14960535629E+04  0.12699999809E+01 0.  1.
</event>
<event>
 5   0  0.1388269E-05  0.2847167E+04  0.7818609E-02  0.8288773E-01
       -2   -1    0    0    0  501  0.00000000000E+00  0.00000000000E+00  0.91285471101E+03  0.91285471101E+03  0.25500000920E-02 0. -1.
        2   -1    0    0  501    0  0.00000000000E+00  0.00000000000E+00 -0.22200573318E+04  0.22200573318E+04  0.25500000920E-02 0.  1.
    10030    2    1    2    0    0  0.00000000000E+00  0.00000000000E+00 -0.13072026207E+04  0.31329120428E+04  0.28471668683E+04 0.  0.
        1    1    3    3  502    0  0.34751288534E+03 -0.13799530133E+04 -0.69698219954E+03  0.15845566291E+04  0.50400001928E-02 0. -1.
       -1    1    3    3    0  502 -0.34751288534E+03  0.13799530133E+04 -0.61022042121E+03  0.15483554136E+04  0.50400001928E-02 0.  1.
</event>
<event>
 5   0  0.5107453E-06  0.2761929E+04  0.7818609E-02  0.8315186E-01
        1   -1    0    0  501    0  0.00000000000E+00  0.00000000000E+00  0.16943604746E+04  0.16943604746E+04  0.50400001928E-02 0. -1.
       -1   -1    0    0    0  501  0.00000000000E+00  0.00000000000E+00 -0.11255357625E+04  0.11255357625E+04  0.50400001928E-02 0.  1.
    10030    2    1    2    0    0  0.00000000000E+00  0.00000000000E+00  0.56882471204E+03  0.28198962371E+04  0.27619292596E+04 0.  0.
        2    1    3    3  502    0 -0.24717325967E+03  0.56273902804E+03 -0.97818825396E+03  0.11552584534E+04  0.25500000920E-02 0.  1.
       -2    1    3    3    0  502  0.24717325967E+03 -0.56273902804E+03  0.15470129660E+04  0.16646377837E+04  0.25500000920E-02 0. -1.
</event>
<event>
 5   0  0.4764214E-06  0.2847090E+04  0.7818609E-02  0.8288796E-01
        1   -1    0    0  501    0  0.00000000000E+00  0.00000000000E+00  0.26825029239E+04  0.26825029239E+04  0.50400001928E-02 0.  1.
       -1   -1    0    0    0  501  0.00000000000E+00  0.00000000000E+00 -0.75544395692E+03  0.75544395694E+03  0.50400001928E-02 0. -1.
    10030    2    1    2    0    0  0.00000000000E+00  0.00000000000E+00  0.19270589670E+04  0.34379468809E+04  0.28470901801E+04 0.  0.
        3    1    3    3  502    0  0.30465126822E+03 -0.28191135406E+03 -0.68074966205E+03  0.79731205895E+03  0.10100000352E+00 0. -1.
       -3    1    3    3    0  502 -0.30465126822E+03  0.28191135406E+03  0.26078086290E+04  0.26406348219E+04  0.10100000352E+00 0.  1.
</event>
<event>
 5   0  0.1350863E-05  0.2776786E+04  0.7818609E-02  0.8310512E-01
        2   -1    0    0  501    0  0.00000000000E+00  0.00000000000E+00  0.11886599324E+04  0.11886599324E+04  0.25500000920E-02 0.  1.
       -2   -1    0    0    0  501  0.00000000000E+00  0.00000000000E+00 -0.16216879795E+04  0.16216879795E+04  0.25500000920E-02 0. -1.
    10030    2    1    2    0    0  0.00000000000E+00  0.00000000000E+00 -0.43302804704E+03  0.28103479119E+04  0.27767862893E+04 0.  0.
        3    1    3    3  502    0 -0.24411885038E+03 -0.73509830158E+01  0.11667484968E+04  0.11920361216E+04  0.10100000352E+00 0.  1.
       -3    1    3    3    0  502  0.24411885038E+03  0.73509830158E+01 -0.15997765439E+04  0.16183117903E+04  0.10100000352E+00 0. -1.
</event>
<event>
 5   0  0.1350863E-05  0.2808042E+04  0.7818609E-02  0.8300776E-01
        2   -1    0    0  501    0  0.00000000000E+00  0.00000000000E+00  0.20124115802E+04  0.20124115802E+04  0.25500000920E-02 0.  1.
       -2   -1    0    0    0  501  0.00000000000E+00  0.00000000000E+00 -0.97955870530E+03  0.97955870531E+03  0.25500000920E-02 0. -1.
    10030    2    1    2    0    0  0.00000000000E+00  0.00000000000E+00  0.10328528749E+04  0.29919702855E+04  0.28080422233E+04 0.  0.
        3    1    3    3  502    0 -0.11244298527E+04  0.13515594100E+02 -0.37932308170E+03  0.11867650043E+04  0.10100000352E+00 0. -1.
       -3    1    3    3    0  502  0.11244298527E+04 -0.13515594100E+02  0.14121759566E+04  0.18052052812E+04  0.10100000352E+00 0.  1.
</event>
<event>
 5   0  0.5107453E-06  0.2763777E+04  0.7818609E-02  0.8314603E-01
       -1   -1    0    0    0  501  0.00000000000E+00  0.00000000000E+00  0.15702699448E+04  0.15702699448E+04  0.50400001928E-02 0.  1.
        1   -1    0    0  501    0  0.00000000000E+00  0.00000000000E+00 -0.12161068259E+04  0.12161068259E+04  0.50400001928E-02 0. -1.
    10030    2    1    2    0    0  0.00000000000E+00  0.00000000000E+00  0.35416311897E+03  0.27863767707E+04  0.27637771244E+04 0.  0.
        2    1    3    3  502    0  0.10778264161E+04  0.82474928249E+03  0.43939140628E+03  0.14265293443E+04  0.25500000920E-02 0.  1.
       -2    1    3    3    0  502 -0.10778264161E+04 -0.82474928249E+03 -0.85228287309E+02  0.13598474264E+04  0.25500000920E-02 0. -1.
</event>
<event>
 5   0  0.5217999E-06  0.2923537E+04  0.7818609E-02  0.8265909E-01
        1   -1    0    0  501    0  0.00000000000E+00  0.00000000000E+00  0.13943027851E+04  0.13943027851E+04  0.50400001928E-02 0.  1.
       -1   -1    0    0    0  501  0.00000000000E+00  0.00000000000E+00 -0.15324987095E+04  0.15324987095E+04  0.50400001928E-02 0. -1.
    10030    2    1    2    0    0  0.00000000000E+00  0.00000000000E+00 -0.13819592437E+03  0.29268014946E+04  0.29235370487E+04 0.  0.
        1    1    3    3  502    0 -0.54759651229E+03  0.92424505286E+03  0.92330927035E+03  0.14165418690E+04  0.50400001928E-02 0.  1.
       -1    1    3    3    0  502  0.54759651229E+03 -0.92424505286E+03 -0.10615051947E+04  0.15102596255E+04  0.50400001928E-02 0. -1.
</event>
<event>
 5   0  0.1283052E-05  0.2790768E+04  0.7818609E-02  0.8306140E-01
        2   -1    0    0  501    0  0.00000000000E+00  0.00000000000E+00  0.87118481036E+03  0.87118481036E+03  0.25500000920E-02 0.  1.
       -2   -1    0    0    0  501  0.00000000000E+00  0.00000000000E+00 -0.22349974978E+04  0.22349974978E+04  0.25500000920E-02 0. -1.
    10030    2    1    2    0    0  0.00000000000E+00  0.00000000000E+00 -0.13638126875E+04  0.31061823082E+04  0.27907675441E+04 0.  0.
        5    1    3    3  502    0 -0.31031037254E+02  0.11718880917E+04  0.16045935125E+03  0.11832387410E+04  0.46999998093E+01 0.  1.
       -5    1    3    3    0  502  0.31031037254E+02 -0.11718880917E+04 -0.15242720387E+04  0.19229435672E+04  0.46999998093E+01 0. -1.
</event>
<event>
 5   0  0.5281919E-06  0.2124151E+04  0.7818609E-02  0.8550679E-01
       -1   -1    0    0    0  501  0.00000000000E+00  0.00000000000E+00  0.11322499634E+04  0.11322499634E+04  0.50400001928E-02 0.  1.
        1   -1    0    0  501    0  0.00000000000E+00  0.00000000000E+00 -0.99625029249E+03  0.99625029250E+03  0.50400001928E-02 0. -1.
    10030    2    1    2    0    0  0.00000000000E+00  0.00000000000E+00  0.13599967094E+03  0.21285002559E+04  0.21241509902E+04 0.  0.
        4    1    3    3  502    0 -0.45988464607E+03 -0.25489437818E+03  0.99267728353E+03  0.11233320230E+04  0.12699999809E+01 0.  1.
       -4    1    3    3    0  502  0.45988464607E+03  0.25489437818E+03 -0.85667761260E+03  0.10051682330E+04  0.12699999809E+01 0. -1.
</event>
<event>
 5   0  0.5217999E-06  0.2788766E+04  0.7818609E-02  0.8306765E-01
       -1   -1    0    0    0  501  0.00000000000E+00  0.00000000000E+00  0.85540586288E+03  0.85540586290E+03  0.50400001928E-02 0. -1.
        1   -1    0    0  501    0  0.00000000000E+00  0.00000000000E+00 -0.22729610489E+04  0.22729610490E+04  0.50400001928E-02 0.  1.
    10030    2    1    2    0    0  0.00000000000E+00  0.00000000000E+00 -0.14175551861E+04  0.31283669118E+04  0.27887661841E+04 0.  0.
        1    1    3    3  502    0 -0.10630516543E+04 -0.11869330044E+03 -0.17122093349E+04  0.20188679318E+04  0.50400001928E-02 0.  1.
       -1    1    3    3    0  502  0.10630516543E+04  0.11869330044E+03  0.29465414885E+03  0.11094989801E+04  0.50400001928E-02 0. -1.
</event>
<event>
 5   0  0.1330962E-05  0.2779496E+04  0.7818609E-02  0.8309662E-01
        2   -1    0    0  501    0  0.00000000000E+00  0.00000000000E+00  0.71197919093E+03  0.71197919094E+03  0.25500000920E-02 0. -1.
       -2   -1    0    0    0  501  0.00000000000E+00  0.00000000000E+00 -0.27127189576E+04  0.27127189576E+04  0.25500000920E-02 0.  1.
    10030    2    1    2    0    0  0.00000000000E+00  0.00000000000E+00 -0.20007397667E+04  0.34246981486E+04  0.27794959606E+04 0.  0.
        4    1    3    3  502    0  0.67289722264E+03 -0.71913269365E+03 -0.22085197436E+04  0.24181611969E+04  0.12699999809E+01 0.  1.
       -4    1    3    3    0  502 -0.67289722264E+03  0.71913269365E+03  0.20777997694E+03  0.10065369517E+04  0.12699999809E+01 0. -1.
</event>
<event>
 5   0  0.4764214E-06  0.2809792E+04  0.7818609E-02  0.8300235E-01
        1   -1    0    0  501    0  0.00000000000E+00  0.00000000000E+00  0.19551156821E+04  0.19551156821E+04  0.50400001928E-02 0. -1.
       -1   -1    0    0    0  501  0.00000000000E+00  0.00000000000E+00 -0.10095225993E+04  0.10095225993E+04  0.50400001928E-02 0.  1.
    10030    2    1    2    0    0  0.00000000000E+00  0.00000000000E+00  0.94559308280E+03  0.29646382814E+04  0.28097924943E+04 0.  0.
        3    1    3    3  502    0 -0.89763233649E+03 -0.93574906086E+03 -0.97707756462E+02  0.13003526184E+04  0.10100000352E+00 0.  1.
       -3    1    3    3    0  502  0.89763233649E+03  0.93574906086E+03  0.10433008393E+04  0.16642856629E+04  0.10100000352E+00 0. -1.
</event>
<event>
 5   0  0.4764214E-06  0.2006830E+04  0.7818609E-02  0.8603434E-01
       -1   -1    0    0    0  501  0.00000000000E+00  0.00000000000E+00  0.72013214526E+03  0.72013214527E+03  0.50400001928E-02 0. -1.
        1   -1    0    0  501    0  0.00000000000E+00  0.00000000000E+00 -0.13981348544E+04  0.13981348544E+04  0.50400001928E-02 0.  1.
    10030    2    1    2    0    0  0.00000000000E+00  0.00000000000E+00 -0.67800270911E+03  0.21182669997E+04  0.20068301892E+04 0.  0.
        3    1    3    3  502    0  0.63002881466E+03 -0.10008967461E+03  0.47853112235E+03  0.79746241010E+03  0.10100000352E+00 0. -1.
       -3    1    3    3    0  502 -0.63002881466E+03  0.10008967461E+03 -0.11565338315E+04  0.13208045896E+04  0.10100000352E+00 0.  1.
</event>
<event>
 5   0  0.5217999E-06  0.2779944E+04  0.7818609E-02  0.8309522E-01
        1   -1    0    0  501    0  0.00000000000E+00  0.00000000000E+00  0.80901620955E+03  0.80901620957E+03  0.50400001928E-02 0.  1.
       -1   -1    0    0    0  501  0.00000000000E+00  0.00000000000E+00 -0.23881128278E+04  0.23881128278E+04  0.50400001928E-02 0. -1.
    10030    2    1    2    0    0  0.00000000000E+00  0.00000000000E+00 -0.15790966182E+04  0.31971290374E+04  0.27799438757E+04 0.  0.
        1    1    3    3  502    0 -0.11938088030E+04  0.62920251483E+03 -0.40647545231E+03  0.14093606906E+04  0.50400001928E-02 0.  1.
       -1    1    3    3    0  502  0.11938088030E+04 -0.62920251483E+03 -0.11726211659E+04  0.17877683468E+04  0.50400001928E-02 0. -1.
</event>
<event>
 5   0  0.5023691E-06  0.2822299E+04  0.7818609E-02  0.8296379E-01
        1   -1    0    0  501    0  0.00000000000E+00  0.00000000000E+00  0.31354224439E+04  0.31354224439E+04  0.50400001928E-02 0. -1.
       -1   -1    0    0    0  501  0.00000000000E+00  0.00000000000E+00 -0.63511153470E+03  0.63511153472E+03  0.50400001928E-02 0.  1.
    10030    2    1    2    0    0  0.00000000000E+00  0.00000000000E+00  0.25003109092E+04  0.37705339786E+04  0.28222990347E+04 0.  0.
        5    1    3    3  502    0  0.82014105091E+03  0.11438009729E+04  0.13864572073E+04  0.19756512058E+04  0.46999998093E+01 0. -1.
       -5    1    3    3    0  502 -0.82014105091E+03 -0.11438009729E+04  0.11138537018E+04  0.17948827728E+04  0.46999998093E+01 0.  1.
</event>
<event>
 5   0  0.5023691E-06  0.2626146E+04  0.7818609E-02  0.8359374E-01
        1   -1    0    0  501    0  0.00000000000E+00  0.00000000000E+00  0.10860184096E+04  0.10860184096E+04  0.50400001928E-02 0. -1.
       -1   -1    0    0    0  501  0.00000000000E+00  0.00000000000E+00 -0.15875979680E+04  0.15875979680E+04  0.50400001928E-02 0.  1.
    10030    2    1    2    0    0  0.00000000000E+00  0.00000000000E+00 -0.50157955841E+03  0.26736163776E+04  0.26261459368E+04 0.  0.
        5    1    3    3  502    0 -0.53887165380E+03  0.10053892237E+04  0.41131072600E+03  0.12125958741E+04  0.46999998093E+01 0. -1.
       -5    1    3    3    0  502  0.53887165380E+03 -0.10053892237E+04 -0.91289028442E+03  0.14610205036E+04  0.46999998093E+01 0.  1.
</event>
<event>
 5   0  0.5107453E-06  0.2763093E+04  0.7818609E-02  0.8314819E-01
        1   -1    0    0  501    0  0.00000000000E+00  0.00000000000E+00  0.14355423052E+04  0.14355423052E+04  0.50400001928E-02 0. -1.
       -1   -1    0    0    0  501  0.00000000000E+00  0.00000000000E+00 -0.13295814474E+04  0.13295814474E+04  0.50400001928E-02 0.  1.
    10030    2    1    2    0    0  0.00000000000E+00  0.00000000000E+00  0.10596085775E+03  0.27651237526E+04  0.27630927715E+04 0.  0.
        2    1    3    3  502    0  0.44210602136E+03  0.31285031313E+03 -0.12189130054E+04  0.13338223148E+04  0.25500000920E-02 0.  1.
       -2    1    3    3    0  502 -0.44210602136E+03 -0.31285031313E+03  0.13248738632E+04  0.14313014378E+04  0.25500000920E-02 0. -1.
</event>
<event>
 5   0  0.5107453E-06  0.2761257E+04  0.7818609E-02  0.8315399E-01
        1   -1    0    0  501    0  0.00000000000E+00  0.00000000000E+00  0.20922842007E+04  0.20922842008E+04  0.50400001928E-02 0. -1.
       -1   -1    0    0    0  501  0.00000000000E+00  0.00000000000E+00 -0.91103046057E+03  0.91103046059E+03  0.50400001928E-02 0.  1.
    10030    2    1    2    0    0  0.00000000000E+00  0.00000000000E+00  0.11812537402E+04  0.30033146613E+04  0.27612566987E+04 0.  0.
        2    1    3    3  502    0 -0.26515961530E+03 -0.10225890779E+03 -0.87887209981E+03  0.92367888015E+03  0.25500000920E-02 0.  1.
       -2    1    3    3    0  502  0.26515961530E+03  0.10225890779E+03  0.20601258400E+04  0.20796357812E+04  0.25500000920E-02 0. -1.
</event>
<event>
 5   0  0.5107453E-06  0.2801078E+04  0.7818609E-02  0.8302934E-01
       -1   -1    0    0    0  501  0.00000000000E+00  0.00000000000E+00  0.63966431960E+03  0.63966431962E+03  0.50400001928E-02 0. -1.
        1   -1    0    0  501    0  0.00000000000E+00  0.00000000000E+00 -0.30664667083E+04  0.30664667083E+04  0.50400001928E-02 0.  1.
    10030    2    1    2    0    0  0.00000000000E+00  0.00000000000E+00 -0.24268023887E+04  0.37061310279E+04  0.28010778929E+04 0.  0.
        2    1    3    3  502    0 -0.11466392251E+04 -0.71939864335E+03 -0.73782973763E+03  0.15416577579E+04  0.25500000920E-02 0. -1.
       -2    1    3    3    0  502  0.11466392251E+04  0.71939864335E+03 -0.16889726510E+04  0.21644732700E+04  0.25500000920E-02 0.  1.
</event>
<event>
 5   0  0.1283052E-05  0.2713589E+04  0.7818609E-02  0.8330609E-01
        2   -1    0    0  501    0  0.00000000000E+00  0.00000000000E+00  0.14326341854E+04  0.14326341854E+04  0.25500000920E-02 0.  1.
       -2   -1    0    0    0  501  0.00000000000E+00  0.00000000000E+00 -0.12849697667E+04  0.12849697667E+04  0.25500000920E-02 0. -1.
    10030    2    1    2    0    0  0.00000000000E+00  0.00000000000E+00  0.14766441875E+03  0.27176039521E+04  0.27135892209E+04 0.  0.
        5    1    3    3  502    0  0.63976657319E+03 -0.72162229190E+03  0.10296180885E+04  0.14107358004E+04  0.46999998093E+01 0.  1.
       -5    1    3    3    0  502 -0.63976657319E+03  0.72162229190E+03 -0.88195366975E+03  0.13068681517E+04  0.46999998093E+01 0. -1.
</event>
<event>
 5   0  0.5217999E-06  0.2820854E+04  0.7818609E-02  0.8296823E-01
        1   -1    0    0  501    0  0.00000000000E+00  0.00000000000E+00  0.15578379609E+04  0.15578379609E+04  0.50400001928E-02 0. -1.
       -1   -1    0    0    0  501  0.00000000000E+00  0.00000000000E+00 -0.12769652103E+04  0.12769652103E+04  0.50400001928E-02 0.  1.
    10030    2    1    2    0    0  0.00000000000E+00  0.00000000000E+00  0.28087275064E+03  0.28348031712E+04  0.28208543950E+04 0.  0.
        1    1    3    3  502    0  0.65804989995E+03  0.44103888384E+03  0.13131514634E+04  0.15335943837E+04  0.50400001928E-02 0. -1.
       -1    1    3    3    0  502 -0.65804989995E+03 -0.44103888384E+03 -0.10322787128E+04  0.13012087875E+04  0.50400001928E-02 0.  1.
</event>
<event>
 5   0  0.4447500E-06  0.2442799E+04  0.7818609E-02  0.8423652E-01
       -3   -1    0    0    0  501  0.00000000000E+00  0.00000000000E+00  0.10194404086E+04  0.10194404136E+04  0.10100000352E+00 0.  1.
        3   -1    0    0  501    0  0.00000000000E+00  0.00000000000E+00 -0.14633678266E+04  0.14633678301E+04  0.10100000352E+00 0. -1.
    10030    2    1    2    0    0  0.00000000000E+00  0.00000000000E+00 -0.44392741803E+03  0.24828082437E+04  0.24427986455E+04 0.  0.
        4    1    3    3  502    0  0.39938552250E+03  0.57675763809E+02  0.94973144390E+03  0.10319044131E+04  0.12699999809E+01 0.  1.
       -4    1    3    3    0  502 -0.39938552250E+03 -0.57675763809E+02 -0.13936588619E+04  0.14509038306E+04  0.12699999809E+01 0. -1.
</event>
<event>
 5   0  0.1283052E-05  0.2810124E+04  0.7818609E-02  0.8300132E-01
       -2   -1    0    0    0  501  0.00000000000E+00  0.00000000000E+00  0.20330495443E+04  0.20330495443E+04  0.25500000920E-02 0.  1.
        2   -1    0    0  501    0  0.00000000000E+00  0.00000000000E+00 -0.97105297884E+03  0.97105297885E+03  0.25500000920E-02 0. -1.
    10030    2    1    2    0    0  0.00000000000E+00  0.00000000000E+00  0.10619965654E+04  0.30041025231E+04  0.28101237098E+04 0.  0.
        5    1    3    3  502    0 -0.26649134165E+03  0.12838581642E+03  0.19993767025E+04  0.20211456755E+04  0.46999998093E+01 0.  1.
       -5    1    3    3    0  502  0.26649134165E+03 -0.12838581642E+03 -0.93738013705E+03  0.98295684766E+03  0.46999998093E+01 0. -1.
</event>
<event>
 5   0  0.5281919E-06  0.2800248E+04  0.7818609E-02  0.8303191E-01
        1   -1    0    0  501    0  0.00000000000E+00  0.00000000000E+00  0.19378592172E+04  0.19378592172E+04  0.50400001928E-02 0.  1.
       -1   -1    0    0    0  501  0.00000000000E+00  0.00000000000E+00 -0.10116046599E+04  0.10116046599E+04  0.50400001928E-02 0. -1.
    10030    2    1    2    0    0  0.00000000000E+00  0.00000000000E+00  0.92625455727E+03  0.29494638770E+04  0.28002481421E+04 0.  0.
        4    1    3    3  502    0  0.74630338863E+03  0.95281388557E+03 -0.27831673703E+03  0.12418876227E+04  0.12699999809E+01 0. -1.
       -4    1    3    3    0  502 -0.74630338863E+03 -0.95281388557E+03  0.12045712943E+04  0.17075762543E+04  0.12699999809E+01 0.  1.
</event>
<event>
 5   0  0.1330962E-05  0.2929834E+04  0.7818609E-02  0.8264056E-01
       -2   -1    0    0    0  501  0.00000000000E+00  0.00000000000E+00  0.99794547172E+03  0.99794547173E+03  0.25500000920E-02 0. -1.
        2   -1    0    0  501    0  0.00000000000E+00  0.00000000000E+00 -0.21503997409E+04  0.21503997409E+04  0.25500000920E-02 0.  1.
    10030    2    1    2    0    0  0.00000000000E+00  0.00000000000E+00 -0.11524542692E+04  0.31483452126E+04  0.29298339092E+04 0.  0.
        4    1    3    3  502    0  0.73549104965E+03  0.11635025780E+03 -0.19318599303E+04  0.20704030694E+04  0.12699999809E+01 0.  1.
       -4    1    3    3    0  502 -0.73549104965E+03 -0.11635025780E+03  0.77940566113E+03  0.10779421432E+04  0.12699999809E+01 0. -1.
</event>
<event>
 5   0  0.1388269E-05  0.2815365E+04  0.7818609E-02  0.8298514E-01
        2   -1    0    0  501    0  0.00000000000E+00  0.00000000000E+00  0.21377490155E+04  0.21377490155E+04  0.25500000920E-02 0.  1.
       -2   -1    0    0    0  501  0.00000000000E+00  0.00000000000E+00 -0.92694203736E+03  0.92694203736E+03  0.25500000920E-02 0. -1.
    10030    2    1    2    0    0  0.00000000000E+00  0.00000000000E+00  0.12108069782E+04  0.30646910529E+04  0.28153645787E+04 0.  0.
        1    1    3    3  502    0  0.35220079676E+02 -0.94741483845E+03  0.17380984413E+04  0.19798539143E+04  0.50400001928E-02 0.  1.
       -1    1    3    3    0  502 -0.35220079676E+02  0.94741483845E+03 -0.52729146317E+03  0.10848371386E+04  0.50400001928E-02 0. -1.
</event>
<event>
 5   0  0.4764214E-06  0.2831524E+04  0.7818609E-02  0.8293548E-01
       -1   -1    0    0    0  501  0.00000000000E+00  0.00000000000E+00  0.21110413588E+04  0.21110413588E+04  0.50400001928E-02 0. -1.
        1   -1    0    0  501    0  0.00000000000E+00  0.00000000000E+00 -0.94947553437E+03  0.94947553438E+03  0.50400001928E-02 0.  1.
    10030    2    1    2    0    0  0.00000000000E+00  0.00000000000E+00  0.11615658245E+04  0.30605168932E+04  0.28315240577E+04 0.  0.
        3    1    3    3  502    0  0.11787713777E+04  0.30265040202E+03  0.13626677483E+04  0.18270092034E+04  0.10100000352E+00 0. -1.
       -3    1    3    3    0  502 -0.11787713777E+04 -0.30265040202E+03 -0.20110192388E+03  0.12335076898E+04  0.10100000352E+00 0.  1.
</event>
<event>
 5   0  0.1350863E-05  0.2809338E+04  0.7818609E-02  0.8300375E-01
        2   -1    0    0  501    0  0.00000000000E+00  0.00000000000E+00  0.13939394746E+04  0.13939394746E+04  0.25500000920E-02 0. -1.
       -2   -1    0    0    0  501  0.00000000000E+00  0.00000000000E+00 -0.14154813232E+04  0.14154813232E+04  0.25500000920E-02 0.  1.
    10030    2    1    2    0    0  0.00000000000E+00  0.00000000000E+00 -0.21541848658E+02  0.28094207978E+04  0.28093382082E+04 0.  0.
        3    1    3    3  502    0  0.71813919888E+03 -0.11559021880E+04 -0.35900738765E+03  0.14073805782E+04  0.10100000352E+00 0.  1.
       -3    1    3    3    0  502 -0.71813919888E+03  0.11559021880E+04  0.33746553900E+03  0.14020402196E+04  0.10100000352E+00 0. -1.
</event>
<event>
 5   0  0.5281919E-06  0.2653543E+04  0.7818609E-02  0.8350238E-01
        1   -1    0    0  501    0  0.00000000000E+00  0.00000000000E+00  0.14057212857E+04  0.14057212857E+04  0.50400001928E-02 0.  1.
       -1   -1    0    0    0  501  0.00000000000E+00  0.00000000000E+00 -0.12522556610E+04  0.12522556610E+04  0.50400001928E-02 0. -1.
    10030    2    1    2    0    0  0.00000000000E+00  0.00000000000E+00  0.15346562465E+03  0.26579769467E+04  0.26535428678E+04 0.  0.
        4    1    3    3  502    0 -0.35600744039E+02 -0.13253837733E+04  0.27546120980E+02  0.13261485442E+04  0.12699999809E+01 0.  1.
       -4    1    3    3    0  502  0.35600744039E+02  0.13253837733E+04  0.12591950367E+03  0.13318284025E+04  0.12699999809E+01 0. -1.
</event>
<event>
 5   0  0.1302063E-05  0.2787852E+04  0.7818609E-02  0.8307050E-01
        2   -1    0    0  501    0  0.00000000000E+00  0.00000000000E+00  0.14920729202E+04  0.14920729202E+04  0.25500000920E-02 0. -1.
       -2   -1    0    0    0  501  0.00000000000E+00  0.00000000000E+00 -0.13022355037E+04  0.13022355037E+04  0.25500000920E-02 0.  1.
    10030    2    1    2    0    0  0.00000000000E+00  0.00000000000E+00  0.18983741650E+03  0.27943084238E+04  0.27878524571E+04 0.  0.
        2    1    3    3  502    0 -0.45539022583E+03  0.70895245547E+02 -0.12236595410E+04  0.13075737325E+04  0.25500000920E-02 0.  1.
       -2    1    3    3    0  502  0.45539022583E+03 -0.70895245547E+02  0.14134969575E+04  0.14867346914E+04  0.25500000920E-02 0. -1.
</event>
<event>
 5   0  0.5281919E-06  0.2815942E+04  0.7818609E-02  0.8298336E-01
        1   -1    0    0  501    0  0.00000000000E+00  0.00000000000E+00  0.22871240648E+04  0.22871240648E+04  0.50400001928E-02 0. -1.
       -1   -1    0    0    0  501  0.00000000000E+00  0.00000000000E+00 -0.86675794867E+03  0.86675794869E+03  0.50400001928E-02 0.  1.
    10030    2    1    2    0    0  0.00000000000E+00  0.00000000000E+00  0.14203661162E+04  0.31538820135E+04  0.28159424446E+04 0.  0.
        4    1    3    3  502    0 -0.58624893611E+03 -0.31192291640E+03  0.21007087316E+04  0.22031710121E+04  0.12699999809E+01 0.  1.
       -4    1    3    3    0  502  0.58624893611E+03  0.31192291640E+03 -0.68034261543E+03  0.95071100138E+03  0.12699999809E+01 0. -1.
</event>
<event>
 5   0  0.5281919E-06  0.2807157E+04  0.7818609E-02  0.8301050E-01
       -1   -1    0    0    0  501  0.00000000000E+00  0.00000000000E+00  0.11560054955E+04  0.11560054955E+04  0.50400001928E-02 0.  1.
        1   -1    0    0  501    0  0.00000000000E+00  0.00000000000E+00 -0.17041724900E+04  0.17041724900E+04  0.50400001928E-02 0. -1.
    10030    2    1    2    0    0  0.00000000000E+00  0.00000000000E+00 -0.54816699457E+03  0.28601779855E+04  0.28071571126E+04 0.  0.
        4    1    3    3  502    0  0.12219024931E+04  0.66756623052E+01  0.42956961921E+03  0.12952304574E+04  0.12699999809E+01 0.  1.
       -4    1    3    3    0  502 -0.12219024931E+04 -0.66756623052E+01 -0.97773661379E+03  0.15649475281E+04  0.12699999809E+01 0. -1.
</event>
<event>
 5   0  0.5107453E-06  0.2782811E+04  0.7818609E-02  0.8308625E-01
       -1   -1    0    0    0  501  0.00000000000E+00  0.00000000000E+00  0.16606169053E+04  0.16606169053E+04  0.50400001928E-02 0. -1.
        1   -1    0    0  501    0  0.00000000000E+00  0.00000000000E+00 -0.11658374508E+04  0.11658374508E+04  0.50400001928E-02 0.  1.
    10030    2    1    2    0    0  0.00000000000E+00  0.00000000000E+00  0.49477945445E+03  0.28264543561E+04  0.27828110821E+04 0.  0.
        2    1    3    3  502    0 -0.81650864035E+03 -0.11224717207E+04  0.14901906414E+03  0.13960070935E+04  0.25500000920E-02 0.  1.
       -2    1    3    3    0  502  0.81650864035E+03  0.11224717207E+04  0.34576039030E+03  0.14304472626E+04  0.25500000920E-02 0. -1.
</event>
<event>
 5   0  0.1302063E-05  0.2761182E+04  0.7818609E-02  0.8315422E-01
        2   -1    0    0  501    0  0.00000000000E+00  0.00000000000E+00  0.22480494445E+04  0.22480494445E+04  0.25500000920E-02 0. -1.
       -2   -1    0    0    0  501  0.00000000000E+00  0.00000000000E+00 -0.84786025066E+03  0.84786025067E+03  0.25500000920E-02 0.  1.
    10030    2    1    2    0    0  0.00000000000E+00  0.00000000000E+00  0.14001891939E+04  0.30959096952E+04  0.27611821856E+04 0.  0.
        2    1    3    3  502    0  0.75383335630E+03  0.96765127010E+03  0.14104761464E+04  0.18692395965E+04  0.25500000920E-02 0. -1.
       -2    1    3    3    0  502 -0.75383335630E+03 -0.96765127010E+03 -0.10286952550E+02  0.12266700987E+04  0.25500000920E-02 0.  1.
</event>
<event>
 5   0  0.1388269E-05  0.2742443E+04  0.7818609E-02  0.8321364E-01
       -2   -1    0    0    0  501  0.00000000000E+00  0.00000000000E+00  0.89373072872E+03  0.89373072872E+03  0.25500000920E-02 0. -1.
        2   -1    0    0  501    0  0.00000000000E+00  0.00000000000E+00 -0.21038192942E+04  0.21038192942E+04  0.25500000920E-02 0.  1.
    10030    2    1    2    0    0  0.00000000000E+00  0.00000000000E+00 -0.12100885655E+04  0.29975500229E+04  0.27424426710E+04 0.  0.
        1    1    3    3  502    0 -0.18266979740E+03  0.61610448491E+03  0.71895452635E+03  0.96428657680E+03  0.50400001928E-02 0. -1.
       -1    1    3    3    0  502  0.18266979740E+03 -0.61610448491E+03 -0.19290430918E+04  0.20332634461E+04  0.50400001928E-02 0.  1.
</event>
<event>
 5   0  0.1283052E-05  0.3111090E+04  0.7818609E-02  0.8212701E-01
        2   -1    0    0  501    0  0.00000000000E+00  0.00000000000E+00  0.18683254005E+04  0.18683254005E+04  0.25500000920E-02 0. -1.
       -2   -1    0    0    0  501  0.00000000000E+00  0.00000000000E+00 -0.12951276885E+04  0.12951276885E+04  0.25500000920E-02 0.  1.
    10030    2    1    2    0    0  0.00000000000E+00  0.00000000000E+00  0.57319771203E+03  0.31634530890E+04  0.31110898138E+04 0.  0.
        5    1    3    3  502    0  0.56970127249E+03 -0.98121391291E+02 -0.11818372088E+04  0.13156552076E+04  0.46999998093E+01 0.  1.
       -5    1    3    3    0  502 -0.56970127249E+03  0.98121391291E+02  0.17550349208E+04  0.18477978814E+04  0.46999998093E+01 0. -1.
</event>
<event>
 5   0  0.1388269E-05  0.2965499E+04  0.7818609E-02  0.8253652E-01
        2   -1    0    0  501    0  0.00000000000E+00  0.00000000000E+00  0.23655181506E+04  0.23655181506E+04  0.25500000920E-02 0.  1.
       -2   -1    0    0    0  501  0.00000000000E+00  0.00000000000E+00 -0.92941434634E+03  0.92941434634E+03  0.25500000920E-02 0. -1.
    10030    2    1    2    0    0  0.00000000000E+00  0.00000000000E+00  0.14361038043E+04  0.32949324970E+04  0.29654992873E+04 0.  0.
        1    1    3    3  502    0  0.49350603107E+03 -0.12351676110E+04  0.14460984090E+04  0.19647869703E+04  0.50400001928E-02 0.  1.
       -1    1    3    3    0  502 -0.49350603107E+03  0.12351676110E+04 -0.99946047303E+01  0.13301455267E+04  0.50400001928E-02 0. -1.
</event>
<event>
 5   0  0.5217999E-06  0.2805041E+04  0.7818609E-02  0.8301705E-01
       -1   -1    0    0    0  501  0.00000000000E+00  0.00000000000E+00  0.85247063244E+03  0.85247063246E+03  0.50400001928E-02 0.  1.
        1   -1    0    0  501    0  0.00000000000E+00  0.00000000000E+00 -0.23074861568E+04  0.23074861568E+04  0.50400001928E-02 0. -1.
    10030    2    1    2    0    0  0.00000000000E+00  0.00000000000E+00 -0.14550155244E+04  0.31599567893E+04  0.28050413070E+04 0.  0.
        1    1    3    3  502    0 -0.13711984180E+04 -0.40071229526E+02 -0.10564719471E+04  0.17314513507E+04  0.50400001928E-02 0.  1.
       -1    1    3    3    0  502  0.13711984180E+04  0.40071229526E+02 -0.39854357729E+03  0.14285054385E+04  0.50400001928E-02 0. -1.
</event>
<event>
 5   0  0.1283052E-05  0.2748556E+04  0.7818609E-02  0.8319420E-01
        2   -1    0    0  501    0  0.00000000000E+00  0.00000000000E+00  0.18253287874E+04  0.18253287874E+04  0.25500000920E-02 0.  1.
       -2   -1    0    0    0  501  0.00000000000E+00  0.00000000000E+00 -0.10346848880E+04  0.10346848880E+04  0.25500000920E-02 0. -1.
    10030    2    1    2    0    0  0.00000000000E+00  0.00000000000E+00  0.79064389942E+03  0.28600136754E+04  0.27485560659E+04 0.  0.
        5    1    3    3  502    0 -0.38837632262E+03 -0.12663121345E+04  0.14083151493E+02  0.13246142892E+04  0.46999998093E+01 0. -1.
       -5    1    3    3    0  502  0.38837632262E+03  0.12663121345E+04  0.77656074793E+03  0.15353993862E+04  0.46999998093E+01 0.  1.
</event>
<event>
 5   0  0.4447500E-06  0.2818713E+04  0.7818609E-02  0.8297482E-01
       -3   -1    0    0    0  501  0.00000000000E+00  0.00000000000E+00  0.13714898715E+04  0.13714898752E+04  0.10100000352E+00 0.  1.
        3   -1    0    0  501    0  0.00000000000E+00  0.00000000000E+00 -0.14482682451E+04  0.14482682486E+04  0.10100000352E+00 0. -1.
    10030    2    1    2    0    0  0.00000000000E+00  0.00000000000E+00 -0.76778373630E+02  0.28197581238E+04  0.28187126420E+04 0.  0.
        5    1    3    3  502    0 -0.10896819298E+03 -0.58307831757E+03  0.12405249667E+04  0.13750558805E+04  0.46999998093E+01 0.  1.
       -5    1    3    3    0  502  0.10896819298E+03  0.58307831757E+03 -0.13173033403E+04  0.14447022433E+04  0.46999998093E+01 0. -1.
</event>
<event>
 5   0  0.1330962E-05  0.2770776E+04  0.7818609E-02  0.8312399E-01
       -2   -1    0    0    0  501  0.00000000000E+00  0.00000000000E+00  0.15031996028E+04  0.15031996028E+04  0.25500000920E-02 0. -1.
        2   -1    0    0  501    0  0.00000000000E+00  0.00000000000E+00 -0.12768095839E+04  0.12768095839E+04  0.25500000920E-02 0.  1.
    10030    2    1    2    0    0  0.00000000000E+00  0.00000000000E+00  0.22639001889E+03  0.27800091866E+04  0.27707758186E+04 0.  0.
        4    1    3    3  502    0  0.10568143600E+04  0.31555530160E+03 -0.72797001165E+03  0.13215043287E+04  0.12699999809E+01 0.  1.
       -4    1    3    3    0  502 -0.10568143600E+04 -0.31555530160E+03  0.95436003054E+03  0.14585048580E+04  0.12699999809E+01 0. -1.
</event>
<event>
 5   0  0.1330962E-05  0.2788216E+04  0.7818609E-02  0.8306936E-01
       -2   -1    0    0    0  501  0.00000000000E+00  0.00000000000E+00  0.11312112111E+04  0.11312112111E+04  0.25500000920E-02 0. -1.
        2   -1    0    0  501    0  0.00000000000E+00  0.00000000000E+00 -0.17181029857E+04  0.17181029857E+04  0.25500000920E-02 0.  1.
    10030    2    1    2    0    0  0.00000000000E+00  0.00000000000E+00 -0.58689177455E+03  0.28493141968E+04  0.27882161747E+04 0.  0.
        4    1    3    3  502    0 -0.21381430493E+03  0.12793404026E+04 -0.81562972570E+03  0.15322146994E+04  0.12699999809E+01 0.  1.
       -4    1    3    3    0  502  0.21381430493E+03 -0.12793404026E+04  0.22873795115E+03  0.13170994974E+04  0.12699999809E+01 0. -1.
</event>
<event>
 5   0  0.5107453E-06  0.2952244E+04  0.7818609E-02  0.8257501E-01
        1   -1    0    0  501    0  0.00000000000E+00  0.00000000000E+00  0.10981907499E+04  0.10981907499E+04  0.50400001928E-02 0.  1.
       -1   -1    0    0    0  501  0.00000000000E+00  0.00000000000E+00 -0.19841147345E+04  0.19841147345E+04  0.50400001928E-02 0. -1.
    10030    2    1    2    0    0  0.00000000000E+00  0.00000000000E+00 -0.88592398455E+03  0.30823054844E+04  0.29522441960E+04 0.  0.
        2    1    3    3  502    0  0.53520450979E+03  0.47981114248E+03  0.90312983598E+03  0.11542556478E+04  0.25500000920E-02 0.  1.
       -2    1    3    3    0  502 -0.53520450979E+03 -0.47981114248E+03 -0.17890538205E+04  0.19280498366E+04  0.25500000920E-02 0. -1.
</event>
<event>
 5   0  0.4764214E-06  0.2913297E+04  0.7818609E-02  0.8268932E-01
       -1   -1    0    0    0  501  0.00000000000E+00  0.00000000000E+00  0.12132576580E+04  0.12132576580E+04  0.50400001928E-02 0. -1.
        1   -1    0    0  501    0  0.00000000000E+00  0.00000000000E+00 -0.17488653241E+04  0.17488653241E+04  0.50400001928E-02 0.  1.
    10030    2    1    2    0    0  0.00000000000E+00  0.00000000000E+00 -0.53560766617E+03  0.29621229821E+04  0.29132965845E+04 0.  0.
        3    1    3    3  502    0  0.25231310493E+02 -0.26572795413E+02  0.12127889577E+04  0.12133424078E+04  0.10100000352E+00 0. -1.
       -3    1    3    3    0  502 -0.25231310493E+02  0.26572795413E+02 -0.17483966239E+04  0.17487805743E+04  0.10100000352E+00 0.  1.
</event>
<event>
 5   0  0.5023691E-06  0.2794304E+04  0.7818609E-02  0.8305039E-01
        1   -1    0    0  501    0  0.00000000000E+00  0.00000000000E+00  0.15359137979E+04  0.15359137979E+04  0.50400001928E-02 0.  1.
       -1   -1    0    0    0  501  0.00000000000E+00  0.00000000000E+00 -0.12709261960E+04  0.12709261960E+04  0.50400001928E-02 0. -1.
    10030    2    1    2    0    0  0.00000000000E+00  0.00000000000E+00  0.26498760183E+03  0.28068399939E+04  0.27943035487E+04 0.  0.
        5    1    3    3  502    0 -0.98578051725E+02 -0.79878103866E+03 -0.10146640972E+04  0.12951193382E+04  0.46999998093E+01 0. -1.
       -5    1    3    3    0  502  0.98578051725E+02  0.79878103866E+03  0.12796516991E+04  0.15117206557E+04  0.46999998093E+01 0.  1.
</event>
<event>
 5   0  0.1330962E-05  0.2761417E+04  0.7818609E-02  0.8315348E-01
       -2   -1    0    0    0  501  0.00000000000E+00  0.00000000000E+00  0.12059997018E+04  0.12059997018E+04  0.25500000920E-02 0.  1.
        2   -1    0    0  501    0  0.00000000000E+00  0.00000000000E+00 -0.15807265818E+04  0.15807265818E+04  0.25500000920E-02 0. -1.
    10030    2    1    2    0    0  0.00000000000E+00  0.00000000000E+00 -0.37472688002E+03  0.27867262836E+04  0.27614168728E+04 0.  0.
        4    1    3    3  502    0 -0.16226290723E+03  0.30517550505E+03  0.11616354525E+04  0.12119652955E+04  0.12699999809E+01 0.  1.
       -4    1    3    3    0  502  0.16226290723E+03 -0.30517550505E+03 -0.15363623326E+04  0.15747609881E+04  0.12699999809E+01 0. -1.
</event>
<event>
 5   0  0.1283052E-05  0.2726403E+04  0.7818609E-02  0.8326489E-01
        2   -1    0    0  501    0  0.00000000000E+00  0.00000000000E+00  0.15871485562E+04  0.15871485562E+04  0.25500000920E-02 0.  1.
       -2   -1    0    0    0  501  0.00000000000E+00  0.00000000000E+00 -0.11708535669E+04  0.11708535669E+04  0.25500000920E-02 0. -1.
    10030    2    1    2    0    0  0.00000000000E+00  0.00000000000E+00  0.41629498937E+03  0.27580021231E+04  0.27264031604E+04 0.  0.
        5    1    3    3  502    0  0.63639566547E+03 -0.11721086098E+04 -0.77003235364E+02  0.13359601882E+04  0.46999998093E+01 0. -1.
       -5    1    3    3    0  502 -0.63639566547E+03  0.11721086098E+04  0.49329822473E+03  0.14220419349E+04  0.46999998093E+01 0.  1.
</event>
<event>
 5   0  0.1388269E-05  0.2538500E+04  0.7818609E-02  0.8389397E-01
       -2   -1    0    0    0  501  0.00000000000E+00  0.00000000000E+00  0.84295841677E+03  0.84295841678E+03  0.25500000920E-02 0. -1.
        2   -1    0    0  501    0  0.00000000000E+00  0.00000000000E+00 -0.19111211436E+04  0.19111211436E+04  0.25500000920E-02 0.  1.
    10030    2    1    2    0    0  0.00000000000E+00  0.00000000000E+00 -0.10681627268E+04  0.27540795603E+04  0.25385000717E+04 0.  0.
        1    1    3    3  502    0  0.90574571022E+03  0.70531948297E+03 -0.11214900859E+04  0.16048647537E+04  0.50400001928E-02 0.  1.
       -1    1    3    3    0  502 -0.90574571022E+03 -0.70531948297E+03  0.53327359151E+02  0.11492148067E+04  0.50400001928E-02 0. -1.
</event>
<event>
 5   0  0.1388269E-05  0.2190652E+04  0.7818609E-02  0.8522329E-01
       -2   -1    0    0    0  501  0.00000000000E+00  0.00000000000E+00  0.12640345978E+04  0.12640345978E+04  0.25500000920E-02 0. -1.
        2   -1    0    0  501    0  0.00000000000E+00  0.00000000000E+00 -0.94913452668E+03  0.94913452668E+03  0.25500000920E-02 0.  1.
    10030    2    1    2    0    0  0.00000000000E+00  0.00000000000E+00  0.31490007111E+03  0.22131691245E+04  0.21906518479E+04 0.  0.
        1    1    3    3  502    0  0.83544860560E+02  0.29147571428E+03  0.12207899729E+04  0.12578815500E+04  0.50400001928E-02 0. -1.
       -1    1    3    3    0  502 -0.83544860560E+02 -0.29147571428E+03 -0.90588990182E+03  0.95528757450E+03  0.50400001928E-02 0.  1.
</event>
<event>
 5   0  0.5023691E-06  0.2758782E+04  0.7818609E-02  0.8316180E-01
       -1   -1    0    0    0  501  0.00000000000E+00  0.00000000000E+00  0.78418469433E+03  0.78418469434E+03  0.50400001928E-02 0.  1.
        1   -1    0    0  501    0  0.00000000000E+00  0.00000000000E+00 -0.24263661991E+04  0.24263661991E+04  0.50400001928E-02 0. -1.
    10030    2    1    2    0    0  0.00000000000E+00  0.00000000000E+00 -0.16421815047E+04  0.32105508934E+04  0.27587817863E+04 0.  0.
        5    1    3    3  502    0 -0.63700061264E+03  0.19154146315E+03 -0.22273785715E+04  0.23245849744E+04  0.46999998093E+01 0. -1.
       -5    1    3    3    0  502  0.63700061264E+03 -0.19154146315E+03  0.58519706677E+03  0.88596591896E+03  0.46999998093E+01 0.  1.
</event>
<event>
 5   0  0.5023691E-06  0.2852551E+04  0.7818609E-02  0.8287136E-01
       -1   -1    0    0    0  501  0.00000000000E+00  0.00000000000E+00  0.11720225658E+04  0.11720225658E+04  0.50400001928E-02 0.  1.
        1   -1    0    0  501    0  0.00000000000E+00  0.00000000000E+00 -0.17356851575E+04  0.17356851575E+04  0.50400001928E-02 0. -1.
    10030    2    1    2    0    0  0.00000000000E+00  0.00000000000E+00 -0.56366259168E+03  0.29077077233E+04  0.28525512593E+04 0.  0.
        5    1    3    3  502    0  0.36982554797E+03 -0.12418907139E+03 -0.16802345798E+04  0.17249359972E+04  0.46999998093E+01 0. -1.
       -5    1    3    3    0  502 -0.36982554797E+03  0.12418907139E+03  0.11165719881E+04  0.11827717261E+04  0.46999998093E+01 0.  1.
</event>
<event>
 5   0  0.1330962E-05  0.2840891E+04  0.7818609E-02  0.8290685E-01
       -2   -1    0    0    0  501  0.00000000000E+00  0.00000000000E+00  0.11255864380E+04  0.11255864380E+04  0.25500000920E-02 0.  1.
        2   -1    0    0  501    0  0.00000000000E+00  0.00000000000E+00 -0.17925461321E+04  0.17925461321E+04  0.25500000920E-02 0. -1.
    10030    2    1    2    0    0  0.00000000000E+00  0.00000000000E+00 -0.66695969407E+03  0.29181325701E+04  0.28408911389E+04 0.  0.
        4    1    3    3  502    0  0.65289176378E+03  0.10444281183E+03  0.95787629812E+03  0.11639177684E+04  0.12699999809E+01 0.  1.
       -4    1    3    3    0  502 -0.65289176378E+03 -0.10444281183E+03 -0.16248359922E+04  0.17542148017E+04  0.12699999809E+01 0. -1.
</event>
<event>
 5   0  0.5281919E-06  0.2796075E+04  0.7818609E-02  0.8304488E-01
        1   -1    0    0  501    0  0.00000000000E+00  0.00000000000E+00  0.18337028557E+04  0.18337028557E+04  0.50400001928E-02 0. -1.
       -1   -1    0    0    0  501  0.00000000000E+00  0.00000000000E+00 -0.10658809498E+04  0.10658809498E+04  0.50400001928E-02 0.  1.
    10030    2    1    2    0    0  0.00000000000E+00  0.00000000000E+00  0.76782190595E+03  0.28995838056E+04  0.27960750645E+04 0.  0.
        4    1    3    3  502    0 -0.86601233281E+03 -0.33520619758E+03  0.14676664642E+04  0.17367748900E+04  0.12699999809E+01 0. -1.
       -4    1    3    3    0  502  0.86601233281E+03  0.33520619758E+03 -0.69984455826E+03  0.11628089156E+04  0.12699999809E+01 0.  1.
</event>
<event>
 5   0  0.1330962E-05  0.2756360E+04  0.7818609E-02  0.8316946E-01
       -2   -1    0    0    0  501  0.00000000000E+00  0.00000000000E+00  0.92876983234E+03  0.92876983234E+03  0.25500000920E-02 0. -1.
        2   -1    0    0  501    0  0.00000000000E+00  0.00000000000E+00 -0.20450487005E+04  0.20450487005E+04  0.25500000920E-02 0.  1.
    10030    2    1    2    0    0  0.00000000000E+00  0.00000000000E+00 -0.11162788682E+04  0.29738185329E+04  0.27563595837E+04 0.  0.
        4    1    3    3  502    0 -0.12055920521E+04 -0.39847627083E+02  0.16103670139E+03  0.12169529414E+04  0.12699999809E+01 0. -1.
       -4    1    3    3    0  502  0.12055920521E+04  0.39847627083E+02 -0.12773155696E+04  0.17568655915E+04  0.12699999809E+01 0.  1.
</event>
<event>
 5   0  0.4764214E-06  0.2844319E+04  0.7818609E-02  0.8289640E-01
       -1   -1    0    0    0  501  0.00000000000E+00  0.00000000000E+00  0.19328919986E+04  0.19328919986E+04  0.50400001928E-02 0. -1.
        1   -1    0    0  501    0  0.00000000000E+00  0.00000000000E+00 -0.10463792980E+04  0.10463792980E+04  0.50400001928E-02 0.  1.
    10030    2    1    2    0    0  0.00000000000E+00  0.00000000000E+00  0.88651270063E+03  0.29792712966E+04  0.28443193721E+04 0.  0.
        3    1    3    3  502    0  0.13901598701E+04 -0.10080809188E+03  0.14730615010E+03  0.14015726339E+04  0.10100000352E+00 0. -1.
       -3    1    3    3    0  502 -0.13901598701E+04  0.10080809188E+03  0.73920655054E+03  0.15776986628E+04  0.10100000352E+00 0.  1.
</event>
<event>
 5   0  0.5281919E-06  0.2768445E+04  0.7818609E-02  0.8313132E-01
        1   -1    0    0  501    0  0.00000000000E+00  0.00000000000E+00  0.19361485970E+04  0.19361485971E+04  0.50400001928E-02 0.  1.
       -1   -1    0    0    0  501  0.00000000000E+00  0.00000000000E+00 -0.98963059090E+03  0.98963059091E+03  0.50400001928E-02 0. -1.
    10030    2    1    2    0    0  0.00000000000E+00  0.00000000000E+00  0.94651800615E+03  0.29257791880E+04  0.27684449644E+04 0.  0.
        4    1    3    3  502    0 -0.96885621948E+03  0.86817598800E+03  0.97306125378E+03  0.16245804802E+04  0.12699999809E+01 0.  1.
       -4    1    3    3    0  502  0.96885621948E+03 -0.86817598800E+03 -0.26543247630E+02  0.13011987078E+04  0.12699999809E+01 0. -1.
</event>
<event>
 5   0  0.5107453E-06  0.2837866E+04  0.7818609E-02  0.8291608E-01
       -1   -1    0    0    0  501  0.00000000000E+00  0.00000000000E+00  0.12294904629E+04  0.12294904629E+04  0.50400001928E-02 0.  1.
        1   -1    0    0  501    0  0.00000000000E+00  0.00000000000E+00 -0.16375655671E+04  0.16375655671E+04  0.50400001928E-02 0. -1.
    10030    2    1    2    0    0  0.00000000000E+00  0.00000000000E+00 -0.40807510420E+03  0.28670560301E+04  0.28378662740E+04 0.  0.
        2    1    3    3  502    0  0.72853758198E+03  0.22772521536E+03  0.10044034228E+04  0.12615276524E+04  0.25500000920E-02 0.  1.
       -2    1    3    3    0  502 -0.72853758198E+03 -0.22772521536E+03 -0.14124785270E+04  0.16055283776E+04  0.25500000920E-02 0. -1.
</event>
<event>
 5   0  0.1388269E-05  0.2643479E+04  0.7818609E-02  0.8353581E-01
        2   -1    0    0  501    0  0.00000000000E+00  0.00000000000E+00  0.20471615027E+04  0.20471615027E+04  0.25500000920E-02 0.  1.
       -2   -1    0    0    0  501  0.00000000000E+00  0.00000000000E+00 -0.85337459586E+03  0.85337459587E+03  0.25500000920E-02 0. -1.
    10030    2    1    2    0    0  0.00000000000E+00  0.00000000000E+00  0.11937869068E+04  0.29005360986E+04  0.26434792377E+04 0.  0.
        1    1    3    3  502    0 -0.76264498687E+03 -0.61280420723E+03  0.15720441297E+04  0.18516152727E+04  0.50400001928E-02 0.  1.
       -1    1    3    3    0  502  0.76264498687E+03  0.61280420723E+03 -0.37825722280E+03  0.10489208259E+04  0.50400001928E-02 0. -1.
</event>
<event>
 5   0  0.4764214E-06  0.2694459E+04  0.7818609E-02  0.8336805E-01
        1   -1    0    0  501    0  0.00000000000E+00  0.00000000000E+00  0.15909066785E+04  0.15909066785E+04  0.50400001928E-02 0.  1.
       -1   -1    0    0    0  501  0.00000000000E+00  0.00000000000E+00 -0.11408759370E+04  0.11408759370E+04  0.50400001928E-02 0. -1.
    10030    2    1    2    0    0  0.00000000000E+00  0.00000000000E+00  0.45003074151E+03  0.27317826155E+04  0.26944588678E+04 0.  0.
        3    1    3    3  502    0 -0.71436570800E+03  0.97996515769E+03  0.81998073916E+03  0.14639052216E+04  0.10100000352E+00 0.  1.
       -3    1    3    3    0  502  0.71436570800E+03 -0.97996515769E+03 -0.36994999765E+03  0.12678773939E+04  0.10100000352E+00 0. -1.
</event>
<event>
 5   0  0.1388269E-05  0.2740940E+04  0.7818609E-02  0.8321842E-01
        2   -1    0    0  501    0  0.00000000000E+00  0.00000000000E+00  0.18657118202E+04  0.18657118202E+04  0.25500000920E-02 0. -1.
       -2   -1    0    0    0  501  0.00000000000E+00  0.00000000000E+00 -0.10066874106E+04  0.10066874106E+04  0.25500000920E-02 0.  1.
    10030    2    1    2    0    0  0.00000000000E+00  0.00000000000E+00  0.85902440961E+03  0.28723992308E+04  0.27409404235E+04 0.  0.
        1    1    3    3  502    0  0.54346661864E+03 -0.87575611742E+03 -0.51707226824E+03  0.11531125155E+04  0.50400001928E-02 0.  1.
       -1    1    3    3    0  502 -0.54346661864E+03  0.87575611742E+03  0.13760966779E+04  0.17192867154E+04  0.50400001928E-02 0. -1.
</event>
<event>
 5   0  0.1302063E-05  0.2803575E+04  0.7818609E-02  0.8302159E-01
       -2   -1    0    0    0  501  0.00000000000E+00  0.00000000000E+00  0.94114475231E+03  0.94114475232E+03  0.25500000920E-02 0.  1.
        2   -1    0    0  501    0  0.00000000000E+00  0.00000000000E+00 -0.20878918799E+04  0.20878918799E+04  0.25500000920E-02 0. -1.
    10030    2    1    2    0    0  0.00000000000E+00  0.00000000000E+00 -0.11467471276E+04  0.30290366322E+04  0.28035752076E+04 0.  0.
        2    1    3    3  502    0 -0.30454299797E+03  0.82250860980E+03  0.60806458599E+03  0.10672438295E+04  0.25500000920E-02 0.  1.
       -2    1    3    3    0  502  0.30454299797E+03 -0.82250860980E+03 -0.17548117136E+04  0.19617928027E+04  0.25500000920E-02 0. -1.
</event>
<event>
 5   0  0.1330962E-05  0.2600858E+04  0.7818609E-02  0.8367910E-01
       -2   -1    0    0    0  501  0.00000000000E+00  0.00000000000E+00  0.11009602596E+04  0.11009602597E+04  0.25500000920E-02 0.  1.
        2   -1    0    0  501    0  0.00000000000E+00  0.00000000000E+00 -0.15360371019E+04  0.15360371019E+04  0.25500000920E-02 0. -1.
    10030    2    1    2    0    0  0.00000000000E+00  0.00000000000E+00 -0.43507684224E+03  0.26369973615E+04  0.26008581711E+04 0.  0.
        4    1    3    3  502    0 -0.40735340880E+03 -0.50063406136E+03 -0.13621819553E+04  0.15073528304E+04  0.12699999809E+01 0. -1.
       -4    1    3    3    0  502  0.40735340880E+03  0.50063406136E+03  0.92710511309E+03  0.11296445311E+04  0.12699999809E+01 0.  1.
</event>
<event>
 5   0  0.5281919E-06  0.2745847E+04  0.7818609E-02  0.8320281E-01
       -1   -1    0    0    0  501  0.00000000000E+00  0.00000000000E+00  0.11108994560E+04  0.11108994560E+04  0.50400001928E-02 0. -1.
        1   -1    0    0  501    0  0.00000000000E+00  0.00000000000E+00 -0.16967501126E+04  0.16967501126E+04  0.50400001928E-02 0.  1.
    10030    2    1    2    0    0  0.00000000000E+00  0.00000000000E+00 -0.58585065663E+03  0.28076495686E+04  0.27458468836E+04 0.  0.
        4    1    3    3  502    0 -0.87324855003E+03 -0.96814147495E+02  0.78579904266E+03  0.11787356606E+04  0.12699999809E+01 0. -1.
       -4    1    3    3    0  502  0.87324855003E+03  0.96814147495E+02 -0.13716496993E+04  0.16289139080E+04  0.12699999809E+01 0.  1.
</event>
<event>
 5   0  0.5217999E-06  0.2806464E+04  0.7818609E-02  0.8301264E-01
        1   -1    0    0  501    0  0.00000000000E+00  0.00000000000E+00  0.12360561753E+04  0.12360561754E+04  0.50400001928E-02 0.  1.
       -1   -1    0    0    0  501  0.00000000000E+00  0.00000000000E+00 -0.15930179016E+04  0.15930179016E+04  0.50400001928E-02 0. -1.
    10030    2    1    2    0    0  0.00000000000E+00  0.00000000000E+00 -0.35696172626E+03  0.28290740770E+04  0.28064636928E+04 0.  0.
        1    1    3    3  502    0  0.64896298165E+03 -0.41524268973E+03 -0.13607383099E+04  0.15637097528E+04  0.50400001928E-02 0. -1.
       -1    1    3    3    0  502 -0.64896298165E+03  0.41524268973E+03  0.10037765837E+04  0.12653643242E+04  0.50400001928E-02 0.  1.
</event>
<event>
 5   0  0.1330962E-05  0.2793767E+04  0.7818609E-02  0.8305206E-01
       -2   -1    0    0    0  501  0.00000000000E+00  0.00000000000E+00  0.12390174743E+04  0.12390174743E+04  0.25500000920E-02 0. -1.
        2   -1    0    0  501    0  0.00000000000E+00  0.00000000000E+00 -0.15748640134E+04  0.15748640134E+04  0.25500000920E-02 0.  1.
    10030    2    1    2    0    0  0.00000000000E+00  0.00000000000E+00 -0.33584653909E+03  0.28138814876E+04  0.27937673720E+04 0.  0.
        4    1    3    3  502    0 -0.90093700464E+03 -0.10603786203E+04 -0.29206696675E+03  0.14217577257E+04  0.12699999809E+01 0.  1.
       -4    1    3    3    0  502  0.90093700464E+03  0.10603786203E+04 -0.43779572340E+02  0.13921237619E+04  0.12699999809E+01 0. -1.
</event>
<event>
 5   0  0.1283052E-05  0.2218222E+04  0.7818609E-02  0.8510882E-01
        2   -1    0    0  501    0  0.00000000000E+00  0.00000000000E+00  0.14859745983E+04  0.14859745983E+04  0.25500000920E-02 0. -1.
       -2   -1    0    0    0  501  0.00000000000E+00  0.00000000000E+00 -0.82782525561E+03  0.82782525562E+03  0.25500000920E-02 0.  1.
    10030    2    1    2    0    0  0.00000000000E+00  0.00000000000E+00  0.65814934270E+03  0.23137998539E+04  0.22182220824E+04 0.  0.
        5    1    3    3  502    0  0.94478642838E+03  0.27820124438E+03  0.86103693537E+03  0.13082140581E+04  0.46999998093E+01 0. -1.
       -5    1    3    3    0  502 -0.94478642838E+03 -0.27820124438E+03 -0.20288759267E+03  0.10055857959E+04  0.46999998093E+01 0.  1.
</event>
<event>
 5   0  0.5107453E-06  0.2784030E+04  0.7818609E-02  0.8308244E-01
        1   -1    0    0  501    0  0.00000000000E+00  0.00000000000E+00  0.15147205600E+04  0.15147205600E+04  0.50400001928E-02 0.  1.
       -1   -1    0    0    0  501  0.00000000000E+00  0.00000000000E+00 -0.12792498591E+04  0.12792498591E+04  0.50400001928E-02 0. -1.
    10030    2    1    2    0    0  0.00000000000E+00  0.00000000000E+00  0.23547070089E+03  0.27939704190E+04  0.27840302174E+04 0.  0.
        2    1    3    3  502    0  0.88371398525E+03 -0.59250623272E+03  0.10185436729E+04  0.14729036822E+04  0.25500000920E-02 0.  1.
       -2    1    3    3    0  502 -0.88371398525E+03  0.59250623272E+03 -0.78307297202E+03  0.13210667368E+04  0.25500000920E-02 0. -1.
</event>
<event>
 5   0  0.4764214E-06  0.2792313E+04  0.7818609E-02  0.8305659E-01
       -1   -1    0    0    0  501  0.00000000000E+00  0.00000000000E+00  0.12500748443E+04  0.12500748443E+04  0.50400001928E-02 0. -1.
        1   -1    0    0  501    0  0.00000000000E+00  0.00000000000E+00 -0.15593090290E+04  0.15593090290E+04  0.50400001928E-02 0.  1.
    10030    2    1    2    0    0  0.00000000000E+00  0.00000000000E+00 -0.30923418466E+03  0.28093838733E+04  0.27923130137E+04 0.  0.
        3    1    3    3  502    0  0.26635560701E+03 -0.34670803944E+03  0.11794231200E+04  0.12578516130E+04  0.10100000352E+00 0. -1.
       -3    1    3    3    0  502 -0.26635560701E+03  0.34670803944E+03 -0.14886573047E+04  0.15515322604E+04  0.10100000352E+00 0.  1.
</event>
<event>
 5   0  0.1302063E-05  0.2687065E+04  0.7818609E-02  0.8339214E-01
       -2   -1    0    0    0  501  0.00000000000E+00  0.00000000000E+00  0.11792111845E+04  0.11792111845E+04  0.25500000920E-02 0.  1.
        2   -1    0    0  501    0  0.00000000000E+00  0.00000000000E+00 -0.15307519917E+04  0.15307519917E+04  0.25500000920E-02 0. -1.
    10030    2    1    2    0    0  0.00000000000E+00  0.00000000000E+00 -0.35154080712E+03  0.27099631762E+04  0.26870652164E+04 0.  0.
        2    1    3    3  502    0  0.59926192887E+03 -0.11073658516E+04  0.29695182367E+03  0.12936592961E+04  0.25500000920E-02 0.  1.
       -2    1    3    3    0  502 -0.59926192887E+03  0.11073658516E+04 -0.64849263079E+03  0.14163038801E+04  0.25500000920E-02 0. -1.
</event>
<event>
 5   0  0.1330962E-05  0.2529969E+04  0.7818609E-02  0.8392386E-01
       -2   -1    0    0    0  501  0.00000000000E+00  0.00000000000E+00  0.11267374198E+04  0.11267374199E+04  0.25500000920E-02 0. -1.
        2   -1    0    0  501    0  0.00000000000E+00  0.00000000000E+00 -0.14201945202E+04  0.14201945202E+04  0.25500000920E-02 0.  1.
    10030    2    1    2    0    0  0.00000000000E+00  0.00000000000E+00 -0.29345710032E+03  0.25469319400E+04  0.25299694143E+04 0.  0.
        4    1    3    3  502    0  0.63316248624E+03  0.25942044936E+03 -0.12178126061E+04  0.13968761076E+04  0.12699999809E+01 0.  1.
       -4    1    3    3    0  502 -0.63316248624E+03 -0.25942044936E+03  0.92435550583E+03  0.11500558324E+04  0.12699999809E+01 0. -1.
</event>
<event>
 5   0  0.5217999E-06  0.2787872E+04  0.7818609E-02  0.8307043E-01
        1   -1    0    0  501    0  0.00000000000E+00  0.00000000000E+00  0.14088335432E+04  0.14088335432E+04  0.50400001928E-02 0. -1.
       -1   -1    0    0    0  501  0.00000000000E+00  0.00000000000E+00 -0.13791962778E+04  0.13791962779E+04  0.50400001928E-02 0.  1.
    10030    2    1    2    0    0  0.00000000000E+00  0.00000000000E+00  0.29637265315E+02  0.27880298210E+04  0.27878722918E+04 0.  0.
        1    1    3    3  502    0  0.10831897462E+04  0.79537003002E+03 -0.35553250764E+03  0.13900780104E+04  0.50400001928E-02 0.  1.
       -1    1    3    3    0  502 -0.10831897462E+04 -0.79537003002E+03  0.38516977296E+03  0.13979518107E+04  0.50400001928E-02 0. -1.
</event>
<event>
 5   0  0.5217999E-06  0.2802358E+04  0.7818609E-02  0.8302537E-01
        1   -1    0    0  501    0  0.00000000000E+00  0.00000000000E+00  0.15738201237E+04  0.15738201237E+04  0.50400001928E-02 0.  1.
       -1   -1    0    0    0  501  0.00000000000E+00  0.00000000000E+00 -0.12474758305E+04  0.12474758305E+04  0.50400001928E-02 0. -1.
    10030    2    1    2    0    0  0.00000000000E+00  0.00000000000E+00  0.32634429323E+03  0.28212959543E+04  0.28023579828E+04 0.  0.
        1    1    3    3  502    0  0.35190036531E+02  0.12894385073E+04  0.71405599964E+03  0.14743696868E+04  0.50400001928E-02 0. -1.
       -1    1    3    3    0  502 -0.35190036531E+02 -0.12894385073E+04 -0.38771170641E+03  0.13469262675E+04  0.50400001928E-02 0.  1.
</event>
<event>
 5   0  0.1350863E-05  0.2671336E+04  0.7818609E-02  0.8344366E-01
        2   -1    0    0  501    0  0.00000000000E+00  0.00000000000E+00  0.30078943466E+04  0.30078943466E+04  0.25500000920E-02 0. -1.
       -2   -1    0    0    0  501  0.00000000000E+00  0.00000000000E+00 -0.59310882562E+03  0.59310882562E+03  0.25500000920E-02 0.  1.
    10030    2    1    2    0    0  0.00000000000E+00  0.00000000000E+00  0.24147855210E+04  0.36010031723E+04  0.26713357584E+04 0.  0.
        3    1    3    3  502    0  0.79189940882E+03  0.10284323484E+04  0.78275510711E+03  0.15157451424E+04  0.10100000352E+00 0.  1.
       -3    1    3    3    0  502 -0.79189940882E+03 -0.10284323484E+04  0.16320304139E+04  0.20852580298E+04  0.10100000352E+00 0. -1.
</event>
<event>
 5   0  0.5281919E-06  0.2799099E+04  0.7818609E-02  0.8303548E-01
        1   -1    0    0  501    0  0.00000000000E+00  0.00000000000E+00  0.21380223190E+04  0.21380223190E+04  0.50400001928E-02 0. -1.
       -1   -1    0    0    0  501  0.00000000000E+00  0.00000000000E+00 -0.91614513307E+03  0.91614513309E+03  0.50400001928E-02 0.  1.
    10030    2    1    2    0    0  0.00000000000E+00  0.00000000000E+00  0.12218771859E+04  0.30541674521E+04  0.27990989564E+04 0.  0.
        4    1    3    3  502    0  0.81383480247E+03  0.77165612030E+03 -0.30258599739E+03  0.11616110160E+04  0.12699999809E+01 0.  1.
       -4    1    3    3    0  502 -0.81383480247E+03 -0.77165612030E+03  0.15244631833E+04  0.18925564361E+04  0.12699999809E+01 0. -1.
</event>
<event>
 5   0  0.4764214E-06  0.2802540E+04  0.7818609E-02  0.8302480E-01
       -1   -1    0    0    0  501  0.00000000000E+00  0.00000000000E+00  0.83337696126E+03  0.83337696128E+03  0.50400001928E-02 0.  1.
        1   -1    0    0  501    0  0.00000000000E+00  0.00000000000E+00 -0.23561452779E+04  0.23561452779E+04  0.50400001928E-02 0. -1.
    10030    2    1    2    0    0  0.00000000000E+00  0.00000000000E+00 -0.15227683166E+04  0.31895222392E+04  0.28025396996E+04 0.  0.
        3    1    3    3  502    0  0.10238241880E+04  0.86944523245E+03 -0.30699656166E+03  0.13778236024E+04  0.10100000352E+00 0.  1.
       -3    1    3    3    0  502 -0.10238241880E+04 -0.86944523245E+03 -0.12157717550E+04  0.18116986368E+04  0.10100000352E+00 0. -1.
</event>
<event>
 5   0  0.5217999E-06  0.2823247E+04  0.7818609E-02  0.8296087E-01
       -1   -1    0    0    0  501  0.00000000000E+00  0.00000000000E+00  0.15310878045E+04  0.15310878045E+04  0.50400001928E-02 0.  1.
        1   -1    0    0  501    0  0.00000000000E+00  0.00000000000E+00 -0.13014809495E+04  0.13014809495E+04  0.50400001928E-02 0. -1.
    10030    2    1    2    0    0  0.00000000000E+00  0.00000000000E+00  0.22960685496E+03  0.28325687540E+04  0.28232474986E+04 0.  0.
        1    1    3    3  502    0 -0.20815203629E+03  0.13322394526E+04  0.53390543553E+03  0.14502566129E+04  0.50400001928E-02 0.  1.
       -1    1    3    3    0  502  0.20815203629E+03 -0.13322394526E+04 -0.30429858057E+03  0.13823121411E+04  0.50400001928E-02 0. -1.
</event>
<event>
 5   0  0.4764214E-06  0.2785224E+04  0.7818609E-02  0.8307870E-01
        1   -1    0    0  501    0  0.00000000000E+00  0.00000000000E+00  0.15853505982E+04  0.15853505982E+04  0.50400001928E-02 0. -1.
       -1   -1    0    0    0  501  0.00000000000E+00  0.00000000000E+00 -0.12233058132E+04  0.12233058132E+04  0.50400001928E-02 0.  1.
    10030    2    1    2    0    0  0.00000000000E+00  0.00000000000E+00  0.36204478495E+03  0.28086564114E+04  0.27852243018E+04 0.  0.
        3    1    3    3  502    0  0.25065478594E+03  0.26223398591E+03  0.15368688769E+04  0.15791011494E+04  0.10100000352E+00 0. -1.
       -3    1    3    3    0  502 -0.25065478594E+03 -0.26223398591E+03 -0.11748240920E+04  0.12295552620E+04  0.10100000352E+00 0.  1.
</event>
<event>
 5   0  0.1283052E-05  0.2667362E+04  0.7818609E-02  0.8345673E-01
       -2   -1    0    0    0  501  0.00000000000E+00  0.00000000000E+00  0.20261297397E+04  0.20261297397E+04  0.25500000920E-02 0. -1.
        2   -1    0    0  501    0  0.00000000000E+00  0.00000000000E+00 -0.87788339142E+03  0.87788339143E+03  0.25500000920E-02 0.  1.
    10030    2    1    2    0    0  0.00000000000E+00  0.00000000000E+00  0.11482463482E+04  0.29040131311E+04  0.26673624780E+04 0.  0.
        5    1    3    3  502    0  0.11408198290E+04  0.68122397179E+03  0.69895903829E+03  0.15013666472E+04  0.46999998093E+01 0.  1.
       -5    1    3    3    0  502 -0.11408198290E+04 -0.68122397179E+03  0.44928730994E+03  0.14026464839E+04  0.46999998093E+01 0. -1.
</event>
<event>
 5   0  0.5281919E-06  0.2876946E+04  0.7818609E-02  0.8279770E-01
       -1   -1    0    0    0  501  0.00000000000E+00  0.00000000000E+00  0.11995038613E+04  0.11995038613E+04  0.50400001928E-02 0.  1.
        1   -1    0    0  501    0  0.00000000000E+00  0.00000000000E+00 -0.17250502957E+04  0.17250502957E+04  0.50400001928E-02 0. -1.
    10030    2    1    2    0    0  0.00000000000E+00  0.00000000000E+00 -0.52554643434E+03  0.29245541570E+04  0.28769459437E+04 0.  0.
        4    1    3    3  502    0  0.10103357311E+04  0.68798121071E+03  0.50813394837E+03  0.13237439927E+04  0.12699999809E+01 0.  1.
       -4    1    3    3    0  502 -0.10103357311E+04 -0.68798121071E+03 -0.10336803827E+04  0.16008101643E+04  0.12699999809E+01 0. -1.
</event>
<event>
 5   0  0.5217999E-06  0.2783230E+04  0.7818609E-02  0.8308494E-01
       -1   -1    0    0    0  501  0.00000000000E+00  0.00000000000E+00  0.75852441990E+03  0.75852441992E+03  0.50400001928E-02 0.  1.
        1   -1    0    0  501    0  0.00000000000E+00  0.00000000000E+00 -0.25531048033E+04  0.25531048033E+04  0.50400001928E-02 0. -1.
    10030    2    1    2    0    0  0.00000000000E+00  0.00000000000E+00 -0.17945803834E+04  0.33116292232E+04  0.27832300228E+04 0.  0.
        1    1    3    3  502    0 -0.17214370478E+03  0.13577775367E+04 -0.59769560242E+03  0.14934635340E+04  0.50400001928E-02 0.  1.
       -1    1    3    3    0  502  0.17214370478E+03 -0.13577775367E+04 -0.11968847810E+04  0.18181656892E+04  0.50400001928E-02 0. -1.
</event>
<event>
 5   0  0.4764214E-06  0.2822904E+04  0.7818609E-02  0.8296193E-01
       -1   -1    0    0    0  501  0.00000000000E+00  0.00000000000E+00  0.26008032422E+04  0.26008032422E+04  0.50400001928E-02 0.  1.
        1   -1    0    0  501    0  0.00000000000E+00  0.00000000000E+00 -0.76599274676E+03  0.76599274678E+03  0.50400001928E-02 0. -1.
    10030    2    1    2    0    0  0.00000000000E+00  0.00000000000E+00  0.18348104954E+04  0.33667959889E+04  0.28229037669E+04 0.  0.
        3    1    3    3  502    0 -0.99826066332E+03  0.35131097406E+03  0.20312941531E+04  0.22904365739E+04  0.10100000352E+00 0.  1.
       -3    1    3    3    0  502  0.99826066332E+03 -0.35131097406E+03 -0.19648365770E+03  0.10763594150E+04  0.10100000352E+00 0. -1.
</event>
<event>
 5   0  0.1283052E-05  0.2766719E+04  0.7818609E-02  0.8313676E-01
        2   -1    0    0  501    0  0.00000000000E+00  0.00000000000E+00  0.21655111299E+04  0.21655111299E+04  0.25500000920E-02 0. -1.
       -2   -1    0    0    0  501  0.00000000000E+00  0.00000000000E+00 -0.88370975294E+03  0.88370975294E+03  0.25500000920E-02 0.  1.
    10030    2    1    2    0    0  0.00000000000E+00  0.00000000000E+00  0.12818013770E+04  0.30492208829E+04  0.27667188550E+04 0.  0.
        5    1    3    3  502    0  0.72318889879E+03  0.65193076140E+03  0.17239112065E+04  0.19798757130E+04  0.46999998093E+01 0. -1.
       -5    1    3    3    0  502 -0.72318889879E+03 -0.65193076140E+03 -0.44210982951E+03  0.10693451699E+04  0.46999998093E+01 0.  1.
</event>
<event>
 5   0  0.1330962E-05  0.2834605E+04  0.7818609E-02  0.8292605E-01
       -2   -1    0    0    0  501  0.00000000000E+00  0.00000000000E+00  0.11140079142E+04  0.11140079142E+04  0.25500000920E-02 0. -1.
        2   -1    0    0  501    0  0.00000000000E+00  0.00000000000E+00 -0.18031701326E+04  0.18031701326E+04  0.25500000920E-02 0.  1.
    10030    2    1    2    0    0  0.00000000000E+00  0.00000000000E+00 -0.68916221848E+03  0.29171780468E+04  0.28346045920E+04 0.  0.
        4    1    3    3  502    0 -0.17918432499E+03  0.13664755259E+03 -0.17846155168E+04  0.17987867388E+04  0.12699999809E+01 0.  1.
       -4    1    3    3    0  502  0.17918432499E+03 -0.13664755259E+03  0.10954532984E+04  0.11183913080E+04  0.12699999809E+01 0. -1.
</event>
<event>
 5   0  0.5023691E-06  0.2800084E+04  0.7818609E-02  0.8303242E-01
        1   -1    0    0  501    0  0.00000000000E+00  0.00000000000E+00  0.17137703612E+04  0.17137703612E+04  0.50400001928E-02 0.  1.
       -1   -1    0    0    0  501  0.00000000000E+00  0.00000000000E+00 -0.11437461383E+04  0.11437461383E+04  0.50400001928E-02 0. -1.
    10030    2    1    2    0    0  0.00000000000E+00  0.00000000000E+00  0.57002422290E+03  0.28575164995E+04  0.28000844505E+04 0.  0.
        5    1    3    3  502    0 -0.17763265241E+03 -0.10279404788E+04  0.12379097757E+04  0.16188445539E+04  0.46999998093E+01 0.  1.
       -5    1    3    3    0  502  0.17763265241E+03  0.10279404788E+04 -0.66788555278E+03  0.12386719455E+04  0.46999998093E+01 0. -1.
</event>
<event>
 5   0  0.1330962E-05  0.2698158E+04  0.7818609E-02  0.8335603E-01
        2   -1    0    0  501    0  0.00000000000E+00  0.00000000000E+00  0.14559479344E+04  0.14559479344E+04  0.25500000920E-02 0.  1.
       -2   -1    0    0    0  501  0.00000000000E+00  0.00000000000E+00 -0.12500548037E+04  0.12500548037E+04  0.25500000920E-02 0. -1.
    10030    2    1    2    0    0  0.00000000000E+00  0.00000000000E+00  0.20589313070E+03  0.27060027382E+04  0.26981584160E+04 0.  0.
        4    1    3    3  502    0  0.73058377111E+03  0.89943421630E+03  0.79580856204E+03  0.14057195440E+04  0.12699999809E+01 0.  1.
       -4    1    3    3    0  502 -0.73058377111E+03 -0.89943421630E+03 -0.58991543134E+03  0.13002831942E+04  0.12699999809E+01 0. -1.
</event>
<event>
 5   0  0.4764214E-06  0.2754621E+04  0.7818609E-02  0.8317497E-01
        1   -1    0    0  501    0  0.00000000000E+00  0.00000000000E+00  0.23699841795E+04  0.23699841796E+04  0.50400001928E-02 0. -1.
       -1   -1    0    0    0  501  0.00000000000E+00  0.00000000000E+00 -0.80042045369E+03  0.80042045370E+03  0.50400001928E-02 0.  1.
    10030    2    1    2    0    0  0.00000000000E+00  0.00000000000E+00  0.15695637259E+04  0.31704046333E+04  0.27546207087E+04 0.  0.
        3    1    3    3  502    0  0.94916609549E+03 -0.58759050710E+03 -0.14371042330E+03  0.11255361286E+04  0.10100000352E+00 0.  1.
       -3    1    3    3    0  502 -0.94916609549E+03  0.58759050710E+03  0.17132741492E+04  0.20448685046E+04  0.10100000352E+00 0. -1.
</event>
<event>
 5   0  0.1302063E-05  0.2717446E+04  0.7818609E-02  0.8329366E-01
       -2   -1    0    0    0  501  0.00000000000E+00  0.00000000000E+00  0.11387587022E+04  0.11387587022E+04  0.25500000920E-02 0. -1.
        2   -1    0    0  501    0  0.00000000000E+00  0.00000000000E+00 -0.16211759744E+04  0.16211759744E+04  0.25500000920E-02 0.  1.
    10030    2    1    2    0    0  0.00000000000E+00  0.00000000000E+00 -0.48241727224E+03  0.27599346766E+04  0.27174460426E+04 0.  0.
        2    1    3    3  502    0  0.77763514876E+03 -0.54670308765E+03  0.74480949779E+03  0.12076182669E+04  0.25500000920E-02 0. -1.
       -2    1    3    3    0  502 -0.77763514876E+03  0.54670308765E+03 -0.12272267700E+04  0.15523164097E+04  0.25500000920E-02 0.  1.
</event>
<event>
 5   0  0.1388269E-05  0.2808522E+04  0.7818609E-02  0.8300627E-01
       -2   -1    0    0    0  501  0.00000000000E+00  0.00000000000E+00  0.89273962650E+03  0.89273962650E+03  0.25500000920E-02 0. -1.
        2   -1    0    0  501    0  0.00000000000E+00  0.00000000000E+00 -0.22088735852E+04  0.22088735852E+04  0.25500000920E-02 0.  1.
    10030    2    1    2    0    0  0.00000000000E+00  0.00000000000E+00 -0.13161339587E+04  0.31016132117E+04  0.28085220166E+04 0.  0.
        1    1    3    3  502    0 -0.40112129912E+03 -0.34215624939E+03 -0.20954215580E+04  0.21607315199E+04  0.50400001928E-02 0.  1.
       -1    1    3    3    0  502  0.40112129912E+03  0.34215624939E+03  0.77928759924E+03  0.94088169180E+03  0.50400001928E-02 0. -1.
</event>
<event>
 5   0  0.5281919E-06  0.2784866E+04  0.7818609E-02  0.8307982E-01
       -1   -1    0    0    0  501  0.00000000000E+00  0.00000000000E+00  0.88013543900E+03  0.88013543901E+03  0.50400001928E-02 0.  1.
        1   -1    0    0  501    0  0.00000000000E+00  0.00000000000E+00 -0.22029224052E+04  0.22029224052E+04  0.50400001928E-02 0. -1.
    10030    2    1    2    0    0  0.00000000000E+00  0.00000000000E+00 -0.13227869662E+04  0.30830578442E+04  0.27848663007E+04 0.  0.
        4    1    3    3  502    0  0.32451598462E+03 -0.11666319854E+03  0.83211178162E+03  0.90074000476E+03  0.12699999809E+01 0.  1.
       -4    1    3    3    0  502 -0.32451598462E+03  0.11666319854E+03 -0.21548987478E+04  0.21823178394E+04  0.12699999809E+01 0. -1.
</event>
<event>
 5   0  0.1388269E-05  0.2821688E+04  0.7818609E-02  0.8296566E-01
        2   -1    0    0  501    0  0.00000000000E+00  0.00000000000E+00  0.18561888600E+04  0.18561888600E+04  0.25500000920E-02 0.  1.
       -2   -1    0    0    0  501  0.00000000000E+00  0.00000000000E+00 -0.10723485288E+04  0.10723485288E+04  0.25500000920E-02 0. -1.
    10030    2    1    2    0    0  0.00000000000E+00  0.00000000000E+00  0.78384033124E+03  0.29285373888E+04  0.28216884259E+04 0.  0.
        1    1    3    3  502    0  0.38120632840E+03  0.65412978430E+02  0.18000897506E+04  0.18411736020E+04  0.50400001928E-02 0.  1.
       -1    1    3    3    0  502 -0.38120632840E+03 -0.65412978430E+02 -0.10162494193E+04  0.10873637868E+04  0.50400001928E-02 0. -1.
</event>
<event>
 5   0  0.5107453E-06  0.2285289E+04  0.7818609E-02  0.8483744E-01
        1   -1    0    0  501    0  0.00000000000E+00  0.00000000000E+00  0.93940599022E+03  0.93940599023E+03  0.50400001928E-02 0. -1.
       -1   -1    0    0    0  501  0.00000000000E+00  0.00000000000E+00 -0.13898527654E+04  0.13898527654E+04  0.50400001928E-02 0.  1.
    10030    2    1    2    0    0  0.00000000000E+00  0.00000000000E+00 -0.45044677521E+03  0.23292587557E+04  0.22852886149E+04 0.  0.
        2    1    3    3  502    0  0.10957703643E+04 -0.24715816452E+03 -0.43862266854E+03  0.12058978791E+04  0.25500000920E-02 0. -1.
       -2    1    3    3    0  502 -0.10957703643E+04  0.24715816452E+03 -0.11824106665E+02  0.11233608766E+04  0.25500000920E-02 0.  1.
</event>
<event>
 5   0  0.1330962E-05  0.2792203E+04  0.7818609E-02  0.8305693E-01
        2   -1    0    0  501    0  0.00000000000E+00  0.00000000000E+00  0.19595878485E+04  0.19595878485E+04  0.25500000920E-02 0. -1.
       -2   -1    0    0    0  501  0.00000000000E+00  0.00000000000E+00 -0.99464753461E+03  0.99464753462E+03  0.25500000920E-02 0.  1.
    10030    2    1    2    0    0  0.00000000000E+00  0.00000000000E+00  0.96494031388E+03  0.29542353831E+04  0.27922028740E+04 0.  0.
        4    1    3    3  502    0 -0.10001191092E+04  0.16428518202E+03 -0.53338761885E+03  0.11453086128E+04  0.12699999809E+01 0.  1.
       -4    1    3    3    0  502  0.10001191092E+04 -0.16428518202E+03  0.14983279327E+04  0.18089267704E+04  0.12699999809E+01 0. -1.
</event>
<event>
 5   0  0.1350863E-05  0.2587439E+04  0.7818609E-02  0.8372480E-01
       -2   -1    0    0    0  501  0.00000000000E+00  0.00000000000E+00  0.99639342260E+03  0.99639342261E+03  0.25500000920E-02 0. -1.
        2   -1    0    0  501    0  0.00000000000E+00  0.00000000000E+00 -0.16797683805E+04  0.16797683805E+04  0.25500000920E-02 0.  1.
    10030    2    1    2    0    0  0.00000000000E+00  0.00000000000E+00 -0.68337495785E+03  0.26761618031E+04  0.25874390163E+04 0.  0.
        3    1    3    3  502    0  0.15800338952E+03  0.67488040702E+03  0.78814408306E+03  0.10495712176E+04  0.10100000352E+00 0. -1.
       -3    1    3    3    0  502 -0.15800338952E+03 -0.67488040702E+03 -0.14715190409E+04  0.16265905855E+04  0.10100000352E+00 0.  1.
</event>
<event>
 5   0  0.5107453E-06  0.2693501E+04  0.7818609E-02  0.8337117E-01
        1   -1    0    0  501    0  0.00000000000E+00  0.00000000000E+00  0.21658579264E+04  0.21658579264E+04  0.50400001928E-02 0. -1.
       -1   -1    0    0    0  501  0.00000000000E+00  0.00000000000E+00 -0.83742197541E+03  0.83742197543E+03  0.50400001928E-02 0.  1.
    10030    2    1    2    0    0  0.00000000000E+00  0.00000000000E+00  0.13284359509E+04  0.30032799018E+04  0.26935010846E+04 0.  0.
        2    1    3    3  502    0 -0.12483275218E+04  0.32168981290E+03  0.10988302381E+04  0.16938812915E+04  0.25500000920E-02 0. -1.
       -2    1    3    3    0  502  0.12483275218E+04 -0.32168981290E+03  0.22960571282E+03  0.13093986103E+04  0.25500000920E-02 0.  1.
</event>
<event>
 5   0  0.5281919E-06  0.2782122E+04  0.7818609E-02  0.8308840E-01
        1   -1    0    0  501    0  0.00000000000E+00  0.00000000000E+00  0.22265111052E+04  0.22265111052E+04  0.50400001928E-02 0.  1.
       -1   -1    0    0    0  501  0.00000000000E+00  0.00000000000E+00 -0.86909574754E+03  0.86909574755E+03  0.50400001928E-02 0. -1.
    10030    2    1    2    0    0  0.00000000000E+00  0.00000000000E+00  0.13574153576E+04  0.30956068527E+04  0.27821224512E+04 0.  0.
        4    1    3    3  502    0  0.30731887807E+03 -0.77929195305E+03  0.19143861712E+04  0.20896451532E+04  0.12699999809E+01 0.  1.
       -4    1    3    3    0  502 -0.30731887807E+03  0.77929195305E+03 -0.55697081355E+03  0.10059616995E+04  0.12699999809E+01 0. -1.
</event>
<event>
 5   0  0.4764214E-06  0.2854976E+04  0.7818609E-02  0.8286401E-01
       -1   -1    0    0    0  501  0.00000000000E+00  0.00000000000E+00  0.16208526767E+04  0.16208526767E+04  0.50400001928E-02 0. -1.
        1   -1    0    0  501    0  0.00000000000E+00  0.00000000000E+00 -0.12571909803E+04  0.12571909803E+04  0.50400001928E-02 0.  1.
    10030    2    1    2    0    0  0.00000000000E+00  0.00000000000E+00  0.36366169637E+03  0.28780436570E+04  0.28549755625E+04 0.  0.
        3    1    3    3  502    0 -0.70176582887E+03 -0.11699861690E+04  0.60519855873E+03  0.14925174103E+04  0.10100000352E+00 0. -1.
       -3    1    3    3    0  502  0.70176582887E+03  0.11699861690E+04 -0.24153686235E+03  0.13855262467E+04  0.10100000352E+00 0.  1.
</event>
<event>
 5   0  0.4764214E-06  0.2762592E+04  0.7818609E-02  0.8314977E-01
       -1   -1    0    0    0  501  0.00000000000E+00  0.00000000000E+00  0.82380020715E+03  0.82380020717E+03  0.50400001928E-02 0. -1.
        1   -1    0    0  501    0  0.00000000000E+00  0.00000000000E+00 -0.23160704099E+04  0.23160704099E+04  0.50400001928E-02 0.  1.
    10030    2    1    2    0    0  0.00000000000E+00  0.00000000000E+00 -0.14922702027E+04  0.31398706170E+04  0.27625924661E+04 0.  0.
        3    1    3    3  502    0 -0.76530699812E+03  0.10665658026E+04 -0.12346233007E+04  0.18020965894E+04  0.10100000352E+00 0.  1.
       -3    1    3    3    0  502  0.76530699812E+03 -0.10665658026E+04 -0.25764690197E+03  0.13377740276E+04  0.10100000352E+00 0. -1.
</event>
<event>
 5   0  0.1350863E-05  0.2800107E+04  0.7818609E-02  0.8303235E-01
        2   -1    0    0  501    0  0.00000000000E+00  0.00000000000E+00  0.28549684052E+04  0.28549684052E+04  0.25500000920E-02 0. -1.
       -2   -1    0    0    0  501  0.00000000000E+00  0.00000000000E+00 -0.68657487398E+03  0.68657487399E+03  0.25500000920E-02 0.  1.
    10030    2    1    2    0    0  0.00000000000E+00  0.00000000000E+00  0.21683935312E+04  0.35415432792E+04  0.28001068359E+04 0.  0.
        3    1    3    3  502    0 -0.76393514776E+03  0.11626168310E+04  0.88471767619E+03  0.16486358550E+04  0.10100000352E+00 0. -1.
       -3    1    3    3    0  502  0.76393514776E+03 -0.11626168310E+04  0.12836758550E+04  0.18929074242E+04  0.10100000352E+00 0.  1.
</event>
<event>
 5   0  0.1283052E-05  0.2753872E+04  0.7818609E-02  0.8317734E-01
        2   -1    0    0  501    0  0.00000000000E+00  0.00000000000E+00  0.14920048160E+04  0.14920048160E+04  0.25500000920E-02 0.  1.
       -2   -1    0    0    0  501  0.00000000000E+00  0.00000000000E+00 -0.12707416920E+04  0.12707416920E+04  0.25500000920E-02 0. -1.
    10030    2    1    2    0    0  0.00000000000E+00  0.00000000000E+00  0.22126312399E+03  0.27627465080E+04  0.27538719828E+04 0.  0.
        5    1    3    3  502    0 -0.29710744498E+03  0.75415932794E+03  0.12272779922E+04  0.14708033472E+04  0.46999998093E+01 0.  1.
       -5    1    3    3    0  502  0.29710744498E+03 -0.75415932794E+03 -0.10060148683E+04  0.12919431609E+04  0.46999998093E+01 0. -1.
</event>
<event>
 5   0  0.1302063E-05  0.2815068E+04  0.7818609E-02  0.8298605E-01
        2   -1    0    0  501    0  0.00000000000E+00  0.00000000000E+00  0.17999387178E+04  0.17999387178E+04  0.25500000920E-02 0.  1.
       -2   -1    0    0    0  501  0.00000000000E+00  0.00000000000E+00 -0.11006777664E+04  0.11006777664E+04  0.25500000920E-02 0. -1.
    10030    2    1    2    0    0  0.00000000000E+00  0.00000000000E+00  0.69926095143E+03  0.29006164842E+04  0.28150684024E+04 0.  0.
        2    1    3    3  502    0 -0.15382329801E+03 -0.11748697636E+04 -0.43317520820E+03  0.12615947564E+04  0.25500000920E-02 0. -1.
       -2    1    3    3    0  502  0.15382329801E+03  0.11748697636E+04  0.11324361596E+04  0.16390217278E+04  0.25500000920E-02 0.  1.
</event>
<event>
 5   0  0.5217999E-06  0.2829471E+04  0.7818609E-02  0.8294177E-01
        1   -1    0    0  501    0  0.00000000000E+00  0.00000000000E+00  0.10805361957E+04  0.10805361957E+04  0.50400001928E-02 0.  1.
       -1   -1    0    0    0  501  0.00000000000E+00  0.00000000000E+00 -0.18522991462E+04  0.18522991462E+04  0.50400001928E-02 0. -1.
    10030    2    1    2    0    0  0.00000000000E+00  0.00000000000E+00 -0.77176295057E+03  0.29328353419E+04  0.28294708146E+04 0.  0.
        1    1    3    3  502    0 -0.20182651535E+01 -0.66166409633E+03  0.91026894935E+03  0.11253412860E+04  0.50400001928E-02 0.  1.
       -1    1    3    3    0  502  0.20182651535E+01  0.66166409633E+03 -0.16820318999E+04  0.18074940559E+04  0.50400001928E-02 0. -1.
</event>
<event>
 5   0  0.1302063E-05  0.2555439E+04  0.7818609E-02  0.8383497E-01
       -2   -1    0    0    0  501  0.00000000000E+00  0.00000000000E+00  0.13405711881E+04  0.13405711881E+04  0.25500000920E-02 0. -1.
        2   -1    0    0  501    0  0.00000000000E+00  0.00000000000E+00 -0.12178146646E+04  0.12178146646E+04  0.25500000920E-02 0.  1.
    10030    2    1    2    0    0  0.00000000000E+00  0.00000000000E+00  0.12275652356E+03  0.25583858527E+04  0.25554391026E+04 0.  0.
        2    1    3    3  502    0  0.57323305514E+03  0.40686178143E+03  0.11295831317E+04  0.13304475548E+04  0.25500000920E-02 0. -1.
       -2    1    3    3    0  502 -0.57323305514E+03 -0.40686178143E+03 -0.10068266081E+04  0.12279382979E+04  0.25500000920E-02 0.  1.
</event>
<event>
 5   0  0.5217999E-06  0.2806123E+04  0.7818609E-02  0.8301370E-01
       -1   -1    0    0    0  501  0.00000000000E+00  0.00000000000E+00  0.10747519700E+04  0.10747519700E+04  0.50400001928E-02 0.  1.
        1   -1    0    0  501    0  0.00000000000E+00  0.00000000000E+00 -0.18316618350E+04  0.18316618350E+04  0.50400001928E-02 0. -1.
    10030    2    1    2    0    0  0.00000000000E+00  0.00000000000E+00 -0.75690986496E+03  0.29064138050E+04  0.28061234224E+04 0.  0.
        1    1    3    3  502    0  0.95166663305E+03 -0.77380767517E+03 -0.10840777064E+04  0.16369704249E+04  0.50400001928E-02 0. -1.
       -1    1    3    3    0  502 -0.95166663305E+03  0.77380767517E+03  0.32716784141E+03  0.12694433800E+04  0.50400001928E-02 0.  1.
</event>
<event>
 5   0  0.5023691E-06  0.2791460E+04  0.7818609E-02  0.8305924E-01
        1   -1    0    0  501    0  0.00000000000E+00  0.00000000000E+00  0.13808428609E+04  0.13808428609E+04  0.50400001928E-02 0.  1.
       -1   -1    0    0    0  501  0.00000000000E+00  0.00000000000E+00 -0.14107780414E+04  0.14107780414E+04  0.50400001928E-02 0. -1.
    10030    2    1    2    0    0  0.00000000000E+00  0.00000000000E+00 -0.29935180495E+02  0.27916209022E+04  0.27914603968E+04 0.  0.
        5    1    3    3  502    0  0.20042681288E+03  0.57703725581E+03 -0.12699890679E+04  0.14092683295E+04  0.46999998093E+01 0. -1.
       -5    1    3    3    0  502 -0.20042681288E+03 -0.57703725581E+03  0.12400538874E+04  0.13823525728E+04  0.46999998093E+01 0.  1.
</event>
<event>
 5   0  0.1330962E-05  0.2814839E+04  0.7818609E-02  0.8298676E-01
       -2   -1    0    0    0  501  0.00000000000E+00  0.00000000000E+00  0.19872570106E+04  0.19872570106E+04  0.25500000920E-02 0.  1.
        2   -1    0    0  501    0  0.00000000000E+00  0.00000000000E+00 -0.99676540191E+03  0.99676540191E+03  0.25500000920E-02 0. -1.
    10030    2    1    2    0    0  0.00000000000E+00  0.00000000000E+00  0.99049160867E+03  0.29840224125E+04  0.28148385622E+04 0.  0.
        4    1    3    3  502    0 -0.73778743162E+03  0.92687782939E+03 -0.31029019407E+03  0.12246282792E+04  0.12699999809E+01 0. -1.
       -4    1    3    3    0  502  0.73778743162E+03 -0.92687782939E+03  0.13007818027E+04  0.17593941333E+04  0.12699999809E+01 0.  1.
</event>
<event>
 5   0  0.4764214E-06  0.2739348E+04  0.7818609E-02  0.8322350E-01
        1   -1    0    0  501    0  0.00000000000E+00  0.00000000000E+00  0.16823521987E+04  0.16823521987E+04  0.50400001928E-02 0. -1.
       -1   -1    0    0    0  501  0.00000000000E+00  0.00000000000E+00 -0.11151091239E+04  0.11151091239E+04  0.50400001928E-02 0.  1.
    10030    2    1    2    0    0  0.00000000000E+00  0.00000000000E+00  0.56724307480E+03  0.27974613227E+04  0.27393475767E+04 0.  0.
        3    1    3    3  502    0  0.47874514892E+03  0.60659116741E+03 -0.87123453006E+03  0.11645597359E+04  0.10100000352E+00 0.  1.
       -3    1    3    3    0  502 -0.47874514892E+03 -0.60659116741E+03  0.14384776049E+04  0.16329015867E+04  0.10100000352E+00 0. -1.
</event>
<event>
 5   0  0.4447500E-06  0.2272708E+04  0.7818609E-02  0.8488760E-01
        3   -1    0    0  501    0  0.00000000000E+00  0.00000000000E+00  0.84290556304E+03  0.84290556909E+03  0.10100000352E+00 0.  1.
       -3   -1    0    0    0  501  0.00000000000E+00  0.00000000000E+00 -0.15319638686E+04  0.15319638719E+04  0.10100000352E+00 0. -1.
    10030    2    1    2    0    0  0.00000000000E+00  0.00000000000E+00 -0.68905830558E+03  0.23748694410E+04  0.22727084092E+04 0.  0.
        4    1    3    3  502    0 -0.71520956402E+02  0.65198733992E+03  0.62513633621E+03  0.90609038753E+03  0.12699999809E+01 0.  1.
       -4    1    3    3    0  502  0.71520956402E+02 -0.65198733992E+03 -0.13141946418E+04  0.14687790535E+04  0.12699999809E+01 0. -1.
</event>
<event>
 5   0  0.5217999E-06  0.2769310E+04  0.7818609E-02  0.8312860E-01
       -1   -1    0    0    0  501  0.00000000000E+00  0.00000000000E+00  0.29818187865E+04  0.29818187865E+04  0.50400001928E-02 0. -1.
        1   -1    0    0  501    0  0.00000000000E+00  0.00000000000E+00 -0.64298651785E+03  0.64298651787E+03  0.50400001928E-02 0.  1.
    10030    2    1    2    0    0  0.00000000000E+00  0.00000000000E+00  0.23388322686E+04  0.36248053044E+04  0.27693098623E+04 0.  0.
        1    1    3    3  502    0 -0.72868403605E+03 -0.48914652391E+03 -0.23242721513E+03  0.90789159959E+03  0.50400001928E-02 0.  1.
       -1    1    3    3    0  502  0.72868403605E+03  0.48914652391E+03  0.25712594838E+04  0.27169137048E+04  0.50400001928E-02 0. -1.
</event>
<event>
 5   0  0.5107453E-06  0.2493735E+04  0.7818609E-02  0.8405221E-01
        1   -1    0    0  501    0  0.00000000000E+00  0.00000000000E+00  0.17926888951E+04  0.17926888952E+04  0.50400001928E-02 0. -1.
       -1   -1    0    0    0  501  0.00000000000E+00  0.00000000000E+00 -0.86723303113E+03  0.86723303114E+03  0.50400001928E-02 0.  1.
    10030    2    1    2    0    0  0.00000000000E+00  0.00000000000E+00  0.92545586402E+03  0.26599219263E+04  0.24937353704E+04 0.  0.
        2    1    3    3  502    0 -0.70633837084E+03 -0.82738490685E+03  0.11125914026E+04  0.15560653287E+04  0.25500000920E-02 0. -1.
       -2    1    3    3    0  502  0.70633837084E+03  0.82738490685E+03 -0.18713553854E+03  0.11038565976E+04  0.25500000920E-02 0.  1.
</event>
<event>
 5   0  0.5281919E-06  0.2761524E+04  0.7818609E-02  0.8315314E-01
       -1   -1    0    0    0  501  0.00000000000E+00  0.00000000000E+00  0.11024995642E+04  0.11024995642E+04  0.50400001928E-02 0.  1.
        1   -1    0    0  501    0  0.00000000000E+00  0.00000000000E+00 -0.17292559057E+04  0.17292559057E+04  0.50400001928E-02 0. -1.
    10030    2    1    2    0    0  0.00000000000E+00  0.00000000000E+00 -0.62675634153E+03  0.28317554699E+04  0.27615241316E+04 0.  0.
        4    1    3    3  502    0 -0.18779336746E+03 -0.98529602960E+03  0.65966322765E+03  0.12005131410E+04  0.12699999809E+01 0.  1.
       -4    1    3    3    0  502  0.18779336746E+03  0.98529602960E+03 -0.12864195692E+04  0.16312423289E+04  0.12699999809E+01 0. -1.
</event>
<event>
 5   0  0.5023691E-06  0.2167854E+04  0.7818609E-02  0.8531928E-01
        1   -1    0    0  501    0  0.00000000000E+00  0.00000000000E+00  0.90377330751E+03  0.90377330752E+03  0.50400001928E-02 0. -1.
       -1   -1    0    0    0  501  0.00000000000E+00  0.00000000000E+00 -0.12999918543E+04  0.12999918543E+04  0.50400001928E-02 0.  1.
    10030    2    1    2    0    0  0.00000000000E+00  0.00000000000E+00 -0.39621854675E+03  0.22037651618E+04  0.21678541813E+04 0.  0.
        5    1    3    3  502    0 -0.28011785768E+03  0.10408901422E+04 -0.31382612754E+03  0.11226875036E+04  0.46999998093E+01 0.  1.
       -5    1    3    3    0  502  0.28011785768E+03 -0.10408901422E+04 -0.82392419210E+02  0.10810776582E+04  0.46999998093E+01 0. -1.
</event>
<event>
 5   0  0.1388269E-05  0.2806779E+04  0.7818609E-02  0.8301167E-01
        2   -1    0    0  501    0  0.00000000000E+00  0.00000000000E+00  0.13375190723E+04  0.13375190723E+04  0.25500000920E-02 0. -1.
       -2   -1    0    0    0  501  0.00000000000E+00  0.00000000000E+00 -0.14725039421E+04  0.14725039421E+04  0.25500000920E-02 0.  1.
    10030    2    1    2    0    0  0.00000000000E+00  0.00000000000E+00 -0.13498486985E+03  0.28100230144E+04  0.28067790127E+04 0.  0.
        1    1    3    3  502    0  0.94165737398E+03  0.39620464592E+03  0.89580744312E+03  0.13587375415E+04  0.50400001928E-02 0. -1.
       -1    1    3    3    0  502 -0.94165737398E+03 -0.39620464592E+03 -0.10307923130E+04  0.14512854729E+04  0.50400001928E-02 0.  1.
</event>
<event>
 5   0  0.5107453E-06  0.2783555E+04  0.7818609E-02  0.8308392E-01
        1   -1    0    0  501    0  0.00000000000E+00  0.00000000000E+00  0.22678949021E+04  0.22678949021E+04  0.50400001928E-02 0.  1.
       -1   -1    0    0    0  501  0.00000000000E+00  0.00000000000E+00 -0.85411545019E+03  0.85411545021E+03  0.50400001928E-02 0. -1.
    10030    2    1    2    0    0  0.00000000000E+00  0.00000000000E+00  0.14137794519E+04  0.31220103524E+04  0.27835546162E+04 0.  0.
        2    1    3    3  502    0 -0.84009128445E+03  0.91972399966E+03  0.10600641509E+02  0.12456957796E+04  0.25500000920E-02 0. -1.
       -2    1    3    3    0  502  0.84009128445E+03 -0.91972399966E+03  0.14031788104E+04  0.18763145727E+04  0.25500000920E-02 0.  1.
</event>
<event>
 5   0  0.1350863E-05  0.2465810E+04  0.7818609E-02  0.8415268E-01
        2   -1    0    0  501    0  0.00000000000E+00  0.00000000000E+00  0.19261786887E+04  0.19261786887E+04  0.25500000920E-02 0.  1.
       -2   -1    0    0    0  501  0.00000000000E+00  0.00000000000E+00 -0.78915592518E+03  0.78915592518E+03  0.25500000920E-02 0. -1.
    10030    2    1    2    0    0  0.00000000000E+00  0.00000000000E+00  0.11370227636E+04  0.27153346139E+04  0.24658104754E+04 0.  0.
        3    1    3    3  502    0 -0.31966004808E+03 -0.44251867491E+03 -0.64881812416E+03  0.84792115932E+03  0.10100000352E+00 0. -1.
       -3    1    3    3    0  502  0.31966004808E+03  0.44251867491E+03  0.17858408877E+04  0.18674134546E+04  0.10100000352E+00 0.  1.
</event>
<event>
 5   0  0.5281919E-06  0.2732388E+04  0.7818609E-02  0.8324572E-01
       -1   -1    0    0    0  501  0.00000000000E+00  0.00000000000E+00  0.13241599192E+04  0.13241599192E+04  0.50400001928E-02 0. -1.
        1   -1    0    0  501    0  0.00000000000E+00  0.00000000000E+00 -0.14095628569E+04  0.14095628569E+04  0.50400001928E-02 0.  1.
    10030    2    1    2    0    0  0.00000000000E+00  0.00000000000E+00 -0.85402937740E+02  0.27337227761E+04  0.27323884341E+04 0.  0.
        4    1    3    3  502    0 -0.76593564249E+03  0.50356257987E+03 -0.10562373173E+04  0.13985247812E+04  0.12699999809E+01 0.  1.
       -4    1    3    3    0  502  0.76593564249E+03 -0.50356257987E+03  0.97083437954E+03  0.13351979949E+04  0.12699999809E+01 0. -1.
</event>
<event>
 5   0  0.1388269E-05  0.2858041E+04  0.7818609E-02  0.8285472E-01
       -2   -1    0    0    0  501  0.00000000000E+00  0.00000000000E+00  0.10192330587E+04  0.10192330587E+04  0.25500000920E-02 0.  1.
        2   -1    0    0  501    0  0.00000000000E+00  0.00000000000E+00 -0.20035643735E+04  0.20035643735E+04  0.25500000920E-02 0. -1.
    10030    2    1    2    0    0  0.00000000000E+00  0.00000000000E+00 -0.98433131481E+03  0.30227974322E+04  0.28580406188E+04 0.  0.
        1    1    3    3  502    0  0.96804327745E+03  0.70542581466E+03 -0.13164285921E+04  0.17798083057E+04  0.50400001928E-02 0. -1.
       -1    1    3    3    0  502 -0.96804327745E+03 -0.70542581466E+03  0.33209727724E+03  0.12429891265E+04  0.50400001928E-02 0.  1.
</event>
<event>
 5   0  0.4764214E-06  0.2781591E+04  0.7818609E-02  0.8309006E-01
       -1   -1    0    0    0  501  0.00000000000E+00  0.00000000000E+00  0.14606732875E+04  0.14606732875E+04  0.50400001928E-02 0. -1.
        1   -1    0    0  501    0  0.00000000000E+00  0.00000000000E+00 -0.13242606695E+04  0.13242606695E+04  0.50400001928E-02 0.  1.
    10030    2    1    2    0    0  0.00000000000E+00  0.00000000000E+00  0.13641261800E+03  0.27849339569E+04  0.27815910451E+04 0.  0.
        3    1    3    3  502    0  0.49489754281E+03  0.80970147219E+03 -0.94976146456E+03  0.13426045217E+04  0.10100000352E+00 0.  1.
       -3    1    3    3    0  502 -0.49489754281E+03 -0.80970147219E+03  0.10861740826E+04  0.14423294352E+04  0.10100000352E+00 0. -1.
</event>
<event>
 5   0  0.1330962E-05  0.2711585E+04  0.7818609E-02  0.8331256E-01
       -2   -1    0    0    0  501  0.00000000000E+00  0.00000000000E+00  0.16976003998E+04  0.16976003998E+04  0.25500000920E-02 0. -1.
        2   -1    0    0  501    0  0.00000000000E+00  0.00000000000E+00 -0.10828069903E+04  0.10828069903E+04  0.25500000920E-02 0.  1.
    10030    2    1    2    0    0  0.00000000000E+00  0.00000000000E+00  0.61479340949E+03  0.27804073901E+04  0.27115852040E+04 0.  0.
        4    1    3    3  502    0 -0.93276033223E+03  0.85140336260E+03  0.81311056585E+03  0.15020252756E+04  0.12699999809E+01 0. -1.
       -4    1    3    3    0  502  0.93276033223E+03 -0.85140336260E+03 -0.19831715636E+03  0.12783821145E+04  0.12699999809E+01 0.  1.
</event>
<event>
 5   0  0.1302063E-05  0.2783138E+04  0.7818609E-02  0.8308522E-01
       -2   -1    0    0    0  501  0.00000000000E+00  0.00000000000E+00  0.80489492201E+03  0.80489492202E+03  0.25500000920E-02 0. -1.
        2   -1    0    0  501    0  0.00000000000E+00  0.00000000000E+00 -0.24058604645E+04  0.24058604645E+04  0.25500000920E-02 0.  1.
    10030    2    1    2    0    0  0.00000000000E+00  0.00000000000E+00 -0.16009655425E+04  0.32107553865E+04  0.27831384234E+04 0.  0.
        2    1    3    3  502    0  0.11648635404E+04  0.68715481653E+03 -0.42245287459E+03  0.14168822255E+04  0.25500000920E-02 0. -1.
       -2    1    3    3    0  502 -0.11648635404E+04 -0.68715481653E+03 -0.11785126679E+04  0.17938731610E+04  0.25500000920E-02 0.  1.
</event>
<event>
 5   0  0.1283052E-05  0.2142501E+04  0.7818609E-02  0.8542749E-01
       -2   -1    0    0    0  501  0.00000000000E+00  0.00000000000E+00  0.10493392354E+04  0.10493392354E+04  0.25500000920E-02 0.  1.
        2   -1    0    0  501    0  0.00000000000E+00  0.00000000000E+00 -0.10936196756E+04  0.10936196756E+04  0.25500000920E-02 0. -1.
    10030    2    1    2    0    0  0.00000000000E+00  0.00000000000E+00 -0.44280440182E+02  0.21429589110E+04  0.21425013738E+04 0.  0.
        5    1    3    3  502    0 -0.61803366631E+03 -0.85221628095E+03  0.17618914385E+03  0.10673813314E+04  0.46999998093E+01 0.  1.
       -5    1    3    3    0  502  0.61803366631E+03  0.85221628095E+03 -0.22046958403E+03  0.10755775796E+04  0.46999998093E+01 0. -1.
</event>
<event>
 5   0  0.1302063E-05  0.2149192E+04  0.7818609E-02  0.8539878E-01
       -2   -1    0    0    0  501  0.00000000000E+00  0.00000000000E+00  0.81115189050E+03  0.81115189050E+03  0.25500000920E-02 0. -1.
        2   -1    0    0  501    0  0.00000000000E+00  0.00000000000E+00 -0.14236010365E+04  0.14236010365E+04  0.25500000920E-02 0.  1.
    10030    2    1    2    0    0  0.00000000000E+00  0.00000000000E+00 -0.61244914596E+03  0.22347529270E+04  0.21491921013E+04 0.  0.
        2    1    3    3  502    0  0.58095777433E+03  0.46139091575E+03  0.50213255163E+03  0.89584072920E+03  0.25500000920E-02 0. -1.
       -2    1    3    3    0  502 -0.58095777433E+03 -0.46139091575E+03 -0.11145816976E+04  0.13389121978E+04  0.25500000920E-02 0.  1.
</event>
<event>
 5   0  0.1350863E-05  0.2834371E+04  0.7818609E-02  0.8292676E-01
        2   -1    0    0  501    0  0.00000000000E+00  0.00000000000E+00  0.28871774326E+04  0.28871774326E+04  0.25500000920E-02 0. -1.
       -2   -1    0    0    0  501  0.00000000000E+00  0.00000000000E+00 -0.69563266333E+03  0.69563266333E+03  0.25500000920E-02 0.  1.
    10030    2    1    2    0    0  0.00000000000E+00  0.00000000000E+00  0.21915447693E+04  0.35828100960E+04  0.28343711309E+04 0.  0.
        3    1    3    3  502    0 -0.30492319169E+03  0.42471368455E+03  0.27608086718E+04  0.28098797838E+04  0.10100000352E+00 0. -1.
       -3    1    3    3    0  502  0.30492319169E+03 -0.42471368455E+03 -0.56926390248E+03  0.77293031222E+03  0.10100000352E+00 0.  1.
</event>
<event>
 5   0  0.1350863E-05  0.2767289E+04  0.7818609E-02  0.8313496E-01
       -2   -1    0    0    0  501  0.00000000000E+00  0.00000000000E+00  0.10261726400E+04  0.10261726400E+04  0.25500000920E-02 0.  1.
        2   -1    0    0  501    0  0.00000000000E+00  0.00000000000E+00 -0.18656427635E+04  0.18656427635E+04  0.25500000920E-02 0. -1.
    10030    2    1    2    0    0  0.00000000000E+00  0.00000000000E+00 -0.83947012357E+03  0.28918154035E+04  0.27672886080E+04 0.  0.
        3    1    3    3  502    0  0.64475893189E+03  0.10169272123E+04 -0.11320358627E+04  0.16526827402E+04  0.10100000352E+00 0. -1.
       -3    1    3    3    0  502 -0.64475893189E+03 -0.10169272123E+04  0.29256573908E+03  0.12391326633E+04  0.10100000352E+00 0.  1.
</event>
<event>
 5   0  0.1302063E-05  0.2778373E+04  0.7818609E-02  0.8310014E-01
       -2   -1    0    0    0  501  0.00000000000E+00  0.00000000000E+00  0.81523332132E+03  0.81523332132E+03  0.25500000920E-02 0. -1.
        2   -1    0    0  501    0  0.00000000000E+00  0.00000000000E+00 -0.23672236548E+04  0.23672236548E+04  0.25500000920E-02 0.  1.
    10030    2    1    2    0    0  0.00000000000E+00  0.00000000000E+00 -0.15519903335E+04  0.31824569762E+04  0.27783733388E+04 0.  0.
        2    1    3    3  502    0  0.14171804257E+03 -0.13613087121E+04 -0.10484897409E+04  0.17241160489E+04  0.25500000920E-02 0.  1.
       -2    1    3    3    0  502 -0.14171804257E+03  0.13613087121E+04 -0.50350059262E+03  0.14583409273E+04  0.25500000920E-02 0. -1.
</event>
<event>
 5   0  0.4447500E-06  0.2761625E+04  0.7818609E-02  0.8315282E-01
       -3   -1    0    0    0  501  0.00000000000E+00  0.00000000000E+00  0.20907604534E+04  0.20907604558E+04  0.10100000352E+00 0. -1.
        3   -1    0    0  501    0  0.00000000000E+00  0.00000000000E+00 -0.91193776023E+03  0.91193776583E+03  0.10100000352E+00 0.  1.
    10030    2    1    2    0    0  0.00000000000E+00  0.00000000000E+00  0.11788226931E+04  0.30026982216E+04  0.27616251861E+04 0.  0.
        5    1    3    3  502    0  0.31702330855E+02  0.11923372926E+04  0.13458023124E+04  0.17982989771E+04  0.46999998093E+01 0. -1.
       -5    1    3    3    0  502 -0.31702330855E+02 -0.11923372926E+04 -0.16697961923E+03  0.12043992445E+04  0.46999998093E+01 0.  1.
</event>
<event>
 5   0  0.1283052E-05  0.2764224E+04  0.7818609E-02  0.8314462E-01
       -2   -1    0    0    0  501  0.00000000000E+00  0.00000000000E+00  0.12174983690E+04  0.12174983690E+04  0.25500000920E-02 0.  1.
        2   -1    0    0  501    0  0.00000000000E+00  0.00000000000E+00 -0.15689820267E+04  0.15689820267E+04  0.25500000920E-02 0. -1.
    10030    2    1    2    0    0  0.00000000000E+00  0.00000000000E+00 -0.35148365771E+03  0.27864803956E+04  0.27642236222E+04 0.  0.
        5    1    3    3  502    0 -0.65122930772E+02 -0.13766092967E+04 -0.28106667228E+03  0.14065257610E+04  0.46999998093E+01 0. -1.
       -5    1    3    3    0  502  0.65122930772E+02  0.13766092967E+04 -0.70416985428E+02  0.13799546347E+04  0.46999998093E+01 0.  1.
</event>
<event>
 5   0  0.1350863E-05  0.2776687E+04  0.7818609E-02  0.8310543E-01
        2   -1    0    0  501    0  0.00000000000E+00  0.00000000000E+00  0.12272264946E+04  0.12272264946E+04  0.25500000920E-02 0.  1.
       -2   -1    0    0    0  501  0.00000000000E+00  0.00000000000E+00 -0.15706132381E+04  0.15706132381E+04  0.25500000920E-02 0. -1.
    10030    2    1    2    0    0  0.00000000000E+00  0.00000000000E+00 -0.34338674351E+03  0.27978397327E+04  0.27766873635E+04 0.  0.
        3    1    3    3  502    0  0.10729899593E+04 -0.31222925742E+03 -0.10018039114E+04  0.15008016688E+04  0.10100000352E+00 0. -1.
       -3    1    3    3    0  502 -0.10729899593E+04  0.31222925742E+03  0.65841716790E+03  0.12970380639E+04  0.10100000352E+00 0.  1.
</event>
<event>
 5   0  0.5281919E-06  0.2847022E+04  0.7818609E-02  0.8288817E-01
        1   -1    0    0  501    0  0.00000000000E+00  0.00000000000E+00  0.20886631033E+04  0.20886631033E+04  0.50400001928E-02 0. -1.
       -1   -1    0    0    0  501  0.00000000000E+00  0.00000000000E+00 -0.97018206032E+03  0.97018206034E+03  0.50400001928E-02 0.  1.
    10030    2    1    2    0    0  0.00000000000E+00  0.00000000000E+00  0.11184810429E+04  0.30588451636E+04  0.28470219338E+04 0.  0.
        4    1    3    3  502    0  0.38470595175E+03  0.51344083435E+03  0.19245179204E+04  0.20286426493E+04  0.12699999809E+01 0. -1.
       -4    1    3    3    0  502 -0.38470595175E+03 -0.51344083435E+03 -0.80603687748E+03  0.10302025143E+04  0.12699999809E+01 0.  1.
</event>
<event>
 5   0  0.1388269E-05  0.2762263E+04  0.7818609E-02  0.8315081E-01
       -2   -1    0    0    0  501  0.00000000000E+00  0.00000000000E+00  0.13500692966E+04  0.13500692966E+04  0.25500000920E-02 0.  1.
        2   -1    0    0  501    0  0.00000000000E+00  0.00000000000E+00 -0.14129080422E+04  0.14129080422E+04  0.25500000920E-02 0. -1.
    10030    2    1    2    0    0  0.00000000000E+00  0.00000000000E+00 -0.62838745556E+02  0.27629773388E+04  0.27622626715E+04 0.  0.
        1    1    3    3  502    0  0.13238835205E+04  0.59991579995E+02 -0.42043798317E+03  0.13903361692E+04  0.50400001928E-02 0.  1.
       -1    1    3    3    0  502 -0.13238835205E+04 -0.59991579995E+02  0.35759923761E+03  0.13726411696E+04  0.50400001928E-02 0. -1.
</event>
<event>
 5   0  0.1302063E-05  0.2799745E+04  0.7818609E-02  0.8303347E-01
        2   -1    0    0  501    0  0.00000000000E+00  0.00000000000E+00  0.16894434525E+04  0.16894434525E+04  0.25500000920E-02 0.  1.
       -2   -1    0    0    0  501  0.00000000000E+00  0.00000000000E+00 -0.11599344450E+04  0.11599344450E+04  0.25500000920E-02 0. -1.
    10030    2    1    2    0    0  0.00000000000E+00  0.00000000000E+00  0.52950900741E+03  0.28493778975E+04  0.27997454552E+04 0.  0.
        2    1    3    3  502    0 -0.13560381526E+04  0.20071736361E+03 -0.24030439371E+02  0.13710231192E+04  0.25500000920E-02 0.  1.
       -2    1    3    3    0  502  0.13560381526E+04 -0.20071736361E+03  0.55353944679E+03  0.14783547783E+04  0.25500000920E-02 0. -1.
</event>
<event>
 5   0  0.5107453E-06  0.2843505E+04  0.7818609E-02  0.8289888E-01
       -1   -1    0    0    0  501  0.00000000000E+00  0.00000000000E+00  0.18945753546E+04  0.18945753546E+04  0.50400001928E-02 0.  1.
        1   -1    0    0  501    0  0.00000000000E+00  0.00000000000E+00 -0.10669302842E+04  0.10669302842E+04  0.50400001928E-02 0. -1.
    10030    2    1    2    0    0  0.00000000000E+00  0.00000000000E+00  0.82764507043E+03  0.29615056388E+04  0.28435047540E+04 0.  0.
        2    1    3    3  502    0 -0.10302893442E+04 -0.97813508920E+03  0.35550386906E+03  0.14644546379E+04  0.25500000920E-02 0.  1.
       -2    1    3    3    0  502  0.10302893442E+04  0.97813508920E+03  0.47214120137E+03  0.14970510010E+04  0.25500000920E-02 0. -1.
</event>
<event>
 5   0  0.1283052E-05  0.2808175E+04  0.7818609E-02  0.8300735E-01
       -2   -1    0    0    0  501  0.00000000000E+00  0.00000000000E+00  0.15410520210E+04  0.15410520210E+04  0.25500000920E-02 0. -1.
        2   -1    0    0  501    0  0.00000000000E+00  0.00000000000E+00 -0.12792958171E+04  0.12792958171E+04  0.25500000920E-02 0.  1.
    10030    2    1    2    0    0  0.00000000000E+00  0.00000000000E+00  0.26175620390E+03  0.28203478380E+04  0.28081747839E+04 0.  0.
        5    1    3    3  502    0 -0.10119926828E+04 -0.95832969113E+03 -0.39901141264E+02  0.13943239143E+04  0.46999998093E+01 0. -1.
       -5    1    3    3    0  502  0.10119926828E+04  0.95832969113E+03  0.30165734516E+03  0.14260239237E+04  0.46999998093E+01 0.  1.
</event>
<event>
 5   0  0.4764214E-06  0.2804635E+04  0.7818609E-02  0.8301831E-01
       -1   -1    0    0    0  501  0.00000000000E+00  0.00000000000E+00  0.11720081268E+04  0.11720081268E+04  0.50400001928E-02 0. -1.
        1   -1    0    0  501    0  0.00000000000E+00  0.00000000000E+00 -0.16778850726E+04  0.16778850726E+04  0.50400001928E-02 0.  1.
    10030    2    1    2    0    0  0.00000000000E+00  0.00000000000E+00 -0.50587694585E+03  0.28498931994E+04  0.28046354065E+04 0.  0.
        3    1    3    3  502    0  0.11389915909E+04  0.81706773536E+03 -0.29350005646E+03  0.14321465783E+04  0.10100000352E+00 0. -1.
       -3    1    3    3    0  502 -0.11389915909E+04 -0.81706773536E+03 -0.21237688940E+03  0.14177466211E+04  0.10100000352E+00 0.  1.
</event>
<event>
 5   0  0.4764214E-06  0.2816497E+04  0.7818609E-02  0.8298165E-01
        1   -1    0    0  501    0  0.00000000000E+00  0.00000000000E+00  0.19354998173E+04  0.19354998173E+04  0.50400001928E-02 0. -1.
       -1   -1    0    0    0  501  0.00000000000E+00  0.00000000000E+00 -0.10246262484E+04  0.10246262485E+04  0.50400001928E-02 0.  1.
    10030    2    1    2    0    0  0.00000000000E+00  0.00000000000E+00  0.91087356889E+03  0.29601260658E+04  0.28164970561E+04 0.  0.
        3    1    3    3  502    0 -0.83452579604E+03 -0.99652199725E+03  0.10249896391E+04  0.16553226772E+04  0.10100000352E+00 0. -1.
       -3    1    3    3    0  502  0.83452579604E+03  0.99652199725E+03 -0.11411607017E+03  0.13048033886E+04  0.10100000352E+00 0.  1.
</event>
<event>
 5   0  0.5281919E-06  0.2781103E+04  0.7818609E-02  0.8309159E-01
       -1   -1    0    0    0  501  0.00000000000E+00  0.00000000000E+00  0.71693997818E+03  0.71693997820E+03  0.50400001928E-02 0.  1.
        1   -1    0    0  501    0  0.00000000000E+00  0.00000000000E+00 -0.26970643932E+04  0.26970643933E+04  0.50400001928E-02 0. -1.
    10030    2    1    2    0    0  0.00000000000E+00  0.00000000000E+00 -0.19801244151E+04  0.34140043715E+04  0.27811028656E+04 0.  0.
        4    1    3    3  502    0 -0.67955312095E+03  0.15405666962E+03 -0.24672889553E+04  0.25637945128E+04  0.12699999809E+01 0. -1.
       -4    1    3    3    0  502  0.67955312095E+03 -0.15405666962E+03  0.48716454025E+03  0.85020985870E+03  0.12699999809E+01 0.  1.
</event>
<event>
 5   0  0.1330962E-05  0.2809689E+04  0.7818609E-02  0.8300267E-01
        2   -1    0    0  501    0  0.00000000000E+00  0.00000000000E+00  0.16334311668E+04  0.16334311668E+04  0.25500000920E-02 0. -1.
       -2   -1    0    0    0  501  0.00000000000E+00  0.00000000000E+00 -0.12082468917E+04  0.12082468917E+04  0.25500000920E-02 0.  1.
    10030    2    1    2    0    0  0.00000000000E+00  0.00000000000E+00  0.42518427512E+03  0.28416780585E+04  0.28096890433E+04 0.  0.
        4    1    3    3  502    0 -0.59911327132E+03  0.75436342208E+03  0.12467728159E+04  0.15755776565E+04  0.12699999809E+01 0. -1.
       -4    1    3    3    0  502  0.59911327132E+03 -0.75436342208E+03 -0.82158854078E+03  0.12661004019E+04  0.12699999809E+01 0.  1.
</event>
<event>
 5   0  0.1302063E-05  0.2828978E+04  0.7818609E-02  0.8294328E-01
       -2   -1    0    0    0  501  0.00000000000E+00  0.00000000000E+00  0.14892993678E+04  0.14892993678E+04  0.25500000920E-02 0.  1.
        2   -1    0    0  501    0  0.00000000000E+00  0.00000000000E+00 -0.13434366221E+04  0.13434366221E+04  0.25500000920E-02 0. -1.
    10030    2    1    2    0    0  0.00000000000E+00  0.00000000000E+00  0.14586274569E+03  0.28327359899E+04  0.28289781279E+04 0.  0.
        2    1    3    3  502    0 -0.66999065910E+03  0.48318532302E+02  0.13193970077E+04  0.14805507852E+04  0.25500000920E-02 0.  1.
       -2    1    3    3    0  502  0.66999065910E+03 -0.48318532302E+02 -0.11735342620E+04  0.13521852047E+04  0.25500000920E-02 0. -1.
</event>
<event>
 5   0  0.1330962E-05  0.2734637E+04  0.7818609E-02  0.8323853E-01
       -2   -1    0    0    0  501  0.00000000000E+00  0.00000000000E+00  0.17213119006E+04  0.17213119006E+04  0.25500000920E-02 0.  1.
        2   -1    0    0  501    0  0.00000000000E+00  0.00000000000E+00 -0.10861249147E+04  0.10861249148E+04  0.25500000920E-02 0. -1.
    10030    2    1    2    0    0  0.00000000000E+00  0.00000000000E+00  0.63518698589E+03  0.28074368154E+04  0.27346368983E+04 0.  0.
        4    1    3    3  502    0 -0.83119140648E+03  0.84268607042E+03  0.10203300362E+04  0.15627136536E+04  0.12699999809E+01 0.  1.
       -4    1    3    3    0  502  0.83119140648E+03 -0.84268607042E+03 -0.38514305027E+03  0.12447231618E+04  0.12699999809E+01 0. -1.
</event>
<event>
 5   0  0.1388269E-05  0.2963036E+04  0.7818609E-02  0.8254365E-01
        2   -1    0    0  501    0  0.00000000000E+00  0.00000000000E+00  0.20436719693E+04  0.20436719693E+04  0.25500000920E-02 0.  1.
       -2   -1    0    0    0  501  0.00000000000E+00  0.00000000000E+00 -0.10739963889E+04  0.10739963889E+04  0.25500000920E-02 0. -1.
    10030    2    1    2    0    0  0.00000000000E+00  0.00000000000E+00  0.96967558043E+03  0.31176683582E+04  0.29630364932E+04 0.  0.
        1    1    3    3  502    0  0.12241335796E+04 -0.38112347817E+02  0.13619735199E+04  0.18316461014E+04  0.50400001928E-02 0.  1.
       -1    1    3    3    0  502 -0.12241335796E+04  0.38112347817E+02 -0.39229793948E+03  0.12860222568E+04  0.50400001928E-02 0. -1.
</event>
<event>
 5   0  0.1350863E-05  0.2785978E+04  0.7818609E-02  0.8307635E-01
       -2   -1    0    0    0  501  0.00000000000E+00  0.00000000000E+00  0.13716319221E+04  0.13716319221E+04  0.25500000920E-02 0. -1.
        2   -1    0    0  501    0  0.00000000000E+00  0.00000000000E+00 -0.14146786324E+04  0.14146786324E+04  0.25500000920E-02 0.  1.
    10030    2    1    2    0    0  0.00000000000E+00  0.00000000000E+00 -0.43046710382E+02  0.27863105545E+04  0.27859780126E+04 0.  0.
        3    1    3    3  502    0 -0.96625173593E+02  0.81548960800E+03  0.11038036617E+04  0.13757696968E+04  0.10100000352E+00 0. -1.
       -3    1    3    3    0  502  0.96625173593E+02 -0.81548960800E+03 -0.11468503721E+04  0.14105408577E+04  0.10100000352E+00 0.  1.
</event>
<event>
 5   0  0.5217999E-06  0.2804967E+04  0.7818609E-02  0.8301728E-01
        1   -1    0    0  501    0  0.00000000000E+00  0.00000000000E+00  0.28021733095E+04  0.28021733095E+04  0.50400001928E-02 0.  1.
       -1   -1    0    0    0  501  0.00000000000E+00  0.00000000000E+00 -0.70194107717E+03  0.70194107719E+03  0.50400001928E-02 0. -1.
    10030    2    1    2    0    0  0.00000000000E+00  0.00000000000E+00  0.21002322324E+04  0.35041143867E+04  0.28049674161E+04 0.  0.
        1    1    3    3  502    0  0.90673332628E+03 -0.76709988415E+03  0.19819224728E+04  0.23105463089E+04  0.50400001928E-02 0.  1.
       -1    1    3    3    0  502 -0.90673332628E+03  0.76709988415E+03  0.11830975957E+03  0.11935680779E+04  0.50400001928E-02 0. -1.
</event>
<event>
 5   0  0.1302063E-05  0.2830235E+04  0.7818609E-02  0.8293943E-01
        2   -1    0    0  501    0  0.00000000000E+00  0.00000000000E+00  0.20695862467E+04  0.20695862467E+04  0.25500000920E-02 0.  1.
       -2   -1    0    0    0  501  0.00000000000E+00  0.00000000000E+00 -0.96761237863E+03  0.96761237863E+03  0.25500000920E-02 0. -1.
    10030    2    1    2    0    0  0.00000000000E+00  0.00000000000E+00  0.11019738680E+04  0.30371986253E+04  0.28302348107E+04 0.  0.
        2    1    3    3  502    0 -0.73016904542E+03 -0.11880906159E+04  0.80909800278E+03  0.16122486547E+04  0.25500000920E-02 0.  1.
       -2    1    3    3    0  502  0.73016904542E+03  0.11880906159E+04  0.29287586525E+03  0.14249499706E+04  0.25500000920E-02 0. -1.
</event>
<event>
 5   0  0.5107453E-06  0.2677074E+04  0.7818609E-02  0.8342482E-01
        1   -1    0    0  501    0  0.00000000000E+00  0.00000000000E+00  0.19872492382E+04  0.19872492382E+04  0.50400001928E-02 0. -1.
       -1   -1    0    0    0  501  0.00000000000E+00  0.00000000000E+00 -0.90158830346E+03  0.90158830348E+03  0.50400001928E-02 0.  1.
    10030    2    1    2    0    0  0.00000000000E+00  0.00000000000E+00  0.10856609347E+04  0.28888375417E+04  0.26770735285E+04 0.  0.
        2    1    3    3  502    0 -0.54944732722E+03  0.26911322146E+03 -0.74187591837E+03  0.96161019629E+03  0.25500000920E-02 0.  1.
       -2    1    3    3    0  502  0.54944732722E+03 -0.26911322146E+03  0.18275368531E+04  0.19272273454E+04  0.25500000920E-02 0. -1.
</event>
<event>
 5   0  0.1302063E-05  0.2783300E+04  0.7818609E-02  0.8308472E-01
       -2   -1    0    0    0  501  0.00000000000E+00  0.00000000000E+00  0.78701568484E+03  0.78701568485E+03  0.25500000920E-02 0.  1.
        2   -1    0    0  501    0  0.00000000000E+00  0.00000000000E+00 -0.24608014491E+04  0.24608014491E+04  0.25500000920E-02 0. -1.
    10030    2    1    2    0    0  0.00000000000E+00  0.00000000000E+00 -0.16737857643E+04  0.32478171339E+04  0.27832997235E+04 0.  0.
        2    1    3    3  502    0 -0.76719235526E+03  0.11599456081E+04 -0.89675143127E+03  0.16547570979E+04  0.25500000920E-02 0. -1.
       -2    1    3    3    0  502  0.76719235526E+03 -0.11599456081E+04 -0.77703433299E+03  0.15930600360E+04  0.25500000920E-02 0.  1.
</event>
<event>
 5   0  0.1330962E-05  0.2833440E+04  0.7818609E-02  0.8292961E-01
        2   -1    0    0  501    0  0.00000000000E+00  0.00000000000E+00  0.21698381723E+04  0.21698381723E+04  0.25500000920E-02 0.  1.
       -2   -1    0    0    0  501  0.00000000000E+00  0.00000000000E+00 -0.92499769375E+03  0.92499769375E+03  0.25500000920E-02 0. -1.
    10030    2    1    2    0    0  0.00000000000E+00  0.00000000000E+00  0.12448404786E+04  0.30948358661E+04  0.28334398213E+04 0.  0.
        4    1    3    3  502    0  0.39446160070E+03 -0.27784669910E+03  0.20773316039E+04  0.21326291164E+04  0.12699999809E+01 0.  1.
       -4    1    3    3    0  502 -0.39446160070E+03  0.27784669910E+03 -0.83249112528E+03  0.96220674972E+03  0.12699999809E+01 0. -1.
</event>
<event>
 5   0  0.5217999E-06  0.2860085E+04  0.7818609E-02  0.8284853E-01
        1   -1    0    0  501    0  0.00000000000E+00  0.00000000000E+00  0.23329211437E+04  0.23329211437E+04  0.50400001928E-02 0. -1.
       -1   -1    0    0    0  501  0.00000000000E+00  0.00000000000E+00 -0.87659259466E+03  0.87659259467E+03  0.50400001928E-02 0.  1.
    10030    2    1    2    0    0  0.00000000000E+00  0.00000000000E+00  0.14563285490E+04  0.32095137383E+04  0.28600848928E+04 0.  0.
        1    1    3    3  502    0  0.31599199460E+03 -0.11440931191E+04  0.16232496245E+04  0.20109051069E+04  0.50400001928E-02 0. -1.
       -1    1    3    3    0  502 -0.31599199460E+03  0.11440931191E+04 -0.16692107546E+03  0.11986086314E+04  0.50400001928E-02 0.  1.
</event>
<event>
 5   0  0.4764214E-06  0.2764304E+04  0.7818609E-02  0.8314437E-01
       -1   -1    0    0    0  501  0.00000000000E+00  0.00000000000E+00  0.18888806165E+04  0.18888806165E+04  0.50400001928E-02 0.  1.
        1   -1    0    0  501    0  0.00000000000E+00  0.00000000000E+00 -0.10113631064E+04  0.10113631064E+04  0.50400001928E-02 0. -1.
    10030    2    1    2    0    0  0.00000000000E+00  0.00000000000E+00  0.87751751011E+03  0.29002437230E+04  0.27643040122E+04 0.  0.
        3    1    3    3  502    0 -0.22298398607E+03 -0.54172416433E+02 -0.99123795484E+03  0.10174523095E+04  0.10100000352E+00 0. -1.
       -3    1    3    3    0  502  0.22298398607E+03  0.54172416433E+02  0.18687554650E+04  0.18827914135E+04  0.10100000352E+00 0.  1.
</event>
<event>
 5   0  0.1350863E-05  0.2696189E+04  0.7818609E-02  0.8336243E-01
        2   -1    0    0  501    0  0.00000000000E+00  0.00000000000E+00  0.22343947067E+04  0.22343947067E+04  0.25500000920E-02 0. -1.
       -2   -1    0    0    0  501  0.00000000000E+00  0.00000000000E+00 -0.81335613596E+03  0.81335613596E+03  0.25500000920E-02 0.  1.
    10030    2    1    2    0    0  0.00000000000E+00  0.00000000000E+00  0.14210385707E+04  0.30477508426E+04  0.26961888990E+04 0.  0.
        3    1    3    3  502    0  0.11974632648E+04 -0.61856697105E+03  0.74279522462E+03  0.15389243400E+04  0.10100000352E+00 0.  1.
       -3    1    3    3    0  502 -0.11974632648E+04  0.61856697105E+03  0.67824334608E+03  0.15088265026E+04  0.10100000352E+00 0. -1.
</event>
<event>
 5   0  0.5023691E-06  0.2807036E+04  0.7818609E-02  0.8301087E-01
       -1   -1    0    0    0  501  0.00000000000E+00  0.00000000000E+00  0.16843134035E+04  0.16843134035E+04  0.50400001928E-02 0.  1.
        1   -1    0    0  501    0  0.00000000000E+00  0.00000000000E+00 -0.11695342930E+04  0.11695342930E+04  0.50400001928E-02 0. -1.
    10030    2    1    2    0    0  0.00000000000E+00  0.00000000000E+00  0.51477911046E+03  0.28538476965E+04  0.28070356504E+04 0.  0.
        5    1    3    3  502    0 -0.77999579091E+03 -0.11606105548E+04  0.13526174974E+03  0.14048943464E+04  0.46999998093E+01 0. -1.
       -5    1    3    3    0  502  0.77999579091E+03  0.11606105548E+04  0.37951736072E+03  0.14489533501E+04  0.46999998093E+01 0.  1.
</event>
<event>
 5   0  0.5281919E-06  0.2787018E+04  0.7818609E-02  0.8307310E-01
       -1   -1    0    0    0  501  0.00000000000E+00  0.00000000000E+00  0.11121607162E+04  0.11121607162E+04  0.50400001928E-02 0. -1.
        1   -1    0    0  501    0  0.00000000000E+00  0.00000000000E+00 -0.17460308729E+04  0.17460308729E+04  0.50400001928E-02 0.  1.
    10030    2    1    2    0    0  0.00000000000E+00  0.00000000000E+00 -0.63387015670E+03  0.28581915891E+04  0.27870177223E+04 0.  0.
        4    1    3    3  502    0 -0.18485383819E+03  0.20306894648E+01 -0.17333990698E+04  0.17432294781E+04  0.12699999809E+01 0.  1.
       -4    1    3    3    0  502  0.18485383819E+03 -0.20306894648E+01  0.10995289131E+04  0.11149621110E+04  0.12699999809E+01 0. -1.
</event>
<event>
 5   0  0.1330962E-05  0.2950102E+04  0.7818609E-02  0.8258125E-01
        2   -1    0    0  501    0  0.00000000000E+00  0.00000000000E+00  0.18947263913E+04  0.18947263913E+04  0.25500000920E-02 0. -1.
       -2   -1    0    0    0  501  0.00000000000E+00  0.00000000000E+00 -0.11483326115E+04  0.11483326115E+04  0.25500000920E-02 0.  1.
    10030    2    1    2    0    0  0.00000000000E+00  0.00000000000E+00  0.74639377974E+03  0.30430590028E+04  0.29501024423E+04 0.  0.
        4    1    3    3  502    0  0.11461681769E+04 -0.43751150328E+02 -0.58347409934E+03  0.12868796721E+04  0.12699999809E+01 0.  1.
       -4    1    3    3    0  502 -0.11461681769E+04  0.43751150328E+02  0.13298678791E+04  0.17561793307E+04  0.12699999809E+01 0. -1.
</event>
<event>
 5   0  0.1388269E-05  0.2809499E+04  0.7818609E-02  0.8300326E-01
       -2   -1    0    0    0  501  0.00000000000E+00  0.00000000000E+00  0.90676711482E+03  0.90676711483E+03  0.25500000920E-02 0.  1.
        2   -1    0    0  501    0  0.00000000000E+00  0.00000000000E+00 -0.21762153335E+04  0.21762153335E+04  0.25500000920E-02 0. -1.
    10030    2    1    2    0    0  0.00000000000E+00  0.00000000000E+00 -0.12694482187E+04  0.30829824484E+04  0.28094985312E+04 0.  0.
        1    1    3    3  502    0  0.27994929986E+03  0.10162877145E+04  0.38415609226E+03  0.11219573220E+04  0.50400001928E-02 0.  1.
       -1    1    3    3    0  502 -0.27994929986E+03 -0.10162877145E+04 -0.16536043110E+04  0.19610251264E+04  0.50400001928E-02 0. -1.
</event>
<event>
 5   0  0.5107453E-06  0.2645783E+04  0.7818609E-02  0.8352814E-01
        1   -1    0    0  501    0  0.00000000000E+00  0.00000000000E+00  0.11229879003E+04  0.11229879003E+04  0.50400001928E-02 0. -1.
       -1   -1    0    0    0  501  0.00000000000E+00  0.00000000000E+00 -0.15583797718E+04  0.15583797718E+04  0.50400001928E-02 0.  1.
    10030    2    1    2    0    0  0.00000000000E+00  0.00000000000E+00 -0.43539187151E+03  0.26813676721E+04  0.26457827786E+04 0.  0.
        2    1    3    3  502    0  0.56453635250E+03  0.33024695792E+03  0.94767303893E+03  0.11514549645E+04  0.25500000920E-02 0. -1.
       -2    1    3    3    0  502 -0.56453635250E+03 -0.33024695792E+03 -0.13830649104E+04  0.15299127076E+04  0.25500000920E-02 0.  1.
</event>
<event>
 5   0  0.1302063E-05  0.2730788E+04  0.7818609E-02  0.8325084E-01
       -2   -1    0    0    0  501  0.00000000000E+00  0.00000000000E+00  0.22431828618E+04  0.22431828618E+04  0.25500000920E-02 0.  1.
        2   -1    0    0  501    0  0.00000000000E+00  0.00000000000E+00 -0.83109635073E+03  0.83109635074E+03  0.25500000920E-02 0. -1.
    10030    2    1    2    0    0  0.00000000000E+00  0.00000000000E+00  0.14120865111E+04  0.30742792126E+04  0.27307882309E+04 0.  0.
        2    1    3    3  502    0 -0.86401267973E+03  0.10499159157E+04  0.84602020231E+03  0.16014342083E+04  0.25500000920E-02 0.  1.
       -2    1    3    3    0  502  0.86401267973E+03 -0.10499159157E+04  0.56606630879E+03  0.14728450043E+04  0.25500000920E-02 0. -1.
</event>
<event>
 5   0  0.1388269E-05  0.2640711E+04  0.7818609E-02  0.8354503E-01
       -2   -1    0    0    0  501  0.00000000000E+00  0.00000000000E+00  0.16412709624E+04  0.16412709624E+04  0.25500000920E-02 0. -1.
        2   -1    0    0  501    0  0.00000000000E+00  0.00000000000E+00 -0.10621880283E+04  0.10621880283E+04  0.25500000920E-02 0.  1.
    10030    2    1    2    0    0  0.00000000000E+00  0.00000000000E+00  0.57908293408E+03  0.27034589907E+04  0.26407107887E+04 0.  0.
        1    1    3    3  502    0 -0.57047640701E+03  0.94709651287E+03  0.10284275255E+04  0.15099994407E+04  0.50400001928E-02 0. -1.
       -1    1    3    3    0  502  0.57047640701E+03 -0.94709651287E+03 -0.44934459138E+03  0.11934595500E+04  0.50400001928E-02 0.  1.
</event>
<event>
 5   0  0.1350863E-05  0.2801976E+04  0.7818609E-02  0.8302655E-01
       -2   -1    0    0    0  501  0.00000000000E+00  0.00000000000E+00  0.89908134791E+03  0.89908134792E+03  0.25500000920E-02 0.  1.
        2   -1    0    0  501    0  0.00000000000E+00  0.00000000000E+00 -0.21830816982E+04  0.21830816982E+04  0.25500000920E-02 0. -1.
    10030    2    1    2    0    0  0.00000000000E+00  0.00000000000E+00 -0.12840003503E+04  0.30821630462E+04  0.28019764709E+04 0.  0.
        3    1    3    3  502    0 -0.87202084452E+02  0.11727500190E+04  0.19560273175E+03  0.11921439718E+04  0.10100000352E+00 0.  1.
       -3    1    3    3    0  502  0.87202084452E+02 -0.11727500190E+04 -0.14796030821E+04  0.18900190743E+04  0.10100000352E+00 0. -1.
</event>
<event>
 5   0  0.1302063E-05  0.2776170E+04  0.7818609E-02  0.8310705E-01
        2   -1    0    0  501    0  0.00000000000E+00  0.00000000000E+00  0.15409859044E+04  0.15409859044E+04  0.25500000920E-02 0. -1.
       -2   -1    0    0    0  501  0.00000000000E+00  0.00000000000E+00 -0.12503553609E+04  0.12503553609E+04  0.25500000920E-02 0.  1.
    10030    2    1    2    0    0  0.00000000000E+00  0.00000000000E+00  0.29063054344E+03  0.27913412653E+04  0.27761700140E+04 0.  0.
        2    1    3    3  502    0  0.29187135891E+03 -0.10765240280E+04 -0.68544884458E+03  0.13091726363E+04  0.25500000920E-02 0.  1.
       -2    1    3    3    0  502 -0.29187135891E+03  0.10765240280E+04  0.97607938802E+03  0.14821686290E+04  0.25500000920E-02 0. -1.
</event>
<event>
 5   0  0.5023691E-06  0.2777224E+04  0.7818609E-02  0.8310375E-01
       -1   -1    0    0    0  501  0.00000000000E+00  0.00000000000E+00  0.11593193147E+04  0.11593193147E+04  0.50400001928E-02 0.  1.
        1   -1    0    0  501    0  0.00000000000E+00  0.00000000000E+00 -0.16632541888E+04  0.16632541888E+04  0.50400001928E-02 0. -1.
    10030    2    1    2    0    0  0.00000000000E+00  0.00000000000E+00 -0.50393487411E+03  0.28225735035E+04  0.27772235821E+04 0.  0.
        5    1    3    3  502    0 -0.37495577391E+03  0.70551373775E+03 -0.14062414744E+04  0.16173678125E+04  0.46999998093E+01 0. -1.
       -5    1    3    3    0  502  0.37495577391E+03 -0.70551373775E+03  0.90230660031E+03  0.12052056909E+04  0.46999998093E+01 0.  1.
</event>
<event>
 5   0  0.1330962E-05  0.2838504E+04  0.7818609E-02  0.8291413E-01
       -2   -1    0    0    0  501  0.00000000000E+00  0.00000000000E+00  0.98027265040E+03  0.98027265040E+03  0.25500000920E-02 0. -1.
        2   -1    0    0  501    0  0.00000000000E+00  0.00000000000E+00 -0.20548126915E+04  0.20548126915E+04  0.25500000920E-02 0.  1.
    10030    2    1    2    0    0  0.00000000000E+00  0.00000000000E+00 -0.10745400411E+04  0.30350853419E+04  0.28385043126E+04 0.  0.
        4    1    3    3  502    0  0.10242496715E+04  0.29038863141E+03 -0.15408114745E+04  0.18728359671E+04  0.12699999809E+01 0.  1.
       -4    1    3    3    0  502 -0.10242496715E+04 -0.29038863141E+03  0.46627143336E+03  0.11622493748E+04  0.12699999809E+01 0. -1.
</event>
<event>
 5   0  0.4764214E-06  0.2685344E+04  0.7818609E-02  0.8339776E-01
       -1   -1    0    0    0  501  0.00000000000E+00  0.00000000000E+00  0.10312837922E+04  0.10312837923E+04  0.50400001928E-02 0. -1.
        1   -1    0    0  501    0  0.00000000000E+00  0.00000000000E+00 -0.17480813738E+04  0.17480813738E+04  0.50400001928E-02 0.  1.
    10030    2    1    2    0    0  0.00000000000E+00  0.00000000000E+00 -0.71679758151E+03  0.27793651660E+04  0.26853439171E+04 0.  0.
        3    1    3    3  502    0  0.23482302950E+03 -0.77784837731E+01  0.10098417096E+04  0.10368137000E+04  0.10100000352E+00 0. -1.
       -3    1    3    3    0  502 -0.23482302950E+03  0.77784837731E+01 -0.17266392911E+04  0.17425514660E+04  0.10100000352E+00 0.  1.
</event>
<event>
 5   0  0.4764214E-06  0.2754594E+04  0.7818609E-02  0.8317505E-01
       -1   -1    0    0    0  501  0.00000000000E+00  0.00000000000E+00  0.15454361108E+04  0.15454361108E+04  0.50400001928E-02 0.  1.
        1   -1    0    0  501    0  0.00000000000E+00  0.00000000000E+00 -0.12274509239E+04  0.12274509239E+04  0.50400001928E-02 0. -1.
    10030    2    1    2    0    0  0.00000000000E+00  0.00000000000E+00  0.31798518686E+03  0.27728870347E+04  0.27545939679E+04 0.  0.
        3    1    3    3  502    0 -0.34407547460E+03  0.81313090838E+02 -0.11809925272E+04  0.12327786137E+04  0.10100000352E+00 0. -1.
       -3    1    3    3    0  502  0.34407547460E+03 -0.81313090838E+02  0.14989777140E+04  0.15401084210E+04  0.10100000352E+00 0.  1.
</event>
<event>
 5   0  0.1350863E-05  0.2900262E+04  0.7818609E-02  0.8272800E-01
        2   -1    0    0  501    0  0.00000000000E+00  0.00000000000E+00  0.14493028670E+04  0.14493028670E+04  0.25500000920E-02 0. -1.
       -2   -1    0    0    0  501  0.00000000000E+00  0.00000000000E+00 -0.14509596620E+04  0.14509596620E+04  0.25500000920E-02 0.  1.
    10030    2    1    2    0    0  0.00000000000E+00  0.00000000000E+00 -0.16567949385E+01  0.29002625290E+04  0.29002620558E+04 0.  0.
        3    1    3    3  502    0 -0.51734342292E+03 -0.13513141886E+04 -0.96670649255E+02  0.14501860151E+04  0.10100000352E+00 0. -1.
       -3    1    3    3    0  502  0.51734342292E+03  0.13513141886E+04  0.95013854317E+02  0.14500765140E+04  0.10100000352E+00 0.  1.
</event>
<event>
 5   0  0.4447500E-06  0.2748782E+04  0.7818609E-02  0.8319348E-01
       -3   -1    0    0    0  501  0.00000000000E+00  0.00000000000E+00  0.11063623919E+04  0.11063623965E+04  0.10100000352E+00 0.  1.
        3   -1    0    0  501    0  0.00000000000E+00  0.00000000000E+00 -0.17073524873E+04  0.17073524903E+04  0.10100000352E+00 0. -1.
    10030    2    1    2    0    0  0.00000000000E+00  0.00000000000E+00 -0.60099009549E+03  0.28137148868E+04  0.27487819792E+04 0.  0.
        4    1    3    3  502    0 -0.53309545631E+03 -0.11102177293E+04 -0.92496749239E+03  0.15402404510E+04  0.12699999809E+01 0. -1.
       -4    1    3    3    0  502  0.53309545631E+03  0.11102177293E+04  0.32397739690E+03  0.12734744358E+04  0.12699999809E+01 0.  1.
</event>
<event>
 5   0  0.4764214E-06  0.2888960E+04  0.7818609E-02  0.8276170E-01
       -1   -1    0    0    0  501  0.00000000000E+00  0.00000000000E+00  0.12061907057E+04  0.12061907057E+04  0.50400001928E-02 0.  1.
        1   -1    0    0  501    0  0.00000000000E+00  0.00000000000E+00 -0.17298441676E+04  0.17298441676E+04  0.50400001928E-02 0. -1.
    10030    2    1    2    0    0  0.00000000000E+00  0.00000000000E+00 -0.52365346191E+03  0.29360348733E+04  0.28889596448E+04 0.  0.
        3    1    3    3  502    0  0.11663105100E+04  0.34012493764E+03 -0.10559405603E+04  0.16096507870E+04  0.10100000352E+00 0. -1.
       -3    1    3    3    0  502 -0.11663105100E+04 -0.34012493764E+03  0.53228709841E+03  0.13263840863E+04  0.10100000352E+00 0.  1.
</event>
<event>
 5   0  0.5281919E-06  0.2799825E+04  0.7818609E-02  0.8303323E-01
       -1   -1    0    0    0  501  0.00000000000E+00  0.00000000000E+00  0.64731481340E+03  0.64731481342E+03  0.50400001928E-02 0. -1.
        1   -1    0    0  501    0  0.00000000000E+00  0.00000000000E+00 -0.30275138989E+04  0.30275138990E+04  0.50400001928E-02 0.  1.
    10030    2    1    2    0    0  0.00000000000E+00  0.00000000000E+00 -0.23801990856E+04  0.36748287124E+04  0.27998247049E+04 0.  0.
        4    1    3    3  502    0  0.26820371289E+03  0.13476834577E+04 -0.83896878043E+03  0.16099857643E+04  0.12699999809E+01 0.  1.
       -4    1    3    3    0  502 -0.26820371289E+03 -0.13476834577E+04 -0.15412303051E+04  0.20648429481E+04  0.12699999809E+01 0. -1.
</event>
<event>
 5   0  0.5023691E-06  0.2784398E+04  0.7818609E-02  0.8308128E-01
        1   -1    0    0  501    0  0.00000000000E+00  0.00000000000E+00  0.11799386159E+04  0.11799386159E+04  0.50400001928E-02 0.  1.
       -1   -1    0    0    0  501  0.00000000000E+00  0.00000000000E+00 -0.16426436288E+04  0.16426436289E+04  0.50400001928E-02 0. -1.
    10030    2    1    2    0    0  0.00000000000E+00  0.00000000000E+00 -0.46270501299E+03  0.28225822447E+04  0.27843984268E+04 0.  0.
        5    1    3    3  502    0  0.37763366007E+03  0.10160816505E+04 -0.11169270978E+04  0.15564630845E+04  0.46999998093E+01 0. -1.
       -5    1    3    3    0  502 -0.37763366007E+03 -0.10160816505E+04  0.65422208478E+03  0.12661191602E+04  0.46999998093E+01 0.  1.
</event>
<event>
 5   0  0.5281919E-06  0.2797812E+04  0.7818609E-02  0.8303948E-01
       -1   -1    0    0    0  501  0.00000000000E+00  0.00000000000E+00  0.12031997918E+04  0.12031997919E+04  0.50400001928E-02 0.  1.
        1   -1    0    0  501    0  0.00000000000E+00  0.00000000000E+00 -0.16264446711E+04  0.16264446711E+04  0.50400001928E-02 0. -1.
    10030    2    1    2    0    0  0.00000000000E+00  0.00000000000E+00 -0.42324487923E+03  0.28296444629E+04  0.27978119234E+04 0.  0.
        4    1    3    3  502    0  0.11954475154E+04 -0.22982653226E+03 -0.90868199840E+03  0.15190851142E+04  0.12699999809E+01 0. -1.
       -4    1    3    3    0  502 -0.11954475154E+04  0.22982653226E+03  0.48543711918E+03  0.13105593487E+04  0.12699999809E+01 0.  1.
</event>
<event>
 5   0  0.1350863E-05  0.2808926E+04  0.7818609E-02  0.8300502E-01
       -2   -1    0    0    0  501  0.00000000000E+00  0.00000000000E+00  0.75751747341E+03  0.75751747342E+03  0.25500000920E-02 0.  1.
        2   -1    0    0  501    0  0.00000000000E+00  0.00000000000E+00 -0.26039227501E+04  0.26039227501E+04  0.25500000920E-02 0. -1.
    10030    2    1    2    0    0  0.00000000000E+00  0.00000000000E+00 -0.18464052767E+04  0.33614402235E+04  0.28089264730E+04 0.  0.
        3    1    3    3  502    0  0.13465120314E+04 -0.37410805352E+03 -0.10901646415E+04  0.17724306593E+04  0.10100000352E+00 0. -1.
       -3    1    3    3    0  502 -0.13465120314E+04  0.37410805352E+03 -0.75624063526E+03  0.15890095642E+04  0.10100000352E+00 0.  1.
</event>
<event>
 5   0  0.5217999E-06  0.2786131E+04  0.7818609E-02  0.8307587E-01
        1   -1    0    0  501    0  0.00000000000E+00  0.00000000000E+00  0.13091013066E+04  0.13091013066E+04  0.50400001928E-02 0. -1.
       -1   -1    0    0    0  501  0.00000000000E+00  0.00000000000E+00 -0.14824154246E+04  0.14824154246E+04  0.50400001928E-02 0.  1.
    10030    2    1    2    0    0  0.00000000000E+00  0.00000000000E+00 -0.17331411805E+03  0.27915167312E+04  0.27861313460E+04 0.  0.
        1    1    3    3  502    0 -0.68379906735E+03  0.66662912424E+03 -0.11028444885E+04  0.14588493821E+04  0.50400001928E-02 0.  1.
       -1    1    3    3    0  502  0.68379906735E+03 -0.66662912424E+03  0.92953037046E+03  0.13326673491E+04  0.50400001928E-02 0. -1.
</event>
<event>
 5   0  0.1350863E-05  0.2789698E+04  0.7818609E-02  0.8306474E-01
        2   -1    0    0  501    0  0.00000000000E+00  0.00000000000E+00  0.25943694720E+04  0.25943694720E+04  0.25500000920E-02 0. -1.
       -2   -1    0    0    0  501  0.00000000000E+00  0.00000000000E+00 -0.74993312685E+03  0.74993312686E+03  0.25500000920E-02 0.  1.
    10030    2    1    2    0    0  0.00000000000E+00  0.00000000000E+00  0.18444363452E+04  0.33443025989E+04  0.27896979122E+04 0.  0.
        3    1    3    3  502    0  0.22994913070E+03 -0.24529063383E+03  0.25450646284E+04  0.25671770626E+04  0.10100000352E+00 0. -1.
       -3    1    3    3    0  502 -0.22994913070E+03  0.24529063383E+03 -0.70062828321E+03  0.77712553631E+03  0.10100000352E+00 0.  1.
</event>
<event>
 5   0  0.1330962E-05  0.2613737E+04  0.7818609E-02  0.8363550E-01
       -2   -1    0    0    0  501  0.00000000000E+00  0.00000000000E+00  0.87747196903E+03  0.87747196903E+03  0.25500000920E-02 0. -1.
        2   -1    0    0  501    0  0.00000000000E+00  0.00000000000E+00 -0.19463935463E+04  0.19463935463E+04  0.25500000920E-02 0.  1.
    10030    2    1    2    0    0  0.00000000000E+00  0.00000000000E+00 -0.10689215772E+04  0.28238655153E+04  0.26137373835E+04 0.  0.
        4    1    3    3  502    0 -0.10423040403E+04 -0.34619752259E+03  0.23075528198E+03  0.11222744985E+04  0.12699999809E+01 0. -1.
       -4    1    3    3    0  502  0.10423040403E+04  0.34619752259E+03 -0.12996768592E+04  0.17015910168E+04  0.12699999809E+01 0.  1.
</event>
<event>
 5   0  0.5281919E-06  0.2808926E+04  0.7818609E-02  0.8300502E-01
       -1   -1    0    0    0  501  0.00000000000E+00  0.00000000000E+00  0.12424515654E+04  0.12424515654E+04  0.50400001928E-02 0.  1.
        1   -1    0    0  501    0  0.00000000000E+00  0.00000000000E+00 -0.15876006676E+04  0.15876006676E+04  0.50400001928E-02 0. -1.
    10030    2    1    2    0    0  0.00000000000E+00  0.00000000000E+00 -0.34514910219E+03  0.28300522331E+04  0.28089264389E+04 0.  0.
        4    1    3    3  502    0  0.27591733009E+03 -0.12229249844E+04  0.46530591652E+03  0.13372311317E+04  0.12699999809E+01 0. -1.
       -4    1    3    3    0  502 -0.27591733009E+03  0.12229249844E+04 -0.81045501872E+03  0.14928211014E+04  0.12699999809E+01 0.  1.
</event>
<event>
 5   0  0.5217999E-06  0.2537658E+04  0.7818609E-02  0.8389691E-01
        1   -1    0    0  501    0  0.00000000000E+00  0.00000000000E+00  0.23712008245E+04  0.23712008245E+04  0.50400001928E-02 0. -1.
       -1   -1    0    0    0  501  0.00000000000E+00  0.00000000000E+00 -0.67895034052E+03  0.67895034054E+03  0.50400001928E-02 0.  1.
    10030    2    1    2    0    0  0.00000000000E+00  0.00000000000E+00  0.16922504840E+04  0.30501511650E+04  0.25376584540E+04 0.  0.
        1    1    3    3  502    0 -0.54942285708E+03  0.11437054060E+04  0.84645555773E+03  0.15252588446E+04  0.50400001928E-02 0.  1.
       -1    1    3    3    0  502  0.54942285708E+03 -0.11437054060E+04  0.84579492623E+03  0.15248923204E+04  0.50400001928E-02 0. -1.
</event>
<event>
 5   0  0.1302063E-05  0.2826029E+04  0.7818609E-02  0.8295233E-01
       -2   -1    0    0    0  501  0.00000000000E+00  0.00000000000E+00  0.77686980001E+03  0.77686980001E+03  0.25500000920E-02 0. -1.
        2   -1    0    0  501    0  0.00000000000E+00  0.00000000000E+00 -0.25700700893E+04  0.25700700893E+04  0.25500000920E-02 0.  1.
    10030    2    1    2    0    0  0.00000000000E+00  0.00000000000E+00 -0.17932002893E+04  0.33469398893E+04  0.28260289002E+04 0.  0.
        2    1    3    3  502    0 -0.80092242331E+03  0.99874119472E+03 -0.16048718664E+04  0.20529428657E+04  0.25500000920E-02 0.  1.
       -2    1    3    3    0  502  0.80092242331E+03 -0.99874119472E+03 -0.18832842284E+03  0.12939970236E+04  0.25500000920E-02 0. -1.
</event>
<event>
 5   0  0.1350863E-05  0.2758908E+04  0.7818609E-02  0.8316141E-01
        2   -1    0    0  501    0  0.00000000000E+00  0.00000000000E+00  0.12942166402E+04  0.12942166402E+04  0.25500000920E-02 0.  1.
       -2   -1    0    0    0  501  0.00000000000E+00  0.00000000000E+00 -0.14703046928E+04  0.14703046928E+04  0.25500000920E-02 0. -1.
    10030    2    1    2    0    0  0.00000000000E+00  0.00000000000E+00 -0.17608805257E+03  0.27645213330E+04  0.27589076096E+04 0.  0.
        3    1    3    3  502    0  0.90394181705E+03  0.72472247425E+03 -0.83827255664E+03  0.14300469792E+04  0.10100000352E+00 0. -1.
       -3    1    3    3    0  502 -0.90394181705E+03 -0.72472247425E+03  0.66218450407E+03  0.13344743538E+04  0.10100000352E+00 0.  1.
</event>
<event>
 5   0  0.5281919E-06  0.2856469E+04  0.7818609E-02  0.8285948E-01
        1   -1    0    0  501    0  0.00000000000E+00  0.00000000000E+00  0.16705403997E+04  0.16705403997E+04  0.50400001928E-02 0.  1.
       -1   -1    0    0    0  501  0.00000000000E+00  0.00000000000E+00 -0.12210739897E+04  0.12210739897E+04  0.50400001928E-02 0. -1.
    10030    2    1    2    0    0  0.00000000000E+00  0.00000000000E+00  0.44946641000E+03  0.28916143894E+04  0.28564687506E+04 0.  0.
        4    1    3    3  502    0  0.83662919282E+02 -0.52370903338E+03  0.15671646324E+04  0.16544718896E+04  0.12699999809E+01 0.  1.
       -4    1    3    3    0  502 -0.83662919282E+02  0.52370903338E+03 -0.11176982224E+04  0.12371424998E+04  0.12699999809E+01 0. -1.
</event>
<event>
 5   0  0.5107453E-06  0.2773588E+04  0.7818609E-02  0.8311516E-01
       -1   -1    0    0    0  501  0.00000000000E+00  0.00000000000E+00  0.11907418358E+04  0.11907418358E+04  0.50400001928E-02 0. -1.
        1   -1    0    0  501    0  0.00000000000E+00  0.00000000000E+00 -0.16151252571E+04  0.16151252571E+04  0.50400001928E-02 0.  1.
    10030    2    1    2    0    0  0.00000000000E+00  0.00000000000E+00 -0.42438342127E+03  0.28058670929E+04  0.27735877226E+04 0.  0.
        2    1    3    3  502    0 -0.11865822421E+04 -0.24883525647E+03  0.46892014195E+03  0.12999163441E+04  0.25500000920E-02 0. -1.
       -2    1    3    3    0  502  0.11865822421E+04  0.24883525647E+03 -0.89330356321E+03  0.15059507489E+04  0.25500000920E-02 0.  1.
</event>
<event>
 5   0  0.5217999E-06  0.2794159E+04  0.7818609E-02  0.8305084E-01
       -1   -1    0    0    0  501  0.00000000000E+00  0.00000000000E+00  0.89324172473E+03  0.89324172475E+03  0.50400001928E-02 0.  1.
        1   -1    0    0  501    0  0.00000000000E+00  0.00000000000E+00 -0.21851095970E+04  0.21851095970E+04  0.50400001928E-02 0. -1.
    10030    2    1    2    0    0  0.00000000000E+00  0.00000000000E+00 -0.12918678722E+04  0.30783513217E+04  0.27941589541E+04 0.  0.
        1    1    3    3  502    0 -0.29563306442E+03 -0.13279736840E+04 -0.99592060426E+03  0.16860518569E+04  0.50400001928E-02 0. -1.
       -1    1    3    3    0  502  0.29563306442E+03  0.13279736840E+04 -0.29594726797E+03  0.13922994648E+04  0.50400001928E-02 0.  1.
</event>
<event>
 5   0  0.1302063E-05  0.2723364E+04  0.7818609E-02  0.8327464E-01
       -2   -1    0    0    0  501  0.00000000000E+00  0.00000000000E+00  0.13122813326E+04  0.13122813326E+04  0.25500000920E-02 0.  1.
        2   -1    0    0  501    0  0.00000000000E+00  0.00000000000E+00 -0.14129426856E+04  0.14129426856E+04  0.25500000920E-02 0. -1.
    10030    2    1    2    0    0  0.00000000000E+00  0.00000000000E+00 -0.10066135291E+03  0.27252240182E+04  0.27233643240E+04 0.  0.
        2    1    3    3  502    0 -0.13765096618E+03  0.12656730659E+04 -0.53367418721E+03  0.13804652246E+04  0.25500000920E-02 0.  1.
       -2    1    3    3    0  502  0.13765096618E+03 -0.12656730659E+04  0.43301283430E+03  0.13447587936E+04  0.25500000920E-02 0. -1.
</event>
<event>
 5   0  0.5023691E-06  0.2775465E+04  0.7818609E-02  0.8310926E-01
       -1   -1    0    0    0  501  0.00000000000E+00  0.00000000000E+00  0.12378583287E+04  0.12378583288E+04  0.50400001928E-02 0.  1.
        1   -1    0    0  501    0  0.00000000000E+00  0.00000000000E+00 -0.15557533024E+04  0.15557533024E+04  0.50400001928E-02 0. -1.
    10030    2    1    2    0    0  0.00000000000E+00  0.00000000000E+00 -0.31789497366E+03  0.27936116312E+04  0.27754654982E+04 0.  0.
        5    1    3    3  502    0 -0.28917466318E+03  0.25499028585E+03  0.11828617630E+04  0.12441165830E+04  0.46999998093E+01 0.  1.
       -5    1    3    3    0  502  0.28917466318E+03 -0.25499028585E+03 -0.15007567367E+04  0.15494950482E+04  0.46999998093E+01 0. -1.
</event>
<event>
 5   0  0.4764214E-06  0.2808974E+04  0.7818609E-02  0.8300488E-01
       -1   -1    0    0    0  501  0.00000000000E+00  0.00000000000E+00  0.10531800518E+04  0.10531800518E+04  0.50400001928E-02 0.  1.
        1   -1    0    0  501    0  0.00000000000E+00  0.00000000000E+00 -0.18729785974E+04  0.18729785974E+04  0.50400001928E-02 0. -1.
    10030    2    1    2    0    0  0.00000000000E+00  0.00000000000E+00 -0.81979854554E+03  0.29261586492E+04  0.28089739737E+04 0.  0.
        3    1    3    3  502    0 -0.96279809922E+03  0.18701225034E+03 -0.14571392926E+04  0.17564762138E+04  0.10100000352E+00 0. -1.
       -3    1    3    3    0  502  0.96279809922E+03 -0.18701225034E+03  0.63734074703E+03  0.11696824354E+04  0.10100000352E+00 0.  1.
</event>
<event>
 5   0  0.1350863E-05  0.2718032E+04  0.7818609E-02  0.8329178E-01
        2   -1    0    0  501    0  0.00000000000E+00  0.00000000000E+00  0.21018967200E+04  0.21018967200E+04  0.25500000920E-02 0. -1.
       -2   -1    0    0    0  501  0.00000000000E+00  0.00000000000E+00 -0.87869418498E+03  0.87869418499E+03  0.25500000920E-02 0.  1.
    10030    2    1    2    0    0  0.00000000000E+00  0.00000000000E+00  0.12232025350E+04  0.29805909050E+04  0.27180319537E+04 0.  0.
        3    1    3    3  502    0  0.13214989101E+03 -0.10403115047E+04 -0.33631497234E+03  0.11012807958E+04  0.10100000352E+00 0.  1.
       -3    1    3    3    0  502 -0.13214989101E+03  0.10403115047E+04  0.15595175073E+04  0.18793101092E+04  0.10100000352E+00 0. -1.
</event>
<event>
 5   0  0.1350863E-05  0.2801025E+04  0.7818609E-02  0.8302950E-01
        2   -1    0    0  501    0  0.00000000000E+00  0.00000000000E+00  0.20780802988E+04  0.20780802988E+04  0.25500000920E-02 0.  1.
       -2   -1    0    0    0  501  0.00000000000E+00  0.00000000000E+00 -0.94386890143E+03  0.94386890143E+03  0.25500000920E-02 0. -1.
    10030    2    1    2    0    0  0.00000000000E+00  0.00000000000E+00  0.11342113973E+04  0.30219492002E+04  0.28010250757E+04 0.  0.
        3    1    3    3  502    0  0.22242928039E+03  0.68265613609E+03 -0.73020940696E+03  0.10240605320E+04  0.10100000352E+00 0. -1.
       -3    1    3    3    0  502 -0.22242928039E+03 -0.68265613609E+03  0.18644208043E+04  0.19978886682E+04  0.10100000352E+00 0.  1.
</event>
<event>
 5   0  0.5217999E-06  0.2648427E+04  0.7818609E-02  0.8351935E-01
        1   -1    0    0  501    0  0.00000000000E+00  0.00000000000E+00  0.15547502270E+04  0.15547502270E+04  0.50400001928E-02 0. -1.
       -1   -1    0    0    0  501  0.00000000000E+00  0.00000000000E+00 -0.11278604853E+04  0.11278604853E+04  0.50400001928E-02 0.  1.
    10030    2    1    2    0    0  0.00000000000E+00  0.00000000000E+00  0.42688974167E+03  0.26826107123E+04  0.26484269637E+04 0.  0.
        1    1    3    3  502    0  0.36218645391E+03 -0.11917352252E+04 -0.24194616083E+03  0.12688379799E+04  0.50400001928E-02 0.  1.
       -1    1    3    3    0  502 -0.36218645391E+03  0.11917352252E+04  0.66883590250E+03  0.14137727324E+04  0.50400001928E-02 0. -1.
</event>
<event>
 5   0  0.1388269E-05  0.2812515E+04  0.7818609E-02  0.8299394E-01
       -2   -1    0    0    0  501  0.00000000000E+00  0.00000000000E+00  0.94972770541E+03  0.94972770541E+03  0.25500000920E-02 0. -1.
        2   -1    0    0  501    0  0.00000000000E+00  0.00000000000E+00 -0.20822389043E+04  0.20822389043E+04  0.25500000920E-02 0.  1.
    10030    2    1    2    0    0  0.00000000000E+00  0.00000000000E+00 -0.11325111989E+04  0.30319666097E+04  0.28125148723E+04 0.  0.
        1    1    3    3  502    0  0.29469844982E+03  0.26615982960E+03 -0.20205421167E+04  0.20591936957E+04  0.50400001928E-02 0.  1.
       -1    1    3    3    0  502 -0.29469844982E+03 -0.26615982960E+03  0.88803091779E+03  0.97277291399E+03  0.50400001928E-02 0. -1.
</event>
<event>
 5   0  0.5107453E-06  0.2777666E+04  0.7818609E-02  0.8310236E-01
       -1   -1    0    0    0  501  0.00000000000E+00  0.00000000000E+00  0.15869539560E+04  0.15869539560E+04  0.50400001928E-02 0.  1.
        1   -1    0    0  501    0  0.00000000000E+00  0.00000000000E+00 -0.12154461981E+04  0.12154461981E+04  0.50400001928E-02 0. -1.
    10030    2    1    2    0    0  0.00000000000E+00  0.00000000000E+00  0.37150775788E+03  0.28024001542E+04  0.27776660364E+04 0.  0.
        2    1    3    3  502    0  0.88932882369E+03  0.64820770353E+03 -0.66900819127E+03  0.12878862308E+04  0.25500000920E-02 0. -1.
       -2    1    3    3    0  502 -0.88932882369E+03 -0.64820770353E+03  0.10405159491E+04  0.15145139233E+04  0.25500000920E-02 0.  1.
</event>
<event>
 5   0  0.5217999E-06  0.2827597E+04  0.7818609E-02  0.8294752E-01
        1   -1    0    0  501    0  0.00000000000E+00  0.00000000000E+00  0.25560058882E+04  0.25560058882E+04  0.50400001928E-02 0.  1.
       -1   -1    0    0    0  501  0.00000000000E+00  0.00000000000E+00 -0.78201135741E+03  0.78201135742E+03  0.50400001928E-02 0. -1.
    10030    2    1    2    0    0  0.00000000000E+00  0.00000000000E+00  0.17739945308E+04  0.33380172456E+04  0.28275966008E+04 0.  0.
        1    1    3    3  502    0  0.12586031079E+03  0.10916802006E+04  0.19370703380E+04  0.22270716137E+04  0.50400001928E-02 0.  1.
       -1    1    3    3    0  502 -0.12586031079E+03 -0.10916802006E+04 -0.16307580718E+03  0.11109456319E+04  0.50400001928E-02 0. -1.
</event>
<event>
 5   0  0.4447500E-06  0.2860842E+04  0.7818609E-02  0.8284624E-01
       -4   -1    0    0    0  501  0.00000000000E+00  0.00000000000E+00  0.13732646811E+04  0.13732652683E+04  0.12699999809E+01 0.  1.
        4   -1    0    0  501    0  0.00000000000E+00  0.00000000000E+00 -0.14899546446E+04  0.14899551858E+04  0.12699999809E+01 0. -1.
    10030    2    1    2    0    0  0.00000000000E+00  0.00000000000E+00 -0.11668996350E+03  0.28632204541E+04  0.28608416282E+04 0.  0.
        3    1    3    3  502    0  0.10081816623E+04  0.82638272324E+03 -0.64770221167E+03  0.14556293603E+04  0.10100000352E+00 0. -1.
       -3    1    3    3    0  502 -0.10081816623E+04 -0.82638272324E+03  0.53101224817E+03  0.14075910938E+04  0.10100000352E+00 0.  1.
</event>
<event>
 5   0  0.1388269E-05  0.2140263E+04  0.7818609E-02  0.8543712E-01
        2   -1    0    0  501    0  0.00000000000E+00  0.00000000000E+00  0.63826259256E+03  0.63826259256E+03  0.25500000920E-02 0.  1.
       -2   -1    0    0    0  501  0.00000000000E+00  0.00000000000E+00 -0.17942162485E+04  0.17942162485E+04  0.25500000920E-02 0. -1.
    10030    2    1    2    0    0  0.00000000000E+00  0.00000000000E+00 -0.11559536559E+04  0.24324788410E+04  0.21402627076E+04 0.  0.
        1    1    3    3  502    0  0.89863726372E+03 -0.55646421995E+03 -0.76808637924E+03  0.13065825829E+04  0.50400001928E-02 0.  1.
       -1    1    3    3    0  502 -0.89863726372E+03  0.55646421995E+03 -0.38786727669E+03  0.11258962582E+04  0.50400001928E-02 0. -1.
</event>
<event>
 5   0  0.5281919E-06  0.2800505E+04  0.7818609E-02  0.8303112E-01
       -1   -1    0    0    0  501  0.00000000000E+00  0.00000000000E+00  0.76417667459E+03  0.76417667461E+03  0.50400001928E-02 0. -1.
        1   -1    0    0  501    0  0.00000000000E+00  0.00000000000E+00 -0.25657768637E+04  0.25657768637E+04  0.50400001928E-02 0.  1.
    10030    2    1    2    0    0  0.00000000000E+00  0.00000000000E+00 -0.18016001891E+04  0.33299535383E+04  0.28005048341E+04 0.  0.
        4    1    3    3  502    0  0.34234317030E+03 -0.54944658824E+03  0.57555145942E+03  0.86622831570E+03  0.12699999809E+01 0. -1.
       -4    1    3    3    0  502 -0.34234317030E+03  0.54944658824E+03 -0.23771516485E+04  0.24637252226E+04  0.12699999809E+01 0.  1.
</event>
<event>
 5   0  0.5107453E-06  0.2773026E+04  0.7818609E-02  0.8311692E-01
       -1   -1    0    0    0  501  0.00000000000E+00  0.00000000000E+00  0.92468358405E+03  0.92468358407E+03  0.50400001928E-02 0.  1.
        1   -1    0    0  501    0  0.00000000000E+00  0.00000000000E+00 -0.20790007635E+04  0.20790007635E+04  0.50400001928E-02 0. -1.
    10030    2    1    2    0    0  0.00000000000E+00  0.00000000000E+00 -0.11543171795E+04  0.30036843476E+04  0.27730256957E+04 0.  0.
        2    1    3    3  502    0  0.81293412507E+03  0.11222932159E+04 -0.62576816594E+03  0.15205228547E+04  0.25500000920E-02 0.  1.
       -2    1    3    3    0  502 -0.81293412507E+03 -0.11222932159E+04 -0.52854901355E+03  0.14831614929E+04  0.25500000920E-02 0. -1.
</event>
<event>
 5   0  0.1302063E-05  0.2433763E+04  0.7818609E-02  0.8426970E-01
       -2   -1    0    0    0  501  0.00000000000E+00  0.00000000000E+00  0.74677054325E+03  0.74677054325E+03  0.25500000920E-02 0. -1.
        2   -1    0    0  501    0  0.00000000000E+00  0.00000000000E+00 -0.19829392425E+04  0.19829392425E+04  0.25500000920E-02 0.  1.
    10030    2    1    2    0    0  0.00000000000E+00  0.00000000000E+00 -0.12361686992E+04  0.27297097857E+04  0.24337630249E+04 0.  0.
        2    1    3    3  502    0 -0.12061499175E+03 -0.38085042880E+03 -0.19072935291E+04  0.19486825374E+04  0.25500000920E-02 0.  1.
       -2    1    3    3    0  502  0.12061499175E+03  0.38085042880E+03  0.67112482988E+03  0.78102724834E+03  0.25500000920E-02 0. -1.
</event>
<event>
 5   0  0.4764214E-06  0.2149172E+04  0.7818609E-02  0.8539887E-01
       -1   -1    0    0    0  501  0.00000000000E+00  0.00000000000E+00  0.10141942166E+04  0.10141942167E+04  0.50400001928E-02 0.  1.
        1   -1    0    0  501    0  0.00000000000E+00  0.00000000000E+00 -0.11385736693E+04  0.11385736693E+04  0.50400001928E-02 0. -1.
    10030    2    1    2    0    0  0.00000000000E+00  0.00000000000E+00 -0.12437945268E+03  0.21527678860E+04  0.21491717760E+04 0.  0.
        3    1    3    3  502    0 -0.92040876772E+02  0.51597009568E+03 -0.10018629016E+04  0.11306749959E+04  0.10100000352E+00 0. -1.
       -3    1    3    3    0  502  0.92040876772E+02 -0.51597009568E+03  0.87748344890E+03  0.10220928901E+04  0.10100000352E+00 0.  1.
</event>
<event>
 5   0  0.1283052E-05  0.2487018E+04  0.7818609E-02  0.8407625E-01
       -2   -1    0    0    0  501  0.00000000000E+00  0.00000000000E+00  0.75850927131E+03  0.75850927132E+03  0.25500000920E-02 0. -1.
        2   -1    0    0  501    0  0.00000000000E+00  0.00000000000E+00 -0.20386231466E+04  0.20386231466E+04  0.25500000920E-02 0.  1.
    10030    2    1    2    0    0  0.00000000000E+00  0.00000000000E+00 -0.12801138753E+04  0.27971324180E+04  0.24870179392E+04 0.  0.
        5    1    3    3  502    0 -0.69415993990E+03  0.57756681063E+02  0.51848559346E+03  0.86835664159E+03  0.46999998093E+01 0. -1.
       -5    1    3    3    0  502  0.69415993990E+03 -0.57756681063E+02 -0.17985994688E+04  0.19287757764E+04  0.46999998093E+01 0.  1.
</event>
<event>
 5   0  0.4764214E-06  0.2770617E+04  0.7818609E-02  0.8312449E-01
        1   -1    0    0  501    0  0.00000000000E+00  0.00000000000E+00  0.15490239219E+04  0.15490239220E+04  0.50400001928E-02 0. -1.
       -1   -1    0    0    0  501  0.00000000000E+00  0.00000000000E+00 -0.12388963295E+04  0.12388963295E+04  0.50400001928E-02 0.  1.
    10030    2    1    2    0    0  0.00000000000E+00  0.00000000000E+00  0.31012759244E+03  0.27879202515E+04  0.27706172967E+04 0.  0.
        3    1    3    3  502    0 -0.12473182621E+04  0.52550717002E+02 -0.44911551008E+03  0.13267513619E+04  0.10100000352E+00 0. -1.
       -3    1    3    3    0  502  0.12473182621E+04 -0.52550717002E+02  0.75924310252E+03  0.14611688895E+04  0.10100000352E+00 0.  1.
</event>
<event>
 5   0  0.1302063E-05  0.2602503E+04  0.7818609E-02  0.8367351E-01
        2   -1    0    0  501    0  0.00000000000E+00  0.00000000000E+00  0.18792762900E+04  0.18792762900E+04  0.25500000920E-02 0. -1.
       -2   -1    0    0    0  501  0.00000000000E+00  0.00000000000E+00 -0.90101466133E+03  0.90101466133E+03  0.25500000920E-02 0.  1.
    10030    2    1    2    0    0  0.00000000000E+00  0.00000000000E+00  0.97826162871E+03  0.27802909514E+04  0.26025030183E+04 0.  0.
        2    1    3    3  502    0  0.80434345298E+03  0.88880899906E+03  0.10299823974E+04  0.15804472678E+04  0.25500000920E-02 0. -1.
       -2    1    3    3    0  502 -0.80434345298E+03 -0.88880899906E+03 -0.51720768737E+02  0.11998436836E+04  0.25500000920E-02 0.  1.
</event>
<event>
 5   0  0.1302063E-05  0.2815354E+04  0.7818609E-02  0.8298517E-01
       -2   -1    0    0    0  501  0.00000000000E+00  0.00000000000E+00  0.11741358964E+04  0.11741358964E+04  0.25500000920E-02 0.  1.
        2   -1    0    0  501    0  0.00000000000E+00  0.00000000000E+00 -0.16876705678E+04  0.16876705678E+04  0.25500000920E-02 0. -1.
    10030    2    1    2    0    0  0.00000000000E+00  0.00000000000E+00 -0.51353467132E+03  0.28618064642E+04  0.28153540417E+04 0.  0.
        2    1    3    3  502    0  0.45581679481E+03  0.11898456535E+04  0.35148093235E+03  0.13217565870E+04  0.25500000920E-02 0.  1.
       -2    1    3    3    0  502 -0.45581679481E+03 -0.11898456535E+04 -0.86501560367E+03  0.15400498772E+04  0.25500000920E-02 0. -1.
</event>
<event>
 5   0  0.5217999E-06  0.2823393E+04  0.7818609E-02  0.8296042E-01
        1   -1    0    0  501    0  0.00000000000E+00  0.00000000000E+00  0.23279835898E+04  0.23279835898E+04  0.50400001928E-02 0.  1.
       -1   -1    0    0    0  501  0.00000000000E+00  0.00000000000E+00 -0.85605690535E+03  0.85605690536E+03  0.50400001928E-02 0. -1.
    10030    2    1    2    0    0  0.00000000000E+00  0.00000000000E+00  0.14719266845E+04  0.31840404952E+04  0.28233925888E+04 0.  0.
        1    1    3    3  502    0 -0.13977083945E+03 -0.86169700937E+03 -0.51517731645E+03  0.10136396258E+04  0.50400001928E-02 0. -1.
       -1    1    3    3    0  502  0.13977083945E+03  0.86169700937E+03  0.19871040009E+04  0.21704008694E+04  0.50400001928E-02 0.  1.
</event>
<event>
 5   0  0.1350863E-05  0.2732489E+04  0.7818609E-02  0.8324540E-01
       -2   -1    0    0    0  501  0.00000000000E+00  0.00000000000E+00  0.95979752977E+03  0.95979752978E+03  0.25500000920E-02 0. -1.
        2   -1    0    0  501    0  0.00000000000E+00  0.00000000000E+00 -0.19448103402E+04  0.19448103402E+04  0.25500000920E-02 0.  1.
    10030    2    1    2    0    0  0.00000000000E+00  0.00000000000E+00 -0.98501281039E+03  0.29046078699E+04  0.27324890927E+04 0.  0.
        3    1    3    3  502    0 -0.61429477176E+03  0.95760549223E+03 -0.12966339429E+04  0.17250002717E+04  0.10100000352E+00 0.  1.
       -3    1    3    3    0  502  0.61429477176E+03 -0.95760549223E+03  0.31162113250E+03  0.11796075982E+04  0.10100000352E+00 0. -1.
</event>
<event>
 5   0  0.1302063E-05  0.2777618E+04  0.7818609E-02  0.8310251E-01
       -2   -1    0    0    0  501  0.00000000000E+00  0.00000000000E+00  0.82087824164E+03  0.82087824164E+03  0.25500000920E-02 0.  1.
        2   -1    0    0  501    0  0.00000000000E+00  0.00000000000E+00 -0.23496666529E+04  0.23496666529E+04  0.25500000920E-02 0. -1.
    10030    2    1    2    0    0  0.00000000000E+00  0.00000000000E+00 -0.15287884113E+04  0.31705448945E+04  0.27776178502E+04 0.  0.
        2    1    3    3  502    0  0.10608878679E+04 -0.89492389401E+03 -0.82052797770E+03  0.16123392964E+04  0.25500000920E-02 0.  1.
       -2    1    3    3    0  502 -0.10608878679E+04  0.89492389401E+03 -0.70826043355E+03  0.15582055982E+04  0.25500000920E-02 0. -1.
</event>
<event>
 5   0  0.4764214E-06  0.2827342E+04  0.7818609E-02  0.8294830E-01
        1   -1    0    0  501    0  0.00000000000E+00  0.00000000000E+00  0.16781239525E+04  0.16781239525E+04  0.50400001928E-02 0.  1.
       -1   -1    0    0    0  501  0.00000000000E+00  0.00000000000E+00 -0.11908925181E+04  0.11908925181E+04  0.50400001928E-02 0. -1.
    10030    2    1    2    0    0  0.00000000000E+00  0.00000000000E+00  0.48723143438E+03  0.28690164706E+04  0.28273416911E+04 0.  0.
        3    1    3    3  502    0  0.10173597688E+04  0.40031017611E+03 -0.66580646548E+03  0.12800653874E+04  0.10100000352E+00 0. -1.
       -3    1    3    3    0  502 -0.10173597688E+04 -0.40031017611E+03  0.11530378999E+04  0.15889510833E+04  0.10100000352E+00 0.  1.
</event>
<event>
 5   0  0.4764214E-06  0.2792023E+04  0.7818609E-02  0.8305749E-01
        1   -1    0    0  501    0  0.00000000000E+00  0.00000000000E+00  0.20134493119E+04  0.20134493119E+04  0.50400001928E-02 0.  1.
       -1   -1    0    0    0  501  0.00000000000E+00  0.00000000000E+00 -0.96791534952E+03  0.96791534953E+03  0.50400001928E-02 0. -1.
    10030    2    1    2    0    0  0.00000000000E+00  0.00000000000E+00  0.10455339624E+04  0.29813646615E+04  0.27920232768E+04 0.  0.
        3    1    3    3  502    0  0.10114314327E+04 -0.72022538498E+03  0.12041052718E+04  0.17296206706E+04  0.10100000352E+00 0.  1.
       -3    1    3    3    0  502 -0.10114314327E+04  0.72022538498E+03 -0.15857130942E+03  0.12517439909E+04  0.10100000352E+00 0. -1.
</event>
<event>
 5   0  0.5281919E-06  0.2792133E+04  0.7818609E-02  0.8305715E-01
        1   -1    0    0  501    0  0.00000000000E+00  0.00000000000E+00  0.25058460782E+04  0.25058460782E+04  0.50400001928E-02 0. -1.
       -1   -1    0    0    0  501  0.00000000000E+00  0.00000000000E+00 -0.77778197829E+03  0.77778197831E+03  0.50400001928E-02 0.  1.
    10030    2    1    2    0    0  0.00000000000E+00  0.00000000000E+00  0.17280640999E+04  0.32836280565E+04  0.27921331773E+04 0.  0.
        4    1    3    3  502    0  0.21983897414E+03  0.82132385353E+03  0.21662403727E+04  0.23271229044E+04  0.12699999809E+01 0. -1.
       -4    1    3    3    0  502 -0.21983897414E+03 -0.82132385353E+03 -0.43817627286E+03  0.95650515206E+03  0.12699999809E+01 0.  1.
</event>
<event>
 5   0  0.1350863E-05  0.2771529E+04  0.7818609E-02  0.8312162E-01
       -2   -1    0    0    0  501  0.00000000000E+00  0.00000000000E+00  0.12263715353E+04  0.12263715353E+04  0.25500000920E-02 0. -1.
        2   -1    0    0  501    0  0.00000000000E+00  0.00000000000E+00 -0.15658736847E+04  0.15658736847E+04  0.25500000920E-02 0.  1.
    10030    2    1    2    0    0  0.00000000000E+00  0.00000000000E+00 -0.33950214939E+03  0.27922452200E+04  0.27715287585E+04 0.  0.
        3    1    3    3  502    0  0.12794163162E+04  0.48923135522E+03  0.41793374110E+02  0.13704014468E+04  0.10100000352E+00 0. -1.
       -3    1    3    3    0  502 -0.12794163162E+04 -0.48923135522E+03 -0.38129552350E+03  0.14218437732E+04  0.10100000352E+00 0.  1.
</event>
<event>
 5   0  0.1302063E-05  0.2805187E+04  0.7818609E-02  0.8301660E-01
       -2   -1    0    0    0  501  0.00000000000E+00  0.00000000000E+00  0.88846200606E+03  0.88846200607E+03  0.25500000920E-02 0. -1.
        2   -1    0    0  501    0  0.00000000000E+00  0.00000000000E+00 -0.22142406268E+04  0.22142406268E+04  0.25500000920E-02 0.  1.
    10030    2    1    2    0    0  0.00000000000E+00  0.00000000000E+00 -0.13257786207E+04  0.31027026328E+04  0.28051871019E+04 0.  0.
        2    1    3    3  502    0 -0.29631077961E+03  0.35956420559E+03  0.80036546059E+03  0.92610548350E+03  0.25500000920E-02 0. -1.
       -2    1    3    3    0  502  0.29631077961E+03 -0.35956420559E+03 -0.21261440813E+04  0.21765971493E+04  0.25500000920E-02 0.  1.
</event>
<event>
 5   0  0.1330962E-05  0.2811529E+04  0.7818609E-02  0.8299698E-01
       -2   -1    0    0    0  501  0.00000000000E+00  0.00000000000E+00  0.10845716048E+04  0.10845716048E+04  0.25500000920E-02 0.  1.
        2   -1    0    0  501    0  0.00000000000E+00  0.00000000000E+00 -0.18220773523E+04  0.18220773523E+04  0.25500000920E-02 0. -1.
    10030    2    1    2    0    0  0.00000000000E+00  0.00000000000E+00 -0.73750574752E+03  0.29066489570E+04  0.28115286646E+04 0.  0.
        4    1    3    3  502    0 -0.54913886474E+03  0.10799932552E+04 -0.11057765211E+04  0.16403299215E+04  0.12699999809E+01 0. -1.
       -4    1    3    3    0  502  0.54913886474E+03 -0.10799932552E+04  0.36827077355E+03  0.12663190355E+04  0.12699999809E+01 0.  1.
</event>
<event>
 5   0  0.5107453E-06  0.2772185E+04  0.7818609E-02  0.8311956E-01
        1   -1    0    0  501    0  0.00000000000E+00  0.00000000000E+00  0.99985200447E+03  0.99985200448E+03  0.50400001928E-02 0. -1.
       -1   -1    0    0    0  501  0.00000000000E+00  0.00000000000E+00 -0.19215370463E+04  0.19215370463E+04  0.50400001928E-02 0.  1.
    10030    2    1    2    0    0  0.00000000000E+00  0.00000000000E+00 -0.92168504184E+03  0.29213890508E+04  0.27721851796E+04 0.  0.
        2    1    3    3  502    0 -0.51398585107E+03  0.10153802424E+04 -0.12946773950E+04  0.17237656595E+04  0.25500000920E-02 0.  1.
       -2    1    3    3    0  502  0.51398585107E+03 -0.10153802424E+04  0.37299235317E+03  0.11976233913E+04  0.25500000920E-02 0. -1.
</event>
<event>
 5   0  0.4447500E-06  0.2626408E+04  0.7818609E-02  0.8359286E-01
        3   -1    0    0  501    0  0.00000000000E+00  0.00000000000E+00  0.15607565114E+04  0.15607565146E+04  0.10100000352E+00 0. -1.
       -3   -1    0    0    0  501  0.00000000000E+00  0.00000000000E+00 -0.11049161404E+04  0.11049161450E+04  0.10100000352E+00 0.  1.
    10030    2    1    2    0    0  0.00000000000E+00  0.00000000000E+00  0.45584037098E+03  0.26656726596E+04  0.26264082479E+04 0.  0.
        3    1    3    3  502    0  0.98849999978E+03 -0.34263400679E+03  0.10334955103E+04  0.14705928370E+04  0.10100000352E+00 0. -1.
       -3    1    3    3    0  502 -0.98849999978E+03  0.34263400679E+03 -0.57765513936E+03  0.11950798226E+04  0.10100000352E+00 0.  1.
</event>
<event>
 5   0  0.1350863E-05  0.2713745E+04  0.7818609E-02  0.8330559E-01
       -2   -1    0    0    0  501  0.00000000000E+00  0.00000000000E+00  0.10675994161E+04  0.10675994161E+04  0.25500000920E-02 0.  1.
        2   -1    0    0  501    0  0.00000000000E+00  0.00000000000E+00 -0.17245259952E+04  0.17245259952E+04  0.25500000920E-02 0. -1.
    10030    2    1    2    0    0  0.00000000000E+00  0.00000000000E+00 -0.65692657903E+03  0.27921254113E+04  0.27137449737E+04 0.  0.
        3    1    3    3  502    0 -0.11194429613E+04 -0.68618450317E+03  0.23620960401E+02  0.13132249144E+04  0.10100000352E+00 0. -1.
       -3    1    3    3    0  502  0.11194429613E+04  0.68618450317E+03 -0.68054753943E+03  0.14789004968E+04  0.10100000352E+00 0.  1.
</event>
<event>
 5   0  0.1302063E-05  0.2800834E+04  0.7818609E-02  0.8303009E-01
        2   -1    0    0  501    0  0.00000000000E+00  0.00000000000E+00  0.11960215188E+04  0.11960215188E+04  0.25500000920E-02 0.  1.
       -2   -1    0    0    0  501  0.00000000000E+00  0.00000000000E+00 -0.16397429575E+04  0.16397429576E+04  0.25500000920E-02 0. -1.
    10030    2    1    2    0    0  0.00000000000E+00  0.00000000000E+00 -0.44372143877E+03  0.28357644763E+04  0.28008340633E+04 0.  0.
        2    1    3    3  502    0 -0.13515262474E+03  0.66100606927E+03  0.10206247382E+04  0.12234664327E+04  0.25500000920E-02 0.  1.
       -2    1    3    3    0  502  0.13515262474E+03 -0.66100606927E+03 -0.14643461770E+04  0.16122980437E+04  0.25500000920E-02 0. -1.
</event>
<event>
 5   0  0.5217999E-06  0.2809529E+04  0.7818609E-02  0.8300316E-01
        1   -1    0    0  501    0  0.00000000000E+00  0.00000000000E+00  0.24390362729E+04  0.24390362729E+04  0.50400001928E-02 0.  1.
       -1   -1    0    0    0  501  0.00000000000E+00  0.00000000000E+00 -0.80907480568E+03  0.80907480569E+03  0.50400001928E-02 0. -1.
    10030    2    1    2    0    0  0.00000000000E+00  0.00000000000E+00  0.16299614672E+04  0.32481110786E+04  0.28095286427E+04 0.  0.
        1    1    3    3  502    0  0.15774267588E+03 -0.56616965544E+03 -0.66009913026E+03  0.88383352071E+03  0.50400001928E-02 0. -1.
       -1    1    3    3    0  502 -0.15774267588E+03  0.56616965544E+03  0.22900605975E+04  0.23642775579E+04  0.50400001928E-02 0.  1.
</event>
<event>
 5   0  0.4764214E-06  0.2728946E+04  0.7818609E-02  0.8325674E-01
        1   -1    0    0  501    0  0.00000000000E+00  0.00000000000E+00  0.24558187030E+04  0.24558187030E+04  0.50400001928E-02 0.  1.
       -1   -1    0    0    0  501  0.00000000000E+00  0.00000000000E+00 -0.75811211968E+03  0.75811211970E+03  0.50400001928E-02 0. -1.
    10030    2    1    2    0    0  0.00000000000E+00  0.00000000000E+00  0.16977065833E+04  0.32139308227E+04  0.27289455271E+04 0.  0.
        3    1    3    3  502    0 -0.66881265063E+03 -0.87272936856E+03  0.18004173959E+04  0.21096136429E+04  0.10100000352E+00 0.  1.
       -3    1    3    3    0  502  0.66881265063E+03  0.87272936856E+03 -0.10271081264E+03  0.11043171798E+04  0.10100000352E+00 0. -1.
</event>
<event>
 5   0  0.5281919E-06  0.2308892E+04  0.7818609E-02  0.8474423E-01
       -1   -1    0    0    0  501  0.00000000000E+00  0.00000000000E+00  0.97642772699E+03  0.97642772701E+03  0.50400001928E-02 0. -1.
        1   -1    0    0  501    0  0.00000000000E+00  0.00000000000E+00 -0.13649195955E+04  0.13649195955E+04  0.50400001928E-02 0.  1.
    10030    2    1    2    0    0  0.00000000000E+00  0.00000000000E+00 -0.38849186846E+03  0.23413473225E+04  0.23088918018E+04 0.  0.
        4    1    3    3  502    0 -0.35194760384E+03  0.88554818551E+03 -0.85508192465E+03  0.12803239494E+04  0.12699999809E+01 0.  1.
       -4    1    3    3    0  502  0.35194760384E+03 -0.88554818551E+03  0.46659005619E+03  0.10610233730E+04  0.12699999809E+01 0. -1.
</event>
<event>
 5   0  0.4764214E-06  0.2870377E+04  0.7818609E-02  0.8281746E-01
       -1   -1    0    0    0  501  0.00000000000E+00  0.00000000000E+00  0.22073306075E+04  0.22073306076E+04  0.50400001928E-02 0. -1.
        1   -1    0    0  501    0  0.00000000000E+00  0.00000000000E+00 -0.93314796027E+03  0.93314796029E+03  0.50400001928E-02 0.  1.
    10030    2    1    2    0    0  0.00000000000E+00  0.00000000000E+00  0.12741826473E+04  0.31404785678E+04  0.28703770164E+04 0.  0.
        3    1    3    3  502    0 -0.13845308756E+04 -0.11551818763E+03  0.24337374122E+03  0.14104967158E+04  0.10100000352E+00 0. -1.
       -3    1    3    3    0  502  0.13845308756E+04  0.11551818763E+03  0.10308089061E+04  0.17299818520E+04  0.10100000352E+00 0.  1.
</event>
<event>
 5   0  0.1350863E-05  0.2796402E+04  0.7818609E-02  0.8304386E-01
       -2   -1    0    0    0  501  0.00000000000E+00  0.00000000000E+00  0.88008177953E+03  0.88008177953E+03  0.25500000920E-02 0.  1.
        2   -1    0    0  501    0  0.00000000000E+00  0.00000000000E+00 -0.22213452517E+04  0.22213452517E+04  0.25500000920E-02 0. -1.
    10030    2    1    2    0    0  0.00000000000E+00  0.00000000000E+00 -0.13412634722E+04  0.31014270312E+04  0.27964016035E+04 0.  0.
        3    1    3    3  502    0  0.10031220003E+04  0.13422376677E+03 -0.17405876415E+04  0.20134336629E+04  0.10100000352E+00 0. -1.
       -3    1    3    3    0  502 -0.10031220003E+04 -0.13422376677E+03  0.39932416931E+03  0.10879933683E+04  0.10100000352E+00 0.  1.
</event>
<event>
 5   0  0.5107453E-06  0.2797738E+04  0.7818609E-02  0.8303971E-01
       -1   -1    0    0    0  501  0.00000000000E+00  0.00000000000E+00  0.13107955136E+04  0.13107955136E+04  0.50400001928E-02 0. -1.
        1   -1    0    0  501    0  0.00000000000E+00  0.00000000000E+00 -0.14928598057E+04  0.14928598057E+04  0.50400001928E-02 0.  1.
    10030    2    1    2    0    0  0.00000000000E+00  0.00000000000E+00 -0.18206429212E+03  0.28036553193E+04  0.27977376115E+04 0.  0.
        2    1    3    3  502    0  0.13915406861E+04 -0.14282595491E+03 -0.98061346446E+02  0.14022841232E+04  0.25500000920E-02 0. -1.
       -2    1    3    3    0  502 -0.13915406861E+04  0.14282595491E+03 -0.84002945670E+02  0.14013711961E+04  0.25500000920E-02 0.  1.
</event>
<event>
 5   0  0.1388269E-05  0.2783751E+04  0.7818609E-02  0.8308331E-01
       -2   -1    0    0    0  501  0.00000000000E+00  0.00000000000E+00  0.11957065743E+04  0.11957065743E+04  0.25500000920E-02 0. -1.
        2   -1    0    0  501    0  0.00000000000E+00  0.00000000000E+00 -0.16202285094E+04  0.16202285094E+04  0.25500000920E-02 0.  1.
    10030    2    1    2    0    0  0.00000000000E+00  0.00000000000E+00 -0.42452193502E+03  0.28159350837E+04  0.27837513399E+04 0.  0.
        1    1    3    3  502    0  0.45683750868E+03 -0.32664601554E+03 -0.15005309304E+04  0.16021832611E+04  0.50400001928E-02 0.  1.
       -1    1    3    3    0  502 -0.45683750868E+03  0.32664601554E+03  0.10760089954E+04  0.12137518227E+04  0.50400001928E-02 0. -1.
</event>
<event>
 5   0  0.5107453E-06  0.2652778E+04  0.7818609E-02  0.8350492E-01
        1   -1    0    0  501    0  0.00000000000E+00  0.00000000000E+00  0.20966215359E+04  0.20966215359E+04  0.50400001928E-02 0.  1.
       -1   -1    0    0    0  501  0.00000000000E+00  0.00000000000E+00 -0.83911535911E+03  0.83911535912E+03  0.50400001928E-02 0. -1.
    10030    2    1    2    0    0  0.00000000000E+00  0.00000000000E+00  0.12575061768E+04  0.29357368950E+04  0.26527776635E+04 0.  0.
        2    1    3    3  502    0  0.11609799996E+04  0.48526889754E+03  0.10929551364E+04  0.16667067506E+04  0.25500000920E-02 0.  1.
       -2    1    3    3    0  502 -0.11609799996E+04 -0.48526889754E+03  0.16455104045E+03  0.12690301444E+04  0.25500000920E-02 0. -1.
</event>
<event>
 5   0  0.4764214E-06  0.2797928E+04  0.7818609E-02  0.8303912E-01
       -1   -1    0    0    0  501  0.00000000000E+00  0.00000000000E+00  0.10189271665E+04  0.10189271665E+04  0.50400001928E-02 0. -1.
        1   -1    0    0  501    0  0.00000000000E+00  0.00000000000E+00 -0.19207457101E+04  0.19207457101E+04  0.50400001928E-02 0.  1.
    10030    2    1    2    0    0  0.00000000000E+00  0.00000000000E+00 -0.90181854351E+03  0.29396728766E+04  0.27979277932E+04 0.  0.
        3    1    3    3  502    0 -0.13684664166E+04  0.19897493096E+03 -0.22850492323E+03  0.14016083143E+04  0.10100000352E+00 0.  1.
       -3    1    3    3    0  502  0.13684664166E+04 -0.19897493096E+03 -0.67331362029E+03  0.15380645623E+04  0.10100000352E+00 0. -1.
</event>
<event>
 5   0  0.1330962E-05  0.2911372E+04  0.7818609E-02  0.8269502E-01
        2   -1    0    0  501    0  0.00000000000E+00  0.00000000000E+00  0.17087433628E+04  0.17087433628E+04  0.25500000920E-02 0.  1.
       -2   -1    0    0    0  501  0.00000000000E+00  0.00000000000E+00 -0.12401049432E+04  0.12401049432E+04  0.25500000920E-02 0. -1.
    10030    2    1    2    0    0  0.00000000000E+00  0.00000000000E+00  0.46863841962E+03  0.29488483060E+04  0.29113715606E+04 0.  0.
        4    1    3    3  502    0  0.13047788955E+04  0.51706359257E+03 -0.15693911363E+03  0.14122443922E+04  0.12699999809E+01 0. -1.
       -4    1    3    3    0  502 -0.13047788955E+04 -0.51706359257E+03  0.62557753325E+03  0.15366039138E+04  0.12699999809E+01 0.  1.
</event>
<event>
 5   0  0.5281919E-06  0.2557664E+04  0.7818609E-02  0.8382726E-01
       -1   -1    0    0    0  501  0.00000000000E+00  0.00000000000E+00  0.11719254381E+04  0.11719254381E+04  0.50400001928E-02 0.  1.
        1   -1    0    0  501    0  0.00000000000E+00  0.00000000000E+00 -0.13954910037E+04  0.13954910037E+04  0.50400001928E-02 0. -1.
    10030    2    1    2    0    0  0.00000000000E+00  0.00000000000E+00 -0.22356556562E+03  0.25674164418E+04  0.25576640951E+04 0.  0.
        4    1    3    3  502    0 -0.30350533658E+03 -0.51309353722E+03 -0.12474805476E+04  0.13826025448E+04  0.12699999809E+01 0. -1.
       -4    1    3    3    0  502  0.30350533658E+03  0.51309353722E+03  0.10239149820E+04  0.11848138970E+04  0.12699999809E+01 0.  1.
</event>
<event>
 5   0  0.1302063E-05  0.2212018E+04  0.7818609E-02  0.8513442E-01
        2   -1    0    0  501    0  0.00000000000E+00  0.00000000000E+00  0.24245065010E+04  0.24245065010E+04  0.25500000920E-02 0.  1.
       -2   -1    0    0    0  501  0.00000000000E+00  0.00000000000E+00 -0.50453818961E+03  0.50453818962E+03  0.25500000920E-02 0. -1.
    10030    2    1    2    0    0  0.00000000000E+00  0.00000000000E+00  0.19199683114E+04  0.29290446907E+04  0.22120181923E+04 0.  0.
        2    1    3    3  502    0 -0.16894825222E+02 -0.11015965443E+04  0.10887453645E+04  0.15489244172E+04  0.25500000920E-02 0. -1.
       -2    1    3    3    0  502  0.16894825222E+02  0.11015965443E+04  0.83122294692E+03  0.13801202734E+04  0.25500000920E-02 0.  1.
</event>
<event>
 5   0  0.5023691E-06  0.2280828E+04  0.7818609E-02  0.8485519E-01
       -1   -1    0    0    0  501  0.00000000000E+00  0.00000000000E+00  0.74456456275E+03  0.74456456277E+03  0.50400001928E-02 0. -1.
        1   -1    0    0  501    0  0.00000000000E+00  0.00000000000E+00 -0.17467174816E+04  0.17467174816E+04  0.50400001928E-02 0.  1.
    10030    2    1    2    0    0  0.00000000000E+00  0.00000000000E+00 -0.10021529188E+04  0.24912820443E+04  0.22808278654E+04 0.  0.
        5    1    3    3  502    0  0.49240348386E+03 -0.51121542129E+03  0.47387523294E+03  0.85345311779E+03  0.46999998093E+01 0. -1.
       -5    1    3    3    0  502 -0.49240348386E+03  0.51121542129E+03 -0.14760281517E+04  0.16378289265E+04  0.46999998093E+01 0.  1.
</event>
<event>
 5   0  0.1350863E-05  0.2813602E+04  0.7818609E-02  0.8299058E-01
       -2   -1    0    0    0  501  0.00000000000E+00  0.00000000000E+00  0.17259045082E+04  0.17259045082E+04  0.25500000920E-02 0. -1.
        2   -1    0    0  501    0  0.00000000000E+00  0.00000000000E+00 -0.11466964049E+04  0.11466964049E+04  0.25500000920E-02 0.  1.
    10030    2    1    2    0    0  0.00000000000E+00  0.00000000000E+00  0.57920810328E+03  0.28726009130E+04  0.28136016027E+04 0.  0.
        3    1    3    3  502    0  0.11787240076E+04  0.56394080824E+03  0.82175238239E+03  0.15435985584E+04  0.10100000352E+00 0.  1.
       -3    1    3    3    0  502 -0.11787240076E+04 -0.56394080824E+03 -0.24254427911E+03  0.13290023547E+04  0.10100000352E+00 0. -1.
</event>
<event>
 5   0  0.5107453E-06  0.2810414E+04  0.7818609E-02  0.8300042E-01
        1   -1    0    0  501    0  0.00000000000E+00  0.00000000000E+00  0.17877540407E+04  0.17877540407E+04  0.50400001928E-02 0. -1.
       -1   -1    0    0    0  501  0.00000000000E+00  0.00000000000E+00 -0.11045184198E+04  0.11045184198E+04  0.50400001928E-02 0.  1.
    10030    2    1    2    0    0  0.00000000000E+00  0.00000000000E+00  0.68323562088E+03  0.28922724605E+04  0.28104143951E+04 0.  0.
        2    1    3    3  502    0  0.82533086331E+03 -0.92482268374E+03  0.10228182433E+04  0.16070548183E+04  0.25500000920E-02 0. -1.
       -2    1    3    3    0  502 -0.82533086331E+03  0.92482268374E+03 -0.33958262241E+03  0.12852176422E+04  0.25500000920E-02 0.  1.
</event>
<event>
 5   0  0.1302063E-05  0.2770457E+04  0.7818609E-02  0.8312499E-01
       -2   -1    0    0    0  501  0.00000000000E+00  0.00000000000E+00  0.29015182780E+04  0.29015182780E+04  0.25500000920E-02 0.  1.
        2   -1    0    0  501    0  0.00000000000E+00  0.00000000000E+00 -0.66132909697E+03  0.66132909698E+03  0.25500000920E-02 0. -1.
    10030    2    1    2    0    0  0.00000000000E+00  0.00000000000E+00  0.22401891810E+04  0.35628473750E+04  0.27704573360E+04 0.  0.
        2    1    3    3  502    0  0.10102724822E+04 -0.18028342743E+03  0.23166448094E+04  0.25337710583E+04  0.25500000920E-02 0.  1.
       -2    1    3    3    0  502 -0.10102724822E+04  0.18028342743E+03 -0.76455628405E+02  0.10290763167E+04  0.25500000920E-02 0. -1.
</event>
<event>
 5   0  0.1388269E-05  0.2130360E+04  0.7818609E-02  0.8547986E-01
        2   -1    0    0  501    0  0.00000000000E+00  0.00000000000E+00  0.15859517690E+04  0.15859517690E+04  0.25500000920E-02 0. -1.
       -2   -1    0    0    0  501  0.00000000000E+00  0.00000000000E+00 -0.71541170702E+03  0.71541170702E+03  0.25500000920E-02 0.  1.
    10030    2    1    2    0    0  0.00000000000E+00  0.00000000000E+00  0.87054006199E+03  0.23013634760E+04  0.21303600281E+04 0.  0.
        1    1    3    3  502    0 -0.56014670426E+02  0.98912937343E+03  0.12590558184E+02  0.99079416776E+03  0.50400001928E-02 0.  1.
       -1    1    3    3    0  502  0.56014670426E+02 -0.98912937343E+03  0.85794950381E+03  0.13105693083E+04  0.50400001928E-02 0. -1.
</event>
<event>
 5   0  0.4764214E-06  0.2821481E+04  0.7818609E-02  0.8296630E-01
        1   -1    0    0  501    0  0.00000000000E+00  0.00000000000E+00  0.18255638944E+04  0.18255638944E+04  0.50400001928E-02 0. -1.
       -1   -1    0    0    0  501  0.00000000000E+00  0.00000000000E+00 -0.10901778570E+04  0.10901778570E+04  0.50400001928E-02 0.  1.
    10030    2    1    2    0    0  0.00000000000E+00  0.00000000000E+00  0.73538603743E+03  0.29157417515E+04  0.28214814083E+04 0.  0.
        3    1    3    3  502    0  0.94555776303E+03  0.10461947117E+04  0.40885414617E+03  0.14682522198E+04  0.10100000352E+00 0. -1.
       -3    1    3    3    0  502 -0.94555776303E+03 -0.10461947117E+04  0.32653189126E+03  0.14474895316E+04  0.10100000352E+00 0.  1.
</event>
<event>
 5   0  0.5281919E-06  0.2793339E+04  0.7818609E-02  0.8305339E-01
       -1   -1    0    0    0  501  0.00000000000E+00  0.00000000000E+00  0.17125967085E+04  0.17125967085E+04  0.50400001928E-02 0.  1.
        1   -1    0    0  501    0  0.00000000000E+00  0.00000000000E+00 -0.11390218260E+04  0.11390218260E+04  0.50400001928E-02 0. -1.
    10030    2    1    2    0    0  0.00000000000E+00  0.00000000000E+00  0.57357488252E+03  0.28516185345E+04  0.27933385260E+04 0.  0.
        4    1    3    3  502    0 -0.22699956257E+03 -0.85290894385E+03  0.13918229877E+04  0.16480762451E+04  0.12699999809E+01 0.  1.
       -4    1    3    3    0  502  0.22699956257E+03  0.85290894385E+03 -0.81824810514E+03  0.12035422894E+04  0.12699999809E+01 0. -1.
</event>
<event>
 5   0  0.1302063E-05  0.2926735E+04  0.7818609E-02  0.8264967E-01
        2   -1    0    0  501    0  0.00000000000E+00  0.00000000000E+00  0.18837317812E+04  0.18837317812E+04  0.25500000920E-02 0. -1.
       -2   -1    0    0    0  501  0.00000000000E+00  0.00000000000E+00 -0.11368093686E+04  0.11368093686E+04  0.25500000920E-02 0.  1.
    10030    2    1    2    0    0  0.00000000000E+00  0.00000000000E+00  0.74692241262E+03  0.30205411498E+04  0.29267346561E+04 0.  0.
        2    1    3    3  502    0  0.81929503086E+03 -0.31037069679E+03  0.15831514180E+04  0.18094039708E+04  0.25500000920E-02 0. -1.
       -2    1    3    3    0  502 -0.81929503086E+03  0.31037069679E+03 -0.83622900541E+03  0.12111371791E+04  0.25500000920E-02 0.  1.
</event>
<event>
 5   0  0.1330962E-05  0.2782373E+04  0.7818609E-02  0.8308762E-01
        2   -1    0    0  501    0  0.00000000000E+00  0.00000000000E+00  0.16037547094E+04  0.16037547094E+04  0.25500000920E-02 0.  1.
       -2   -1    0    0    0  501  0.00000000000E+00  0.00000000000E+00 -0.12067930196E+04  0.12067930196E+04  0.25500000920E-02 0. -1.
    10030    2    1    2    0    0  0.00000000000E+00  0.00000000000E+00  0.39696168984E+03  0.28105477290E+04  0.27823730795E+04 0.  0.
        4    1    3    3  502    0  0.11218471472E+04  0.81188521207E+03  0.64093230257E+02  0.13862929612E+04  0.12699999809E+01 0. -1.
       -4    1    3    3    0  502 -0.11218471472E+04 -0.81188521207E+03  0.33286845958E+03  0.14242547678E+04  0.12699999809E+01 0.  1.
</event>
<event>
 5   0  0.1350863E-05  0.2739544E+04  0.7818609E-02  0.8322287E-01
        2   -1    0    0  501    0  0.00000000000E+00  0.00000000000E+00  0.16662409938E+04  0.16662409938E+04  0.25500000920E-02 0.  1.
       -2   -1    0    0    0  501  0.00000000000E+00  0.00000000000E+00 -0.11260524877E+04  0.11260524877E+04  0.25500000920E-02 0. -1.
    10030    2    1    2    0    0  0.00000000000E+00  0.00000000000E+00  0.54018850602E+03  0.27922934815E+04  0.27395436234E+04 0.  0.
        3    1    3    3  502    0 -0.12410326017E+04 -0.56399786321E+02  0.85820698342E+03  0.15099212202E+04  0.10100000352E+00 0.  1.
       -3    1    3    3    0  502  0.12410326017E+04  0.56399786321E+02 -0.31801847740E+03  0.12823722613E+04  0.10100000352E+00 0. -1.
</event>
<event>
 5   0  0.1283052E-05  0.2714784E+04  0.7818609E-02  0.8330224E-01
       -2   -1    0    0    0  501  0.00000000000E+00  0.00000000000E+00  0.17932062809E+04  0.17932062809E+04  0.25500000920E-02 0. -1.
        2   -1    0    0  501    0  0.00000000000E+00  0.00000000000E+00 -0.10274962065E+04  0.10274962065E+04  0.25500000920E-02 0.  1.
    10030    2    1    2    0    0  0.00000000000E+00  0.00000000000E+00  0.76571007437E+03  0.28207024874E+04  0.27147837123E+04 0.  0.
        5    1    3    3  502    0 -0.12936024910E+03  0.12333167541E+03 -0.10152081568E+04  0.10308319300E+04  0.46999998093E+01 0.  1.
       -5    1    3    3    0  502  0.12936024910E+03 -0.12333167541E+03  0.17809182312E+04  0.17898705575E+04  0.46999998093E+01 0. -1.
</event>
<event>
 5   0  0.5281919E-06  0.2679732E+04  0.7818609E-02  0.8341611E-01
       -1   -1    0    0    0  501  0.00000000000E+00  0.00000000000E+00  0.15143406729E+04  0.15143406729E+04  0.50400001928E-02 0.  1.
        1   -1    0    0  501    0  0.00000000000E+00  0.00000000000E+00 -0.11854936702E+04  0.11854936702E+04  0.50400001928E-02 0. -1.
    10030    2    1    2    0    0  0.00000000000E+00  0.00000000000E+00  0.32884700277E+03  0.26998343431E+04  0.26797322868E+04 0.  0.
        4    1    3    3  502    0 -0.12076472072E+04 -0.28935483350E+03  0.67128956671E+03  0.14116548062E+04  0.12699999809E+01 0.  1.
       -4    1    3    3    0  502  0.12076472072E+04  0.28935483350E+03 -0.34244256394E+03  0.12881795369E+04  0.12699999809E+01 0. -1.
</event>
<event>
 5   0  0.5023691E-06  0.2844270E+04  0.7818609E-02  0.8289655E-01
        1   -1    0    0  501    0  0.00000000000E+00  0.00000000000E+00  0.16019713235E+04  0.16019713235E+04  0.50400001928E-02 0. -1.
       -1   -1    0    0    0  501  0.00000000000E+00  0.00000000000E+00 -0.12624868712E+04  0.12624868712E+04  0.50400001928E-02 0.  1.
    10030    2    1    2    0    0  0.00000000000E+00  0.00000000000E+00  0.33948445229E+03  0.28644581947E+04  0.28442698634E+04 0.  0.
        5    1    3    3  502    0 -0.12527382629E+04  0.65772369414E+03  0.25575675434E+02  0.14151430381E+04  0.46999998093E+01 0.  1.
       -5    1    3    3    0  502  0.12527382629E+04 -0.65772369414E+03  0.31390877686E+03  0.14493151566E+04  0.46999998093E+01 0. -1.
</event>
<event>
 5   0  0.5217999E-06  0.2866991E+04  0.7818609E-02  0.8282767E-01
       -1   -1    0    0    0  501  0.00000000000E+00  0.00000000000E+00  0.95585126092E+03  0.95585126094E+03  0.50400001928E-02 0. -1.
        1   -1    0    0  501    0  0.00000000000E+00  0.00000000000E+00 -0.21498217965E+04  0.21498217965E+04  0.50400001928E-02 0.  1.
    10030    2    1    2    0    0  0.00000000000E+00  0.00000000000E+00 -0.11939705356E+04  0.31056730575E+04  0.28669913673E+04 0.  0.
        1    1    3    3  502    0 -0.14289460500E+04  0.67102908998E+02 -0.49699544680E+03  0.15143956182E+04  0.50400001928E-02 0. -1.
       -1    1    3    3    0  502  0.14289460500E+04 -0.67102908998E+02 -0.69697508880E+03  0.15912774393E+04  0.50400001928E-02 0.  1.
</event>
<event>
 5   0  0.1330962E-05  0.2768863E+04  0.7818609E-02  0.8313001E-01
       -2   -1    0    0    0  501  0.00000000000E+00  0.00000000000E+00  0.14523864695E+04  0.14523864695E+04  0.25500000920E-02 0.  1.
        2   -1    0    0  501    0  0.00000000000E+00  0.00000000000E+00 -0.13196561994E+04  0.13196561994E+04  0.25500000920E-02 0. -1.
    10030    2    1    2    0    0  0.00000000000E+00  0.00000000000E+00  0.13273027010E+03  0.27720426689E+04  0.27688631663E+04 0.  0.
        4    1    3    3  502    0 -0.22601546823E+02  0.77335556643E+03  0.12157512074E+04  0.14410559577E+04  0.12699999809E+01 0.  1.
       -4    1    3    3    0  502  0.22601546823E+02 -0.77335556643E+03 -0.10830209372E+04  0.13309867112E+04  0.12699999809E+01 0. -1.
</event>
<event>
 5   0  0.1330962E-05  0.2786225E+04  0.7818609E-02  0.8307558E-01
       -2   -1    0    0    0  501  0.00000000000E+00  0.00000000000E+00  0.13453871511E+04  0.13453871511E+04  0.25500000920E-02 0. -1.
        2   -1    0    0  501    0  0.00000000000E+00  0.00000000000E+00 -0.14425305844E+04  0.14425305844E+04  0.25500000920E-02 0.  1.
    10030    2    1    2    0    0  0.00000000000E+00  0.00000000000E+00 -0.97143433253E+02  0.27879177355E+04  0.27862247672E+04 0.  0.
        4    1    3    3  502    0 -0.95480440899E+03  0.87084291446E+03  0.47207286065E+03  0.13758172988E+04  0.12699999809E+01 0. -1.
       -4    1    3    3    0  502  0.95480440899E+03 -0.87084291446E+03 -0.56921629390E+03  0.14121004367E+04  0.12699999809E+01 0.  1.
</event>
<event>
 5   0  0.4447500E-06  0.2718425E+04  0.7818609E-02  0.8329051E-01
       -3   -1    0    0    0  501  0.00000000000E+00  0.00000000000E+00  0.98637426602E+03  0.98637427119E+03  0.10100000352E+00 0.  1.
        3   -1    0    0  501    0  0.00000000000E+00  0.00000000000E+00 -0.18729794320E+04  0.18729794347E+04  0.10100000352E+00 0. -1.
    10030    2    1    2    0    0  0.00000000000E+00  0.00000000000E+00 -0.88660516594E+03  0.28593537059E+04  0.27184250762E+04 0.  0.
        2    1    3    3  502    0  0.47895979043E+03 -0.82538351584E+03  0.57475785153E+03  0.11140049448E+04  0.25500000920E-02 0.  1.
       -2    1    3    3    0  502 -0.47895979043E+03  0.82538351584E+03 -0.14613630175E+04  0.17453487611E+04  0.25500000920E-02 0. -1.
</event>
<event>
 5   0  0.1302063E-05  0.2776118E+04  0.7818609E-02  0.8310721E-01
        2   -1    0    0  501    0  0.00000000000E+00  0.00000000000E+00  0.16195860347E+04  0.16195860347E+04  0.25500000920E-02 0. -1.
       -2   -1    0    0    0  501  0.00000000000E+00  0.00000000000E+00 -0.11896294549E+04  0.11896294549E+04  0.25500000920E-02 0.  1.
    10030    2    1    2    0    0  0.00000000000E+00  0.00000000000E+00  0.42995657974E+03  0.28092154896E+04  0.27761176140E+04 0.  0.
        2    1    3    3  502    0  0.98957194718E+02  0.61563307984E+03 -0.10399321810E+04  0.12125409504E+04  0.25500000920E-02 0.  1.
       -2    1    3    3    0  502 -0.98957194718E+02 -0.61563307984E+03  0.14698887607E+04  0.15966745392E+04  0.25500000920E-02 0. -1.
</event>
<event>
 5   0  0.5107453E-06  0.2827390E+04  0.7818609E-02  0.8294815E-01
       -1   -1    0    0    0  501  0.00000000000E+00  0.00000000000E+00  0.80567641167E+03  0.80567641168E+03  0.50400001928E-02 0.  1.
        1   -1    0    0  501    0  0.00000000000E+00  0.00000000000E+00 -0.24805665674E+04  0.24805665674E+04  0.50400001928E-02 0. -1.
    10030    2    1    2    0    0  0.00000000000E+00  0.00000000000E+00 -0.16748901558E+04  0.32862429791E+04  0.28273902957E+04 0.  0.
        2    1    3    3  502    0 -0.12086747967E+04  0.71702024386E+03 -0.10157007796E+04  0.17339725684E+04  0.25500000920E-02 0. -1.
       -2    1    3    3    0  502  0.12086747967E+04 -0.71702024386E+03 -0.65918937620E+03  0.15522704107E+04  0.25500000920E-02 0.  1.
</event>
<event>
 5   0  0.4764214E-06  0.2746028E+04  0.7818609E-02  0.8320223E-01
        1   -1    0    0  501    0  0.00000000000E+00  0.00000000000E+00  0.19338090848E+04  0.19338090848E+04  0.50400001928E-02 0. -1.
       -1   -1    0    0    0  501  0.00000000000E+00  0.00000000000E+00 -0.97484652201E+03  0.97484652203E+03  0.50400001928E-02 0.  1.
    10030    2    1    2    0    0  0.00000000000E+00  0.00000000000E+00  0.95896256283E+03  0.29086556069E+04  0.27460277206E+04 0.  0.
        3    1    3    3  502    0  0.44590653960E+03 -0.32966511627E+03 -0.85095306661E+03  0.10156932917E+04  0.10100000352E+00 0.  1.
       -3    1    3    3    0  502 -0.44590653960E+03  0.32966511627E+03  0.18099156294E+04  0.18929623152E+04  0.10100000352E+00 0. -1.
</event>
<event>
 5   0  0.1283052E-05  0.2241175E+04  0.7818609E-02  0.8501483E-01
        2   -1    0    0  501    0  0.00000000000E+00  0.00000000000E+00  0.51913614219E+03  0.51913614219E+03  0.25500000920E-02 0. -1.
       -2   -1    0    0    0  501  0.00000000000E+00  0.00000000000E+00 -0.24188575765E+04  0.24188575765E+04  0.25500000920E-02 0.  1.
    10030    2    1    2    0    0  0.00000000000E+00  0.00000000000E+00 -0.18997214343E+04  0.29379937187E+04  0.22411750407E+04 0.  0.
        5    1    3    3  502    0 -0.56203813261E+03  0.64032176461E+03  0.43168642112E+01  0.85202086245E+03  0.46999998093E+01 0. -1.
       -5    1    3    3    0  502  0.56203813261E+03 -0.64032176461E+03 -0.19040382986E+04  0.20859728563E+04  0.46999998093E+01 0.  1.
</event>
<event>
 5   0  0.1388269E-05  0.2030941E+04  0.7818609E-02  0.8592290E-01
       -2   -1    0    0    0  501  0.00000000000E+00  0.00000000000E+00  0.15634565871E+04  0.15634565871E+04  0.25500000920E-02 0. -1.
        2   -1    0    0  501    0  0.00000000000E+00  0.00000000000E+00 -0.65955131126E+03  0.65955131127E+03  0.25500000920E-02 0.  1.
    10030    2    1    2    0    0  0.00000000000E+00  0.00000000000E+00  0.90390527588E+03  0.22230078984E+04  0.20309405133E+04 0.  0.
        1    1    3    3  502    0  0.48454883000E+03 -0.84612951944E+03  0.76242719532E+03  0.12377471311E+04  0.50400001928E-02 0. -1.
       -1    1    3    3    0  502 -0.48454883000E+03  0.84612951944E+03  0.14147808056E+03  0.98526076732E+03  0.50400001928E-02 0.  1.
</event>
<event>
 5   0  0.5281919E-06  0.2808260E+04  0.7818609E-02  0.8300709E-01
        1   -1    0    0  501    0  0.00000000000E+00  0.00000000000E+00  0.25150518094E+04  0.25150518094E+04  0.50400001928E-02 0.  1.
       -1   -1    0    0    0  501  0.00000000000E+00  0.00000000000E+00 -0.78391270812E+03  0.78391270814E+03  0.50400001928E-02 0. -1.
    10030    2    1    2    0    0  0.00000000000E+00  0.00000000000E+00  0.17311391013E+04  0.32989645176E+04  0.28082600129E+04 0.  0.
        4    1    3    3  502    0  0.65239761508E+02  0.13841983171E+04  0.11316887857E+04  0.17891289300E+04  0.12699999809E+01 0.  1.
       -4    1    3    3    0  502 -0.65239761508E+02 -0.13841983171E+04  0.59945031556E+03  0.15098355875E+04  0.12699999809E+01 0. -1.
</event>
<event>
 5   0  0.5281919E-06  0.2814413E+04  0.7818609E-02  0.8298807E-01
        1   -1    0    0  501    0  0.00000000000E+00  0.00000000000E+00  0.16964191068E+04  0.16964191068E+04  0.50400001928E-02 0. -1.
       -1   -1    0    0    0  501  0.00000000000E+00  0.00000000000E+00 -0.11673004287E+04  0.11673004287E+04  0.50400001928E-02 0.  1.
    10030    2    1    2    0    0  0.00000000000E+00  0.00000000000E+00  0.52911867818E+03  0.28637195355E+04  0.28144134384E+04 0.  0.
        4    1    3    3  502    0  0.63888329959E+03  0.70524620907E+02 -0.10092037551E+04  0.11965113559E+04  0.12699999809E+01 0.  1.
       -4    1    3    3    0  502 -0.63888329959E+03 -0.70524620907E+02  0.15383224332E+04  0.16672081796E+04  0.12699999809E+01 0. -1.
</event>
<event>
 5   0  0.5023691E-06  0.2795661E+04  0.7818609E-02  0.8304617E-01
        1   -1    0    0  501    0  0.00000000000E+00  0.00000000000E+00  0.14000344270E+04  0.14000344270E+04  0.50400001928E-02 0. -1.
       -1   -1    0    0    0  501  0.00000000000E+00  0.00000000000E+00 -0.13956303315E+04  0.13956303316E+04  0.50400001928E-02 0.  1.
    10030    2    1    2    0    0  0.00000000000E+00  0.00000000000E+00  0.44040954858E+01  0.27956647586E+04  0.27956612896E+04 0.  0.
        5    1    3    3  502    0 -0.38237939843E+03  0.20507538503E+03  0.13309770044E+04  0.13999256388E+04  0.46999998093E+01 0. -1.
       -5    1    3    3    0  502  0.38237939843E+03 -0.20507538503E+03 -0.13265729089E+04  0.13957391198E+04  0.46999998093E+01 0.  1.
</event>
<event>
 5   0  0.1330962E-05  0.2817089E+04  0.7818609E-02  0.8297982E-01
        2   -1    0    0  501    0  0.00000000000E+00  0.00000000000E+00  0.73980177193E+03  0.73980177194E+03  0.25500000920E-02 0.  1.
       -2   -1    0    0    0  501  0.00000000000E+00  0.00000000000E+00 -0.26817966515E+04  0.26817966515E+04  0.25500000920E-02 0. -1.
    10030    2    1    2    0    0  0.00000000000E+00  0.00000000000E+00 -0.19419948796E+04  0.34215984235E+04  0.28170892175E+04 0.  0.
        4    1    3    3  502    0  0.56812299032E+03 -0.12720911367E+04 -0.71908649888E+03  0.15678222469E+04  0.12699999809E+01 0.  1.
       -4    1    3    3    0  502 -0.56812299032E+03  0.12720911367E+04 -0.12229083807E+04  0.18537761765E+04  0.12699999809E+01 0. -1.
</event>
<event>
 5   0  0.5023691E-06  0.2800947E+04  0.7818609E-02  0.8302974E-01
        1   -1    0    0  501    0  0.00000000000E+00  0.00000000000E+00  0.86658710231E+03  0.86658710232E+03  0.50400001928E-02 0.  1.
       -1   -1    0    0    0  501  0.00000000000E+00  0.00000000000E+00 -0.22632764759E+04  0.22632764759E+04  0.50400001928E-02 0. -1.
    10030    2    1    2    0    0  0.00000000000E+00  0.00000000000E+00 -0.13966893735E+04  0.31298635782E+04  0.28009471276E+04 0.  0.
        5    1    3    3  502    0  0.33871534616E+03 -0.10473291417E+04 -0.16658598776E+04  0.19966816568E+04  0.46999998093E+01 0. -1.
       -5    1    3    3    0  502 -0.33871534616E+03  0.10473291417E+04  0.26917050404E+03  0.11331819214E+04  0.46999998093E+01 0.  1.
</event>
<event>
 5   0  0.1350863E-05  0.2858673E+04  0.7818609E-02  0.8285281E-01
        2   -1    0    0  501    0  0.00000000000E+00  0.00000000000E+00  0.23271992271E+04  0.23271992271E+04  0.25500000920E-02 0. -1.
       -2   -1    0    0    0  501  0.00000000000E+00  0.00000000000E+00 -0.87788020091E+03  0.87788020091E+03  0.25500000920E-02 0.  1.
    10030    2    1    2    0    0  0.00000000000E+00  0.00000000000E+00  0.14493190262E+04  0.32050794281E+04  0.28586725067E+04 0.  0.
        3    1    3    3  502    0  0.22599932953E+03 -0.12588053038E+04  0.14402269831E+04  0.19261153296E+04  0.10100000352E+00 0. -1.
       -3    1    3    3    0  502 -0.22599932953E+03  0.12588053038E+04  0.90920431637E+01  0.12789640985E+04  0.10100000352E+00 0.  1.
</event>
<event>
 5   0  0.1350863E-05  0.2747331E+04  0.7818609E-02  0.8319809E-01
        2   -1    0    0  501    0  0.00000000000E+00  0.00000000000E+00  0.15889327831E+04  0.15889327831E+04  0.25500000920E-02 0.  1.
       -2   -1    0    0    0  501  0.00000000000E+00  0.00000000000E+00 -0.11875621945E+04  0.11875621945E+04  0.25500000920E-02 0. -1.
    10030    2    1    2    0    0  0.00000000000E+00  0.00000000000E+00  0.40137058857E+03  0.27764949776E+04  0.27473307066E+04 0.  0.
        3    1    3    3  502    0 -0.11286922947E+04  0.27552745074E+03  0.94133257748E+03  0.14953155867E+04  0.10100000352E+00 0.  1.
       -3    1    3    3    0  502  0.11286922947E+04 -0.27552745074E+03 -0.53996198891E+03  0.12811793909E+04  0.10100000352E+00 0. -1.
</event>
<event>
 5   0  0.4447500E-06  0.2845353E+04  0.7818609E-02  0.8289325E-01
        3   -1    0    0  501    0  0.00000000000E+00  0.00000000000E+00  0.10812271012E+04  0.10812271060E+04  0.10100000352E+00 0.  1.
       -3   -1    0    0    0  501  0.00000000000E+00  0.00000000000E+00 -0.18719554104E+04  0.18719554131E+04  0.10100000352E+00 0. -1.
    10030    2    1    2    0    0  0.00000000000E+00  0.00000000000E+00 -0.79072830917E+03  0.29531825191E+04  0.28453533580E+04 0.  0.
        1    1    3    3  502    0 -0.10755222189E+04  0.77116929020E+02 -0.13586048022E+04  0.17345034081E+04  0.50400001928E-02 0. -1.
       -1    1    3    3    0  502  0.10755222189E+04 -0.77116929020E+02  0.56787649308E+03  0.12186791110E+04  0.50400001928E-02 0.  1.
</event>
<event>
 5   0  0.5023691E-06  0.2803318E+04  0.7818609E-02  0.8302239E-01
       -1   -1    0    0    0  501  0.00000000000E+00  0.00000000000E+00  0.11695408991E+04  0.11695408991E+04  0.50400001928E-02 0.  1.
        1   -1    0    0  501    0  0.00000000000E+00  0.00000000000E+00 -0.16798458159E+04  0.16798458159E+04  0.50400001928E-02 0. -1.
    10030    2    1    2    0    0  0.00000000000E+00  0.00000000000E+00 -0.51030491684E+03  0.28493867150E+04  0.28033183094E+04 0.  0.
        5    1    3    3  502    0 -0.61531209145E+03 -0.93180043477E+03  0.60598048452E+03  0.12704705655E+04  0.46999998093E+01 0.  1.
       -5    1    3    3    0  502  0.61531209145E+03  0.93180043477E+03 -0.11162854014E+04  0.15789161496E+04  0.46999998093E+01 0. -1.
</event>
<event>
 5   0  0.1350863E-05  0.2744555E+04  0.7818609E-02  0.8320691E-01
       -2   -1    0    0    0  501  0.00000000000E+00  0.00000000000E+00  0.87167245320E+03  0.87167245320E+03  0.25500000920E-02 0. -1.
        2   -1    0    0  501    0  0.00000000000E+00  0.00000000000E+00 -0.21603827674E+04  0.21603827674E+04  0.25500000920E-02 0.  1.
    10030    2    1    2    0    0  0.00000000000E+00  0.00000000000E+00 -0.12887103142E+04  0.30320552206E+04  0.27445554443E+04 0.  0.
        3    1    3    3  502    0 -0.10629611762E+04 -0.59596602184E+03  0.52676583207E+02  0.12197691560E+04  0.10100000352E+00 0. -1.
       -3    1    3    3    0  502  0.10629611762E+04  0.59596602184E+03 -0.13413868974E+04  0.18122860646E+04  0.10100000352E+00 0.  1.
</event>
<event>
 5   0  0.4447500E-06  0.2807467E+04  0.7818609E-02  0.8300954E-01
       -3   -1    0    0    0  501  0.00000000000E+00  0.00000000000E+00  0.10364579597E+04  0.10364579646E+04  0.10100000352E+00 0.  1.
        3   -1    0    0  501    0  0.00000000000E+00  0.00000000000E+00 -0.19011554607E+04  0.19011554634E+04  0.10100000352E+00 0. -1.
    10030    2    1    2    0    0  0.00000000000E+00  0.00000000000E+00 -0.86469750102E+03  0.29376134280E+04  0.28074669872E+04 0.  0.
        5    1    3    3  502    0  0.73153708223E+02 -0.86670677071E+03 -0.15852015654E+04  0.18081532525E+04  0.46999998093E+01 0. -1.
       -5    1    3    3    0  502 -0.73153708223E+02  0.86670677071E+03  0.72050406437E+03  0.11294601756E+04  0.46999998093E+01 0.  1.
</event>
<event>
 5   0  0.1302063E-05  0.2803029E+04  0.7818609E-02  0.8302328E-01
        2   -1    0    0  501    0  0.00000000000E+00  0.00000000000E+00  0.24458699580E+04  0.24458699580E+04  0.25500000920E-02 0. -1.
       -2   -1    0    0    0  501  0.00000000000E+00  0.00000000000E+00 -0.80308582298E+03  0.80308582298E+03  0.25500000920E-02 0.  1.
    10030    2    1    2    0    0  0.00000000000E+00  0.00000000000E+00  0.16427841350E+04  0.32489557810E+04  0.28030294241E+04 0.  0.
        2    1    3    3  502    0  0.42040711958E+03  0.10563839160E+04 -0.12846166070E+03  0.11441990746E+04  0.25500000920E-02 0.  1.
       -2    1    3    3    0  502 -0.42040711958E+03 -0.10563839160E+04  0.17712457957E+04  0.21047567064E+04  0.25500000920E-02 0. -1.
</event>
<event>
 5   0  0.1388269E-05  0.2530259E+04  0.7818609E-02  0.8392284E-01
       -2   -1    0    0    0  501  0.00000000000E+00  0.00000000000E+00  0.11599073296E+04  0.11599073296E+04  0.25500000920E-02 0. -1.
        2   -1    0    0  501    0  0.00000000000E+00  0.00000000000E+00 -0.13798968388E+04  0.13798968388E+04  0.25500000920E-02 0.  1.
    10030    2    1    2    0    0  0.00000000000E+00  0.00000000000E+00 -0.21998950925E+03  0.25398041684E+04  0.25302588463E+04 0.  0.
        1    1    3    3  502    0  0.12618248275E+04 -0.90257400817E+02 -0.12433723992E+03  0.12711443832E+04  0.50400001928E-02 0.  1.
       -1    1    3    3    0  502 -0.12618248275E+04  0.90257400817E+02 -0.95652269325E+02  0.12686597851E+04  0.50400001928E-02 0. -1.
</event>
<event>
 5   0  0.5217999E-06  0.2770018E+04  0.7818609E-02  0.8312638E-01
        1   -1    0    0  501    0  0.00000000000E+00  0.00000000000E+00  0.82440586371E+03  0.82440586373E+03  0.50400001928E-02 0.  1.
       -1   -1    0    0    0  501  0.00000000000E+00  0.00000000000E+00 -0.23268265770E+04  0.23268265770E+04  0.50400001928E-02 0. -1.
    10030    2    1    2    0    0  0.00000000000E+00  0.00000000000E+00 -0.15024207133E+04  0.31512324407E+04  0.27700176707E+04 0.  0.
        1    1    3    3  502    0  0.23371155773E+03  0.10372768397E+04  0.25844749108E+03  0.10942392060E+04  0.50400001928E-02 0.  1.
       -1    1    3    3    0  502 -0.23371155773E+03 -0.10372768397E+04 -0.17608682044E+04  0.20569932347E+04  0.50400001928E-02 0. -1.
</event>
<event>
 5   0  0.1330962E-05  0.2831749E+04  0.7818609E-02  0.8293479E-01
       -2   -1    0    0    0  501  0.00000000000E+00  0.00000000000E+00  0.13388147745E+04  0.13388147745E+04  0.25500000920E-02 0. -1.
        2   -1    0    0  501    0  0.00000000000E+00  0.00000000000E+00 -0.14973697171E+04  0.14973697171E+04  0.25500000920E-02 0.  1.
    10030    2    1    2    0    0  0.00000000000E+00  0.00000000000E+00 -0.15855494265E+03  0.28361844916E+04  0.28317490709E+04 0.  0.
        4    1    3    3  502    0  0.14297082912E+03 -0.71474815889E+03  0.11364579934E+04  0.13501273911E+04  0.12699999809E+01 0. -1.
       -4    1    3    3    0  502 -0.14297082912E+03  0.71474815889E+03 -0.12950129360E+04  0.14860571005E+04  0.12699999809E+01 0.  1.
</event>
<event>
 5   0  0.1330962E-05  0.2771094E+04  0.7818609E-02  0.8312299E-01
        2   -1    0    0  501    0  0.00000000000E+00  0.00000000000E+00  0.22924937177E+04  0.22924937177E+04  0.25500000920E-02 0. -1.
       -2   -1    0    0    0  501  0.00000000000E+00  0.00000000000E+00 -0.83740300261E+03  0.83740300261E+03  0.25500000920E-02 0.  1.
    10030    2    1    2    0    0  0.00000000000E+00  0.00000000000E+00  0.14550907151E+04  0.31298967204E+04  0.27710944572E+04 0.  0.
        4    1    3    3  502    0 -0.47523575614E+03  0.12998787224E+04  0.80079451406E+03  0.15990019335E+04  0.12699999809E+01 0.  1.
       -4    1    3    3    0  502  0.47523575614E+03 -0.12998787224E+04  0.65429620107E+03  0.15308947868E+04  0.12699999809E+01 0. -1.
</event>
<event>
 5   0  0.1283052E-05  0.2802503E+04  0.7818609E-02  0.8302492E-01
       -2   -1    0    0    0  501  0.00000000000E+00  0.00000000000E+00  0.12743587961E+04  0.12743587961E+04  0.25500000920E-02 0.  1.
        2   -1    0    0  501    0  0.00000000000E+00  0.00000000000E+00 -0.15407794585E+04  0.15407794585E+04  0.25500000920E-02 0. -1.
    10030    2    1    2    0    0  0.00000000000E+00  0.00000000000E+00 -0.26642066240E+03  0.28151382546E+04  0.28025030639E+04 0.  0.
        5    1    3    3  502    0  0.10214504767E+04 -0.35012182458E+03  0.76386550937E+03  0.13226711514E+04  0.46999998093E+01 0.  1.
       -5    1    3    3    0  502 -0.10214504767E+04  0.35012182458E+03 -0.10302861718E+04  0.14924671032E+04  0.46999998093E+01 0. -1.
</event>
<event>
 5   0  0.5281919E-06  0.2041829E+04  0.7818609E-02  0.8587310E-01
        1   -1    0    0  501    0  0.00000000000E+00  0.00000000000E+00  0.82923232970E+03  0.82923232971E+03  0.50400001928E-02 0.  1.
       -1   -1    0    0    0  501  0.00000000000E+00  0.00000000000E+00 -0.12569056095E+04  0.12569056095E+04  0.50400001928E-02 0. -1.
    10030    2    1    2    0    0  0.00000000000E+00  0.00000000000E+00 -0.42767327982E+03  0.20861379392E+04  0.20418293433E+04 0.  0.
        4    1    3    3  502    0  0.15369676708E+03 -0.10009645771E+04 -0.81754942675E+02  0.10159912718E+04  0.12699999809E+01 0.  1.
       -4    1    3    3    0  502 -0.15369676708E+03  0.10009645771E+04 -0.34591833714E+03  0.10701466674E+04  0.12699999809E+01 0. -1.
</event>
<event>
 5   0  0.5107453E-06  0.2879446E+04  0.7818609E-02  0.8279019E-01
       -1   -1    0    0    0  501  0.00000000000E+00  0.00000000000E+00  0.10683157837E+04  0.10683157837E+04  0.50400001928E-02 0. -1.
        1   -1    0    0  501    0  0.00000000000E+00  0.00000000000E+00 -0.19402524345E+04  0.19402524345E+04  0.50400001928E-02 0.  1.
    10030    2    1    2    0    0  0.00000000000E+00  0.00000000000E+00 -0.87193665076E+03  0.30085682182E+04  0.28794459885E+04 0.  0.
        2    1    3    3  502    0 -0.85812902782E+03 -0.47353906942E+03  0.66592106872E+03  0.11849369386E+04  0.25500000920E-02 0. -1.
       -2    1    3    3    0  502  0.85812902782E+03  0.47353906942E+03 -0.15378577195E+04  0.18236312796E+04  0.25500000920E-02 0.  1.
</event>
<event>
 5   0  0.1350863E-05  0.2785921E+04  0.7818609E-02  0.8307653E-01
        2   -1    0    0  501    0  0.00000000000E+00  0.00000000000E+00  0.17347036875E+04  0.17347036875E+04  0.25500000920E-02 0.  1.
       -2   -1    0    0    0  501  0.00000000000E+00  0.00000000000E+00 -0.11185424133E+04  0.11185424133E+04  0.25500000920E-02 0. -1.
    10030    2    1    2    0    0  0.00000000000E+00  0.00000000000E+00  0.61616127420E+03  0.28532461007E+04  0.27859214984E+04 0.  0.
        3    1    3    3  502    0  0.17235046400E+03 -0.13489329818E+04 -0.89645947728E+00  0.13598991454E+04  0.10100000352E+00 0.  1.
       -3    1    3    3    0  502 -0.17235046400E+03  0.13489329818E+04  0.61705773368E+03  0.14933469553E+04  0.10100000352E+00 0. -1.
</event>
<event>
 5   0  0.1330962E-05  0.2814585E+04  0.7818609E-02  0.8298755E-01
       -2   -1    0    0    0  501  0.00000000000E+00  0.00000000000E+00  0.13297571204E+04  0.13297571204E+04  0.25500000920E-02 0. -1.
        2   -1    0    0  501    0  0.00000000000E+00  0.00000000000E+00 -0.14893486294E+04  0.14893486294E+04  0.25500000920E-02 0.  1.
    10030    2    1    2    0    0  0.00000000000E+00  0.00000000000E+00 -0.15959150901E+03  0.28191057497E+04  0.28145848323E+04 0.  0.
        4    1    3    3  502    0 -0.22967327524E+03  0.12696181030E+04 -0.64265069146E+03  0.14414164787E+04  0.12699999809E+01 0.  1.
       -4    1    3    3    0  502  0.22967327524E+03 -0.12696181030E+04  0.48305918245E+03  0.13776892710E+04  0.12699999809E+01 0. -1.
</event>
<event>
 5   0  0.1330962E-05  0.2813211E+04  0.7818609E-02  0.8299179E-01
        2   -1    0    0  501    0  0.00000000000E+00  0.00000000000E+00  0.14974913872E+04  0.14974913872E+04  0.25500000920E-02 0.  1.
       -2   -1    0    0    0  501  0.00000000000E+00  0.00000000000E+00 -0.13212358643E+04  0.13212358643E+04  0.25500000920E-02 0. -1.
    10030    2    1    2    0    0  0.00000000000E+00  0.00000000000E+00  0.17625552289E+03  0.28187272515E+04  0.28132112095E+04 0.  0.
        4    1    3    3  502    0  0.70547091899E+03  0.81437135715E+03 -0.81788402712E+03  0.13527105454E+04  0.12699999809E+01 0. -1.
       -4    1    3    3    0  502 -0.70547091899E+03 -0.81437135715E+03  0.99413955001E+03  0.14660167061E+04  0.12699999809E+01 0.  1.
</event>
<event>
 5   0  0.4764214E-06  0.2694937E+04  0.7818609E-02  0.8336650E-01
        1   -1    0    0  501    0  0.00000000000E+00  0.00000000000E+00  0.10303813000E+04  0.10303813001E+04  0.50400001928E-02 0.  1.
       -1   -1    0    0    0  501  0.00000000000E+00  0.00000000000E+00 -0.17621348278E+04  0.17621348278E+04  0.50400001928E-02 0. -1.
    10030    2    1    2    0    0  0.00000000000E+00  0.00000000000E+00 -0.73175352777E+03  0.27925161279E+04  0.26949365668E+04 0.  0.
        3    1    3    3  502    0  0.13805956810E+03 -0.93297042033E+03 -0.13631037557E+04  0.16575723539E+04  0.10100000352E+00 0. -1.
       -3    1    3    3    0  502 -0.13805956810E+03  0.93297042033E+03  0.63135022791E+03  0.11349437740E+04  0.10100000352E+00 0.  1.
</event>
<event>
 5   0  0.5217999E-06  0.2809282E+04  0.7818609E-02  0.8300392E-01
       -1   -1    0    0    0  501  0.00000000000E+00  0.00000000000E+00  0.99843887678E+03  0.99843887679E+03  0.50400001928E-02 0.  1.
        1   -1    0    0  501    0  0.00000000000E+00  0.00000000000E+00 -0.19761019572E+04  0.19761019572E+04  0.50400001928E-02 0. -1.
    10030    2    1    2    0    0  0.00000000000E+00  0.00000000000E+00 -0.97766308038E+03  0.29745408340E+04  0.28092824839E+04 0.  0.
        1    1    3    3  502    0  0.59126480151E+03  0.11654799355E+04 -0.10339772179E+04  0.16664472487E+04  0.50400001928E-02 0. -1.
       -1    1    3    3    0  502 -0.59126480151E+03 -0.11654799355E+04  0.56314137565E+02  0.13080935852E+04  0.50400001928E-02 0.  1.
</event>
<event>
 5   0  0.5281919E-06  0.2727519E+04  0.7818609E-02  0.8326131E-01
       -1   -1    0    0    0  501  0.00000000000E+00  0.00000000000E+00  0.91242934998E+03  0.91242935000E+03  0.50400001928E-02 0. -1.
        1   -1    0    0  501    0  0.00000000000E+00  0.00000000000E+00 -0.20383389334E+04  0.20383389334E+04  0.50400001928E-02 0.  1.
    10030    2    1    2    0    0  0.00000000000E+00  0.00000000000E+00 -0.11259095834E+04  0.29507682834E+04  0.27275192158E+04 0.  0.
        4    1    3    3  502    0 -0.54962835855E+03  0.36790252296E+03  0.72730571694E+03  0.98306602917E+03  0.12699999809E+01 0. -1.
       -4    1    3    3    0  502  0.54962835855E+03 -0.36790252296E+03 -0.18532153004E+04  0.19677022542E+04  0.12699999809E+01 0.  1.
</event>
<event>
 5   0  0.1388269E-05  0.2807178E+04  0.7818609E-02  0.8301043E-01
       -2   -1    0    0    0  501  0.00000000000E+00  0.00000000000E+00  0.11867020480E+04  0.11867020480E+04  0.25500000920E-02 0.  1.
        2   -1    0    0  501    0  0.00000000000E+00  0.00000000000E+00 -0.16601147807E+04  0.16601147807E+04  0.25500000920E-02 0. -1.
    10030    2    1    2    0    0  0.00000000000E+00  0.00000000000E+00 -0.47341273270E+03  0.28468168287E+04  0.28071776647E+04 0.  0.
        1    1    3    3  502    0 -0.13214547578E+03 -0.90848558244E+02 -0.16507941463E+04  0.16585648015E+04  0.50400001928E-02 0. -1.
       -1    1    3    3    0  502  0.13214547578E+03  0.90848558244E+02  0.11773814136E+04  0.11882520273E+04  0.50400001928E-02 0.  1.
</event>
<event>
 5   0  0.1330962E-05  0.2289545E+04  0.7818609E-02  0.8482055E-01
       -2   -1    0    0    0  501  0.00000000000E+00  0.00000000000E+00  0.47010498819E+03  0.47010498819E+03  0.25500000920E-02 0.  1.
        2   -1    0    0  501    0  0.00000000000E+00  0.00000000000E+00 -0.27876845917E+04  0.27876845917E+04  0.25500000920E-02 0. -1.
    10030    2    1    2    0    0  0.00000000000E+00  0.00000000000E+00 -0.23175796036E+04  0.32577895799E+04  0.22895453104E+04 0.  0.
        4    1    3    3  502    0 -0.62144455187E+03  0.69146601625E+03 -0.21092433549E+04  0.23050439748E+04  0.12699999809E+01 0. -1.
       -4    1    3    3    0  502  0.62144455187E+03 -0.69146601625E+03 -0.20833624863E+03  0.95274560512E+03  0.12699999809E+01 0.  1.
</event>
<event>
 5   0  0.5023691E-06  0.2824138E+04  0.7818609E-02  0.8295813E-01
        1   -1    0    0  501    0  0.00000000000E+00  0.00000000000E+00  0.18389105199E+04  0.18389105199E+04  0.50400001928E-02 0.  1.
       -1   -1    0    0    0  501  0.00000000000E+00  0.00000000000E+00 -0.10843047869E+04  0.10843047869E+04  0.50400001928E-02 0. -1.
    10030    2    1    2    0    0  0.00000000000E+00  0.00000000000E+00  0.75460573295E+03  0.29232153068E+04  0.28241384381E+04 0.  0.
        5    1    3    3  502    0 -0.17205159326E+02 -0.64300144431E+03  0.16784511679E+04  0.17974891622E+04  0.46999998093E+01 0.  1.
       -5    1    3    3    0  502  0.17205159326E+02  0.64300144431E+03 -0.92384543500E+03  0.11257261446E+04  0.46999998093E+01 0. -1.
</event>
<event>
 5   0  0.1388269E-05  0.2723629E+04  0.7818609E-02  0.8327379E-01
        2   -1    0    0  501    0  0.00000000000E+00  0.00000000000E+00  0.11368296670E+04  0.11368296670E+04  0.25500000920E-02 0. -1.
       -2   -1    0    0    0  501  0.00000000000E+00  0.00000000000E+00 -0.16313247124E+04  0.16313247124E+04  0.25500000920E-02 0.  1.
    10030    2    1    2    0    0  0.00000000000E+00  0.00000000000E+00 -0.49449504539E+03  0.27681543793E+04  0.27236287041E+04 0.  0.
        1    1    3    3  502    0 -0.56118477980E+03  0.12199938558E+04 -0.47727686400E+03  0.14251689620E+04  0.50400001928E-02 0. -1.
       -1    1    3    3    0  502  0.56118477980E+03 -0.12199938558E+04 -0.17218181389E+02  0.13429854173E+04  0.50400001928E-02 0.  1.
</event>
<event>
 5   0  0.4764214E-06  0.2785887E+04  0.7818609E-02  0.8307663E-01
        1   -1    0    0  501    0  0.00000000000E+00  0.00000000000E+00  0.21746227055E+04  0.21746227055E+04  0.50400001928E-02 0. -1.
       -1   -1    0    0    0  501  0.00000000000E+00  0.00000000000E+00 -0.89224261767E+03  0.89224261768E+03  0.50400001928E-02 0.  1.
    10030    2    1    2    0    0  0.00000000000E+00  0.00000000000E+00  0.12823800878E+04  0.30668653232E+04  0.27858866131E+04 0.  0.
        3    1    3    3  502    0  0.11074755837E+04  0.11562757303E+03  0.15625095614E+04  0.19186735115E+04  0.10100000352E+00 0. -1.
       -3    1    3    3    0  502 -0.11074755837E+04 -0.11562757303E+03 -0.28012947357E+03  0.11481918117E+04  0.10100000352E+00 0.  1.
</event>
<event>
 5   0  0.5023691E-06  0.2758166E+04  0.7818609E-02  0.8316375E-01
       -1   -1    0    0    0  501  0.00000000000E+00  0.00000000000E+00  0.29726484110E+04  0.29726484111E+04  0.50400001928E-02 0.  1.
        1   -1    0    0  501    0  0.00000000000E+00  0.00000000000E+00 -0.63978968370E+03  0.63978968372E+03  0.50400001928E-02 0. -1.
    10030    2    1    2    0    0  0.00000000000E+00  0.00000000000E+00  0.23328587273E+04  0.36124380948E+04  0.27581659027E+04 0.  0.
        5    1    3    3  502    0  0.88527848391E+02 -0.10142998915E+04 -0.51830261686E+02  0.10194851229E+04  0.46999998093E+01 0. -1.
       -5    1    3    3    0  502 -0.88527848391E+02  0.10142998915E+04  0.23846889890E+04  0.25929529719E+04  0.46999998093E+01 0.  1.
</event>
<event>
 5   0  0.5023691E-06  0.2815483E+04  0.7818609E-02  0.8298477E-01
        1   -1    0    0  501    0  0.00000000000E+00  0.00000000000E+00  0.28382764263E+04  0.28382764263E+04  0.50400001928E-02 0.  1.
       -1   -1    0    0    0  501  0.00000000000E+00  0.00000000000E+00 -0.69821833541E+03  0.69821833543E+03  0.50400001928E-02 0. -1.
    10030    2    1    2    0    0  0.00000000000E+00  0.00000000000E+00  0.21400580908E+04  0.35364947617E+04  0.28154833630E+04 0.  0.
        5    1    3    3  502    0  0.10298249293E+04  0.39344105073E+03 -0.29589203146E+02  0.11028294774E+04  0.46999998093E+01 0. -1.
       -5    1    3    3    0  502 -0.10298249293E+04 -0.39344105073E+03  0.21696472940E+04  0.24336652842E+04  0.46999998093E+01 0.  1.
</event>
<event>
 5   0  0.1283052E-05  0.2273258E+04  0.7818609E-02  0.8488540E-01
        2   -1    0    0  501    0  0.00000000000E+00  0.00000000000E+00  0.27574049023E+04  0.27574049023E+04  0.25500000920E-02 0. -1.
       -2   -1    0    0    0  501  0.00000000000E+00  0.00000000000E+00 -0.46852942370E+03  0.46852942371E+03  0.25500000920E-02 0.  1.
    10030    2    1    2    0    0  0.00000000000E+00  0.00000000000E+00  0.22888754786E+04  0.32259343260E+04  0.22732578647E+04 0.  0.
        5    1    3    3  502    0 -0.32863166597E+03  0.99979440658E+03  0.53519848011E+03  0.11806977303E+04  0.46999998093E+01 0.  1.
       -5    1    3    3    0  502  0.32863166597E+03 -0.99979440658E+03  0.17536769985E+04  0.20452365957E+04  0.46999998093E+01 0. -1.
</event>
<event>
 5   0  0.1283052E-05  0.2808424E+04  0.7818609E-02  0.8300658E-01
        2   -1    0    0  501    0  0.00000000000E+00  0.00000000000E+00  0.16854917005E+04  0.16854917005E+04  0.25500000920E-02 0. -1.
       -2   -1    0    0    0  501  0.00000000000E+00  0.00000000000E+00 -0.11698729972E+04  0.11698729972E+04  0.25500000920E-02 0.  1.
    10030    2    1    2    0    0  0.00000000000E+00  0.00000000000E+00  0.51561870336E+03  0.28553646977E+04  0.28084239191E+04 0.  0.
        5    1    3    3  502    0 -0.33458106066E+03 -0.11063063632E+04  0.10685909446E+04  0.15740924218E+04  0.46999998093E+01 0. -1.
       -5    1    3    3    0  502  0.33458106066E+03  0.11063063632E+04 -0.55297224128E+03  0.12812722759E+04  0.46999998093E+01 0.  1.
</event>
<event>
 5   0  0.1302063E-05  0.2654943E+04  0.7818609E-02  0.8349774E-01
       -2   -1    0    0    0  501  0.00000000000E+00  0.00000000000E+00  0.94631187550E+03  0.94631187550E+03  0.25500000920E-02 0.  1.
        2   -1    0    0  501    0  0.00000000000E+00  0.00000000000E+00 -0.18621562855E+04  0.18621562855E+04  0.25500000920E-02 0. -1.
    10030    2    1    2    0    0  0.00000000000E+00  0.00000000000E+00 -0.91584441004E+03  0.28084681610E+04  0.26549430179E+04 0.  0.
        2    1    3    3  502    0 -0.82016346466E+03  0.87775862188E+03  0.13958788044E+03  0.12093854156E+04  0.25500000920E-02 0.  1.
       -2    1    3    3    0  502  0.82016346466E+03 -0.87775862188E+03 -0.10554322905E+04  0.15990827455E+04  0.25500000920E-02 0. -1.
</event>
<event>
 5   0  0.5217999E-06  0.2396061E+04  0.7818609E-02  0.8440980E-01
        1   -1    0    0  501    0  0.00000000000E+00  0.00000000000E+00  0.14874014173E+04  0.14874014173E+04  0.50400001928E-02 0. -1.
       -1   -1    0    0    0  501  0.00000000000E+00  0.00000000000E+00 -0.96495580134E+03  0.96495580136E+03  0.50400001928E-02 0.  1.
    10030    2    1    2    0    0  0.00000000000E+00  0.00000000000E+00  0.52244561598E+03  0.24523572187E+04  0.23960606224E+04 0.  0.
        1    1    3    3  502    0 -0.61895026368E+03  0.65831551859E+03  0.10663422914E+04  0.13976997651E+04  0.50400001928E-02 0. -1.
       -1    1    3    3    0  502  0.61895026368E+03 -0.65831551859E+03 -0.54389667538E+03  0.10546574536E+04  0.50400001928E-02 0.  1.
</event>
<event>
 5   0  0.1283052E-05  0.2750653E+04  0.7818609E-02  0.8318755E-01
       -2   -1    0    0    0  501  0.00000000000E+00  0.00000000000E+00  0.71716442531E+03  0.71716442531E+03  0.25500000920E-02 0. -1.
        2   -1    0    0  501    0  0.00000000000E+00  0.00000000000E+00 -0.26375017446E+04  0.26375017446E+04  0.25500000920E-02 0.  1.
    10030    2    1    2    0    0  0.00000000000E+00  0.00000000000E+00 -0.19203373193E+04  0.33546661699E+04  0.27506525938E+04 0.  0.
        5    1    3    3  502    0 -0.72274664616E+02 -0.66240216133E+03 -0.24274819965E+04  0.25172785273E+04  0.46999998093E+01 0.  1.
       -5    1    3    3    0  502  0.72274664616E+02  0.66240216133E+03  0.50714467720E+03  0.83738764266E+03  0.46999998093E+01 0. -1.
</event>
<event>
 5   0  0.5023691E-06  0.2944444E+04  0.7818609E-02  0.8259775E-01
        1   -1    0    0  501    0  0.00000000000E+00  0.00000000000E+00  0.22223218246E+04  0.22223218246E+04  0.50400001928E-02 0.  1.
       -1   -1    0    0    0  501  0.00000000000E+00  0.00000000000E+00 -0.97530349679E+03  0.97530349681E+03  0.50400001928E-02 0. -1.
    10030    2    1    2    0    0  0.00000000000E+00  0.00000000000E+00  0.12470183278E+04  0.31976253214E+04  0.29444444274E+04 0.  0.
        5    1    3    3  502    0 -0.10783448074E+04  0.75753291023E+03  0.13362440962E+04  0.18767669030E+04  0.46999998093E+01 0.  1.
       -5    1    3    3    0  502  0.10783448074E+04 -0.75753291023E+03 -0.89225768369E+02  0.13208584184E+04  0.46999998093E+01 0. -1.
</event>
<event>
 5   0  0.1350863E-05  0.2808332E+04  0.7818609E-02  0.8300686E-01
        2   -1    0    0  501    0  0.00000000000E+00  0.00000000000E+00  0.11572630256E+04  0.11572630256E+04  0.25500000920E-02 0. -1.
       -2   -1    0    0    0  501  0.00000000000E+00  0.00000000000E+00 -0.17037459045E+04  0.17037459045E+04  0.25500000920E-02 0.  1.
    10030    2    1    2    0    0  0.00000000000E+00  0.00000000000E+00 -0.54648287892E+03  0.28610089301E+04  0.28083319892E+04 0.  0.
        3    1    3    3  502    0 -0.43733784925E+03 -0.89333278563E+03 -0.12829807306E+04  0.16233753188E+04  0.10100000352E+00 0.  1.
       -3    1    3    3    0  502  0.43733784925E+03  0.89333278563E+03  0.73649785169E+03  0.12376336114E+04  0.10100000352E+00 0. -1.
</event>
<event>
 5   0  0.1283052E-05  0.3439322E+04  0.7818609E-02  0.8128322E-01
        2   -1    0    0  501    0  0.00000000000E+00  0.00000000000E+00  0.83633129463E+03  0.83633129464E+03  0.25500000920E-02 0.  1.
       -2   -1    0    0    0  501  0.00000000000E+00  0.00000000000E+00 -0.35359606745E+04  0.35359606745E+04  0.25500000920E-02 0. -1.
    10030    2    1    2    0    0  0.00000000000E+00  0.00000000000E+00 -0.26996293799E+04  0.43722919692E+04  0.34393223569E+04 0.  0.
        5    1    3    3  502    0 -0.11136965169E+04  0.47734171072E+03  0.20146133664E+03  0.12283256086E+04  0.46999998093E+01 0.  1.
       -5    1    3    3    0  502  0.11136965169E+04 -0.47734171072E+03 -0.29010907165E+04  0.31439663605E+04  0.46999998093E+01 0. -1.
</event>
<event>
 5   0  0.5281919E-06  0.2781986E+04  0.7818609E-02  0.8308883E-01
       -1   -1    0    0    0  501  0.00000000000E+00  0.00000000000E+00  0.12269328270E+04  0.12269328270E+04  0.50400001928E-02 0.  1.
        1   -1    0    0  501    0  0.00000000000E+00  0.00000000000E+00 -0.15769902611E+04  0.15769902611E+04  0.50400001928E-02 0. -1.
    10030    2    1    2    0    0  0.00000000000E+00  0.00000000000E+00 -0.35005743408E+03  0.28039230882E+04  0.27819857076E+04 0.  0.
        4    1    3    3  502    0 -0.80052931240E+03 -0.24459804497E+03 -0.12947274321E+04  0.15417509915E+04  0.12699999809E+01 0. -1.
       -4    1    3    3    0  502  0.80052931240E+03  0.24459804497E+03  0.94466999797E+03  0.12621720967E+04  0.12699999809E+01 0.  1.
</event>
<event>
 5   0  0.1350863E-05  0.2771042E+04  0.7818609E-02  0.8312315E-01
        2   -1    0    0  501    0  0.00000000000E+00  0.00000000000E+00  0.14683659082E+04  0.14683659082E+04  0.25500000920E-02 0. -1.
       -2   -1    0    0    0  501  0.00000000000E+00  0.00000000000E+00 -0.13073505304E+04  0.13073505304E+04  0.25500000920E-02 0.  1.
    10030    2    1    2    0    0  0.00000000000E+00  0.00000000000E+00  0.16101537776E+03  0.27757164386E+04  0.27710423663E+04 0.  0.
        3    1    3    3  502    0 -0.38442363548E+03 -0.11869065392E+04  0.68413536018E+03  0.14228738053E+04  0.10100000352E+00 0. -1.
       -3    1    3    3    0  502  0.38442363548E+03  0.11869065392E+04 -0.52311998243E+03  0.13528426334E+04  0.10100000352E+00 0.  1.
</event>
<event>
 5   0  0.1302063E-05  0.2779644E+04  0.7818609E-02  0.8309616E-01
        2   -1    0    0  501    0  0.00000000000E+00  0.00000000000E+00  0.16558323870E+04  0.16558323870E+04  0.25500000920E-02 0.  1.
       -2   -1    0    0    0  501  0.00000000000E+00  0.00000000000E+00 -0.11665463725E+04  0.11665463725E+04  0.25500000920E-02 0. -1.
    10030    2    1    2    0    0  0.00000000000E+00  0.00000000000E+00  0.48928601447E+03  0.28223787595E+04  0.27796440524E+04 0.  0.
        2    1    3    3  502    0  0.21307715546E+03 -0.12981965362E+04 -0.21045438098E+03  0.13322939492E+04  0.25500000920E-02 0. -1.
       -2    1    3    3    0  502 -0.21307715546E+03  0.12981965362E+04  0.69974039545E+03  0.14900848102E+04  0.25500000920E-02 0.  1.
</event>
<event>
 5   0  0.1330962E-05  0.2774161E+04  0.7818609E-02  0.8311335E-01
       -2   -1    0    0    0  501  0.00000000000E+00  0.00000000000E+00  0.10811921898E+04  0.10811921898E+04  0.25500000920E-02 0. -1.
        2   -1    0    0  501    0  0.00000000000E+00  0.00000000000E+00 -0.17795104092E+04  0.17795104092E+04  0.25500000920E-02 0.  1.
    10030    2    1    2    0    0  0.00000000000E+00  0.00000000000E+00 -0.69831821937E+03  0.28607025990E+04  0.27741613192E+04 0.  0.
        4    1    3    3  502    0  0.59015928647E+03  0.44639969416E+03  0.86065358714E+03  0.11350272597E+04  0.12699999809E+01 0. -1.
       -4    1    3    3    0  502 -0.59015928647E+03 -0.44639969416E+03 -0.15589718065E+04  0.17256753393E+04  0.12699999809E+01 0.  1.
</event>
<event>
 5   0  0.1283052E-05  0.2850059E+04  0.7818609E-02  0.8287893E-01
        2   -1    0    0  501    0  0.00000000000E+00  0.00000000000E+00  0.14533675324E+04  0.14533675324E+04  0.25500000920E-02 0.  1.
       -2   -1    0    0    0  501  0.00000000000E+00  0.00000000000E+00 -0.13972442618E+04  0.13972442618E+04  0.25500000920E-02 0. -1.
    10030    2    1    2    0    0  0.00000000000E+00  0.00000000000E+00  0.56123270678E+02  0.28506117942E+04  0.28500592590E+04 0.  0.
        5    1    3    3  502    0  0.23707677938E+03 -0.35820298912E+03  0.13870643841E+04  0.14520621462E+04  0.46999998093E+01 0.  1.
       -5    1    3    3    0  502 -0.23707677938E+03  0.35820298912E+03 -0.13309411134E+04  0.13985496480E+04  0.46999998093E+01 0. -1.
</event>
<event>
 5   0  0.1388269E-05  0.2624981E+04  0.7818609E-02  0.8359765E-01
        2   -1    0    0  501    0  0.00000000000E+00  0.00000000000E+00  0.21639195041E+04  0.21639195041E+04  0.25500000920E-02 0. -1.
       -2   -1    0    0    0  501  0.00000000000E+00  0.00000000000E+00 -0.79606982081E+03  0.79606982081E+03  0.25500000920E-02 0.  1.
    10030    2    1    2    0    0  0.00000000000E+00  0.00000000000E+00  0.13678496833E+04  0.29599893249E+04  0.26249807709E+04 0.  0.
        1    1    3    3  502    0 -0.31125617785E+03 -0.67480180220E+03  0.19038407664E+04  0.20437337264E+04  0.50400001928E-02 0. -1.
       -1    1    3    3    0  502  0.31125617785E+03  0.67480180220E+03 -0.53599108316E+03  0.91625559849E+03  0.50400001928E-02 0.  1.
</event>
<event>
 5   0  0.1388269E-05  0.2754974E+04  0.7818609E-02  0.8317385E-01
        2   -1    0    0  501    0  0.00000000000E+00  0.00000000000E+00  0.16614965276E+04  0.16614965276E+04  0.25500000920E-02 0. -1.
       -2   -1    0    0    0  501  0.00000000000E+00  0.00000000000E+00 -0.11420248127E+04  0.11420248128E+04  0.25500000920E-02 0.  1.
    10030    2    1    2    0    0  0.00000000000E+00  0.00000000000E+00  0.51947171487E+03  0.28035213404E+04  0.27549738734E+04 0.  0.
        1    1    3    3  502    0 -0.82951423132E+03 -0.46445422355E+03 -0.75465422827E+03  0.12138017095E+04  0.50400001928E-02 0. -1.
       -1    1    3    3    0  502  0.82951423132E+03  0.46445422355E+03  0.12741259431E+04  0.15897196309E+04  0.50400001928E-02 0.  1.
</event>
<event>
 5   0  0.5217999E-06  0.2797620E+04  0.7818609E-02  0.8304008E-01
       -1   -1    0    0    0  501  0.00000000000E+00  0.00000000000E+00  0.13099490912E+04  0.13099490912E+04  0.50400001928E-02 0.  1.
        1   -1    0    0  501    0  0.00000000000E+00  0.00000000000E+00 -0.14936992061E+04  0.14936992061E+04  0.50400001928E-02 0. -1.
    10030    2    1    2    0    0  0.00000000000E+00  0.00000000000E+00 -0.18375011494E+03  0.28036482973E+04  0.27976203585E+04 0.  0.
        1    1    3    3  502    0 -0.13366957864E+04 -0.41041264831E+03 -0.53376790624E+02  0.13993009859E+04  0.50400001928E-02 0. -1.
       -1    1    3    3    0  502  0.13366957864E+04  0.41041264831E+03 -0.13037332432E+03  0.14043473114E+04  0.50400001928E-02 0.  1.
</event>
<event>
 5   0  0.5107453E-06  0.2825181E+04  0.7818609E-02  0.8295493E-01
        1   -1    0    0  501    0  0.00000000000E+00  0.00000000000E+00  0.17930570693E+04  0.17930570693E+04  0.50400001928E-02 0. -1.
       -1   -1    0    0    0  501  0.00000000000E+00  0.00000000000E+00 -0.11128547935E+04  0.11128547936E+04  0.50400001928E-02 0.  1.
    10030    2    1    2    0    0  0.00000000000E+00  0.00000000000E+00  0.68020227579E+03  0.29059118629E+04  0.28251811657E+04 0.  0.
        2    1    3    3  502    0 -0.11214663255E+03 -0.42062247796E+03  0.17223442348E+04  0.17765049393E+04  0.25500000920E-02 0. -1.
       -2    1    3    3    0  502  0.11214663255E+03  0.42062247796E+03 -0.10421419591E+04  0.11294069236E+04  0.25500000920E-02 0.  1.
</event>
<event>
 5   0  0.1388269E-05  0.2761010E+04  0.7818609E-02  0.8315477E-01
        2   -1    0    0  501    0  0.00000000000E+00  0.00000000000E+00  0.19075805176E+04  0.19075805176E+04  0.25500000920E-02 0.  1.
       -2   -1    0    0    0  501  0.00000000000E+00  0.00000000000E+00 -0.99906315476E+03  0.99906315476E+03  0.25500000920E-02 0. -1.
    10030    2    1    2    0    0  0.00000000000E+00  0.00000000000E+00  0.90851736280E+03  0.29066436723E+04  0.27610095326E+04 0.  0.
        1    1    3    3  502    0  0.81534398690E+03  0.19671443390E+03 -0.70007748604E+03  0.10925158452E+04  0.50400001928E-02 0. -1.
       -1    1    3    3    0  502 -0.81534398690E+03 -0.19671443390E+03  0.16085948488E+04  0.18141278271E+04  0.50400001928E-02 0.  1.
</event>
<event>
 5   0  0.5023691E-06  0.2806083E+04  0.7818609E-02  0.8301382E-01
        1   -1    0    0  501    0  0.00000000000E+00  0.00000000000E+00  0.20425812954E+04  0.20425812954E+04  0.50400001928E-02 0.  1.
       -1   -1    0    0    0  501  0.00000000000E+00  0.00000000000E+00 -0.96374366855E+03  0.96374366856E+03  0.50400001928E-02 0. -1.
    10030    2    1    2    0    0  0.00000000000E+00  0.00000000000E+00  0.10788376268E+04  0.30063249639E+04  0.28060825297E+04 0.  0.
        5    1    3    3  502    0 -0.11805948229E+04  0.75567276779E+03  0.60420938399E+03  0.15264129643E+04  0.46999998093E+01 0.  1.
       -5    1    3    3    0  502  0.11805948229E+04 -0.75567276779E+03  0.47462824285E+03  0.14799119997E+04  0.46999998093E+01 0. -1.
</event>
<event>
 5   0  0.1283052E-05  0.2799305E+04  0.7818609E-02  0.8303484E-01
        2   -1    0    0  501    0  0.00000000000E+00  0.00000000000E+00  0.84991439793E+03  0.84991439794E+03  0.25500000920E-02 0.  1.
       -2   -1    0    0    0  501  0.00000000000E+00  0.00000000000E+00 -0.23049691735E+04  0.23049691735E+04  0.25500000920E-02 0. -1.
    10030    2    1    2    0    0  0.00000000000E+00  0.00000000000E+00 -0.14550547755E+04  0.31548835714E+04  0.27993045474E+04 0.  0.
        5    1    3    3  502    0  0.20042461359E+03 -0.35695403255E+03  0.78092524307E+03  0.88173268758E+03  0.46999998093E+01 0.  1.
       -5    1    3    3    0  502 -0.20042461359E+03  0.35695403255E+03 -0.22359800186E+04  0.22731508838E+04  0.46999998093E+01 0. -1.
</event>
<event>
 5   0  0.4764214E-06  0.2808216E+04  0.7818609E-02  0.8300722E-01
       -1   -1    0    0    0  501  0.00000000000E+00  0.00000000000E+00  0.95668351156E+03  0.95668351157E+03  0.50400001928E-02 0. -1.
        1   -1    0    0  501    0  0.00000000000E+00  0.00000000000E+00 -0.20607850484E+04  0.20607850484E+04  0.50400001928E-02 0.  1.
    10030    2    1    2    0    0  0.00000000000E+00  0.00000000000E+00 -0.11041015369E+04  0.30174685600E+04  0.28082158583E+04 0.  0.
        3    1    3    3  502    0  0.13323600648E+04 -0.86872020295E+02 -0.85175808481E+02  0.13379032173E+04  0.10100000352E+00 0. -1.
       -3    1    3    3    0  502 -0.13323600648E+04  0.86872020295E+02 -0.10189257284E+04  0.16795653427E+04  0.10100000352E+00 0.  1.
</event>
<event>
 5   0  0.1302063E-05  0.2751337E+04  0.7818609E-02  0.8318538E-01
        2   -1    0    0  501    0  0.00000000000E+00  0.00000000000E+00  0.12765062813E+04  0.12765062813E+04  0.25500000920E-02 0.  1.
       -2   -1    0    0    0  501  0.00000000000E+00  0.00000000000E+00 -0.14825334851E+04  0.14825334851E+04  0.25500000920E-02 0. -1.
    10030    2    1    2    0    0  0.00000000000E+00  0.00000000000E+00 -0.20602720383E+03  0.27590397664E+04  0.27513366250E+04 0.  0.
        2    1    3    3  502    0 -0.46912406896E+03 -0.20125114895E+03  0.11780150932E+04  0.12838609647E+04  0.25500000920E-02 0.  1.
       -2    1    3    3    0  502  0.46912406896E+03  0.20125114895E+03 -0.13840422970E+04  0.14751788017E+04  0.25500000920E-02 0. -1.
</event>
<event>
 5   0  0.5281919E-06  0.2793881E+04  0.7818609E-02  0.8305171E-01
       -1   -1    0    0    0  501  0.00000000000E+00  0.00000000000E+00  0.16088471402E+04  0.16088471402E+04  0.50400001928E-02 0. -1.
        1   -1    0    0  501    0  0.00000000000E+00  0.00000000000E+00 -0.12129449522E+04  0.12129449522E+04  0.50400001928E-02 0.  1.
    10030    2    1    2    0    0  0.00000000000E+00  0.00000000000E+00  0.39590218798E+03  0.28217920924E+04  0.27938811840E+04 0.  0.
        4    1    3    3  502    0 -0.38719310728E+03  0.81918204695E+03 -0.87590326758E+03  0.12602324688E+04  0.12699999809E+01 0.  1.
       -4    1    3    3    0  502  0.38719310728E+03 -0.81918204695E+03  0.12718054556E+04  0.15615596236E+04  0.12699999809E+01 0. -1.
</event>
<event>
 5   0  0.5023691E-06  0.2784101E+04  0.7818609E-02  0.8308221E-01
        1   -1    0    0  501    0  0.00000000000E+00  0.00000000000E+00  0.11729349686E+04  0.11729349686E+04  0.50400001928E-02 0. -1.
       -1   -1    0    0    0  501  0.00000000000E+00  0.00000000000E+00 -0.16520992200E+04  0.16520992200E+04  0.50400001928E-02 0.  1.
    10030    2    1    2    0    0  0.00000000000E+00  0.00000000000E+00 -0.47916425144E+03  0.28250341886E+04  0.27841012530E+04 0.  0.
        5    1    3    3  502    0 -0.11573254284E+04  0.51705495473E+03 -0.82339754705E+03  0.15115401364E+04  0.46999998093E+01 0.  1.
       -5    1    3    3    0  502  0.11573254284E+04 -0.51705495473E+03  0.34423329561E+03  0.13134940522E+04  0.46999998093E+01 0. -1.
</event>
<event>
 5   0  0.5217999E-06  0.2228536E+04  0.7818609E-02  0.8506644E-01
        1   -1    0    0  501    0  0.00000000000E+00  0.00000000000E+00  0.16241323418E+04  0.16241323418E+04  0.50400001928E-02 0.  1.
       -1   -1    0    0    0  501  0.00000000000E+00  0.00000000000E+00 -0.76446543070E+03  0.76446543071E+03  0.50400001928E-02 0. -1.
    10030    2    1    2    0    0  0.00000000000E+00  0.00000000000E+00  0.85966691113E+03  0.23885977726E+04  0.22285358693E+04 0.  0.
        1    1    3    3  502    0  0.83032817470E+03 -0.72141572198E+02  0.12225076588E+04  0.14795858407E+04  0.50400001928E-02 0.  1.
       -1    1    3    3    0  502 -0.83032817470E+03  0.72141572198E+02 -0.36284074764E+03  0.90901193188E+03  0.50400001928E-02 0. -1.
</event>
<event>
 5   0  0.5107453E-06  0.2797785E+04  0.7818609E-02  0.8303956E-01
       -1   -1    0    0    0  501  0.00000000000E+00  0.00000000000E+00  0.16117213101E+04  0.16117213101E+04  0.50400001928E-02 0. -1.
        1   -1    0    0  501    0  0.00000000000E+00  0.00000000000E+00 -0.12141680454E+04  0.12141680454E+04  0.50400001928E-02 0.  1.
    10030    2    1    2    0    0  0.00000000000E+00  0.00000000000E+00  0.39755326472E+03  0.28258893555E+04  0.27977852046E+04 0.  0.
        2    1    3    3  502    0  0.79781321143E+03 -0.70408049983E+03 -0.71845627951E+03  0.12839060309E+04  0.25500000920E-02 0.  1.
       -2    1    3    3    0  502 -0.79781321143E+03  0.70408049983E+03  0.11160095442E+04  0.15419833246E+04  0.25500000920E-02 0. -1.
</event>
<event>
 5   0  0.1350863E-05  0.2802448E+04  0.7818609E-02  0.8302509E-01
        2   -1    0    0  501    0  0.00000000000E+00  0.00000000000E+00  0.19857416294E+04  0.19857416294E+04  0.25500000920E-02 0. -1.
       -2   -1    0    0    0  501  0.00000000000E+00  0.00000000000E+00 -0.98876354322E+03  0.98876354322E+03  0.25500000920E-02 0.  1.
    10030    2    1    2    0    0  0.00000000000E+00  0.00000000000E+00  0.99697808616E+03  0.29745051726E+04  0.28024481650E+04 0.  0.
        3    1    3    3  502    0 -0.50827636500E+03  0.38723193519E+03 -0.82512466256E+03  0.10436111123E+04  0.10100000352E+00 0.  1.
       -3    1    3    3    0  502  0.50827636500E+03 -0.38723193519E+03  0.18221027487E+04  0.19308940603E+04  0.10100000352E+00 0. -1.
</event>
<event>
 5   0  0.1388269E-05  0.2789665E+04  0.7818609E-02  0.8306484E-01
       -2   -1    0    0    0  501  0.00000000000E+00  0.00000000000E+00  0.97039973108E+03  0.97039973108E+03  0.25500000920E-02 0. -1.
        2   -1    0    0  501    0  0.00000000000E+00  0.00000000000E+00 -0.20049033939E+04  0.20049033939E+04  0.25500000920E-02 0.  1.
    10030    2    1    2    0    0  0.00000000000E+00  0.00000000000E+00 -0.10345036628E+04  0.29753031249E+04  0.27896650080E+04 0.  0.
        1    1    3    3  502    0  0.13507095605E+04 -0.21296403163E+03 -0.81086706253E+03  0.15897406671E+04  0.50400001928E-02 0.  1.
       -1    1    3    3    0  502 -0.13507095605E+04  0.21296403163E+03 -0.22363660025E+03  0.13855624578E+04  0.50400001928E-02 0. -1.
</event>
<event>
 5   0  0.5107453E-06  0.2774868E+04  0.7818609E-02  0.8311114E-01
        1   -1    0    0  501    0  0.00000000000E+00  0.00000000000E+00  0.10971522942E+04  0.10971522942E+04  0.50400001928E-02 0.  1.
       -1   -1    0    0    0  501  0.00000000000E+00  0.00000000000E+00 -0.17545174507E+04  0.17545174507E+04  0.50400001928E-02 0. -1.
    10030    2    1    2    0    0  0.00000000000E+00  0.00000000000E+00 -0.65736515643E+03  0.28516697449E+04  0.27748678140E+04 0.  0.
        2    1    3    3  502    0 -0.13873797756E+04  0.95883081130E+01 -0.33652725257E+03  0.14276432220E+04  0.25500000920E-02 0. -1.
       -2    1    3    3    0  502  0.13873797756E+04 -0.95883081130E+01 -0.32083790385E+03  0.14240265229E+04  0.25500000920E-02 0.  1.
</event>
<event>
 5   0  0.5281919E-06  0.2861803E+04  0.7818609E-02  0.8284334E-01
       -1   -1    0    0    0  501  0.00000000000E+00  0.00000000000E+00  0.11938234281E+04  0.11938234281E+04  0.50400001928E-02 0. -1.
        1   -1    0    0  501    0  0.00000000000E+00  0.00000000000E+00 -0.17150603043E+04  0.17150603044E+04  0.50400001928E-02 0.  1.
    10030    2    1    2    0    0  0.00000000000E+00  0.00000000000E+00 -0.52123687624E+03  0.29088837325E+04  0.28618030484E+04 0.  0.
        4    1    3    3  502    0 -0.87786798900E+03  0.61966529191E+03  0.69982879160E+03  0.12823413081E+04  0.12699999809E+01 0. -1.
       -4    1    3    3    0  502  0.87786798900E+03 -0.61966529191E+03 -0.12210656678E+04  0.16265424243E+04  0.12699999809E+01 0.  1.
</event>
<event>
 5   0  0.4764214E-06  0.2346703E+04  0.7818609E-02  0.8459731E-01
        1   -1    0    0  501    0  0.00000000000E+00  0.00000000000E+00  0.18008986616E+04  0.18008986616E+04  0.50400001928E-02 0.  1.
       -1   -1    0    0    0  501  0.00000000000E+00  0.00000000000E+00 -0.76448140515E+03  0.76448140516E+03  0.50400001928E-02 0. -1.
    10030    2    1    2    0    0  0.00000000000E+00  0.00000000000E+00  0.10364172564E+04  0.25653800667E+04  0.23467028268E+04 0.  0.
        3    1    3    3  502    0 -0.10536608630E+04  0.47730753627E+03  0.30307097888E+03  0.11957741120E+04  0.10100000352E+00 0. -1.
       -3    1    3    3    0  502  0.10536608630E+04 -0.47730753627E+03  0.73334627754E+03  0.13696059548E+04  0.10100000352E+00 0.  1.
</event>
<event>
 5   0  0.5281919E-06  0.2787434E+04  0.7818609E-02  0.8307180E-01
       -1   -1    0    0    0  501  0.00000000000E+00  0.00000000000E+00  0.84148571063E+03  0.84148571064E+03  0.50400001928E-02 0.  1.
        1   -1    0    0  501    0  0.00000000000E+00  0.00000000000E+00 -0.23083542267E+04  0.23083542267E+04  0.50400001928E-02 0. -1.
    10030    2    1    2    0    0  0.00000000000E+00  0.00000000000E+00 -0.14668685160E+04  0.31498399373E+04  0.27874340149E+04 0.  0.
        4    1    3    3  502    0  0.43936286499E+03 -0.15690906068E+03 -0.22174940927E+04  0.22660410068E+04  0.12699999809E+01 0. -1.
       -4    1    3    3    0  502 -0.43936286499E+03  0.15690906068E+03  0.75062557662E+03  0.88379893054E+03  0.12699999809E+01 0.  1.
</event>
<event>
 5   0  0.1302063E-05  0.2651363E+04  0.7818609E-02  0.8350961E-01
       -2   -1    0    0    0  501  0.00000000000E+00  0.00000000000E+00  0.10048356894E+04  0.10048356894E+04  0.25500000920E-02 0. -1.
        2   -1    0    0  501    0  0.00000000000E+00  0.00000000000E+00 -0.17489740757E+04  0.17489740757E+04  0.25500000920E-02 0.  1.
    10030    2    1    2    0    0  0.00000000000E+00  0.00000000000E+00 -0.74413838629E+03  0.27538097651E+04  0.26513630993E+04 0.  0.
        2    1    3    3  502    0  0.10036356771E+04  0.69097113538E+02 -0.12687780026E+04  0.16192148107E+04  0.25500000920E-02 0.  1.
       -2    1    3    3    0  502 -0.10036356771E+04 -0.69097113538E+02  0.52463961631E+03  0.11345949544E+04  0.25500000920E-02 0. -1.
</event>
<event>
 5   0  0.1388269E-05  0.2798925E+04  0.7818609E-02  0.8303602E-01
       -2   -1    0    0    0  501  0.00000000000E+00  0.00000000000E+00  0.21064531800E+04  0.21064531800E+04  0.25500000920E-02 0.  1.
        2   -1    0    0  501    0  0.00000000000E+00  0.00000000000E+00 -0.92975984702E+03  0.92975984702E+03  0.25500000920E-02 0. -1.
    10030    2    1    2    0    0  0.00000000000E+00  0.00000000000E+00  0.11766933330E+04  0.30362130270E+04  0.27989252126E+04 0.  0.
        1    1    3    3  502    0 -0.63616456081E+03  0.81580920077E+03  0.16107151994E+04  0.19143284603E+04  0.50400001928E-02 0.  1.
       -1    1    3    3    0  502  0.63616456081E+03 -0.81580920077E+03 -0.43402186639E+03  0.11218845667E+04  0.50400001928E-02 0. -1.
</event>
<event>
 5   0  0.5217999E-06  0.2745486E+04  0.7818609E-02  0.8320395E-01
        1   -1    0    0  501    0  0.00000000000E+00  0.00000000000E+00  0.11121691422E+04  0.11121691422E+04  0.50400001928E-02 0.  1.
       -1   -1    0    0    0  501  0.00000000000E+00  0.00000000000E+00 -0.16943675938E+04  0.16943675938E+04  0.50400001928E-02 0. -1.
    10030    2    1    2    0    0  0.00000000000E+00  0.00000000000E+00 -0.58219845163E+03  0.28065367360E+04  0.27454860067E+04 0.  0.
        1    1    3    3  502    0 -0.44162880368E+03  0.88700123360E+02 -0.16166686224E+04  0.16782494293E+04  0.50400001928E-02 0. -1.
       -1    1    3    3    0  502  0.44162880368E+03 -0.88700123360E+02  0.10344701708E+04  0.11282873067E+04  0.50400001928E-02 0.  1.
</event>
<event>
 5   0  0.1302063E-05  0.2249496E+04  0.7818609E-02  0.8498105E-01
       -2   -1    0    0    0  501  0.00000000000E+00  0.00000000000E+00  0.71983738870E+03  0.71983738870E+03  0.25500000920E-02 0.  1.
        2   -1    0    0  501    0  0.00000000000E+00  0.00000000000E+00 -0.17574221086E+04  0.17574221086E+04  0.25500000920E-02 0. -1.
    10030    2    1    2    0    0  0.00000000000E+00  0.00000000000E+00 -0.10375847199E+04  0.24772594973E+04  0.22494960694E+04 0.  0.
        2    1    3    3  502    0  0.73385612855E+03  0.67302580924E+03 -0.10947682346E+04  0.14798736584E+04  0.25500000920E-02 0. -1.
       -2    1    3    3    0  502 -0.73385612855E+03 -0.67302580924E+03  0.57183514708E+02  0.99738583891E+03  0.25500000920E-02 0.  1.
</event>
<event>
 5   0  0.4764214E-06  0.2760344E+04  0.7818609E-02  0.8315687E-01
        1   -1    0    0  501    0  0.00000000000E+00  0.00000000000E+00  0.93366143182E+03  0.93366143183E+03  0.50400001928E-02 0.  1.
       -1   -1    0    0    0  501  0.00000000000E+00  0.00000000000E+00 -0.20402197694E+04  0.20402197694E+04  0.50400001928E-02 0. -1.
    10030    2    1    2    0    0  0.00000000000E+00  0.00000000000E+00 -0.11065583375E+04  0.29738812012E+04  0.27603438272E+04 0.  0.
        3    1    3    3  502    0  0.10669543896E+03 -0.10972841755E+04  0.34129087151E+03  0.11540779643E+04  0.10100000352E+00 0. -1.
       -3    1    3    3    0  502 -0.10669543896E+03  0.10972841755E+04 -0.14478492091E+04  0.18198032369E+04  0.10100000352E+00 0.  1.
</event>
<event>
 5   0  0.1388269E-05  0.2816300E+04  0.7818609E-02  0.8298226E-01
       -2   -1    0    0    0  501  0.00000000000E+00  0.00000000000E+00  0.84754436059E+03  0.84754436059E+03  0.25500000920E-02 0. -1.
        2   -1    0    0  501    0  0.00000000000E+00  0.00000000000E+00 -0.23395668247E+04  0.23395668247E+04  0.25500000920E-02 0.  1.
    10030    2    1    2    0    0  0.00000000000E+00  0.00000000000E+00 -0.14920224641E+04  0.31871111853E+04  0.28163001747E+04 0.  0.
        1    1    3    3  502    0 -0.11971633505E+04  0.29643894389E+03 -0.15150534637E+04  0.19535770098E+04  0.50400001928E-02 0. -1.
       -1    1    3    3    0  502  0.11971633505E+04 -0.29643894389E+03  0.23030999582E+02  0.12335341755E+04  0.50400001928E-02 0.  1.
</event>
<event>
 5   0  0.4764214E-06  0.2811843E+04  0.7818609E-02  0.8299601E-01
        1   -1    0    0  501    0  0.00000000000E+00  0.00000000000E+00  0.11805007586E+04  0.11805007586E+04  0.50400001928E-02 0. -1.
       -1   -1    0    0    0  501  0.00000000000E+00  0.00000000000E+00 -0.16743865625E+04  0.16743865625E+04  0.50400001928E-02 0.  1.
    10030    2    1    2    0    0  0.00000000000E+00  0.00000000000E+00 -0.49388580398E+03  0.28548873211E+04  0.28118425327E+04 0.  0.
        3    1    3    3  502    0 -0.48488360241E+03 -0.12617631175E+04  0.14557107372E+03  0.13595400767E+04  0.10100000352E+00 0. -1.
       -3    1    3    3    0  502  0.48488360241E+03  0.12617631175E+04 -0.63945687770E+03  0.14953472444E+04  0.10100000352E+00 0.  1.
</event>
<event>
 5   0  0.1283052E-05  0.2750592E+04  0.7818609E-02  0.8318774E-01
       -2   -1    0    0    0  501  0.00000000000E+00  0.00000000000E+00  0.11397514291E+04  0.11397514291E+04  0.25500000920E-02 0. -1.
        2   -1    0    0  501    0  0.00000000000E+00  0.00000000000E+00 -0.16595191819E+04  0.16595191819E+04  0.25500000920E-02 0.  1.
    10030    2    1    2    0    0  0.00000000000E+00  0.00000000000E+00 -0.51976775278E+03  0.27992706110E+04  0.27505921975E+04 0.  0.
        5    1    3    3  502    0  0.26059145024E+03  0.10375444243E+04  0.61970991840E+03  0.12363125856E+04  0.46999998093E+01 0. -1.
       -5    1    3    3    0  502 -0.26059145024E+03 -0.10375444243E+04 -0.11394776712E+04  0.15629580255E+04  0.46999998093E+01 0.  1.
</event>
<event>
 5   0  0.1388269E-05  0.2957338E+04  0.7818609E-02  0.8256019E-01
       -2   -1    0    0    0  501  0.00000000000E+00  0.00000000000E+00  0.10454771409E+04  0.10454771409E+04  0.25500000920E-02 0. -1.
        2   -1    0    0  501    0  0.00000000000E+00  0.00000000000E+00 -0.20913529998E+04  0.20913529998E+04  0.25500000920E-02 0.  1.
    10030    2    1    2    0    0  0.00000000000E+00  0.00000000000E+00 -0.10458758589E+04  0.31368301408E+04  0.29573378265E+04 0.  0.
        1    1    3    3  502    0  0.31119399739E+03 -0.53048319052E+03 -0.19492488699E+04  0.20439729148E+04  0.50400001928E-02 0.  1.
       -1    1    3    3    0  502 -0.31119399739E+03  0.53048319052E+03  0.90337301101E+03  0.10928572260E+04  0.50400001928E-02 0. -1.
</event>
<event>
 5   0  0.5107453E-06  0.2677549E+04  0.7818609E-02  0.8342326E-01
        1   -1    0    0  501    0  0.00000000000E+00  0.00000000000E+00  0.15405867635E+04  0.15405867635E+04  0.50400001928E-02 0.  1.
       -1   -1    0    0    0  501  0.00000000000E+00  0.00000000000E+00 -0.11633993032E+04  0.11633993032E+04  0.50400001928E-02 0. -1.
    10030    2    1    2    0    0  0.00000000000E+00  0.00000000000E+00  0.37718746032E+03  0.27039860667E+04  0.26775493028E+04 0.  0.
        2    1    3    3  502    0 -0.76643772541E+01  0.12582478711E+04 -0.27316380928E+03  0.12875810322E+04  0.25500000920E-02 0. -1.
       -2    1    3    3    0  502  0.76643772541E+01 -0.12582478711E+04  0.65035126960E+03  0.14164050345E+04  0.25500000920E-02 0.  1.
</event>
<event>
 5   0  0.1302063E-05  0.2825496E+04  0.7818609E-02  0.8295396E-01
       -2   -1    0    0    0  501  0.00000000000E+00  0.00000000000E+00  0.10166039802E+04  0.10166039802E+04  0.25500000920E-02 0. -1.
        2   -1    0    0  501    0  0.00000000000E+00  0.00000000000E+00 -0.19632591623E+04  0.19632591623E+04  0.25500000920E-02 0.  1.
    10030    2    1    2    0    0  0.00000000000E+00  0.00000000000E+00 -0.94665518209E+03  0.29798631425E+04  0.28254961182E+04 0.  0.
        2    1    3    3  502    0  0.70169497913E+03  0.71912039352E+03  0.57408185989E+03  0.11571862279E+04  0.25500000920E-02 0. -1.
       -2    1    3    3    0  502 -0.70169497913E+03 -0.71912039352E+03 -0.15207370420E+04  0.18226769146E+04  0.25500000920E-02 0.  1.
</event>
<event>
 5   0  0.1388269E-05  0.2830764E+04  0.7818609E-02  0.8293780E-01
       -2   -1    0    0    0  501  0.00000000000E+00  0.00000000000E+00  0.74877102927E+03  0.74877102927E+03  0.25500000920E-02 0. -1.
        2   -1    0    0  501    0  0.00000000000E+00  0.00000000000E+00 -0.26754596486E+04  0.26754596486E+04  0.25500000920E-02 0.  1.
    10030    2    1    2    0    0  0.00000000000E+00  0.00000000000E+00 -0.19266886194E+04  0.34242306779E+04  0.28307643313E+04 0.  0.
        1    1    3    3  502    0 -0.10413698370E+04  0.62723562617E+03 -0.86510781235E+02  0.12187533727E+04  0.50400001928E-02 0. -1.
       -1    1    3    3    0  502  0.10413698370E+04 -0.62723562617E+03 -0.18401778381E+04  0.22054773053E+04  0.50400001928E-02 0.  1.
</event>
<event>
 5   0  0.5107453E-06  0.2830214E+04  0.7818609E-02  0.8293949E-01
        1   -1    0    0  501    0  0.00000000000E+00  0.00000000000E+00  0.84396321141E+03  0.84396321143E+03  0.50400001928E-02 0.  1.
       -1   -1    0    0    0  501  0.00000000000E+00  0.00000000000E+00 -0.23727673008E+04  0.23727673008E+04  0.50400001928E-02 0. -1.
    10030    2    1    2    0    0  0.00000000000E+00  0.00000000000E+00 -0.15288040894E+04  0.32167305123E+04  0.28302143461E+04 0.  0.
        2    1    3    3  502    0  0.10678155614E+04 -0.90586316751E+03 -0.53228005921E+03  0.14980454642E+04  0.25500000920E-02 0.  1.
       -2    1    3    3    0  502 -0.10678155614E+04  0.90586316751E+03 -0.99652403022E+03  0.17186850480E+04  0.25500000920E-02 0. -1.
</event>
<event>
 5   0  0.5281919E-06  0.2806496E+04  0.7818609E-02  0.8301254E-01
        1   -1    0    0  501    0  0.00000000000E+00  0.00000000000E+00  0.14462337235E+04  0.14462337235E+04  0.50400001928E-02 0. -1.
       -1   -1    0    0    0  501  0.00000000000E+00  0.00000000000E+00 -0.13615401728E+04  0.13615401728E+04  0.50400001928E-02 0.  1.
    10030    2    1    2    0    0  0.00000000000E+00  0.00000000000E+00  0.84693550710E+02  0.28077738963E+04  0.28064962596E+04 0.  0.
        4    1    3    3  502    0 -0.95603620314E+03 -0.25994636911E+01  0.10699909677E+04  0.14348847559E+04  0.12699999809E+01 0. -1.
       -4    1    3    3    0  502  0.95603620314E+03  0.25994636911E+01 -0.98529741701E+03  0.13728891404E+04  0.12699999809E+01 0.  1.
</event>
<event>
 5   0  0.1283052E-05  0.2814017E+04  0.7818609E-02  0.8298930E-01
       -2   -1    0    0    0  501  0.00000000000E+00  0.00000000000E+00  0.99420563650E+03  0.99420563651E+03  0.25500000920E-02 0. -1.
        2   -1    0    0  501    0  0.00000000000E+00  0.00000000000E+00 -0.19912104596E+04  0.19912104596E+04  0.25500000920E-02 0.  1.
    10030    2    1    2    0    0  0.00000000000E+00  0.00000000000E+00 -0.99700482309E+03  0.29854160961E+04  0.28140168176E+04 0.  0.
        5    1    3    3  502    0 -0.20546207770E+03  0.10745434460E+04  0.44014276129E+03  0.11792395953E+04  0.46999998093E+01 0. -1.
       -5    1    3    3    0  502  0.20546207770E+03 -0.10745434460E+04 -0.14371475844E+04  0.18061765008E+04  0.46999998093E+01 0.  1.
</event>
<event>
 5   0  0.4764214E-06  0.2084085E+04  0.7818609E-02  0.8568286E-01
        1   -1    0    0  501    0  0.00000000000E+00  0.00000000000E+00  0.63759393353E+03  0.63759393355E+03  0.50400001928E-02 0. -1.
       -1   -1    0    0    0  501  0.00000000000E+00  0.00000000000E+00 -0.17030477933E+04  0.17030477934E+04  0.50400001928E-02 0.  1.
    10030    2    1    2    0    0  0.00000000000E+00  0.00000000000E+00 -0.10654538598E+04  0.23406417269E+04  0.20840853548E+04 0.  0.
        3    1    3    3  502    0  0.10110006774E+04 -0.14247617514E+03 -0.29867088515E+03  0.10637791773E+04  0.10100000352E+00 0.  1.
       -3    1    3    3    0  502 -0.10110006774E+04  0.14247617514E+03 -0.76678297466E+03  0.12768625496E+04  0.10100000352E+00 0. -1.
</event>
<event>
 5   0  0.4764214E-06  0.2646556E+04  0.7818609E-02  0.8352557E-01
       -1   -1    0    0    0  501  0.00000000000E+00  0.00000000000E+00  0.11267697550E+04  0.11267697550E+04  0.50400001928E-02 0.  1.
        1   -1    0    0  501    0  0.00000000000E+00  0.00000000000E+00 -0.15540570149E+04  0.15540570149E+04  0.50400001928E-02 0. -1.
    10030    2    1    2    0    0  0.00000000000E+00  0.00000000000E+00 -0.42728725993E+03  0.26808267699E+04  0.26465558312E+04 0.  0.
        3    1    3    3  502    0  0.12154248811E+04 -0.18979361334E+03 -0.70759031835E+03  0.14191417569E+04  0.10100000352E+00 0. -1.
       -3    1    3    3    0  502 -0.12154248811E+04  0.18979361334E+03  0.28030305842E+03  0.12616850130E+04  0.10100000352E+00 0.  1.
</event>
<event>
 5   0  0.1350863E-05  0.2804441E+04  0.7818609E-02  0.8301891E-01
        2   -1    0    0  501    0  0.00000000000E+00  0.00000000000E+00  0.22715200883E+04  0.22715200883E+04  0.25500000920E-02 0.  1.
       -2   -1    0    0    0  501  0.00000000000E+00  0.00000000000E+00 -0.86559735331E+03  0.86559735331E+03  0.25500000920E-02 0. -1.
    10030    2    1    2    0    0  0.00000000000E+00  0.00000000000E+00  0.14059227350E+04  0.31371174416E+04  0.28044406048E+04 0.  0.
        3    1    3    3  502    0 -0.74943140920E+03  0.29462335528E+03  0.19870782948E+04  0.21440453629E+04  0.10100000352E+00 0.  1.
       -3    1    3    3    0  502  0.74943140920E+03 -0.29462335528E+03 -0.58115555978E+03  0.99307207867E+03  0.10100000352E+00 0. -1.
</event>
<event>
 5   0  0.1283052E-05  0.2812004E+04  0.7818609E-02  0.8299551E-01
        2   -1    0    0  501    0  0.00000000000E+00  0.00000000000E+00  0.19049789392E+04  0.19049789392E+04  0.25500000920E-02 0. -1.
       -2   -1    0    0    0  501  0.00000000000E+00  0.00000000000E+00 -0.10377233955E+04  0.10377233955E+04  0.25500000920E-02 0.  1.
    10030    2    1    2    0    0  0.00000000000E+00  0.00000000000E+00  0.86725554366E+03  0.29427023347E+04  0.28120037078E+04 0.  0.
        5    1    3    3  502    0 -0.24990144672E+02  0.11904032578E+04  0.12161355578E+04  0.17019671584E+04  0.46999998093E+01 0. -1.
       -5    1    3    3    0  502  0.24990144672E+02 -0.11904032578E+04 -0.34888001411E+03  0.12407351763E+04  0.46999998093E+01 0.  1.
</event>
<event>
 5   0  0.5023691E-06  0.2581708E+04  0.7818609E-02  0.8374441E-01
       -1   -1    0    0    0  501  0.00000000000E+00  0.00000000000E+00  0.17620480786E+04  0.17620480786E+04  0.50400001928E-02 0.  1.
        1   -1    0    0  501    0  0.00000000000E+00  0.00000000000E+00 -0.94566319060E+03  0.94566319061E+03  0.50400001928E-02 0. -1.
    10030    2    1    2    0    0  0.00000000000E+00  0.00000000000E+00  0.81638488801E+03  0.27077112692E+04  0.25817079680E+04 0.  0.
        5    1    3    3  502    0 -0.54184317913E+03 -0.77749786466E+03 -0.51104591056E+03  0.10767018961E+04  0.46999998093E+01 0. -1.
       -5    1    3    3    0  502  0.54184317913E+03  0.77749786466E+03  0.13274307986E+04  0.16310093731E+04  0.46999998093E+01 0.  1.
</event>
<event>
 5   0  0.5107453E-06  0.2782811E+04  0.7818609E-02  0.8308625E-01
       -1   -1    0    0    0  501  0.00000000000E+00  0.00000000000E+00  0.10126769911E+04  0.10126769911E+04  0.50400001928E-02 0. -1.
        1   -1    0    0  501    0  0.00000000000E+00  0.00000000000E+00 -0.19117743807E+04  0.19117743807E+04  0.50400001928E-02 0.  1.
    10030    2    1    2    0    0  0.00000000000E+00  0.00000000000E+00 -0.89909738955E+03  0.29244513718E+04  0.27828114759E+04 0.  0.
        2    1    3    3  502    0  0.94865059074E+03 -0.10177961343E+04 -0.46296620655E+03  0.14663507844E+04  0.25500000920E-02 0.  1.
       -2    1    3    3    0  502 -0.94865059074E+03  0.10177961343E+04 -0.43613118299E+03  0.14581005875E+04  0.25500000920E-02 0. -1.
</event>
<event>
 5   0  0.1330962E-05  0.2709991E+04  0.7818609E-02  0.8331771E-01
       -2   -1    0    0    0  501  0.00000000000E+00  0.00000000000E+00  0.70703495138E+03  0.70703495138E+03  0.25500000920E-02 0.  1.
        2   -1    0    0  501    0  0.00000000000E+00  0.00000000000E+00 -0.25967775044E+04  0.25967775044E+04  0.25500000920E-02 0. -1.
    10030    2    1    2    0    0  0.00000000000E+00  0.00000000000E+00 -0.18897425530E+04  0.33038124558E+04  0.27099907428E+04 0.  0.
        4    1    3    3  502    0  0.63693892832E+03  0.18402817905E+03 -0.23855289049E+04  0.24759457462E+04  0.12699999809E+01 0. -1.
       -4    1    3    3    0  502 -0.63693892832E+03 -0.18402817905E+03  0.49578635193E+03  0.82786670953E+03  0.12699999809E+01 0.  1.
</event>
<event>
 5   0  0.1283052E-05  0.2809285E+04  0.7818609E-02  0.8300392E-01
        2   -1    0    0  501    0  0.00000000000E+00  0.00000000000E+00  0.23660538397E+04  0.23660538397E+04  0.25500000920E-02 0.  1.
       -2   -1    0    0    0  501  0.00000000000E+00  0.00000000000E+00 -0.83388645315E+03  0.83388645315E+03  0.25500000920E-02 0. -1.
    10030    2    1    2    0    0  0.00000000000E+00  0.00000000000E+00  0.15321673866E+04  0.31999402929E+04  0.28092847804E+04 0.  0.
        5    1    3    3  502    0 -0.42336085268E+03  0.42833114686E+03  0.22115200985E+04  0.22920613471E+04  0.46999998093E+01 0.  1.
       -5    1    3    3    0  502  0.42336085268E+03 -0.42833114686E+03 -0.67935271192E+03  0.90787894575E+03  0.46999998093E+01 0. -1.
</event>
<event>
 5   0  0.5217999E-06  0.2706430E+04  0.7818609E-02  0.8332922E-01
       -1   -1    0    0    0  501  0.00000000000E+00  0.00000000000E+00  0.13376964790E+04  0.13376964790E+04  0.50400001928E-02 0.  1.
        1   -1    0    0  501    0  0.00000000000E+00  0.00000000000E+00 -0.13689138020E+04  0.13689138020E+04  0.50400001928E-02 0. -1.
    10030    2    1    2    0    0  0.00000000000E+00  0.00000000000E+00 -0.31217322960E+02  0.27066102810E+04  0.27064302489E+04 0.  0.
        1    1    3    3  502    0  0.93895539974E+03 -0.96551888065E+03 -0.14725032162E+03  0.13548234604E+04  0.50400001928E-02 0.  1.
       -1    1    3    3    0  502 -0.93895539974E+03  0.96551888065E+03  0.11603299866E+03  0.13517868206E+04  0.50400001928E-02 0. -1.
</event>
<event>
 5   0  0.1302063E-05  0.2814566E+04  0.7818609E-02  0.8298760E-01
        2   -1    0    0  501    0  0.00000000000E+00  0.00000000000E+00  0.16498201856E+04  0.16498201856E+04  0.25500000920E-02 0.  1.
       -2   -1    0    0    0  501  0.00000000000E+00  0.00000000000E+00 -0.12004009353E+04  0.12004009353E+04  0.25500000920E-02 0. -1.
    10030    2    1    2    0    0  0.00000000000E+00  0.00000000000E+00  0.44941925032E+03  0.28502211209E+04  0.28145661790E+04 0.  0.
        2    1    3    3  502    0  0.10046619614E+04 -0.47596236570E+02  0.12214726456E+04  0.15822788890E+04  0.25500000920E-02 0.  1.
       -2    1    3    3    0  502 -0.10046619614E+04  0.47596236570E+02 -0.77205339532E+03  0.12679422320E+04  0.25500000920E-02 0. -1.
</event>
<event>
 5   0  0.5107453E-06  0.2837832E+04  0.7818609E-02  0.8291618E-01
       -1   -1    0    0    0  501  0.00000000000E+00  0.00000000000E+00  0.12851711311E+04  0.12851711311E+04  0.50400001928E-02 0.  1.
        1   -1    0    0  501    0  0.00000000000E+00  0.00000000000E+00 -0.15665797830E+04  0.15665797830E+04  0.50400001928E-02 0. -1.
    10030    2    1    2    0    0  0.00000000000E+00  0.00000000000E+00 -0.28140865190E+03  0.28517509142E+04  0.28378323501E+04 0.  0.
        2    1    3    3  502    0 -0.56580571960E+03  0.94168393782E+03  0.76170808159E+03  0.13368260742E+04  0.25500000920E-02 0. -1.
       -2    1    3    3    0  502  0.56580571960E+03 -0.94168393782E+03 -0.10431167335E+04  0.15149248400E+04  0.25500000920E-02 0.  1.
</event>
<event>
 5   0  0.1388269E-05  0.2841522E+04  0.7818609E-02  0.8290492E-01
       -2   -1    0    0    0  501  0.00000000000E+00  0.00000000000E+00  0.99665592383E+03  0.99665592384E+03  0.25500000920E-02 0.  1.
        2   -1    0    0  501    0  0.00000000000E+00  0.00000000000E+00 -0.20253345840E+04  0.20253345840E+04  0.25500000920E-02 0. -1.
    10030    2    1    2    0    0  0.00000000000E+00  0.00000000000E+00 -0.10286786602E+04  0.30219905078E+04  0.28415219238E+04 0.  0.
        1    1    3    3  502    0  0.31124256546E+03  0.87613465832E+03  0.62816968362E+03  0.11220877976E+04  0.50400001928E-02 0.  1.
       -1    1    3    3    0  502 -0.31124256546E+03 -0.87613465832E+03 -0.16568483438E+04  0.18999027102E+04  0.50400001928E-02 0. -1.
</event>
<event>
 5   0  0.4764214E-06  0.2807975E+04  0.7818609E-02  0.8300797E-01
       -1   -1    0    0    0  501  0.00000000000E+00  0.00000000000E+00  0.13291705070E+04  0.13291705070E+04  0.50400001928E-02 0.  1.
        1   -1    0    0  501    0  0.00000000000E+00  0.00000000000E+00 -0.14830162664E+04  0.14830162664E+04  0.50400001928E-02 0. -1.
    10030    2    1    2    0    0  0.00000000000E+00  0.00000000000E+00 -0.15384575936E+03  0.28121867734E+04  0.28079754149E+04 0.  0.
        3    1    3    3  502    0 -0.42393449855E+03  0.43015602794E+03 -0.13462727161E+04  0.14755354634E+04  0.10100000352E+00 0. -1.
       -3    1    3    3    0  502  0.42393449855E+03 -0.43015602794E+03  0.11924269567E+04  0.13366513101E+04  0.10100000352E+00 0.  1.
</event>
<event>
 5   0  0.4764214E-06  0.2792540E+04  0.7818609E-02  0.8305588E-01
        1   -1    0    0  501    0  0.00000000000E+00  0.00000000000E+00  0.19185110325E+04  0.19185110325E+04  0.50400001928E-02 0. -1.
       -1   -1    0    0    0  501  0.00000000000E+00  0.00000000000E+00 -0.10161889298E+04  0.10161889298E+04  0.50400001928E-02 0.  1.
    10030    2    1    2    0    0  0.00000000000E+00  0.00000000000E+00  0.90232210276E+03  0.29346999623E+04  0.27925398281E+04 0.  0.
        3    1    3    3  502    0  0.42164796325E+03 -0.12896674127E+04  0.79738769418E+03  0.15738030961E+04  0.10100000352E+00 0. -1.
       -3    1    3    3    0  502 -0.42164796325E+03  0.12896674127E+04  0.10493440858E+03  0.13608968662E+04  0.10100000352E+00 0.  1.
</event>
<event>
 5   0  0.1330962E-05  0.2762612E+04  0.7818609E-02  0.8314971E-01
        2   -1    0    0  501    0  0.00000000000E+00  0.00000000000E+00  0.20338519931E+04  0.20338519931E+04  0.25500000920E-02 0.  1.
       -2   -1    0    0    0  501  0.00000000000E+00  0.00000000000E+00 -0.93812432940E+03  0.93812432940E+03  0.25500000920E-02 0. -1.
    10030    2    1    2    0    0  0.00000000000E+00  0.00000000000E+00  0.10957276637E+04  0.29719763225E+04  0.27626118346E+04 0.  0.
        4    1    3    3  502    0  0.52507241127E+03  0.60845161051E+03 -0.66070292510E+03  0.10404058667E+04  0.12699999809E+01 0. -1.
       -4    1    3    3    0  502 -0.52507241127E+03 -0.60845161051E+03  0.17564305888E+04  0.19315704558E+04  0.12699999809E+01 0.  1.
</event>
<event>
 5   0  0.1388269E-05  0.2885814E+04  0.7818609E-02  0.8277111E-01
       -2   -1    0    0    0  501  0.00000000000E+00  0.00000000000E+00  0.11025652457E+04  0.11025652457E+04  0.25500000920E-02 0.  1.
        2   -1    0    0  501    0  0.00000000000E+00  0.00000000000E+00 -0.18883064887E+04  0.18883064887E+04  0.25500000920E-02 0. -1.
    10030    2    1    2    0    0  0.00000000000E+00  0.00000000000E+00 -0.78574124295E+03  0.29908717344E+04  0.28858143445E+04 0.  0.
        1    1    3    3  502    0 -0.73749366347E+03 -0.12146113167E+04 -0.13314098451E+03  0.14272014841E+04  0.50400001928E-02 0.  1.
       -1    1    3    3    0  502  0.73749366347E+03  0.12146113167E+04 -0.65260025844E+03  0.15636702503E+04  0.50400001928E-02 0. -1.
</event>
<event>
 5   0  0.4447500E-06  0.2127304E+04  0.7818609E-02  0.8549310E-01
       -4   -1    0    0    0  501  0.00000000000E+00  0.00000000000E+00  0.88162341534E+03  0.88162433007E+03  0.12699999809E+01 0.  1.
        4   -1    0    0  501    0  0.00000000000E+00  0.00000000000E+00 -0.12832618323E+04  0.12832624608E+04  0.12699999809E+01 0. -1.
    10030    2    1    2    0    0  0.00000000000E+00  0.00000000000E+00 -0.40163841697E+03  0.21648867908E+04  0.21273037863E+04 0.  0.
        5    1    3    3  502    0 -0.22314904598E+03  0.15848272419E+03 -0.12468011535E+04  0.12764981305E+04  0.46999998093E+01 0. -1.
       -5    1    3    3    0  502  0.22314904598E+03 -0.15848272419E+03  0.84516273657E+03  0.88838866037E+03  0.46999998093E+01 0.  1.
</event>
<event>
 5   0  0.5281919E-06  0.2802075E+04  0.7818609E-02  0.8302624E-01
        1   -1    0    0  501    0  0.00000000000E+00  0.00000000000E+00  0.10919625732E+04  0.10919625732E+04  0.50400001928E-02 0.  1.
       -1   -1    0    0    0  501  0.00000000000E+00  0.00000000000E+00 -0.17975949580E+04  0.17975949580E+04  0.50400001928E-02 0. -1.
    10030    2    1    2    0    0  0.00000000000E+00  0.00000000000E+00 -0.70563238481E+03  0.28895575313E+04  0.28020752424E+04 0.  0.
        4    1    3    3  502    0 -0.90269012848E+03 -0.40508934988E+03  0.67009945757E+03  0.11949819017E+04  0.12699999809E+01 0.  1.
       -4    1    3    3    0  502  0.90269012848E+03  0.40508934988E+03 -0.13757318424E+04  0.16945756296E+04  0.12699999809E+01 0. -1.
</event>
<event>
 5   0  0.5023691E-06  0.2840492E+04  0.7818609E-02  0.8290806E-01
        1   -1    0    0  501    0  0.00000000000E+00  0.00000000000E+00  0.15151359900E+04  0.15151359900E+04  0.50400001928E-02 0.  1.
       -1   -1    0    0    0  501  0.00000000000E+00  0.00000000000E+00 -0.13312987198E+04  0.13312987198E+04  0.50400001928E-02 0. -1.
    10030    2    1    2    0    0  0.00000000000E+00  0.00000000000E+00  0.18383727019E+03  0.28464347099E+04  0.28404919320E+04 0.  0.
        5    1    3    3  502    0  0.34851883674E+03  0.41471998717E+03  0.14075318760E+04  0.15081863676E+04  0.46999998093E+01 0.  1.
       -5    1    3    3    0  502 -0.34851883674E+03 -0.41471998717E+03 -0.12236946058E+04  0.13382483423E+04  0.46999998093E+01 0. -1.
</event>
<event>
 5   0  0.1302063E-05  0.2792779E+04  0.7818609E-02  0.8305514E-01
       -2   -1    0    0    0  501  0.00000000000E+00  0.00000000000E+00  0.12707737986E+04  0.12707737986E+04  0.25500000920E-02 0. -1.
        2   -1    0    0  501    0  0.00000000000E+00  0.00000000000E+00 -0.15344220073E+04  0.15344220073E+04  0.25500000920E-02 0.  1.
    10030    2    1    2    0    0  0.00000000000E+00  0.00000000000E+00 -0.26364820869E+03  0.28051958059E+04  0.27927787473E+04 0.  0.
        2    1    3    3  502    0  0.37567612368E+03 -0.12058282343E+04  0.46643214151E+03  0.13463703885E+04  0.25500000920E-02 0. -1.
       -2    1    3    3    0  502 -0.37567612368E+03  0.12058282343E+04 -0.73008035019E+03  0.14588254173E+04  0.25500000920E-02 0.  1.
</event>
<event>
 5   0  0.5281919E-06  0.2887235E+04  0.7818609E-02  0.8276685E-01
        1   -1    0    0  501    0  0.00000000000E+00  0.00000000000E+00  0.14587725590E+04  0.14587725590E+04  0.50400001928E-02 0. -1.
       -1   -1    0    0    0  501  0.00000000000E+00  0.00000000000E+00 -0.14286202185E+04  0.14286202185E+04  0.50400001928E-02 0.  1.
    10030    2    1    2    0    0  0.00000000000E+00  0.00000000000E+00  0.30152340521E+02  0.28873927776E+04  0.28872353365E+04 0.  0.
        4    1    3    3  502    0 -0.19745175719E+03 -0.13976377775E+04 -0.28768083046E+03  0.14405347711E+04  0.12699999809E+01 0. -1.
       -4    1    3    3    0  502  0.19745175719E+03  0.13976377775E+04  0.31783317098E+03  0.14468580065E+04  0.12699999809E+01 0.  1.
</event>
<event>
 5   0  0.1283052E-05  0.3289095E+04  0.7818609E-02  0.8165676E-01
        2   -1    0    0  501    0  0.00000000000E+00  0.00000000000E+00  0.12926095089E+04  0.12926095089E+04  0.25500000920E-02 0. -1.
       -2   -1    0    0    0  501  0.00000000000E+00  0.00000000000E+00 -0.20923072570E+04  0.20923072570E+04  0.25500000920E-02 0.  1.
    10030    2    1    2    0    0  0.00000000000E+00  0.00000000000E+00 -0.79969774801E+03  0.33849167659E+04  0.32890948639E+04 0.  0.
        5    1    3    3  502    0 -0.14730547266E+04 -0.62009860137E+03 -0.11322471745E+01  0.15982602651E+04  0.46999998093E+01 0. -1.
       -5    1    3    3    0  502  0.14730547266E+04  0.62009860137E+03 -0.79856550084E+03  0.17866565008E+04  0.46999998093E+01 0.  1.
</event>
<event>
 5   0  0.5023691E-06  0.2809066E+04  0.7818609E-02  0.8300459E-01
       -1   -1    0    0    0  501  0.00000000000E+00  0.00000000000E+00  0.17754231893E+04  0.17754231893E+04  0.50400001928E-02 0.  1.
        1   -1    0    0  501    0  0.00000000000E+00  0.00000000000E+00 -0.11111222818E+04  0.11111222818E+04  0.50400001928E-02 0. -1.
    10030    2    1    2    0    0  0.00000000000E+00  0.00000000000E+00  0.66430090746E+03  0.28865454711E+04  0.28090655139E+04 0.  0.
        5    1    3    3  502    0 -0.99573928115E+02  0.30644033239E+03 -0.10726221436E+04  0.11199825880E+04  0.46999998093E+01 0. -1.
       -5    1    3    3    0  502  0.99573928115E+02 -0.30644033239E+03  0.17369230511E+04  0.17665628831E+04  0.46999998093E+01 0.  1.
</event>
<event>
 5   0  0.5217999E-06  0.2831046E+04  0.7818609E-02  0.8293694E-01
        1   -1    0    0  501    0  0.00000000000E+00  0.00000000000E+00  0.10389799729E+04  0.10389799729E+04  0.50400001928E-02 0.  1.
       -1   -1    0    0    0  501  0.00000000000E+00  0.00000000000E+00 -0.19285319219E+04  0.19285319219E+04  0.50400001928E-02 0. -1.
    10030    2    1    2    0    0  0.00000000000E+00  0.00000000000E+00 -0.88955194899E+03  0.29675118948E+04  0.28310464807E+04 0.  0.
        1    1    3    3  502    0  0.31699884212E+02 -0.11684060164E+04 -0.12817178255E+04  0.17346406215E+04  0.50400001928E-02 0.  1.
       -1    1    3    3    0  502 -0.31699884212E+02  0.11684060164E+04  0.39216587647E+03  0.12328712733E+04  0.50400001928E-02 0. -1.
</event>
<event>
 5   0  0.1302063E-05  0.2800445E+04  0.7818609E-02  0.8303130E-01
       -2   -1    0    0    0  501  0.00000000000E+00  0.00000000000E+00  0.11331575727E+04  0.11331575728E+04  0.25500000920E-02 0. -1.
        2   -1    0    0  501    0  0.00000000000E+00  0.00000000000E+00 -0.17302293878E+04  0.17302293878E+04  0.25500000920E-02 0.  1.
    10030    2    1    2    0    0  0.00000000000E+00  0.00000000000E+00 -0.59707181503E+03  0.28633869605E+04  0.28004446314E+04 0.  0.
        2    1    3    3  502    0 -0.52057975721E+02  0.26274387978E+03 -0.17037905357E+04  0.17247163734E+04  0.25500000920E-02 0.  1.
       -2    1    3    3    0  502  0.52057975721E+02 -0.26274387978E+03  0.11067187207E+04  0.11386705871E+04  0.25500000920E-02 0. -1.
</event>
<event>
 5   0  0.5023691E-06  0.2759793E+04  0.7818609E-02  0.8315861E-01
        1   -1    0    0  501    0  0.00000000000E+00  0.00000000000E+00  0.17494939527E+04  0.17494939527E+04  0.50400001928E-02 0. -1.
       -1   -1    0    0    0  501  0.00000000000E+00  0.00000000000E+00 -0.10883801730E+04  0.10883801730E+04  0.50400001928E-02 0.  1.
    10030    2    1    2    0    0  0.00000000000E+00  0.00000000000E+00  0.66111377970E+03  0.28378741256E+04  0.27597931305E+04 0.  0.
        5    1    3    3  502    0 -0.66869138393E+03 -0.23860012526E+03 -0.88614120427E+03  0.11354939501E+04  0.46999998093E+01 0.  1.
       -5    1    3    3    0  502  0.66869138393E+03  0.23860012526E+03  0.15472549840E+04  0.17023801756E+04  0.46999998093E+01 0. -1.
</event>
<event>
 5   0  0.1388269E-05  0.2816333E+04  0.7818609E-02  0.8298216E-01
       -2   -1    0    0    0  501  0.00000000000E+00  0.00000000000E+00  0.10576517817E+04  0.10576517817E+04  0.25500000920E-02 0.  1.
        2   -1    0    0  501    0  0.00000000000E+00  0.00000000000E+00 -0.18748441693E+04  0.18748441693E+04  0.25500000920E-02 0. -1.
    10030    2    1    2    0    0  0.00000000000E+00  0.00000000000E+00 -0.81719238758E+03  0.29324959510E+04  0.28163325628E+04 0.  0.
        1    1    3    3  502    0 -0.51553061250E+03  0.36678628342E+03  0.90131829647E+03  0.11012169004E+04  0.50400001928E-02 0.  1.
       -1    1    3    3    0  502  0.51553061250E+03 -0.36678628342E+03 -0.17185106840E+04  0.18312790506E+04  0.50400001928E-02 0. -1.
</event>
<event>
 5   0  0.5217999E-06  0.2791185E+04  0.7818609E-02  0.8306010E-01
       -1   -1    0    0    0  501  0.00000000000E+00  0.00000000000E+00  0.11165649140E+04  0.11165649140E+04  0.50400001928E-02 0.  1.
        1   -1    0    0  501    0  0.00000000000E+00  0.00000000000E+00 -0.17443480008E+04  0.17443480008E+04  0.50400001928E-02 0. -1.
    10030    2    1    2    0    0  0.00000000000E+00  0.00000000000E+00 -0.62778308681E+03  0.28609129148E+04  0.27911845339E+04 0.  0.
        1    1    3    3  502    0 -0.11451710133E+04 -0.79753352881E+03 -0.29934560210E+03  0.14272645756E+04  0.50400001928E-02 0. -1.
       -1    1    3    3    0  502  0.11451710133E+04  0.79753352881E+03 -0.32843748471E+03  0.14336483392E+04  0.50400001928E-02 0.  1.
</event>
<event>
 5   0  0.5107453E-06  0.2725615E+04  0.7818609E-02  0.8326741E-01
        1   -1    0    0  501    0  0.00000000000E+00  0.00000000000E+00  0.19874306490E+04  0.19874306490E+04  0.50400001928E-02 0. -1.
       -1   -1    0    0    0  501  0.00000000000E+00  0.00000000000E+00 -0.93449486464E+03  0.93449486465E+03  0.50400001928E-02 0.  1.
    10030    2    1    2    0    0  0.00000000000E+00  0.00000000000E+00  0.10529357843E+04  0.29219255136E+04  0.27256145988E+04 0.  0.
        2    1    3    3  502    0 -0.93961521183E+03  0.47557978433E+03 -0.40081210712E+03  0.11268110857E+04  0.25500000920E-02 0.  1.
       -2    1    3    3    0  502  0.93961521183E+03 -0.47557978433E+03  0.14537478915E+04  0.17951144280E+04  0.25500000920E-02 0. -1.
</event>
<event>
 5   0  0.1330962E-05  0.2787604E+04  0.7818609E-02  0.8307127E-01
        2   -1    0    0  501    0  0.00000000000E+00  0.00000000000E+00  0.19492353088E+04  0.19492353088E+04  0.25500000920E-02 0. -1.
       -2   -1    0    0    0  501  0.00000000000E+00  0.00000000000E+00 -0.99663875461E+03  0.99663875462E+03  0.25500000920E-02 0.  1.
    10030    2    1    2    0    0  0.00000000000E+00  0.00000000000E+00  0.95259655417E+03  0.29458740634E+04  0.27876035949E+04 0.  0.
        4    1    3    3  502    0 -0.10308532343E+03 -0.11949916690E+04 -0.27397597292E+03  0.12303235832E+04  0.12699999809E+01 0. -1.
       -4    1    3    3    0  502  0.10308532343E+03  0.11949916690E+04  0.12265725271E+04  0.17155504802E+04  0.12699999809E+01 0.  1.
</event>
<event>
 5   0  0.1302063E-05  0.2851574E+04  0.7818609E-02  0.8287433E-01
       -2   -1    0    0    0  501  0.00000000000E+00  0.00000000000E+00  0.15329585269E+04  0.15329585269E+04  0.25500000920E-02 0. -1.
        2   -1    0    0  501    0  0.00000000000E+00  0.00000000000E+00 -0.13261079349E+04  0.13261079349E+04  0.25500000920E-02 0.  1.
    10030    2    1    2    0    0  0.00000000000E+00  0.00000000000E+00  0.20685059200E+03  0.28590664618E+04  0.28515739277E+04 0.  0.
        2    1    3    3  502    0  0.59110991926E+03  0.11062213678E+04  0.78324210014E+03  0.14787172951E+04  0.25500000920E-02 0. -1.
       -2    1    3    3    0  502 -0.59110991926E+03 -0.11062213678E+04 -0.57639150814E+03  0.13803491667E+04  0.25500000920E-02 0.  1.
</event>
<event>
 5   0  0.1330962E-05  0.2753416E+04  0.7818609E-02  0.8317879E-01
        2   -1    0    0  501    0  0.00000000000E+00  0.00000000000E+00  0.16158544667E+04  0.16158544667E+04  0.25500000920E-02 0. -1.
       -2   -1    0    0    0  501  0.00000000000E+00  0.00000000000E+00 -0.11729547899E+04  0.11729547899E+04  0.25500000920E-02 0.  1.
    10030    2    1    2    0    0  0.00000000000E+00  0.00000000000E+00  0.44289967681E+03  0.27888092567E+04  0.27534155056E+04 0.  0.
        4    1    3    3  502    0  0.82158575409E+03 -0.11024180620E+04  0.14987399093E+03  0.13830374401E+04  0.12699999809E+01 0. -1.
       -4    1    3    3    0  502 -0.82158575409E+03  0.11024180620E+04  0.29302568588E+03  0.14057718165E+04  0.12699999809E+01 0.  1.
</event>
<event>
 5   0  0.5107453E-06  0.2801464E+04  0.7818609E-02  0.8302814E-01
        1   -1    0    0  501    0  0.00000000000E+00  0.00000000000E+00  0.13126570876E+04  0.13126570876E+04  0.50400001928E-02 0. -1.
       -1   -1    0    0    0  501  0.00000000000E+00  0.00000000000E+00 -0.14947160975E+04  0.14947160975E+04  0.50400001928E-02 0.  1.
    10030    2    1    2    0    0  0.00000000000E+00  0.00000000000E+00 -0.18205900993E+03  0.28073731852E+04  0.28014636742E+04 0.  0.
        2    1    3    3  502    0 -0.49588628356E+03 -0.97646293289E+03 -0.96617955029E+03  0.14604403408E+04  0.25500000920E-02 0.  1.
       -2    1    3    3    0  502  0.49588628356E+03  0.97646293289E+03  0.78412054036E+03  0.13469328444E+04  0.25500000920E-02 0. -1.
</event>
<event>
 5   0  0.1388269E-05  0.2624578E+04  0.7818609E-02  0.8359900E-01
       -2   -1    0    0    0  501  0.00000000000E+00  0.00000000000E+00  0.83629682395E+03  0.83629682395E+03  0.25500000920E-02 0. -1.
        2   -1    0    0  501    0  0.00000000000E+00  0.00000000000E+00 -0.20592006590E+04  0.20592006590E+04  0.25500000920E-02 0.  1.
    10030    2    1    2    0    0  0.00000000000E+00  0.00000000000E+00 -0.12229038351E+04  0.28954974830E+04  0.26245784203E+04 0.  0.
        1    1    3    3  502    0 -0.39210554415E+03 -0.11514016043E+04 -0.68030955106E+02  0.12182366860E+04  0.50400001928E-02 0. -1.
       -1    1    3    3    0  502  0.39210554415E+03  0.11514016043E+04 -0.11548728800E+04  0.16772607970E+04  0.50400001928E-02 0.  1.
</event>
<event>
 5   0  0.5281919E-06  0.2696214E+04  0.7818609E-02  0.8336234E-01
        1   -1    0    0  501    0  0.00000000000E+00  0.00000000000E+00  0.10609120444E+04  0.10609120444E+04  0.50400001928E-02 0.  1.
       -1   -1    0    0    0  501  0.00000000000E+00  0.00000000000E+00 -0.17130475821E+04  0.17130475821E+04  0.50400001928E-02 0. -1.
    10030    2    1    2    0    0  0.00000000000E+00  0.00000000000E+00 -0.65213553774E+03  0.27739596266E+04  0.26962142441E+04 0.  0.
        4    1    3    3  502    0  0.67561901050E+03 -0.59715870442E+03 -0.13571286460E+04  0.16293739106E+04  0.12699999809E+01 0. -1.
       -4    1    3    3    0  502 -0.67561901050E+03  0.59715870442E+03  0.70499310830E+03  0.11445857160E+04  0.12699999809E+01 0.  1.
</event>
<event>
 5   0  0.5107453E-06  0.2774801E+04  0.7818609E-02  0.8311135E-01
       -1   -1    0    0    0  501  0.00000000000E+00  0.00000000000E+00  0.79411754563E+03  0.79411754565E+03  0.50400001928E-02 0. -1.
        1   -1    0    0  501    0  0.00000000000E+00  0.00000000000E+00 -0.24239231328E+04  0.24239231328E+04  0.50400001928E-02 0.  1.
    10030    2    1    2    0    0  0.00000000000E+00  0.00000000000E+00 -0.16298055871E+04  0.32180406784E+04  0.27748008138E+04 0.  0.
        2    1    3    3  502    0 -0.61965267128E+03 -0.10490111859E+04 -0.45195210359E+02  0.12191950247E+04  0.25500000920E-02 0. -1.
       -2    1    3    3    0  502  0.61965267128E+03  0.10490111859E+04 -0.15846103768E+04  0.19988456537E+04  0.25500000920E-02 0.  1.
</event>
<event>
 5   0  0.5217999E-06  0.2811634E+04  0.7818609E-02  0.8299666E-01
        1   -1    0    0  501    0  0.00000000000E+00  0.00000000000E+00  0.15842126763E+04  0.15842126763E+04  0.50400001928E-02 0.  1.
       -1   -1    0    0    0  501  0.00000000000E+00  0.00000000000E+00 -0.12475101254E+04  0.12475101254E+04  0.50400001928E-02 0. -1.
    10030    2    1    2    0    0  0.00000000000E+00  0.00000000000E+00  0.33670255095E+03  0.28317228017E+04  0.28116339410E+04 0.  0.
        1    1    3    3  502    0 -0.90218542968E+03 -0.39646710392E+03 -0.84140712474E+03  0.12957973081E+04  0.50400001928E-02 0.  1.
       -1    1    3    3    0  502  0.90218542968E+03  0.39646710392E+03  0.11781096757E+04  0.15359254936E+04  0.50400001928E-02 0. -1.
</event>
<event>
 5   0  0.1388269E-05  0.2752764E+04  0.7818609E-02  0.8318085E-01
       -2   -1    0    0    0  501  0.00000000000E+00  0.00000000000E+00  0.77656805108E+03  0.77656805109E+03  0.25500000920E-02 0. -1.
        2   -1    0    0  501    0  0.00000000000E+00  0.00000000000E+00 -0.24394860377E+04  0.24394860377E+04  0.25500000920E-02 0.  1.
    10030    2    1    2    0    0  0.00000000000E+00  0.00000000000E+00 -0.16629179866E+04  0.32160540888E+04  0.27527636426E+04 0.  0.
        1    1    3    3  502    0 -0.44224439109E+03  0.12468223748E+04 -0.38768825237E+03  0.13785674872E+04  0.50400001928E-02 0.  1.
       -1    1    3    3    0  502  0.44224439109E+03 -0.12468223748E+04 -0.12752297343E+04  0.18374866016E+04  0.50400001928E-02 0. -1.
</event>
<event>
 5   0  0.4764214E-06  0.2792904E+04  0.7818609E-02  0.8305475E-01
       -1   -1    0    0    0  501  0.00000000000E+00  0.00000000000E+00  0.19520052321E+04  0.19520052321E+04  0.50400001928E-02 0.  1.
        1   -1    0    0  501    0  0.00000000000E+00  0.00000000000E+00 -0.99901301820E+03  0.99901301821E+03  0.50400001928E-02 0. -1.
    10030    2    1    2    0    0  0.00000000000E+00  0.00000000000E+00  0.95299221387E+03  0.29510182503E+04  0.27929043224E+04 0.  0.
        3    1    3    3  502    0 -0.20130383290E+03 -0.78086384006E+03 -0.72813835358E+03  0.10864883994E+04  0.10100000352E+00 0. -1.
       -3    1    3    3    0  502  0.20130383290E+03  0.78086384006E+03  0.16811305675E+04  0.18645298509E+04  0.10100000352E+00 0.  1.
</event>
<event>
 5   0  0.5023691E-06  0.2828925E+04  0.7818609E-02  0.8294344E-01
       -1   -1    0    0    0  501  0.00000000000E+00  0.00000000000E+00  0.11370089384E+04  0.11370089384E+04  0.50400001928E-02 0.  1.
        1   -1    0    0  501    0  0.00000000000E+00  0.00000000000E+00 -0.17596200112E+04  0.17596200112E+04  0.50400001928E-02 0. -1.
    10030    2    1    2    0    0  0.00000000000E+00  0.00000000000E+00 -0.62261107280E+03  0.28966289495E+04  0.28289246585E+04 0.  0.
        5    1    3    3  502    0  0.12405910471E+04 -0.51372451196E+03  0.14397348964E+03  0.13504552847E+04  0.46999998093E+01 0.  1.
       -5    1    3    3    0  502 -0.12405910471E+04  0.51372451196E+03 -0.76658456243E+03  0.15461736648E+04  0.46999998093E+01 0. -1.
</event>
<event>
 5   0  0.4764214E-06  0.2755851E+04  0.7818609E-02  0.8317108E-01
        1   -1    0    0  501    0  0.00000000000E+00  0.00000000000E+00  0.19178951130E+04  0.19178951130E+04  0.50400001928E-02 0. -1.
       -1   -1    0    0    0  501  0.00000000000E+00  0.00000000000E+00 -0.98998010909E+03  0.98998010910E+03  0.50400001928E-02 0.  1.
    10030    2    1    2    0    0  0.00000000000E+00  0.00000000000E+00  0.92791500390E+03  0.29078752221E+04  0.27558505135E+04 0.  0.
        3    1    3    3  502    0  0.56115460331E+02  0.86721562888E+03 -0.66436112957E+03  0.10938864715E+04  0.10100000352E+00 0.  1.
       -3    1    3    3    0  502 -0.56115460331E+02 -0.86721562888E+03  0.15922761335E+04  0.18139887506E+04  0.10100000352E+00 0. -1.
</event>
<event>
 5   0  0.1302063E-05  0.2813006E+04  0.7818609E-02  0.8299242E-01
        2   -1    0    0  501    0  0.00000000000E+00  0.00000000000E+00  0.19952071613E+04  0.19952071613E+04  0.25500000920E-02 0.  1.
       -2   -1    0    0    0  501  0.00000000000E+00  0.00000000000E+00 -0.99150159740E+03  0.99150159740E+03  0.25500000920E-02 0. -1.
    10030    2    1    2    0    0  0.00000000000E+00  0.00000000000E+00  0.10037055639E+04  0.29867087587E+04  0.28130062833E+04 0.  0.
        2    1    3    3  502    0  0.33207252298E+03  0.11667283974E+04 -0.25394882945E+03  0.12393616590E+04  0.25500000920E-02 0.  1.
       -2    1    3    3    0  502 -0.33207252298E+03 -0.11667283974E+04  0.12576543933E+04  0.17473470997E+04  0.25500000920E-02 0. -1.
</event>
<event>
 5   0  0.1302063E-05  0.2825861E+04  0.7818609E-02  0.8295284E-01
       -2   -1    0    0    0  501  0.00000000000E+00  0.00000000000E+00  0.16769447626E+04  0.16769447626E+04  0.25500000920E-02 0.  1.
        2   -1    0    0  501    0  0.00000000000E+00  0.00000000000E+00 -0.11904820372E+04  0.11904820372E+04  0.25500000920E-02 0. -1.
    10030    2    1    2    0    0  0.00000000000E+00  0.00000000000E+00  0.48646272541E+03  0.28674267999E+04  0.28258610138E+04 0.  0.
        2    1    3    3  502    0 -0.60109154051E+03 -0.65506278218E+03 -0.87108106075E+03  0.12446688327E+04  0.25500000920E-02 0. -1.
       -2    1    3    3    0  502  0.60109154051E+03  0.65506278218E+03  0.13575437862E+04  0.16227579672E+04  0.25500000920E-02 0.  1.
</event>
<event>
 5   0  0.1330962E-05  0.2835644E+04  0.7818609E-02  0.8292287E-01
       -2   -1    0    0    0  501  0.00000000000E+00  0.00000000000E+00  0.12222249681E+04  0.12222249681E+04  0.25500000920E-02 0.  1.
        2   -1    0    0  501    0  0.00000000000E+00  0.00000000000E+00 -0.16447212028E+04  0.16447212028E+04  0.25500000920E-02 0. -1.
    10030    2    1    2    0    0  0.00000000000E+00  0.00000000000E+00 -0.42249623467E+03  0.28669461709E+04  0.28356440677E+04 0.  0.
        4    1    3    3  502    0 -0.28188708029E+03  0.53500506871E+03 -0.15077952836E+04  0.16245426986E+04  0.12699999809E+01 0. -1.
       -4    1    3    3    0  502  0.28188708029E+03 -0.53500506871E+03  0.10852990489E+04  0.12424034723E+04  0.12699999809E+01 0.  1.
</event>
<event>
 5   0  0.4447500E-06  0.2873546E+04  0.7818609E-02  0.8280792E-01
        3   -1    0    0  501    0  0.00000000000E+00  0.00000000000E+00  0.10808101226E+04  0.10808101273E+04  0.10100000352E+00 0. -1.
       -3   -1    0    0    0  501  0.00000000000E+00  0.00000000000E+00 -0.19099722236E+04  0.19099722263E+04  0.10100000352E+00 0.  1.
    10030    2    1    2    0    0  0.00000000000E+00  0.00000000000E+00 -0.82916210099E+03  0.29907823536E+04  0.28735464668E+04 0.  0.
        4    1    3    3  502    0  0.91194673942E+03  0.10626834449E+04 -0.79947390093E+02  0.14026176092E+04  0.12699999809E+01 0. -1.
       -4    1    3    3    0  502 -0.91194673942E+03 -0.10626834449E+04 -0.74921471090E+03  0.15881647444E+04  0.12699999809E+01 0.  1.
</event>
<event>
 5   0  0.4764214E-06  0.2788974E+04  0.7818609E-02  0.8306700E-01
       -1   -1    0    0    0  501  0.00000000000E+00  0.00000000000E+00  0.77585430965E+03  0.77585430967E+03  0.50400001928E-02 0.  1.
        1   -1    0    0  501    0  0.00000000000E+00  0.00000000000E+00 -0.25063907030E+04  0.25063907030E+04  0.50400001928E-02 0. -1.
    10030    2    1    2    0    0  0.00000000000E+00  0.00000000000E+00 -0.17305363933E+04  0.32822450126E+04  0.27889740254E+04 0.  0.
        3    1    3    3  502    0 -0.98369350214E+03  0.26989832871E+02 -0.20280513890E+04  0.22541902767E+04  0.10100000352E+00 0. -1.
       -3    1    3    3    0  502  0.98369350214E+03 -0.26989832871E+02  0.29751499564E+03  0.10280547359E+04  0.10100000352E+00 0.  1.
</event>
<event>
 5   0  0.5281919E-06  0.2829466E+04  0.7818609E-02  0.8294178E-01
        1   -1    0    0  501    0  0.00000000000E+00  0.00000000000E+00  0.20490607522E+04  0.20490607522E+04  0.50400001928E-02 0.  1.
       -1   -1    0    0    0  501  0.00000000000E+00  0.00000000000E+00 -0.97677407630E+03  0.97677407631E+03  0.50400001928E-02 0. -1.
    10030    2    1    2    0    0  0.00000000000E+00  0.00000000000E+00  0.10722866759E+04  0.30258348285E+04  0.28294659733E+04 0.  0.
        4    1    3    3  502    0 -0.19950298677E+03  0.13565545135E+04  0.90878978192E+03  0.16449747932E+04  0.12699999809E+01 0. -1.
       -4    1    3    3    0  502  0.19950298677E+03 -0.13565545135E+04  0.16349689396E+03  0.13808600353E+04  0.12699999809E+01 0.  1.
</event>
<event>
 5   0  0.1283052E-05  0.2801201E+04  0.7818609E-02  0.8302896E-01
        2   -1    0    0  501    0  0.00000000000E+00  0.00000000000E+00  0.16275132393E+04  0.16275132393E+04  0.25500000920E-02 0.  1.
       -2   -1    0    0    0  501  0.00000000000E+00  0.00000000000E+00 -0.12053245981E+04  0.12053245981E+04  0.25500000920E-02 0. -1.
    10030    2    1    2    0    0  0.00000000000E+00  0.00000000000E+00  0.42218864122E+03  0.28328378374E+04  0.28012009860E+04 0.  0.
        5    1    3    3  502    0 -0.13684792550E+04 -0.95708925074E+02  0.49670921779E+03  0.14589851975E+04  0.46999998093E+01 0. -1.
       -5    1    3    3    0  502  0.13684792550E+04  0.95708925074E+02 -0.74520576573E+02  0.13738526398E+04  0.46999998093E+01 0.  1.
</event>
<event>
 5   0  0.5023691E-06  0.2784978E+04  0.7818609E-02  0.8307947E-01
        1   -1    0    0  501    0  0.00000000000E+00  0.00000000000E+00  0.24529953821E+04  0.24529953821E+04  0.50400001928E-02 0.  1.
       -1   -1    0    0    0  501  0.00000000000E+00  0.00000000000E+00 -0.79047285607E+03  0.79047285608E+03  0.50400001928E-02 0. -1.
    10030    2    1    2    0    0  0.00000000000E+00  0.00000000000E+00  0.16625225260E+04  0.32434682382E+04  0.27849784672E+04 0.  0.
        5    1    3    3  502    0  0.25591434178E+03 -0.90360147717E+03  0.20286320818E+04  0.22354771288E+04  0.46999998093E+01 0.  1.
       -5    1    3    3    0  502 -0.25591434178E+03  0.90360147717E+03 -0.36610955577E+03  0.10079911094E+04  0.46999998093E+01 0. -1.
</event>
<event>
 5   0  0.5107453E-06  0.2744401E+04  0.7818609E-02  0.8320740E-01
       -1   -1    0    0    0  501  0.00000000000E+00  0.00000000000E+00  0.14574283179E+04  0.14574283179E+04  0.50400001928E-02 0.  1.
        1   -1    0    0  501    0  0.00000000000E+00  0.00000000000E+00 -0.12919570958E+04  0.12919570958E+04  0.50400001928E-02 0. -1.
    10030    2    1    2    0    0  0.00000000000E+00  0.00000000000E+00  0.16547122212E+03  0.27493854137E+04  0.27444014699E+04 0.  0.
        2    1    3    3  502    0 -0.15660948973E+03  0.64152064955E+03  0.12877748069E+04  0.14472177546E+04  0.25500000920E-02 0.  1.
       -2    1    3    3    0  502  0.15660948973E+03 -0.64152064955E+03 -0.11223035847E+04  0.13021676591E+04  0.25500000920E-02 0. -1.
</event>
<event>
 5   0  0.1350863E-05  0.2796953E+04  0.7818609E-02  0.8304215E-01
        2   -1    0    0  501    0  0.00000000000E+00  0.00000000000E+00  0.14801810590E+04  0.14801810590E+04  0.25500000920E-02 0.  1.
       -2   -1    0    0    0  501  0.00000000000E+00  0.00000000000E+00 -0.13212822430E+04  0.13212822430E+04  0.25500000920E-02 0. -1.
    10030    2    1    2    0    0  0.00000000000E+00  0.00000000000E+00  0.15889881601E+03  0.28014633019E+04  0.27969533064E+04 0.  0.
        3    1    3    3  502    0 -0.78729843110E+03 -0.36147189847E+02 -0.10776585993E+04  0.13351005602E+04  0.10100000352E+00 0. -1.
       -3    1    3    3    0  502  0.78729843110E+03  0.36147189847E+02  0.12365574153E+04  0.14663627418E+04  0.10100000352E+00 0.  1.
</event>
<event>
 5   0  0.4764214E-06  0.2750348E+04  0.7818609E-02  0.8318851E-01
        1   -1    0    0  501    0  0.00000000000E+00  0.00000000000E+00  0.25891767282E+04  0.25891767282E+04  0.50400001928E-02 0. -1.
       -1   -1    0    0    0  501  0.00000000000E+00  0.00000000000E+00 -0.73038808287E+03  0.73038808289E+03  0.50400001928E-02 0.  1.
    10030    2    1    2    0    0  0.00000000000E+00  0.00000000000E+00  0.18587886454E+04  0.33195648111E+04  0.27503482156E+04 0.  0.
        3    1    3    3  502    0 -0.50257250511E+03  0.17343454526E+03  0.24601172878E+04  0.25169099595E+04  0.10100000352E+00 0. -1.
       -3    1    3    3    0  502  0.50257250511E+03 -0.17343454526E+03 -0.60132864244E+03  0.80265485160E+03  0.10100000352E+00 0.  1.
</event>
<event>
 5   0  0.4764214E-06  0.2819066E+04  0.7818609E-02  0.8297373E-01
       -1   -1    0    0    0  501  0.00000000000E+00  0.00000000000E+00  0.13194446561E+04  0.13194446561E+04  0.50400001928E-02 0.  1.
        1   -1    0    0  501    0  0.00000000000E+00  0.00000000000E+00 -0.15057726754E+04  0.15057726754E+04  0.50400001928E-02 0. -1.
    10030    2    1    2    0    0  0.00000000000E+00  0.00000000000E+00 -0.18632801922E+03  0.28252173315E+04  0.28190663063E+04 0.  0.
        3    1    3    3  502    0 -0.19994436197E+02  0.18924892947E+03  0.13065109840E+04  0.13202976544E+04  0.10100000352E+00 0.  1.
       -3    1    3    3    0  502  0.19994436197E+02 -0.18924892947E+03 -0.14928390032E+04  0.15049196771E+04  0.10100000352E+00 0. -1.
</event>
<event>
 5   0  0.4764214E-06  0.2779273E+04  0.7818609E-02  0.8309732E-01
        1   -1    0    0  501    0  0.00000000000E+00  0.00000000000E+00  0.71426912353E+03  0.71426912355E+03  0.50400001928E-02 0. -1.
       -1   -1    0    0    0  501  0.00000000000E+00  0.00000000000E+00 -0.27035874869E+04  0.27035874869E+04  0.50400001928E-02 0.  1.
    10030    2    1    2    0    0  0.00000000000E+00  0.00000000000E+00 -0.19893183634E+04  0.34178566105E+04  0.27792726133E+04 0.  0.
        3    1    3    3  502    0  0.75178912876E+03 -0.26665885629E+03  0.40468077034E+03  0.89446094148E+03  0.10100000352E+00 0. -1.
       -3    1    3    3    0  502 -0.75178912876E+03  0.26665885629E+03 -0.23939991337E+04  0.25233956690E+04  0.10100000352E+00 0.  1.
</event>
<event>
 5   0  0.4447500E-06  0.2756692E+04  0.7818609E-02  0.8316841E-01
       -4   -1    0    0    0  501  0.00000000000E+00  0.00000000000E+00  0.19847073790E+04  0.19847077853E+04  0.12699999809E+01 0. -1.
        4   -1    0    0  501    0  0.00000000000E+00  0.00000000000E+00 -0.95723745105E+03  0.95723829353E+03  0.12699999809E+01 0.  1.
    10030    2    1    2    0    0  0.00000000000E+00  0.00000000000E+00  0.10274699279E+04  0.29419460789E+04  0.27566922712E+04 0.  0.
        5    1    3    3  502    0  0.12162379353E+04 -0.63774727204E+03  0.38809637790E+03  0.14270939657E+04  0.46999998093E+01 0.  1.
       -5    1    3    3    0  502 -0.12162379353E+04  0.63774727204E+03  0.63937355005E+03  0.15148521132E+04  0.46999998093E+01 0. -1.
</event>
<event>
 5   0  0.5281919E-06  0.2802290E+04  0.7818609E-02  0.8302558E-01
       -1   -1    0    0    0  501  0.00000000000E+00  0.00000000000E+00  0.64481764569E+03  0.64481764571E+03  0.50400001928E-02 0.  1.
        1   -1    0    0  501    0  0.00000000000E+00  0.00000000000E+00 -0.30445923539E+04  0.30445923539E+04  0.50400001928E-02 0. -1.
    10030    2    1    2    0    0  0.00000000000E+00  0.00000000000E+00 -0.23997747082E+04  0.36894099996E+04  0.28022896879E+04 0.  0.
        4    1    3    3  502    0  0.13475928484E+04 -0.36739806337E+03 -0.13454111385E+04  0.19393608655E+04  0.12699999809E+01 0. -1.
       -4    1    3    3    0  502 -0.13475928484E+04  0.36739806337E+03 -0.10543635697E+04  0.17500491341E+04  0.12699999809E+01 0.  1.
</event>
<event>
 5   0  0.5281919E-06  0.2847613E+04  0.7818609E-02  0.8288637E-01
       -1   -1    0    0    0  501  0.00000000000E+00  0.00000000000E+00  0.68898118667E+03  0.68898118669E+03  0.50400001928E-02 0.  1.
        1   -1    0    0  501    0  0.00000000000E+00  0.00000000000E+00 -0.29423526925E+04  0.29423526925E+04  0.50400001928E-02 0. -1.
    10030    2    1    2    0    0  0.00000000000E+00  0.00000000000E+00 -0.22533715058E+04  0.36313338792E+04  0.28476134918E+04 0.  0.
        4    1    3    3  502    0 -0.93941883801E+02  0.11098538044E+04  0.43298485020E+01  0.11138316323E+04  0.12699999809E+01 0.  1.
       -4    1    3    3    0  502  0.93941883801E+02 -0.11098538044E+04 -0.22577013543E+04  0.25175022469E+04  0.12699999809E+01 0. -1.
</event>
<event>
 5   0  0.1350863E-05  0.2761308E+04  0.7818609E-02  0.8315382E-01
        2   -1    0    0  501    0  0.00000000000E+00  0.00000000000E+00  0.13087623472E+04  0.13087623472E+04  0.25500000920E-02 0.  1.
       -2   -1    0    0    0  501  0.00000000000E+00  0.00000000000E+00 -0.14564950232E+04  0.14564950232E+04  0.25500000920E-02 0. -1.
    10030    2    1    2    0    0  0.00000000000E+00  0.00000000000E+00 -0.14773267596E+03  0.27652573704E+04  0.27613082734E+04 0.  0.
        3    1    3    3  502    0  0.12578656622E+03 -0.10579023533E+04  0.80558446106E+03  0.13356444076E+04  0.10100000352E+00 0.  1.
       -3    1    3    3    0  502 -0.12578656622E+03  0.10579023533E+04 -0.95331713702E+03  0.14296129628E+04  0.10100000352E+00 0. -1.
</event>
<event>
 5   0  0.1330962E-05  0.2461261E+04  0.7818609E-02  0.8416918E-01
        2   -1    0    0  501    0  0.00000000000E+00  0.00000000000E+00  0.15113178607E+04  0.15113178607E+04  0.25500000920E-02 0.  1.
       -2   -1    0    0    0  501  0.00000000000E+00  0.00000000000E+00 -0.10020735761E+04  0.10020735761E+04  0.25500000920E-02 0. -1.
    10030    2    1    2    0    0  0.00000000000E+00  0.00000000000E+00  0.50924428458E+03  0.25133914369E+04  0.24612612160E+04 0.  0.
        4    1    3    3  502    0  0.58511860359E+03 -0.52075722053E+03  0.12238821340E+04  0.14530798168E+04  0.12699999809E+01 0.  1.
       -4    1    3    3    0  502 -0.58511860359E+03  0.52075722053E+03 -0.71463784943E+03  0.10603116201E+04  0.12699999809E+01 0. -1.
</event>
<event>
 5   0  0.1330962E-05  0.2817432E+04  0.7818609E-02  0.8297877E-01
        2   -1    0    0  501    0  0.00000000000E+00  0.00000000000E+00  0.12936720559E+04  0.12936720559E+04  0.25500000920E-02 0. -1.
       -2   -1    0    0    0  501  0.00000000000E+00  0.00000000000E+00 -0.15339908212E+04  0.15339908212E+04  0.25500000920E-02 0.  1.
    10030    2    1    2    0    0  0.00000000000E+00  0.00000000000E+00 -0.24031876530E+03  0.28276628772E+04  0.28174322065E+04 0.  0.
        4    1    3    3  502    0 -0.11116068587E+03 -0.13377760488E+04 -0.54888496785E+03  0.14502681737E+04  0.12699999809E+01 0.  1.
       -4    1    3    3    0  502  0.11116068587E+03  0.13377760488E+04  0.30856620255E+03  0.13773947035E+04  0.12699999809E+01 0. -1.
</event>
<event>
 5   0  0.5023691E-06  0.2798270E+04  0.7818609E-02  0.8303806E-01
        1   -1    0    0  501    0  0.00000000000E+00  0.00000000000E+00  0.16142789248E+04  0.16142789248E+04  0.50400001928E-02 0.  1.
       -1   -1    0    0    0  501  0.00000000000E+00  0.00000000000E+00 -0.12126648930E+04  0.12126648930E+04  0.50400001928E-02 0. -1.
    10030    2    1    2    0    0  0.00000000000E+00  0.00000000000E+00  0.40161403187E+03  0.28269438178E+04  0.27982704513E+04 0.  0.
        5    1    3    3  502    0  0.51532058215E+03 -0.63189856750E+03  0.13494297420E+04  0.15766527267E+04  0.46999998093E+01 0.  1.
       -5    1    3    3    0  502 -0.51532058215E+03  0.63189856750E+03 -0.94781571018E+03  0.12502910911E+04  0.46999998093E+01 0. -1.
</event>
<event>
 5   0  0.4764214E-06  0.2820585E+04  0.7818609E-02  0.8296906E-01
       -1   -1    0    0    0  501  0.00000000000E+00  0.00000000000E+00  0.11558609232E+04  0.11558609232E+04  0.50400001928E-02 0.  1.
        1   -1    0    0  501    0  0.00000000000E+00  0.00000000000E+00 -0.17207307164E+04  0.17207307164E+04  0.50400001928E-02 0. -1.
    10030    2    1    2    0    0  0.00000000000E+00  0.00000000000E+00 -0.56486979321E+03  0.28765916397E+04  0.28205853255E+04 0.  0.
        3    1    3    3  502    0  0.12070204508E+04  0.11832742178E+03  0.45159643615E+03  0.12941557475E+04  0.10100000352E+00 0.  1.
       -3    1    3    3    0  502 -0.12070204508E+04 -0.11832742178E+03 -0.10164662294E+04  0.15824358922E+04  0.10100000352E+00 0. -1.
</event>
<event>
 5   0  0.1330962E-05  0.2818184E+04  0.7818609E-02  0.8297645E-01
        2   -1    0    0  501    0  0.00000000000E+00  0.00000000000E+00  0.17394857460E+04  0.17394857460E+04  0.25500000920E-02 0.  1.
       -2   -1    0    0    0  501  0.00000000000E+00  0.00000000000E+00 -0.11414528491E+04  0.11414528491E+04  0.25500000920E-02 0. -1.
    10030    2    1    2    0    0  0.00000000000E+00  0.00000000000E+00  0.59803289690E+03  0.28809385950E+04  0.28181844940E+04 0.  0.
        4    1    3    3  502    0 -0.37166523429E+03  0.80230950281E+03  0.14205812980E+04  0.16732867124E+04  0.12699999809E+01 0.  1.
       -4    1    3    3    0  502  0.37166523429E+03 -0.80230950281E+03 -0.82254840108E+03  0.12076518827E+04  0.12699999809E+01 0. -1.
</event>
<event>
 5   0  0.1283052E-05  0.2784919E+04  0.7818609E-02  0.8307966E-01
       -2   -1    0    0    0  501  0.00000000000E+00  0.00000000000E+00  0.20223965747E+04  0.20223965747E+04  0.25500000920E-02 0.  1.
        2   -1    0    0  501    0  0.00000000000E+00  0.00000000000E+00 -0.95873532900E+03  0.95873532900E+03  0.25500000920E-02 0. -1.
    10030    2    1    2    0    0  0.00000000000E+00  0.00000000000E+00  0.10636612457E+04  0.29811319037E+04  0.27849187029E+04 0.  0.
        5    1    3    3  502    0  0.79124794278E+03  0.67756006491E+03  0.15209223606E+04  0.18434716883E+04  0.46999998093E+01 0.  1.
       -5    1    3    3    0  502 -0.79124794278E+03 -0.67756006491E+03 -0.45726111491E+03  0.11376602154E+04  0.46999998093E+01 0. -1.
</event>
<event>
 5   0  0.5023691E-06  0.2807135E+04  0.7818609E-02  0.8301057E-01
        1   -1    0    0  501    0  0.00000000000E+00  0.00000000000E+00  0.19690403381E+04  0.19690403381E+04  0.50400001928E-02 0. -1.
       -1   -1    0    0    0  501  0.00000000000E+00  0.00000000000E+00 -0.10004882015E+04  0.10004882015E+04  0.50400001928E-02 0.  1.
    10030    2    1    2    0    0  0.00000000000E+00  0.00000000000E+00  0.96855213665E+03  0.29695285396E+04  0.28071349283E+04 0.  0.
        5    1    3    3  502    0 -0.11554364880E+04  0.30537140014E+03 -0.29430058214E+03  0.12308209019E+04  0.46999998093E+01 0.  1.
       -5    1    3    3    0  502  0.11554364880E+04 -0.30537140014E+03  0.12628527188E+04  0.17387076377E+04  0.46999998093E+01 0. -1.
</event>
<event>
 5   0  0.4764214E-06  0.2081968E+04  0.7818609E-02  0.8569228E-01
        1   -1    0    0  501    0  0.00000000000E+00  0.00000000000E+00  0.69395133691E+03  0.69395133693E+03  0.50400001928E-02 0. -1.
       -1   -1    0    0    0  501  0.00000000000E+00  0.00000000000E+00 -0.15615621135E+04  0.15615621135E+04  0.50400001928E-02 0.  1.
    10030    2    1    2    0    0  0.00000000000E+00  0.00000000000E+00 -0.86761077656E+03  0.22555134504E+04  0.20819684112E+04 0.  0.
        3    1    3    3  502    0  0.40388517318E+03 -0.95935013525E+03 -0.44802135922E+03  0.11332250719E+04  0.10100000352E+00 0.  1.
       -3    1    3    3    0  502 -0.40388517318E+03  0.95935013525E+03 -0.41958941734E+03  0.11222883785E+04  0.10100000352E+00 0. -1.
</event>
<event>
 5   0  0.1302063E-05  0.2725363E+04  0.7818609E-02  0.8326822E-01
       -2   -1    0    0    0  501  0.00000000000E+00  0.00000000000E+00  0.12662364008E+04  0.12662364008E+04  0.25500000920E-02 0. -1.
        2   -1    0    0  501    0  0.00000000000E+00  0.00000000000E+00 -0.14664721481E+04  0.14664721481E+04  0.25500000920E-02 0.  1.
    10030    2    1    2    0    0  0.00000000000E+00  0.00000000000E+00 -0.20023574737E+03  0.27327085489E+04  0.27253626656E+04 0.  0.
        2    1    3    3  502    0 -0.23822179053E+03  0.20118860019E+03 -0.14302203879E+04  0.14638158465E+04  0.25500000920E-02 0.  1.
       -2    1    3    3    0  502  0.23822179053E+03 -0.20118860019E+03  0.12299846406E+04  0.12688927025E+04  0.25500000920E-02 0. -1.
</event>
<event>
 5   0  0.1283052E-05  0.2821702E+04  0.7818609E-02  0.8296562E-01
       -2   -1    0    0    0  501  0.00000000000E+00  0.00000000000E+00  0.11295180363E+04  0.11295180363E+04  0.25500000920E-02 0.  1.
        2   -1    0    0  501    0  0.00000000000E+00  0.00000000000E+00 -0.17622569345E+04  0.17622569345E+04  0.25500000920E-02 0. -1.
    10030    2    1    2    0    0  0.00000000000E+00  0.00000000000E+00 -0.63273889817E+03  0.28917749708E+04  0.28217023175E+04 0.  0.
        5    1    3    3  502    0  0.71657796196E+02  0.85368834021E+03 -0.14651708682E+04  0.16972525990E+04  0.46999998093E+01 0. -1.
       -5    1    3    3    0  502 -0.71657796196E+02 -0.85368834021E+03  0.83243197001E+03  0.11945223718E+04  0.46999998093E+01 0.  1.
</event>
<event>
 5   0  0.1388269E-05  0.2717588E+04  0.7818609E-02  0.8329321E-01
       -2   -1    0    0    0  501  0.00000000000E+00  0.00000000000E+00  0.15821971100E+04  0.15821971100E+04  0.25500000920E-02 0. -1.
        2   -1    0    0  501    0  0.00000000000E+00  0.00000000000E+00 -0.11669347002E+04  0.11669347002E+04  0.25500000920E-02 0.  1.
    10030    2    1    2    0    0  0.00000000000E+00  0.00000000000E+00  0.41526240987E+03  0.27491318102E+04  0.27175876878E+04 0.  0.
        1    1    3    3  502    0 -0.11037821282E+04  0.65293655635E+03 -0.24664649978E+03  0.13059462581E+04  0.50400001928E-02 0.  1.
       -1    1    3    3    0  502  0.11037821282E+04 -0.65293655635E+03  0.66190890965E+03  0.14431855521E+04  0.50400001928E-02 0. -1.
</event>
<event>
 5   0  0.1330962E-05  0.2797260E+04  0.7818609E-02  0.8304120E-01
       -2   -1    0    0    0  501  0.00000000000E+00  0.00000000000E+00  0.15704328406E+04  0.15704328406E+04  0.25500000920E-02 0.  1.
        2   -1    0    0  501    0  0.00000000000E+00  0.00000000000E+00 -0.12456221562E+04  0.12456221562E+04  0.25500000920E-02 0. -1.
    10030    2    1    2    0    0  0.00000000000E+00  0.00000000000E+00  0.32481068437E+03  0.28160549968E+04  0.27972600458E+04 0.  0.
        4    1    3    3  502    0 -0.21662442070E+03  0.12597477097E+04 -0.40910073767E+03  0.13421085866E+04  0.12699999809E+01 0. -1.
       -4    1    3    3    0  502  0.21662442070E+03 -0.12597477097E+04  0.73391142203E+03  0.14739464102E+04  0.12699999809E+01 0.  1.
</event>
<event>
 5   0  0.1283052E-05  0.2808585E+04  0.7818609E-02  0.8300608E-01
       -2   -1    0    0    0  501  0.00000000000E+00  0.00000000000E+00  0.14065909516E+04  0.14065909516E+04  0.25500000920E-02 0.  1.
        2   -1    0    0  501    0  0.00000000000E+00  0.00000000000E+00 -0.14019977544E+04  0.14019977544E+04  0.25500000920E-02 0. -1.
    10030    2    1    2    0    0  0.00000000000E+00  0.00000000000E+00  0.45931972187E+01  0.28085887060E+04  0.28085849501E+04 0.  0.
        5    1    3    3  502    0 -0.44179409791E+03 -0.12770052971E+04 -0.37992205928E+03  0.14036692683E+04  0.46999998093E+01 0. -1.
       -5    1    3    3    0  502  0.44179409791E+03  0.12770052971E+04  0.38451525650E+03  0.14049194376E+04  0.46999998093E+01 0.  1.
</event>
<event>
 5   0  0.1350863E-05  0.2495533E+04  0.7818609E-02  0.8404579E-01
        2   -1    0    0  501    0  0.00000000000E+00  0.00000000000E+00  0.17286362052E+04  0.17286362052E+04  0.25500000920E-02 0. -1.
       -2   -1    0    0    0  501  0.00000000000E+00  0.00000000000E+00 -0.90066467446E+03  0.90066467447E+03  0.25500000920E-02 0.  1.
    10030    2    1    2    0    0  0.00000000000E+00  0.00000000000E+00  0.82797153077E+03  0.26293008797E+04  0.24955332617E+04 0.  0.
        3    1    3    3  502    0 -0.25504764767E+03  0.21273555181E+03 -0.85323864962E+03  0.91559921417E+03  0.10100000352E+00 0.  1.
       -3    1    3    3    0  502  0.25504764767E+03 -0.21273555181E+03  0.16812101804E+04  0.17137016655E+04  0.10100000352E+00 0. -1.
</event>
<event>
 5   0  0.5281919E-06  0.2841632E+04  0.7818609E-02  0.8290459E-01
       -1   -1    0    0    0  501  0.00000000000E+00  0.00000000000E+00  0.97615149549E+03  0.97615149550E+03  0.50400001928E-02 0.  1.
        1   -1    0    0  501    0  0.00000000000E+00  0.00000000000E+00 -0.20680376259E+04  0.20680376259E+04  0.50400001928E-02 0. -1.
    10030    2    1    2    0    0  0.00000000000E+00  0.00000000000E+00 -0.10918861304E+04  0.30441891214E+04  0.28416319405E+04 0.  0.
        4    1    3    3  502    0  0.47245892571E+03 -0.50772749700E+03  0.78249487921E+03  0.10456120201E+04  0.12699999809E+01 0.  1.
       -4    1    3    3    0  502 -0.47245892571E+03  0.50772749700E+03 -0.18743810097E+04  0.19985771013E+04  0.12699999809E+01 0. -1.
</event>
<event>
 5   0  0.1283052E-05  0.2778431E+04  0.7818609E-02  0.8309996E-01
        2   -1    0    0  501    0  0.00000000000E+00  0.00000000000E+00  0.11147640750E+04  0.11147640750E+04  0.25500000920E-02 0.  1.
       -2   -1    0    0    0  501  0.00000000000E+00  0.00000000000E+00 -0.17312359885E+04  0.17312359885E+04  0.25500000920E-02 0. -1.
    10030    2    1    2    0    0  0.00000000000E+00  0.00000000000E+00 -0.61647191355E+03  0.28460000635E+04  0.27784309855E+04 0.  0.
        5    1    3    3  502    0 -0.11986273372E+04  0.21729890472E+03  0.37581545163E+03  0.12748276947E+04  0.46999998093E+01 0.  1.
       -5    1    3    3    0  502  0.11986273372E+04 -0.21729890472E+03 -0.99228736518E+03  0.15711723688E+04  0.46999998093E+01 0. -1.
</event>
<event>
 5   0  0.5023691E-06  0.2778934E+04  0.7818609E-02  0.8309839E-01
       -1   -1    0    0    0  501  0.00000000000E+00  0.00000000000E+00  0.21140652831E+04  0.21140652831E+04  0.50400001928E-02 0.  1.
        1   -1    0    0  501    0  0.00000000000E+00  0.00000000000E+00 -0.91322533213E+03  0.91322533214E+03  0.50400001928E-02 0. -1.
    10030    2    1    2    0    0  0.00000000000E+00  0.00000000000E+00  0.12008399510E+04  0.30272906152E+04  0.27789335871E+04 0.  0.
        5    1    3    3  502    0 -0.16254337093E+03  0.13772221070E+04  0.50648861364E+03  0.14763854121E+04  0.46999998093E+01 0. -1.
       -5    1    3    3    0  502  0.16254337093E+03 -0.13772221070E+04  0.69435133733E+03  0.15509052031E+04  0.46999998093E+01 0.  1.
</event>
<event>
 5   0  0.5023691E-06  0.2770545E+04  0.7818609E-02  0.8312472E-01
        1   -1    0    0  501    0  0.00000000000E+00  0.00000000000E+00  0.12085708075E+04  0.12085708075E+04  0.50400001928E-02 0.  1.
       -1   -1    0    0    0  501  0.00000000000E+00  0.00000000000E+00 -0.15878086920E+04  0.15878086920E+04  0.50400001928E-02 0. -1.
    10030    2    1    2    0    0  0.00000000000E+00  0.00000000000E+00 -0.37923788446E+03  0.27963794995E+04  0.27705445191E+04 0.  0.
        5    1    3    3  502    0 -0.12052142287E+04  0.40811307262E+03  0.36308161397E+03  0.13232339043E+04  0.46999998093E+01 0. -1.
       -5    1    3    3    0  502  0.12052142287E+04 -0.40811307262E+03 -0.74231949843E+03  0.14731455952E+04  0.46999998093E+01 0.  1.
</event>
<event>
 5   0  0.5023691E-06  0.2812679E+04  0.7818609E-02  0.8299343E-01
       -1   -1    0    0    0  501  0.00000000000E+00  0.00000000000E+00  0.10216153423E+04  0.10216153423E+04  0.50400001928E-02 0. -1.
        1   -1    0    0  501    0  0.00000000000E+00  0.00000000000E+00 -0.19359448434E+04  0.19359448434E+04  0.50400001928E-02 0.  1.
    10030    2    1    2    0    0  0.00000000000E+00  0.00000000000E+00 -0.91432950110E+03  0.29575601857E+04  0.28126791171E+04 0.  0.
        5    1    3    3  502    0  0.10241632796E+04 -0.15958736822E+03 -0.14565918404E+04  0.17877528999E+04  0.46999998093E+01 0.  1.
       -5    1    3    3    0  502 -0.10241632796E+04  0.15958736822E+03  0.54226233931E+03  0.11698072859E+04  0.46999998093E+01 0. -1.
</event>
<event>
 5   0  0.5217999E-06  0.2382014E+04  0.7818609E-02  0.8446268E-01
        1   -1    0    0  501    0  0.00000000000E+00  0.00000000000E+00  0.20267943684E+04  0.20267943684E+04  0.50400001928E-02 0.  1.
       -1   -1    0    0    0  501  0.00000000000E+00  0.00000000000E+00 -0.69987223568E+03  0.69987223570E+03  0.50400001928E-02 0. -1.
    10030    2    1    2    0    0  0.00000000000E+00  0.00000000000E+00  0.13269221327E+04  0.27266666041E+04  0.23820135230E+04 0.  0.
        1    1    3    3  502    0 -0.83870824233E+03  0.83794449876E+03  0.79354642432E+03  0.14266388563E+04  0.50400001928E-02 0.  1.
       -1    1    3    3    0  502  0.83870824233E+03 -0.83794449876E+03  0.53337570843E+03  0.13000277478E+04  0.50400001928E-02 0. -1.
</event>
<event>
 5   0  0.1350863E-05  0.2862807E+04  0.7818609E-02  0.8284030E-01
        2   -1    0    0  501    0  0.00000000000E+00  0.00000000000E+00  0.16850534286E+04  0.16850534286E+04  0.25500000920E-02 0.  1.
       -2   -1    0    0    0  501  0.00000000000E+00  0.00000000000E+00 -0.12159351879E+04  0.12159351879E+04  0.25500000920E-02 0. -1.
    10030    2    1    2    0    0  0.00000000000E+00  0.00000000000E+00  0.46911824064E+03  0.29009886165E+04  0.28628068446E+04 0.  0.
        3    1    3    3  502    0  0.12116679340E+04  0.27352941848E+03  0.95535335899E+03  0.15670537884E+04  0.10100000352E+00 0.  1.
       -3    1    3    3    0  502 -0.12116679340E+04 -0.27352941848E+03 -0.48623511836E+03  0.13339348281E+04  0.10100000352E+00 0. -1.
</event>
<event>
 5   0  0.4447500E-06  0.2790480E+04  0.7818609E-02  0.8306230E-01
       -4   -1    0    0    0  501  0.00000000000E+00  0.00000000000E+00  0.15048779854E+04  0.15048785213E+04  0.12699999809E+01 0.  1.
        4   -1    0    0  501    0  0.00000000000E+00  0.00000000000E+00 -0.12935889912E+04  0.12935896146E+04  0.12699999809E+01 0. -1.
    10030    2    1    2    0    0  0.00000000000E+00  0.00000000000E+00  0.21128899418E+03  0.27984681359E+04  0.27904804010E+04 0.  0.
        4    1    3    3  502    0  0.13617076011E+04 -0.17438381031E+03 -0.14413934032E+03  0.13803749732E+04  0.12699999809E+01 0.  1.
       -4    1    3    3    0  502 -0.13617076011E+04  0.17438381031E+03  0.35542833450E+03  0.14180931627E+04  0.12699999809E+01 0. -1.
</event>
<event>
 5   0  0.5281919E-06  0.2820852E+04  0.7818609E-02  0.8296824E-01
        1   -1    0    0  501    0  0.00000000000E+00  0.00000000000E+00  0.12907336296E+04  0.12907336296E+04  0.50400001928E-02 0.  1.
       -1   -1    0    0    0  501  0.00000000000E+00  0.00000000000E+00 -0.15412181254E+04  0.15412181254E+04  0.50400001928E-02 0. -1.
    10030    2    1    2    0    0  0.00000000000E+00  0.00000000000E+00 -0.25048449580E+03  0.28319517550E+04  0.28208523996E+04 0.  0.
        4    1    3    3  502    0  0.17533576513E+03 -0.12264588976E+04 -0.80195414247E+03  0.14758306534E+04  0.12699999809E+01 0. -1.
       -4    1    3    3    0  502 -0.17533576513E+03  0.12264588976E+04  0.55146964667E+03  0.13561211016E+04  0.12699999809E+01 0.  1.
</event>
<event>
 5   0  0.1302063E-05  0.2882809E+04  0.7818609E-02  0.8278011E-01
       -2   -1    0    0    0  501  0.00000000000E+00  0.00000000000E+00  0.11450156342E+04  0.11450156342E+04  0.25500000920E-02 0.  1.
        2   -1    0    0  501    0  0.00000000000E+00  0.00000000000E+00 -0.18145134072E+04  0.18145134072E+04  0.25500000920E-02 0. -1.
    10030    2    1    2    0    0  0.00000000000E+00  0.00000000000E+00 -0.66949777304E+03  0.29595290414E+04  0.28828085054E+04 0.  0.
        2    1    3    3  502    0  0.11153509338E+04 -0.27561711176E+03  0.55886091521E+03  0.12776141907E+04  0.25500000920E-02 0.  1.
       -2    1    3    3    0  502 -0.11153509338E+04  0.27561711176E+03 -0.12283586883E+04  0.16819148506E+04  0.25500000920E-02 0. -1.
</event>
<event>
 5   0  0.1302063E-05  0.2778987E+04  0.7818609E-02  0.8309822E-01
        2   -1    0    0  501    0  0.00000000000E+00  0.00000000000E+00  0.12634089378E+04  0.12634089378E+04  0.25500000920E-02 0. -1.
       -2   -1    0    0    0  501  0.00000000000E+00  0.00000000000E+00 -0.15281607894E+04  0.15281607894E+04  0.25500000920E-02 0.  1.
    10030    2    1    2    0    0  0.00000000000E+00  0.00000000000E+00 -0.26475185161E+03  0.27915697272E+04  0.27789868656E+04 0.  0.
        2    1    3    3  502    0 -0.14190470049E+03  0.12291624012E+03 -0.15153618783E+04  0.15269469435E+04  0.25500000920E-02 0.  1.
       -2    1    3    3    0  502  0.14190470049E+03 -0.12291624012E+03  0.12506100267E+04  0.12646227837E+04  0.25500000920E-02 0. -1.
</event>
<event>
 5   0  0.5217999E-06  0.2804863E+04  0.7818609E-02  0.8301760E-01
        1   -1    0    0  501    0  0.00000000000E+00  0.00000000000E+00  0.19597744196E+04  0.19597744196E+04  0.50400001928E-02 0. -1.
       -1   -1    0    0    0  501  0.00000000000E+00  0.00000000000E+00 -0.10035920771E+04  0.10035920771E+04  0.50400001928E-02 0.  1.
    10030    2    1    2    0    0  0.00000000000E+00  0.00000000000E+00  0.95618234253E+03  0.29633664967E+04  0.28048629774E+04 0.  0.
        1    1    3    3  502    0 -0.13220673520E+04  0.31948763028E+03  0.83928736935E+03  0.15982295572E+04  0.50400001928E-02 0. -1.
       -1    1    3    3    0  502  0.13220673520E+04 -0.31948763028E+03  0.11689497318E+03  0.13651369396E+04  0.50400001928E-02 0.  1.
</event>
<event>
 5   0  0.1283052E-05  0.2776291E+04  0.7818609E-02  0.8310667E-01
       -2   -1    0    0    0  501  0.00000000000E+00  0.00000000000E+00  0.13843601067E+04  0.13843601067E+04  0.25500000920E-02 0.  1.
        2   -1    0    0  501    0  0.00000000000E+00  0.00000000000E+00 -0.13919411079E+04  0.13919411079E+04  0.25500000920E-02 0. -1.
    10030    2    1    2    0    0  0.00000000000E+00  0.00000000000E+00 -0.75810011875E+01  0.27763012145E+04  0.27762908641E+04 0.  0.
        5    1    3    3  502    0  0.62804287413E+03  0.11471734852E+04 -0.46906720093E+03  0.13894210974E+04  0.46999998093E+01 0. -1.
       -5    1    3    3    0  502 -0.62804287413E+03 -0.11471734852E+04  0.46148619974E+03  0.13868801172E+04  0.46999998093E+01 0.  1.
</event>
<event>
 5   0  0.4764214E-06  0.2315135E+04  0.7818609E-02  0.8471978E-01
        1   -1    0    0  501    0  0.00000000000E+00  0.00000000000E+00  0.97847860840E+03  0.97847860841E+03  0.50400001928E-02 0.  1.
       -1   -1    0    0    0  501  0.00000000000E+00  0.00000000000E+00 -0.13694343628E+04  0.13694343628E+04  0.50400001928E-02 0. -1.
    10030    2    1    2    0    0  0.00000000000E+00  0.00000000000E+00 -0.39095575443E+03  0.23479129712E+04  0.23151347517E+04 0.  0.
        3    1    3    3  502    0 -0.40317351791E+03 -0.54564686502E+03  0.75571541581E+03  0.10155713598E+04  0.10100000352E+00 0.  1.
       -3    1    3    3    0  502  0.40317351791E+03  0.54564686502E+03 -0.11466711702E+04  0.13323416115E+04  0.10100000352E+00 0. -1.
</event>
<event>
 5   0  0.1330962E-05  0.2787492E+04  0.7818609E-02  0.8307162E-01
       -2   -1    0    0    0  501  0.00000000000E+00  0.00000000000E+00  0.17692062124E+04  0.17692062124E+04  0.25500000920E-02 0. -1.
        2   -1    0    0  501    0  0.00000000000E+00  0.00000000000E+00 -0.10979654558E+04  0.10979654558E+04  0.25500000920E-02 0.  1.
    10030    2    1    2    0    0  0.00000000000E+00  0.00000000000E+00  0.67124075659E+03  0.28671716682E+04  0.27874915644E+04 0.  0.
        4    1    3    3  502    0 -0.12055193801E+04 -0.12912298748E+02  0.10549550103E+04  0.16019910705E+04  0.12699999809E+01 0. -1.
       -4    1    3    3    0  502  0.12055193801E+04  0.12912298748E+02 -0.38371425376E+03  0.12651805977E+04  0.12699999809E+01 0.  1.
</event>
<event>
 5   0  0.4447500E-06  0.2798700E+04  0.7818609E-02  0.8303672E-01
        4   -1    0    0  501    0  0.00000000000E+00  0.00000000000E+00  0.75256134449E+03  0.75256241609E+03  0.12699999809E+01 0. -1.
       -4   -1    0    0    0  501  0.00000000000E+00  0.00000000000E+00 -0.26020178073E+04  0.26020181172E+04  0.12699999809E+01 0.  1.
    10030    2    1    2    0    0  0.00000000000E+00  0.00000000000E+00 -0.18494564628E+04  0.33545805333E+04  0.27986999386E+04 0.  0.
        1    1    3    3  502    0  0.28865759841E+03  0.15749607936E+03 -0.25550520182E+04  0.25761248107E+04  0.50400001928E-02 0.  1.
       -1    1    3    3    0  502 -0.28865759841E+03 -0.15749607936E+03  0.70559555548E+03  0.77845572262E+03  0.50400001928E-02 0. -1.
</event>
<event>
 5   0  0.5217999E-06  0.2781776E+04  0.7818609E-02  0.8308949E-01
       -1   -1    0    0    0  501  0.00000000000E+00  0.00000000000E+00  0.16806098639E+04  0.16806098639E+04  0.50400001928E-02 0.  1.
        1   -1    0    0  501    0  0.00000000000E+00  0.00000000000E+00 -0.11511112352E+04  0.11511112352E+04  0.50400001928E-02 0. -1.
    10030    2    1    2    0    0  0.00000000000E+00  0.00000000000E+00  0.52949862871E+03  0.28317210991E+04  0.27817756174E+04 0.  0.
        1    1    3    3  502    0 -0.20700299851E+02 -0.58823391649E+03 -0.10180839402E+04  0.11759857789E+04  0.50400001928E-02 0. -1.
       -1    1    3    3    0  502  0.20700299851E+02  0.58823391649E+03  0.15475825689E+04  0.16557353202E+04  0.50400001928E-02 0.  1.
</event>
<event>
 5   0  0.5217999E-06  0.2523982E+04  0.7818609E-02  0.8394491E-01
        1   -1    0    0  501    0  0.00000000000E+00  0.00000000000E+00  0.12065373240E+04  0.12065373240E+04  0.50400001928E-02 0. -1.
       -1   -1    0    0    0  501  0.00000000000E+00  0.00000000000E+00 -0.13199931805E+04  0.13199931805E+04  0.50400001928E-02 0.  1.
    10030    2    1    2    0    0  0.00000000000E+00  0.00000000000E+00 -0.11345585643E+03  0.25265305045E+04  0.25239818064E+04 0.  0.
        1    1    3    3  502    0 -0.36235279338E+03  0.60926201934E+02  0.11518062019E+04  0.12089950685E+04  0.50400001928E-02 0. -1.
       -1    1    3    3    0  502  0.36235279338E+03 -0.60926201934E+02 -0.12652620583E+04  0.13175354360E+04  0.50400001928E-02 0.  1.
</event>
<event>
 5   0  0.4764214E-06  0.2921000E+04  0.7818609E-02  0.8266657E-01
        1   -1    0    0  501    0  0.00000000000E+00  0.00000000000E+00  0.20878682619E+04  0.20878682619E+04  0.50400001928E-02 0.  1.
       -1   -1    0    0    0  501  0.00000000000E+00  0.00000000000E+00 -0.10216452940E+04  0.10216452940E+04  0.50400001928E-02 0. -1.
    10030    2    1    2    0    0  0.00000000000E+00  0.00000000000E+00  0.10662229679E+04  0.31095135560E+04  0.29210003659E+04 0.  0.
        3    1    3    3  502    0  0.12915244022E+04 -0.64067783196E+03  0.78176105166E+03  0.16400163774E+04  0.10100000352E+00 0. -1.
       -3    1    3    3    0  502 -0.12915244022E+04  0.64067783196E+03  0.28446191625E+03  0.14694971786E+04  0.10100000352E+00 0.  1.
</event>
<event>
 5   0  0.1330962E-05  0.2819416E+04  0.7818609E-02  0.8297266E-01
       -2   -1    0    0    0  501  0.00000000000E+00  0.00000000000E+00  0.93916004266E+03  0.93916004266E+03  0.25500000920E-02 0. -1.
        2   -1    0    0  501    0  0.00000000000E+00  0.00000000000E+00 -0.21160148868E+04  0.21160148868E+04  0.25500000920E-02 0.  1.
    10030    2    1    2    0    0  0.00000000000E+00  0.00000000000E+00 -0.11768548442E+04  0.30551749295E+04  0.28194159902E+04 0.  0.
        4    1    3    3  502    0  0.16080770492E+03 -0.44737433399E+03 -0.20265309497E+04  0.20815456315E+04  0.12699999809E+01 0.  1.
       -4    1    3    3    0  502 -0.16080770492E+03  0.44737433399E+03  0.84967610558E+03  0.97362929803E+03  0.12699999809E+01 0. -1.
</event>
<event>
 5   0  0.1388269E-05  0.2828477E+04  0.7818609E-02  0.8294482E-01
       -2   -1    0    0    0  501  0.00000000000E+00  0.00000000000E+00  0.10485192310E+04  0.10485192310E+04  0.25500000920E-02 0.  1.
        2   -1    0    0  501    0  0.00000000000E+00  0.00000000000E+00 -0.19075187031E+04  0.19075187032E+04  0.25500000920E-02 0. -1.
    10030    2    1    2    0    0  0.00000000000E+00  0.00000000000E+00 -0.85899947213E+03  0.29560379342E+04  0.28284766527E+04 0.  0.
        1    1    3    3  502    0  0.86658242639E+02 -0.13787109324E+04 -0.74600524810E+03  0.15699927759E+04  0.50400001928E-02 0.  1.
       -1    1    3    3    0  502 -0.86658242639E+02  0.13787109324E+04 -0.11299422404E+03  0.13860451583E+04  0.50400001928E-02 0. -1.
</event>
<event>
 5   0  0.4447500E-06  0.2778474E+04  0.7818609E-02  0.8309983E-01
        4   -1    0    0  501    0  0.00000000000E+00  0.00000000000E+00  0.95054204950E+03  0.95054289792E+03  0.12699999809E+01 0. -1.
       -4   -1    0    0    0  501  0.00000000000E+00  0.00000000000E+00 -0.20303962273E+04  0.20303966245E+04  0.12699999809E+01 0.  1.
    10030    2    1    2    0    0  0.00000000000E+00  0.00000000000E+00 -0.10798541778E+04  0.29809395224E+04  0.27784735721E+04 0.  0.
        3    1    3    3  502    0  0.41762620518E+03 -0.15065275858E+03  0.87238281218E+03  0.97885631331E+03  0.10100000352E+00 0. -1.
       -3    1    3    3    0  502 -0.41762620518E+03  0.15065275858E+03 -0.19522369900E+04  0.20020832091E+04  0.10100000352E+00 0.  1.
</event>
<event>
 5   0  0.5107453E-06  0.2710941E+04  0.7818609E-02  0.8331464E-01
       -1   -1    0    0    0  501  0.00000000000E+00  0.00000000000E+00  0.13710849534E+04  0.13710849534E+04  0.50400001928E-02 0.  1.
        1   -1    0    0  501    0  0.00000000000E+00  0.00000000000E+00 -0.13400337334E+04  0.13400337334E+04  0.50400001928E-02 0. -1.
    10030    2    1    2    0    0  0.00000000000E+00  0.00000000000E+00  0.31051220008E+02  0.27111186868E+04  0.27109408617E+04 0.  0.
        2    1    3    3  502    0  0.12165397399E+03  0.93363219629E+03  0.99069537261E+03  0.13667282424E+04  0.25500000920E-02 0.  1.
       -2    1    3    3    0  502 -0.12165397399E+03 -0.93363219629E+03 -0.95964415260E+03  0.13443904444E+04  0.25500000920E-02 0. -1.
</event>
<event>
 5   0  0.5023691E-06  0.2820908E+04  0.7818609E-02  0.8296806E-01
        1   -1    0    0  501    0  0.00000000000E+00  0.00000000000E+00  0.14078935339E+04  0.14078935339E+04  0.50400001928E-02 0. -1.
       -1   -1    0    0    0  501  0.00000000000E+00  0.00000000000E+00 -0.14130195918E+04  0.14130195919E+04  0.50400001928E-02 0.  1.
    10030    2    1    2    0    0  0.00000000000E+00  0.00000000000E+00 -0.51260579526E+01  0.28209131258E+04  0.28209084683E+04 0.  0.
        5    1    3    3  502    0  0.92160671436E+03 -0.10481656103E+04 -0.20590783640E+03  0.14108260735E+04  0.46999998093E+01 0. -1.
       -5    1    3    3    0  502 -0.92160671436E+03  0.10481656103E+04  0.20078177845E+03  0.14100870523E+04  0.46999998093E+01 0.  1.
</event>
<event>
 5   0  0.1330962E-05  0.2801419E+04  0.7818609E-02  0.8302828E-01
        2   -1    0    0  501    0  0.00000000000E+00  0.00000000000E+00  0.15105239719E+04  0.15105239719E+04  0.25500000920E-02 0. -1.
       -2   -1    0    0    0  501  0.00000000000E+00  0.00000000000E+00 -0.12988788908E+04  0.12988788908E+04  0.25500000920E-02 0.  1.
    10030    2    1    2    0    0  0.00000000000E+00  0.00000000000E+00  0.21164508119E+03  0.28094028627E+04  0.28014194268E+04 0.  0.
        4    1    3    3  502    0  0.14562651879E+03  0.73765109295E+03  0.12909898324E+04  0.14939854678E+04  0.12699999809E+01 0. -1.
       -4    1    3    3    0  502 -0.14562651879E+03 -0.73765109295E+03 -0.10793447512E+04  0.13154173949E+04  0.12699999809E+01 0.  1.
</event>
<event>
 5   0  0.4764214E-06  0.2762277E+04  0.7818609E-02  0.8315076E-01
       -1   -1    0    0    0  501  0.00000000000E+00  0.00000000000E+00  0.11482883323E+04  0.11482883323E+04  0.50400001928E-02 0. -1.
        1   -1    0    0  501    0  0.00000000000E+00  0.00000000000E+00 -0.16612064550E+04  0.16612064551E+04  0.50400001928E-02 0.  1.
    10030    2    1    2    0    0  0.00000000000E+00  0.00000000000E+00 -0.51291812271E+03  0.28094947874E+04  0.27622773141E+04 0.  0.
        3    1    3    3  502    0 -0.19895934240E+03  0.18433256705E+03 -0.16338535164E+04  0.16562127394E+04  0.10100000352E+00 0.  1.
       -3    1    3    3    0  502  0.19895934240E+03 -0.18433256705E+03  0.11209353936E+04  0.11532820480E+04  0.10100000352E+00 0. -1.
</event>
<event>
 5   0  0.1330962E-05  0.2818454E+04  0.7818609E-02  0.8297562E-01
       -2   -1    0    0    0  501  0.00000000000E+00  0.00000000000E+00  0.11999049852E+04  0.11999049852E+04  0.25500000920E-02 0.  1.
        2   -1    0    0  501    0  0.00000000000E+00  0.00000000000E+00 -0.16550653334E+04  0.16550653334E+04  0.25500000920E-02 0. -1.
    10030    2    1    2    0    0  0.00000000000E+00  0.00000000000E+00 -0.45516034818E+03  0.28549703187E+04  0.28184542888E+04 0.  0.
        4    1    3    3  502    0  0.12795769059E+04  0.10532646498E+03  0.36090179174E+03  0.13336650398E+04  0.12699999809E+01 0.  1.
       -4    1    3    3    0  502 -0.12795769059E+04 -0.10532646498E+03 -0.81606213993E+03  0.15213052788E+04  0.12699999809E+01 0. -1.
</event>
<event>
 5   0  0.4764214E-06  0.2833306E+04  0.7818609E-02  0.8293002E-01
        1   -1    0    0  501    0  0.00000000000E+00  0.00000000000E+00  0.13514103553E+04  0.13514103553E+04  0.50400001928E-02 0.  1.
       -1   -1    0    0    0  501  0.00000000000E+00  0.00000000000E+00 -0.14850454226E+04  0.14850454226E+04  0.50400001928E-02 0. -1.
    10030    2    1    2    0    0  0.00000000000E+00  0.00000000000E+00 -0.13363506732E+03  0.28364557779E+04  0.28333060281E+04 0.  0.
        3    1    3    3  502    0 -0.11533646785E+04  0.74711097989E+03 -0.41141066740E+03  0.14344628421E+04  0.10100000352E+00 0. -1.
       -3    1    3    3    0  502  0.11533646785E+04 -0.74711097989E+03  0.27777560008E+03  0.14019929358E+04  0.10100000352E+00 0.  1.
</event>
<event>
 5   0  0.4764214E-06  0.2715016E+04  0.7818609E-02  0.8330149E-01
        1   -1    0    0  501    0  0.00000000000E+00  0.00000000000E+00  0.57439630425E+03  0.57439630427E+03  0.50400001928E-02 0.  1.
       -1   -1    0    0    0  501  0.00000000000E+00  0.00000000000E+00 -0.32082871903E+04  0.32082871903E+04  0.50400001928E-02 0. -1.
    10030    2    1    2    0    0  0.00000000000E+00  0.00000000000E+00 -0.26338908861E+04  0.37826834946E+04  0.27150162468E+04 0.  0.
        3    1    3    3  502    0  0.99469300341E+03  0.17744092119E+03 -0.53825237998E+02  0.10118283540E+04  0.10100000352E+00 0.  1.
       -3    1    3    3    0  502 -0.99469300341E+03 -0.17744092119E+03 -0.25800656481E+04  0.27708551406E+04  0.10100000352E+00 0. -1.
</event>
<event>
 5   0  0.1330962E-05  0.2784774E+04  0.7818609E-02  0.8308011E-01
       -2   -1    0    0    0  501  0.00000000000E+00  0.00000000000E+00  0.77968595544E+03  0.77968595545E+03  0.25500000920E-02 0.  1.
        2   -1    0    0  501    0  0.00000000000E+00  0.00000000000E+00 -0.24865679346E+04  0.24865679346E+04  0.25500000920E-02 0. -1.
    10030    2    1    2    0    0  0.00000000000E+00  0.00000000000E+00 -0.17068819792E+04  0.32662538901E+04  0.27847743865E+04 0.  0.
        4    1    3    3  502    0  0.60729440651E+03  0.63765668816E+03 -0.21185006361E+04  0.22942229853E+04  0.12699999809E+01 0. -1.
       -4    1    3    3    0  502 -0.60729440651E+03 -0.63765668816E+03  0.41161865696E+03  0.97203090476E+03  0.12699999809E+01 0.  1.
</event>
<event>
 5   0  0.1388269E-05  0.2814143E+04  0.7818609E-02  0.8298891E-01
       -2   -1    0    0    0  501  0.00000000000E+00  0.00000000000E+00  0.12200389446E+04  0.12200389446E+04  0.25500000920E-02 0. -1.
        2   -1    0    0  501    0  0.00000000000E+00  0.00000000000E+00 -0.16227763582E+04  0.16227763582E+04  0.25500000920E-02 0.  1.
    10030    2    1    2    0    0  0.00000000000E+00  0.00000000000E+00 -0.40273741364E+03  0.28428153028E+04  0.28141431061E+04 0.  0.
        1    1    3    3  502    0 -0.12830982758E+04 -0.46676552801E+03  0.14215351795E+03  0.13727413690E+04  0.50400001928E-02 0. -1.
       -1    1    3    3    0  502  0.12830982758E+04  0.46676552801E+03 -0.54489093160E+03  0.14700739338E+04  0.50400001928E-02 0.  1.
</event>
<event>
 5   0  0.1302063E-05  0.2787544E+04  0.7818609E-02  0.8307146E-01
       -2   -1    0    0    0  501  0.00000000000E+00  0.00000000000E+00  0.70873563444E+03  0.70873563445E+03  0.25500000920E-02 0. -1.
        2   -1    0    0  501    0  0.00000000000E+00  0.00000000000E+00 -0.27409371407E+04  0.27409371407E+04  0.25500000920E-02 0.  1.
    10030    2    1    2    0    0  0.00000000000E+00  0.00000000000E+00 -0.20322015063E+04  0.34496727752E+04  0.27875435949E+04 0.  0.
        2    1    3    3  502    0  0.32868308636E+03 -0.48929958456E+03 -0.25790951769E+04  0.26455960739E+04  0.25500000920E-02 0.  1.
       -2    1    3    3    0  502 -0.32868308636E+03  0.48929958456E+03  0.54689367056E+03  0.80407670133E+03  0.25500000920E-02 0. -1.
</event>
<event>
 5   0  0.1330962E-05  0.2776764E+04  0.7818609E-02  0.8310519E-01
        2   -1    0    0  501    0  0.00000000000E+00  0.00000000000E+00  0.13844251489E+04  0.13844251489E+04  0.25500000920E-02 0.  1.
       -2   -1    0    0    0  501  0.00000000000E+00  0.00000000000E+00 -0.13923497536E+04  0.13923497536E+04  0.25500000920E-02 0. -1.
    10030    2    1    2    0    0  0.00000000000E+00  0.00000000000E+00 -0.79246047020E+01  0.27767749024E+04  0.27767635944E+04 0.  0.
        4    1    3    3  502    0 -0.80934627867E+03  0.21802506283E+03 -0.11107757702E+04  0.13915461729E+04  0.12699999809E+01 0. -1.
       -4    1    3    3    0  502  0.80934627867E+03 -0.21802506283E+03  0.11028511655E+04  0.13852287295E+04  0.12699999809E+01 0.  1.
</event>
<event>
 5   0  0.5217999E-06  0.2632275E+04  0.7818609E-02  0.8357320E-01
       -1   -1    0    0    0  501  0.00000000000E+00  0.00000000000E+00  0.81412966380E+03  0.81412966382E+03  0.50400001928E-02 0. -1.
        1   -1    0    0  501    0  0.00000000000E+00  0.00000000000E+00 -0.21276934369E+04  0.21276934369E+04  0.50400001928E-02 0.  1.
    10030    2    1    2    0    0  0.00000000000E+00  0.00000000000E+00 -0.13135637731E+04  0.29418231007E+04  0.26322753218E+04 0.  0.
        1    1    3    3  502    0  0.33249528234E+03 -0.33606486877E+03  0.71596471228E+03  0.85796164137E+03  0.50400001928E-02 0. -1.
       -1    1    3    3    0  502 -0.33249528234E+03  0.33606486877E+03 -0.20295284854E+04  0.20838614593E+04  0.50400001928E-02 0.  1.
</event>
<event>
 5   0  0.4764214E-06  0.2795900E+04  0.7818609E-02  0.8304542E-01
        1   -1    0    0  501    0  0.00000000000E+00  0.00000000000E+00  0.18510281526E+04  0.18510281526E+04  0.50400001928E-02 0.  1.
       -1   -1    0    0    0  501  0.00000000000E+00  0.00000000000E+00 -0.10557720460E+04  0.10557720460E+04  0.50400001928E-02 0. -1.
    10030    2    1    2    0    0  0.00000000000E+00  0.00000000000E+00  0.79525610662E+03  0.29068001986E+04  0.27958996977E+04 0.  0.
        3    1    3    3  502    0 -0.11336561747E+04  0.22778823349E+03 -0.41915466728E+03  0.12299408307E+04  0.10100000352E+00 0. -1.
       -3    1    3    3    0  502  0.11336561747E+04 -0.22778823349E+03  0.12144107739E+04  0.16768593679E+04  0.10100000352E+00 0.  1.
</event>
<event>
 5   0  0.1302063E-05  0.3021522E+04  0.7818609E-02  0.8237612E-01
        2   -1    0    0  501    0  0.00000000000E+00  0.00000000000E+00  0.14213101405E+04  0.14213101405E+04  0.25500000920E-02 0. -1.
       -2   -1    0    0    0  501  0.00000000000E+00  0.00000000000E+00 -0.16058416542E+04  0.16058416542E+04  0.25500000920E-02 0.  1.
    10030    2    1    2    0    0  0.00000000000E+00  0.00000000000E+00 -0.18453151372E+03  0.30271517947E+04  0.30215221509E+04 0.  0.
        2    1    3    3  502    0  0.55386404704E+03 -0.39907871383E+03 -0.14425044702E+04  0.15958848169E+04  0.25500000920E-02 0.  1.
       -2    1    3    3    0  502 -0.55386404704E+03  0.39907871383E+03  0.12579729564E+04  0.14312669778E+04  0.25500000920E-02 0. -1.
</event>
<event>
 5   0  0.5107453E-06  0.2810200E+04  0.7818609E-02  0.8300109E-01
       -1   -1    0    0    0  501  0.00000000000E+00  0.00000000000E+00  0.15371320569E+04  0.15371320569E+04  0.50400001928E-02 0. -1.
        1   -1    0    0  501    0  0.00000000000E+00  0.00000000000E+00 -0.12844090879E+04  0.12844090879E+04  0.50400001928E-02 0.  1.
    10030    2    1    2    0    0  0.00000000000E+00  0.00000000000E+00  0.25272296895E+03  0.28215411448E+04  0.28102002656E+04 0.  0.
        2    1    3    3  502    0  0.89102064145E+03 -0.17068353077E+03  0.12036574167E+04  0.15072630254E+04  0.25500000920E-02 0. -1.
       -2    1    3    3    0  502 -0.89102064145E+03  0.17068353077E+03 -0.95093444772E+03  0.13142781194E+04  0.25500000920E-02 0.  1.
</event>
<event>
 5   0  0.5281919E-06  0.2217925E+04  0.7818609E-02  0.8511004E-01
       -1   -1    0    0    0  501  0.00000000000E+00  0.00000000000E+00  0.10163618337E+04  0.10163618337E+04  0.50400001928E-02 0. -1.
        1   -1    0    0  501    0  0.00000000000E+00  0.00000000000E+00 -0.12100000526E+04  0.12100000526E+04  0.50400001928E-02 0.  1.
    10030    2    1    2    0    0  0.00000000000E+00  0.00000000000E+00 -0.19363821892E+03  0.22263618863E+04  0.22179250413E+04 0.  0.
        4    1    3    3  502    0 -0.47574932721E+03 -0.99905151986E+03 -0.17027463656E+03  0.11195697506E+04  0.12699999809E+01 0. -1.
       -4    1    3    3    0  502  0.47574932721E+03  0.99905151986E+03 -0.23363582358E+02  0.11067921357E+04  0.12699999809E+01 0.  1.
</event>
<event>
 5   0  0.5281919E-06  0.2788963E+04  0.7818609E-02  0.8306703E-01
        1   -1    0    0  501    0  0.00000000000E+00  0.00000000000E+00  0.13273538608E+04  0.13273538608E+04  0.50400001928E-02 0.  1.
       -1   -1    0    0    0  501  0.00000000000E+00  0.00000000000E+00 -0.14650037409E+04  0.14650037410E+04  0.50400001928E-02 0. -1.
    10030    2    1    2    0    0  0.00000000000E+00  0.00000000000E+00 -0.13764988014E+03  0.27923576018E+04  0.27889627976E+04 0.  0.
        4    1    3    3  502    0  0.10115789439E+04  0.21683101134E+03 -0.10049866659E+04  0.14423270984E+04  0.12699999809E+01 0. -1.
       -4    1    3    3    0  502 -0.10115789439E+04 -0.21683101134E+03  0.86733678580E+03  0.13500305034E+04  0.12699999809E+01 0.  1.
</event>
<event>
 5   0  0.1302063E-05  0.2749566E+04  0.7818609E-02  0.8319099E-01
        2   -1    0    0  501    0  0.00000000000E+00  0.00000000000E+00  0.11869974673E+04  0.11869974673E+04  0.25500000920E-02 0. -1.
       -2   -1    0    0    0  501  0.00000000000E+00  0.00000000000E+00 -0.15922765687E+04  0.15922765687E+04  0.25500000920E-02 0.  1.
    10030    2    1    2    0    0  0.00000000000E+00  0.00000000000E+00 -0.40527910138E+03  0.27792740359E+04  0.27495659688E+04 0.  0.
        2    1    3    3  502    0  0.31069473221E+03 -0.30325039115E+03  0.11158838069E+04  0.11973673984E+04  0.25500000920E-02 0. -1.
       -2    1    3    3    0  502 -0.31069473221E+03  0.30325039115E+03 -0.15211629083E+04  0.15819066375E+04  0.25500000920E-02 0.  1.
</event>
<event>
 5   0  0.5217999E-06  0.2812900E+04  0.7818609E-02  0.8299274E-01
       -1   -1    0    0    0  501  0.00000000000E+00  0.00000000000E+00  0.83283866172E+03  0.83283866173E+03  0.50400001928E-02 0. -1.
        1   -1    0    0  501    0  0.00000000000E+00  0.00000000000E+00 -0.23751323741E+04  0.23751323741E+04  0.50400001928E-02 0.  1.
    10030    2    1    2    0    0  0.00000000000E+00  0.00000000000E+00 -0.15422937124E+04  0.32079710358E+04  0.28129003309E+04 0.  0.
        1    1    3    3  502    0 -0.67500528810E+03 -0.41832157654E+03  0.55269702602E+03  0.96752213564E+03  0.50400001928E-02 0. -1.
       -1    1    3    3    0  502  0.67500528810E+03  0.41832157654E+03 -0.20949907384E+04  0.22404489002E+04  0.50400001928E-02 0.  1.
</event>
<event>
 5   0  0.1302063E-05  0.2813643E+04  0.7818609E-02  0.8299045E-01
       -2   -1    0    0    0  501  0.00000000000E+00  0.00000000000E+00  0.13440331691E+04  0.13440331691E+04  0.25500000920E-02 0.  1.
        2   -1    0    0  501    0  0.00000000000E+00  0.00000000000E+00 -0.14725432082E+04  0.14725432082E+04  0.25500000920E-02 0. -1.
    10030    2    1    2    0    0  0.00000000000E+00  0.00000000000E+00 -0.12851003914E+03  0.28165763774E+04  0.28136431293E+04 0.  0.
        2    1    3    3  502    0  0.29630850049E+03 -0.86331354775E+02 -0.14382364921E+04  0.14709779187E+04  0.25500000920E-02 0. -1.
       -2    1    3    3    0  502 -0.29630850049E+03  0.86331354775E+02  0.13097264529E+04  0.13455984586E+04  0.25500000920E-02 0.  1.
</event>
<event>
 5   0  0.1302063E-05  0.2785556E+04  0.7818609E-02  0.8307767E-01
        2   -1    0    0  501    0  0.00000000000E+00  0.00000000000E+00  0.16426115205E+04  0.16426115205E+04  0.25500000920E-02 0.  1.
       -2   -1    0    0    0  501  0.00000000000E+00  0.00000000000E+00 -0.11809430119E+04  0.11809430119E+04  0.25500000920E-02 0. -1.
    10030    2    1    2    0    0  0.00000000000E+00  0.00000000000E+00  0.46166850860E+03  0.28235545324E+04  0.27855560281E+04 0.  0.
        2    1    3    3  502    0  0.13437091827E+03 -0.45894799221E+03 -0.10951161528E+04  0.11949762305E+04  0.25500000920E-02 0. -1.
       -2    1    3    3    0  502 -0.13437091827E+03  0.45894799221E+03  0.15567846614E+04  0.16285783019E+04  0.25500000920E-02 0.  1.
</event>
<event>
 5   0  0.1302063E-05  0.2805906E+04  0.7818609E-02  0.8301437E-01
        2   -1    0    0  501    0  0.00000000000E+00  0.00000000000E+00  0.15614134791E+04  0.15614134791E+04  0.25500000920E-02 0.  1.
       -2   -1    0    0    0  501  0.00000000000E+00  0.00000000000E+00 -0.12605735239E+04  0.12605735239E+04  0.25500000920E-02 0. -1.
    10030    2    1    2    0    0  0.00000000000E+00  0.00000000000E+00  0.30083995525E+03  0.28219870030E+04  0.28059055520E+04 0.  0.
        2    1    3    3  502    0  0.51246736806E+03  0.50156112203E+03  0.13631876839E+04  0.15402814756E+04  0.25500000920E-02 0.  1.
       -2    1    3    3    0  502 -0.51246736806E+03 -0.50156112203E+03 -0.10623477287E+04  0.12817055274E+04  0.25500000920E-02 0. -1.
</event>
<event>
 5   0  0.1388269E-05  0.2376886E+04  0.7818609E-02  0.8448208E-01
        2   -1    0    0  501    0  0.00000000000E+00  0.00000000000E+00  0.17911757579E+04  0.17911757579E+04  0.25500000920E-02 0. -1.
       -2   -1    0    0    0  501  0.00000000000E+00  0.00000000000E+00 -0.78853026106E+03  0.78853026107E+03  0.25500000920E-02 0.  1.
    10030    2    1    2    0    0  0.00000000000E+00  0.00000000000E+00  0.10026454968E+04  0.25797060190E+04  0.23768855993E+04 0.  0.
        1    1    3    3  502    0  0.11611082499E+04  0.16228442064E+03  0.29006580927E+03  0.12077444990E+04  0.50400001928E-02 0. -1.
       -1    1    3    3    0  502 -0.11611082499E+04 -0.16228442064E+03  0.71257968755E+03  0.13719615200E+04  0.50400001928E-02 0.  1.
</event>
<event>
 5   0  0.5107453E-06  0.2802912E+04  0.7818609E-02  0.8302365E-01
       -1   -1    0    0    0  501  0.00000000000E+00  0.00000000000E+00  0.14011418885E+04  0.14011418885E+04  0.50400001928E-02 0.  1.
        1   -1    0    0  501    0  0.00000000000E+00  0.00000000000E+00 -0.14017702361E+04  0.14017702361E+04  0.50400001928E-02 0. -1.
    10030    2    1    2    0    0  0.00000000000E+00  0.00000000000E+00 -0.62834757127E+00  0.28029121246E+04  0.28029120542E+04 0.  0.
        2    1    3    3  502    0  0.12930102681E+04 -0.26465830027E+03  0.47102374945E+03  0.14013503993E+04  0.25500000920E-02 0. -1.
       -2    1    3    3    0  502 -0.12930102681E+04  0.26465830027E+03 -0.47165209702E+03  0.14015617253E+04  0.25500000920E-02 0.  1.
</event>
<event>
 5   0  0.1330962E-05  0.2824376E+04  0.7818609E-02  0.8295740E-01
        2   -1    0    0  501    0  0.00000000000E+00  0.00000000000E+00  0.24234693625E+04  0.24234693625E+04  0.25500000920E-02 0.  1.
       -2   -1    0    0    0  501  0.00000000000E+00  0.00000000000E+00 -0.82290095010E+03  0.82290095011E+03  0.25500000920E-02 0. -1.
    10030    2    1    2    0    0  0.00000000000E+00  0.00000000000E+00  0.16005684124E+04  0.32463703126E+04  0.28243762079E+04 0.  0.
        4    1    3    3  502    0 -0.32593703353E+03  0.11725224813E+04 -0.23154747338E+02  0.12172023966E+04  0.12699999809E+01 0. -1.
       -4    1    3    3    0  502  0.32593703353E+03 -0.11725224813E+04  0.16237231597E+04  0.20291679160E+04  0.12699999809E+01 0.  1.
</event>
<event>
 5   0  0.1283052E-05  0.2803703E+04  0.7818609E-02  0.8302120E-01
       -2   -1    0    0    0  501  0.00000000000E+00  0.00000000000E+00  0.11923767104E+04  0.11923767104E+04  0.25500000920E-02 0.  1.
        2   -1    0    0  501    0  0.00000000000E+00  0.00000000000E+00 -0.16481260243E+04  0.16481260243E+04  0.25500000920E-02 0. -1.
    10030    2    1    2    0    0  0.00000000000E+00  0.00000000000E+00 -0.45574931386E+03  0.28405027347E+04  0.28037026142E+04 0.  0.
        5    1    3    3  502    0 -0.85005909081E+03 -0.97051253593E+03 -0.78340563673E+03  0.15093844845E+04  0.46999998093E+01 0. -1.
       -5    1    3    3    0  502  0.85005909081E+03  0.97051253593E+03  0.32765632287E+03  0.13311182503E+04  0.46999998093E+01 0.  1.
</event>
<event>
 5   0  0.4764214E-06  0.2805888E+04  0.7818609E-02  0.8301443E-01
       -1   -1    0    0    0  501  0.00000000000E+00  0.00000000000E+00  0.14469761645E+04  0.14469761645E+04  0.50400001928E-02 0. -1.
        1   -1    0    0  501    0  0.00000000000E+00  0.00000000000E+00 -0.13602519893E+04  0.13602519893E+04  0.50400001928E-02 0.  1.
    10030    2    1    2    0    0  0.00000000000E+00  0.00000000000E+00  0.86724175187E+02  0.28072281538E+04  0.28058882417E+04 0.  0.
        3    1    3    3  502    0 -0.13065445207E+04  0.47180827225E+03 -0.15317653737E+03  0.13975423758E+04  0.10100000352E+00 0. -1.
       -3    1    3    3    0  502  0.13065445207E+04 -0.47180827225E+03  0.23990071255E+03  0.14096857779E+04  0.10100000352E+00 0.  1.
</event>
<event>
 5   0  0.1283052E-05  0.2822416E+04  0.7818609E-02  0.8296343E-01
       -2   -1    0    0    0  501  0.00000000000E+00  0.00000000000E+00  0.11017056842E+04  0.11017056842E+04  0.25500000920E-02 0. -1.
        2   -1    0    0  501    0  0.00000000000E+00  0.00000000000E+00 -0.18076590171E+04  0.18076590171E+04  0.25500000920E-02 0.  1.
    10030    2    1    2    0    0  0.00000000000E+00  0.00000000000E+00 -0.70595333294E+03  0.29093647013E+04  0.28224161381E+04 0.  0.
        5    1    3    3  502    0 -0.15589188952E+03 -0.85547612688E+03  0.79272396107E+03  0.11766796732E+04  0.46999998093E+01 0. -1.
       -5    1    3    3    0  502  0.15589188952E+03  0.85547612688E+03 -0.14986772940E+04  0.17326850281E+04  0.46999998093E+01 0.  1.
</event>
<event>
 5   0  0.5023691E-06  0.2775565E+04  0.7818609E-02  0.8310895E-01
        1   -1    0    0  501    0  0.00000000000E+00  0.00000000000E+00  0.25580403381E+04  0.25580403381E+04  0.50400001928E-02 0. -1.
       -1   -1    0    0    0  501  0.00000000000E+00  0.00000000000E+00 -0.75289678212E+03  0.75289678214E+03  0.50400001928E-02 0.  1.
    10030    2    1    2    0    0  0.00000000000E+00  0.00000000000E+00  0.18051435560E+04  0.33109371202E+04  0.27755650518E+04 0.  0.
        5    1    3    3  502    0 -0.12191270672E+04 -0.13388631148E+03  0.12790916029E+03  0.12331176723E+04  0.46999998093E+01 0.  1.
       -5    1    3    3    0  502  0.12191270672E+04  0.13388631148E+03  0.16772343957E+04  0.20778194480E+04  0.46999998093E+01 0. -1.
</event>
<event>
 5   0  0.1283052E-05  0.2780092E+04  0.7818609E-02  0.8309476E-01
        2   -1    0    0  501    0  0.00000000000E+00  0.00000000000E+00  0.17910810308E+04  0.17910810308E+04  0.25500000920E-02 0. -1.
       -2   -1    0    0    0  501  0.00000000000E+00  0.00000000000E+00 -0.10788055383E+04  0.10788055383E+04  0.25500000920E-02 0.  1.
    10030    2    1    2    0    0  0.00000000000E+00  0.00000000000E+00  0.71227549244E+03  0.28698865691E+04  0.27800921824E+04 0.  0.
        5    1    3    3  502    0 -0.17815562629E+03 -0.42764666098E+03 -0.99675898831E+03  0.10991686243E+04  0.46999998093E+01 0.  1.
       -5    1    3    3    0  502  0.17815562629E+03  0.42764666098E+03  0.17090344808E+04  0.17707179449E+04  0.46999998093E+01 0. -1.
</event>
<event>
 5   0  0.1302063E-05  0.2604095E+04  0.7818609E-02  0.8366812E-01
       -2   -1    0    0    0  501  0.00000000000E+00  0.00000000000E+00  0.11751920683E+04  0.11751920683E+04  0.25500000920E-02 0.  1.
        2   -1    0    0  501    0  0.00000000000E+00  0.00000000000E+00 -0.14425958102E+04  0.14425958102E+04  0.25500000920E-02 0. -1.
    10030    2    1    2    0    0  0.00000000000E+00  0.00000000000E+00 -0.26740374182E+03  0.26177878785E+04  0.26040945865E+04 0.  0.
        2    1    3    3  502    0 -0.79577570362E+03  0.87900867582E+03  0.40709717076E+03  0.12536519968E+04  0.25500000920E-02 0.  1.
       -2    1    3    3    0  502  0.79577570362E+03 -0.87900867582E+03 -0.67450091259E+03  0.13641358817E+04  0.25500000920E-02 0. -1.
</event>
<event>
 5   0  0.5217999E-06  0.2377313E+04  0.7818609E-02  0.8448046E-01
       -1   -1    0    0    0  501  0.00000000000E+00  0.00000000000E+00  0.10614351799E+04  0.10614351799E+04  0.50400001928E-02 0.  1.
        1   -1    0    0  501    0  0.00000000000E+00  0.00000000000E+00 -0.13311260926E+04  0.13311260926E+04  0.50400001928E-02 0. -1.
    10030    2    1    2    0    0  0.00000000000E+00  0.00000000000E+00 -0.26969091270E+03  0.23925612726E+04  0.23773128222E+04 0.  0.
        1    1    3    3  502    0 -0.86256268004E+03  0.15580928531E+03  0.67318237083E+03  0.11051992648E+04  0.50400001928E-02 0.  1.
       -1    1    3    3    0  502  0.86256268004E+03 -0.15580928531E+03 -0.94287328353E+03  0.12873620078E+04  0.50400001928E-02 0. -1.
</event>
<event>
 5   0  0.4764214E-06  0.2823994E+04  0.7818609E-02  0.8295858E-01
        1   -1    0    0  501    0  0.00000000000E+00  0.00000000000E+00  0.19201768798E+04  0.19201768798E+04  0.50400001928E-02 0. -1.
       -1   -1    0    0    0  501  0.00000000000E+00  0.00000000000E+00 -0.10383085624E+04  0.10383085624E+04  0.50400001928E-02 0.  1.
    10030    2    1    2    0    0  0.00000000000E+00  0.00000000000E+00  0.88186831742E+03  0.29584854422E+04  0.28239944020E+04 0.  0.
        3    1    3    3  502    0 -0.12141357723E+04  0.40132766482E+03  0.10682385956E+04  0.16662302589E+04  0.10100000352E+00 0. -1.
       -3    1    3    3    0  502  0.12141357723E+04 -0.40132766482E+03 -0.18637027821E+03  0.12922551834E+04  0.10100000352E+00 0.  1.
</event>
<event>
 5   0  0.1330962E-05  0.2743597E+04  0.7818609E-02  0.8320996E-01
       -2   -1    0    0    0  501  0.00000000000E+00  0.00000000000E+00  0.12958892498E+04  0.12958892498E+04  0.25500000920E-02 0.  1.
        2   -1    0    0  501    0  0.00000000000E+00  0.00000000000E+00 -0.14521545080E+04  0.14521545080E+04  0.25500000920E-02 0. -1.
    10030    2    1    2    0    0  0.00000000000E+00  0.00000000000E+00 -0.15626525816E+03  0.27480437578E+04  0.27435972124E+04 0.  0.
        4    1    3    3  502    0  0.78569490898E+03 -0.18423961542E+03  0.10329754097E+04  0.13108396301E+04  0.12699999809E+01 0. -1.
       -4    1    3    3    0  502 -0.78569490898E+03  0.18423961542E+03 -0.11892406678E+04  0.14372041278E+04  0.12699999809E+01 0.  1.
</event>
<event>
 5   0  0.1330962E-05  0.2109628E+04  0.7818609E-02  0.8557014E-01
       -2   -1    0    0    0  501  0.00000000000E+00  0.00000000000E+00  0.14005929388E+04  0.14005929388E+04  0.25500000920E-02 0.  1.
        2   -1    0    0  501    0  0.00000000000E+00  0.00000000000E+00 -0.79440136197E+03  0.79440136197E+03  0.25500000920E-02 0. -1.
    10030    2    1    2    0    0  0.00000000000E+00  0.00000000000E+00  0.60619157682E+03  0.21949943008E+04  0.21096283447E+04 0.  0.
        4    1    3    3  502    0  0.75423622358E+02  0.79494376069E+03  0.10201920508E+04  0.12955376254E+04  0.12699999809E+01 0.  1.
       -4    1    3    3    0  502 -0.75423622358E+02 -0.79494376069E+03 -0.41400047397E+03  0.89945667534E+03  0.12699999809E+01 0. -1.
</event>
<event>
 5   0  0.1388269E-05  0.2814047E+04  0.7818609E-02  0.8298920E-01
        2   -1    0    0  501    0  0.00000000000E+00  0.00000000000E+00  0.16635257498E+04  0.16635257498E+04  0.25500000920E-02 0.  1.
       -2   -1    0    0    0  501  0.00000000000E+00  0.00000000000E+00 -0.11900720820E+04  0.11900720820E+04  0.25500000920E-02 0. -1.
    10030    2    1    2    0    0  0.00000000000E+00  0.00000000000E+00  0.47345366773E+03  0.28535978318E+04  0.28140473006E+04 0.  0.
        1    1    3    3  502    0  0.31897975208E+03  0.11841468666E+04  0.93617737476E+03  0.15428480032E+04  0.50400001928E-02 0.  1.
       -1    1    3    3    0  502 -0.31897975208E+03 -0.11841468666E+04 -0.46272370704E+03  0.13107498286E+04  0.50400001928E-02 0. -1.
</event>
<event>
 5   0  0.1283052E-05  0.2800710E+04  0.7818609E-02  0.8303048E-01
       -2   -1    0    0    0  501  0.00000000000E+00  0.00000000000E+00  0.79117345880E+03  0.79117345880E+03  0.25500000920E-02 0.  1.
        2   -1    0    0  501    0  0.00000000000E+00  0.00000000000E+00 -0.24785886801E+04  0.24785886801E+04  0.25500000920E-02 0. -1.
    10030    2    1    2    0    0  0.00000000000E+00  0.00000000000E+00 -0.16874152213E+04  0.32697621389E+04  0.28007096094E+04 0.  0.
        5    1    3    3  502    0 -0.75101016540E+03  0.37833582478E+03  0.46356208904E+03  0.96024276370E+03  0.46999998093E+01 0.  1.
       -5    1    3    3    0  502  0.75101016540E+03 -0.37833582478E+03 -0.21509773103E+04  0.23095193752E+04  0.46999998093E+01 0. -1.
</event>
<event>
 5   0  0.4764214E-06  0.2763437E+04  0.7818609E-02  0.8314710E-01
        1   -1    0    0  501    0  0.00000000000E+00  0.00000000000E+00  0.10899272133E+04  0.10899272133E+04  0.50400001928E-02 0.  1.
       -1   -1    0    0    0  501  0.00000000000E+00  0.00000000000E+00 -0.17516270001E+04  0.17516270002E+04  0.50400001928E-02 0. -1.
    10030    2    1    2    0    0  0.00000000000E+00  0.00000000000E+00 -0.66169978685E+03  0.28415542135E+04  0.27634369434E+04 0.  0.
        3    1    3    3  502    0 -0.59975909744E+03  0.48000445433E+03 -0.15118062132E+04  0.16957810258E+04  0.10100000352E+00 0. -1.
       -3    1    3    3    0  502  0.59975909744E+03 -0.48000445433E+03  0.85010642636E+03  0.11457731876E+04  0.10100000352E+00 0.  1.
</event>
<event>
 5   0  0.5217999E-06  0.2787023E+04  0.7818609E-02  0.8307309E-01
       -1   -1    0    0    0  501  0.00000000000E+00  0.00000000000E+00  0.10717183675E+04  0.10717183675E+04  0.50400001928E-02 0.  1.
        1   -1    0    0  501    0  0.00000000000E+00  0.00000000000E+00 -0.18119255078E+04  0.18119255078E+04  0.50400001928E-02 0. -1.
    10030    2    1    2    0    0  0.00000000000E+00  0.00000000000E+00 -0.74020714034E+03  0.28836438753E+04  0.27870226746E+04 0.  0.
        1    1    3    3  502    0  0.10840831435E+04  0.29874739120E+01  0.53582435786E+03  0.12092778545E+04  0.50400001928E-02 0.  1.
       -1    1    3    3    0  502 -0.10840831435E+04 -0.29874739120E+01 -0.12760314982E+04  0.16743660207E+04  0.50400001928E-02 0. -1.
</event>
<event>
 5   0  0.1302063E-05  0.2828405E+04  0.7818609E-02  0.8294504E-01
        2   -1    0    0  501    0  0.00000000000E+00  0.00000000000E+00  0.10487187276E+04  0.10487187276E+04  0.25500000920E-02 0. -1.
       -2   -1    0    0    0  501  0.00000000000E+00  0.00000000000E+00 -0.19070592472E+04  0.19070592472E+04  0.25500000920E-02 0.  1.
    10030    2    1    2    0    0  0.00000000000E+00  0.00000000000E+00 -0.85834051965E+03  0.29557779748E+04  0.28284050256E+04 0.  0.
        2    1    3    3  502    0 -0.10113521285E+03 -0.11861870985E+04  0.36855424814E+03  0.12462344875E+04  0.25500000920E-02 0. -1.
       -2    1    3    3    0  502  0.10113521285E+03  0.11861870985E+04 -0.12268947678E+04  0.17095434873E+04  0.25500000920E-02 0.  1.
</event>
<event>
 5   0  0.5023691E-06  0.2794069E+04  0.7818609E-02  0.8305112E-01
       -1   -1    0    0    0  501  0.00000000000E+00  0.00000000000E+00  0.15878297926E+04  0.15878297926E+04  0.50400001928E-02 0. -1.
        1   -1    0    0  501    0  0.00000000000E+00  0.00000000000E+00 -0.12291650740E+04  0.12291650740E+04  0.50400001928E-02 0.  1.
    10030    2    1    2    0    0  0.00000000000E+00  0.00000000000E+00  0.35866471856E+03  0.28169948666E+04  0.27940686638E+04 0.  0.
        5    1    3    3  502    0  0.91738999833E+03 -0.10357823461E+04 -0.15210403044E+02  0.13837279082E+04  0.46999998093E+01 0.  1.
       -5    1    3    3    0  502 -0.91738999833E+03  0.10357823461E+04  0.37387512160E+03  0.14332669584E+04  0.46999998093E+01 0. -1.
</event>
<event>
 5   0  0.4764214E-06  0.2862634E+04  0.7818609E-02  0.8284082E-01
       -1   -1    0    0    0  501  0.00000000000E+00  0.00000000000E+00  0.12012073568E+04  0.12012073568E+04  0.50400001928E-02 0. -1.
        1   -1    0    0  501    0  0.00000000000E+00  0.00000000000E+00 -0.17055078780E+04  0.17055078780E+04  0.50400001928E-02 0.  1.
    10030    2    1    2    0    0  0.00000000000E+00  0.00000000000E+00 -0.50430052113E+03  0.29067152348E+04  0.28626341786E+04 0.  0.
        3    1    3    3  502    0  0.23234772116E+03  0.12138833840E+04  0.48088767415E+03  0.13261792106E+04  0.10100000352E+00 0. -1.
       -3    1    3    3    0  502 -0.23234772116E+03 -0.12138833840E+04 -0.98518819528E+03  0.15805360242E+04  0.10100000352E+00 0.  1.
</event>
<event>
 5   0  0.5107453E-06  0.2808358E+04  0.7818609E-02  0.8300678E-01
        1   -1    0    0  501    0  0.00000000000E+00  0.00000000000E+00  0.16627097194E+04  0.16627097194E+04  0.50400001928E-02 0. -1.
       -1   -1    0    0    0  501  0.00000000000E+00  0.00000000000E+00 -0.11858464441E+04  0.11858464441E+04  0.50400001928E-02 0.  1.
    10030    2    1    2    0    0  0.00000000000E+00  0.00000000000E+00  0.47686327527E+03  0.28485561636E+04  0.28083578179E+04 0.  0.
        2    1    3    3  502    0 -0.46538901859E+03 -0.13232596799E+04  0.30350039728E+03  0.14351709342E+04  0.25500000920E-02 0.  1.
       -2    1    3    3    0  502  0.46538901859E+03  0.13232596799E+04  0.17336287799E+03  0.14133852294E+04  0.25500000920E-02 0. -1.
</event>
<event>
 5   0  0.1302063E-05  0.2243560E+04  0.7818609E-02  0.8500513E-01
        2   -1    0    0  501    0  0.00000000000E+00  0.00000000000E+00  0.79853981226E+03  0.79853981226E+03  0.25500000920E-02 0.  1.
       -2   -1    0    0    0  501  0.00000000000E+00  0.00000000000E+00 -0.15758638547E+04  0.15758638548E+04  0.25500000920E-02 0. -1.
    10030    2    1    2    0    0  0.00000000000E+00  0.00000000000E+00 -0.77732404249E+03  0.23744036670E+04  0.22435596954E+04 0.  0.
        2    1    3    3  502    0 -0.46046949481E+03  0.28598527681E+03 -0.14280647817E+04  0.15274779065E+04  0.25500000920E-02 0. -1.
       -2    1    3    3    0  502  0.46046949481E+03 -0.28598527681E+03  0.65074073917E+03  0.84692576052E+03  0.25500000920E-02 0.  1.
</event>
<event>
 5   0  0.1350863E-05  0.2722089E+04  0.7818609E-02  0.8327873E-01
        2   -1    0    0  501    0  0.00000000000E+00  0.00000000000E+00  0.23793739578E+04  0.23793739578E+04  0.25500000920E-02 0.  1.
       -2   -1    0    0    0  501  0.00000000000E+00  0.00000000000E+00 -0.77854187567E+03  0.77854187567E+03  0.25500000920E-02 0. -1.
    10030    2    1    2    0    0  0.00000000000E+00  0.00000000000E+00  0.16008320821E+04  0.31579158334E+04  0.27220890977E+04 0.  0.
        3    1    3    3  502    0  0.34256673942E+03 -0.85831780083E+03 -0.35875182305E+03  0.99134469229E+03  0.10100000352E+00 0. -1.
       -3    1    3    3    0  502 -0.34256673942E+03  0.85831780083E+03  0.19595839052E+04  0.21665711412E+04  0.10100000352E+00 0.  1.
</event>
<event>
 5   0  0.5023691E-06  0.2816393E+04  0.7818609E-02  0.8298197E-01
        1   -1    0    0  501    0  0.00000000000E+00  0.00000000000E+00  0.14072898011E+04  0.14072898011E+04  0.50400001928E-02 0. -1.
       -1   -1    0    0    0  501  0.00000000000E+00  0.00000000000E+00 -0.14091034149E+04  0.14091034149E+04  0.50400001928E-02 0.  1.
    10030    2    1    2    0    0  0.00000000000E+00  0.00000000000E+00 -0.18136137620E+01  0.28163932160E+04  0.28163926320E+04 0.  0.
        5    1    3    3  502    0 -0.12927958622E+04  0.15439414007E+03 -0.53741049010E+03  0.14085420890E+04  0.46999998093E+01 0. -1.
       -5    1    3    3    0  502  0.12927958622E+04 -0.15439414007E+03  0.53559687634E+03  0.14078511269E+04  0.46999998093E+01 0.  1.
</event>
<event>
 5   0  0.5217999E-06  0.2714432E+04  0.7818609E-02  0.8330337E-01
       -1   -1    0    0    0  501  0.00000000000E+00  0.00000000000E+00  0.15798359214E+04  0.15798359214E+04  0.50400001928E-02 0. -1.
        1   -1    0    0  501    0  0.00000000000E+00  0.00000000000E+00 -0.11659662511E+04  0.11659662511E+04  0.50400001928E-02 0.  1.
    10030    2    1    2    0    0  0.00000000000E+00  0.00000000000E+00  0.41386967037E+03  0.27458021725E+04  0.27144320707E+04 0.  0.
        1    1    3    3  502    0  0.60620713439E+03  0.18824811797E+03 -0.10065585163E+04  0.11899934834E+04  0.50400001928E-02 0.  1.
       -1    1    3    3    0  502 -0.60620713439E+03 -0.18824811797E+03  0.14204281867E+04  0.15558086891E+04  0.50400001928E-02 0. -1.
</event>
<event>
 5   0  0.4764214E-06  0.2807758E+04  0.7818609E-02  0.8300864E-01
        1   -1    0    0  501    0  0.00000000000E+00  0.00000000000E+00  0.87429492625E+03  0.87429492626E+03  0.50400001928E-02 0. -1.
       -1   -1    0    0    0  501  0.00000000000E+00  0.00000000000E+00 -0.22542470203E+04  0.22542470204E+04  0.50400001928E-02 0.  1.
    10030    2    1    2    0    0  0.00000000000E+00  0.00000000000E+00 -0.13799520941E+04  0.31285419466E+04  0.28077583460E+04 0.  0.
        3    1    3    3  502    0  0.37741566650E+03  0.12993263503E+04 -0.11071654758E+04  0.17482868617E+04  0.10100000352E+00 0. -1.
       -3    1    3    3    0  502 -0.37741566650E+03 -0.12993263503E+04 -0.27278661832E+03  0.13802550849E+04  0.10100000352E+00 0.  1.
</event>
<event>
 5   0  0.1283052E-05  0.2786108E+04  0.7818609E-02  0.8307594E-01
        2   -1    0    0  501    0  0.00000000000E+00  0.00000000000E+00  0.89550777879E+03  0.89550777880E+03  0.25500000920E-02 0. -1.
       -2   -1    0    0    0  501  0.00000000000E+00  0.00000000000E+00 -0.21670382687E+04  0.21670382687E+04  0.25500000920E-02 0.  1.
    10030    2    1    2    0    0  0.00000000000E+00  0.00000000000E+00 -0.12715304899E+04  0.30625460475E+04  0.27861081290E+04 0.  0.
        5    1    3    3  502    0  0.18155750634E+03  0.29558642359E+03  0.84726276504E+03  0.91553849998E+03  0.46999998093E+01 0. -1.
       -5    1    3    3    0  502 -0.18155750634E+03 -0.29558642359E+03 -0.21187932549E+04  0.21470075475E+04  0.46999998093E+01 0.  1.
</event>
<event>
 5   0  0.4447500E-06  0.2792738E+04  0.7818609E-02  0.8305526E-01
        3   -1    0    0  501    0  0.00000000000E+00  0.00000000000E+00  0.11247802672E+04  0.11247802718E+04  0.10100000352E+00 0.  1.
       -3   -1    0    0    0  501  0.00000000000E+00  0.00000000000E+00 -0.17335358849E+04  0.17335358878E+04  0.10100000352E+00 0. -1.
    10030    2    1    2    0    0  0.00000000000E+00  0.00000000000E+00 -0.60875561765E+03  0.28583161596E+04  0.27927384171E+04 0.  0.
        1    1    3    3  502    0  0.87136648703E+03 -0.73064128014E+03  0.52504060930E+03  0.12525110285E+04  0.50400001928E-02 0.  1.
       -1    1    3    3    0  502 -0.87136648703E+03  0.73064128014E+03 -0.11337962269E+04  0.16058051311E+04  0.50400001928E-02 0. -1.
</event>
<event>
 5   0  0.1302063E-05  0.2833856E+04  0.7818609E-02  0.8292834E-01
       -2   -1    0    0    0  501  0.00000000000E+00  0.00000000000E+00  0.70778353445E+03  0.70778353445E+03  0.25500000920E-02 0. -1.
        2   -1    0    0  501    0  0.00000000000E+00  0.00000000000E+00 -0.28365807703E+04  0.28365807703E+04  0.25500000920E-02 0.  1.
    10030    2    1    2    0    0  0.00000000000E+00  0.00000000000E+00 -0.21287972358E+04  0.35443643047E+04  0.28338561455E+04 0.  0.
        2    1    3    3  502    0 -0.70688563169E+03  0.71710619295E+03 -0.23112094343E+04  0.25210350330E+04  0.25500000920E-02 0.  1.
       -2    1    3    3    0  502  0.70688563169E+03 -0.71710619295E+03  0.18241219848E+03  0.10233292718E+04  0.25500000920E-02 0. -1.
</event>
<event>
 5   0  0.1302063E-05  0.2762381E+04  0.7818609E-02  0.8315044E-01
       -2   -1    0    0    0  501  0.00000000000E+00  0.00000000000E+00  0.15568091143E+04  0.15568091143E+04  0.25500000920E-02 0.  1.
        2   -1    0    0  501    0  0.00000000000E+00  0.00000000000E+00 -0.12253828696E+04  0.12253828696E+04  0.25500000920E-02 0. -1.
    10030    2    1    2    0    0  0.00000000000E+00  0.00000000000E+00  0.33142624471E+03  0.27821919839E+04  0.27623810164E+04 0.  0.
        2    1    3    3  502    0 -0.53390735428E+03 -0.55066086910E+02 -0.11160480582E+04  0.12384072857E+04  0.25500000920E-02 0. -1.
       -2    1    3    3    0  502  0.53390735428E+03  0.55066086910E+02  0.14474743030E+04  0.15437846983E+04  0.25500000920E-02 0.  1.
</event>
<event>
 5   0  0.1283052E-05  0.2663308E+04  0.7818609E-02  0.8347009E-01
       -2   -1    0    0    0  501  0.00000000000E+00  0.00000000000E+00  0.67510098499E+03  0.67510098500E+03  0.25500000920E-02 0.  1.
        2   -1    0    0  501    0  0.00000000000E+00  0.00000000000E+00 -0.26267224761E+04  0.26267224761E+04  0.25500000920E-02 0. -1.
    10030    2    1    2    0    0  0.00000000000E+00  0.00000000000E+00 -0.19516214911E+04  0.33018234611E+04  0.26633084170E+04 0.  0.
        5    1    3    3  502    0  0.45262264619E+03  0.65787809418E+02 -0.25262781437E+04  0.25673524583E+04  0.46999998093E+01 0. -1.
       -5    1    3    3    0  502 -0.45262264619E+03 -0.65787809418E+02  0.57465665255E+03  0.73447100286E+03  0.46999998093E+01 0.  1.
</event>
<event>
 5   0  0.1388269E-05  0.2846370E+04  0.7818609E-02  0.8289015E-01
       -2   -1    0    0    0  501  0.00000000000E+00  0.00000000000E+00  0.11705882644E+04  0.11705882644E+04  0.25500000920E-02 0. -1.
        2   -1    0    0  501    0  0.00000000000E+00  0.00000000000E+00 -0.17302880930E+04  0.17302880930E+04  0.25500000920E-02 0.  1.
    10030    2    1    2    0    0  0.00000000000E+00  0.00000000000E+00 -0.55969982863E+03  0.29008763574E+04  0.28463695724E+04 0.  0.
        1    1    3    3  502    0  0.11850343369E+04 -0.12550451770E+03 -0.10728224104E+04  0.16034355889E+04  0.50400001928E-02 0.  1.
       -1    1    3    3    0  502 -0.11850343369E+04  0.12550451770E+03  0.51312258173E+03  0.12974407684E+04  0.50400001928E-02 0. -1.
</event>
<event>
 5   0  0.1302063E-05  0.2836432E+04  0.7818609E-02  0.8292046E-01
       -2   -1    0    0    0  501  0.00000000000E+00  0.00000000000E+00  0.11107373394E+04  0.11107373394E+04  0.25500000920E-02 0. -1.
        2   -1    0    0  501    0  0.00000000000E+00  0.00000000000E+00 -0.18108114876E+04  0.18108114876E+04  0.25500000920E-02 0.  1.
    10030    2    1    2    0    0  0.00000000000E+00  0.00000000000E+00 -0.70007414819E+03  0.29215488270E+04  0.28364315143E+04 0.  0.
        2    1    3    3  502    0 -0.13517951576E+04  0.33437250137E+03 -0.73309942989E+02  0.13944638631E+04  0.25500000920E-02 0. -1.
       -2    1    3    3    0  502  0.13517951576E+04 -0.33437250137E+03 -0.62676420520E+03  0.15270849638E+04  0.25500000920E-02 0.  1.
</event>
<event>
 5   0  0.1388269E-05  0.2766087E+04  0.7818609E-02  0.8313875E-01
       -2   -1    0    0    0  501  0.00000000000E+00  0.00000000000E+00  0.11725131528E+04  0.11725131528E+04  0.25500000920E-02 0.  1.
        2   -1    0    0  501    0  0.00000000000E+00  0.00000000000E+00 -0.16313750535E+04  0.16313750535E+04  0.25500000920E-02 0. -1.
    10030    2    1    2    0    0  0.00000000000E+00  0.00000000000E+00 -0.45886190071E+03  0.28038882063E+04  0.27660865549E+04 0.  0.
        1    1    3    3  502    0 -0.83335759938E+03  0.10142467629E+04 -0.67084422036E+03  0.14741822657E+04  0.50400001928E-02 0. -1.
       -1    1    3    3    0  502  0.83335759938E+03 -0.10142467629E+04  0.21198231965E+03  0.13297059406E+04  0.50400001928E-02 0.  1.
</event>
<event>
 5   0  0.5281919E-06  0.2797090E+04  0.7818609E-02  0.8304172E-01
       -1   -1    0    0    0  501  0.00000000000E+00  0.00000000000E+00  0.83846773435E+03  0.83846773437E+03  0.50400001928E-02 0. -1.
        1   -1    0    0  501    0  0.00000000000E+00  0.00000000000E+00 -0.23327413637E+04  0.23327413637E+04  0.50400001928E-02 0.  1.
    10030    2    1    2    0    0  0.00000000000E+00  0.00000000000E+00 -0.14942736293E+04  0.31712090980E+04  0.27970901781E+04 0.  0.
        4    1    3    3  502    0 -0.20894512293E+03 -0.10435959564E+04 -0.17757801224E+04  0.20703012439E+04  0.12699999809E+01 0.  1.
       -4    1    3    3    0  502  0.20894512293E+03  0.10435959564E+04  0.28150649307E+03  0.11009078541E+04  0.12699999809E+01 0. -1.
</event>
<event>
 5   0  0.5281919E-06  0.2810976E+04  0.7818609E-02  0.8299869E-01
        1   -1    0    0  501    0  0.00000000000E+00  0.00000000000E+00  0.11938915365E+04  0.11938915365E+04  0.50400001928E-02 0. -1.
       -1   -1    0    0    0  501  0.00000000000E+00  0.00000000000E+00 -0.16545856645E+04  0.16545856645E+04  0.50400001928E-02 0.  1.
    10030    2    1    2    0    0  0.00000000000E+00  0.00000000000E+00 -0.46069412796E+03  0.28484772010E+04  0.28109755042E+04 0.  0.
        4    1    3    3  502    0  0.21751157998E+03 -0.43154684192E+03  0.11070522423E+04  0.12079363577E+04  0.12699999809E+01 0. -1.
       -4    1    3    3    0  502 -0.21751157998E+03  0.43154684192E+03 -0.15677463703E+04  0.16405408433E+04  0.12699999809E+01 0.  1.
</event>
<event>
 5   0  0.5281919E-06  0.2779494E+04  0.7818609E-02  0.8309663E-01
        1   -1    0    0  501    0  0.00000000000E+00  0.00000000000E+00  0.15418995185E+04  0.15418995185E+04  0.50400001928E-02 0. -1.
       -1   -1    0    0    0  501  0.00000000000E+00  0.00000000000E+00 -0.12526087579E+04  0.12526087579E+04  0.50400001928E-02 0.  1.
    10030    2    1    2    0    0  0.00000000000E+00  0.00000000000E+00  0.28929076063E+03  0.27945082765E+04  0.27794940840E+04 0.  0.
        4    1    3    3  502    0 -0.23437011264E+03 -0.10096563037E+04  0.10754215726E+04  0.14936091767E+04  0.12699999809E+01 0. -1.
       -4    1    3    3    0  502  0.23437011264E+03  0.10096563037E+04 -0.78613081193E+03  0.13008990997E+04  0.12699999809E+01 0.  1.
</event>
<event>
 5   0  0.1330962E-05  0.2824724E+04  0.7818609E-02  0.8295633E-01
        2   -1    0    0  501    0  0.00000000000E+00  0.00000000000E+00  0.17641924159E+04  0.17641924159E+04  0.25500000920E-02 0.  1.
       -2   -1    0    0    0  501  0.00000000000E+00  0.00000000000E+00 -0.11306968965E+04  0.11306968965E+04  0.25500000920E-02 0. -1.
    10030    2    1    2    0    0  0.00000000000E+00  0.00000000000E+00  0.63349551941E+03  0.28948893125E+04  0.28247243332E+04 0.  0.
        4    1    3    3  502    0  0.12946087154E+04 -0.46721149757E+02 -0.25987428228E+03  0.13212610822E+04  0.12699999809E+01 0.  1.
       -4    1    3    3    0  502 -0.12946087154E+04  0.46721149757E+02  0.89336980169E+03  0.15736282303E+04  0.12699999809E+01 0. -1.
</event>
<event>
 5   0  0.5023691E-06  0.2636180E+04  0.7818609E-02  0.8356015E-01
       -1   -1    0    0    0  501  0.00000000000E+00  0.00000000000E+00  0.94439335078E+03  0.94439335079E+03  0.50400001928E-02 0.  1.
        1   -1    0    0  501    0  0.00000000000E+00  0.00000000000E+00 -0.18396578381E+04  0.18396578381E+04  0.50400001928E-02 0. -1.
    10030    2    1    2    0    0  0.00000000000E+00  0.00000000000E+00 -0.89526448730E+03  0.27840511889E+04  0.26361795311E+04 0.  0.
        5    1    3    3  502    0 -0.91066241964E+03  0.47197103233E+03  0.42661635245E+03  0.11108943695E+04  0.46999998093E+01 0.  1.
       -5    1    3    3    0  502  0.91066241964E+03 -0.47197103233E+03 -0.13218808398E+04  0.16731568194E+04  0.46999998093E+01 0. -1.
</event>
<event>
 5   0  0.5107453E-06  0.2815490E+04  0.7818609E-02  0.8298475E-01
        1   -1    0    0  501    0  0.00000000000E+00  0.00000000000E+00  0.15532677309E+04  0.15532677309E+04  0.50400001928E-02 0. -1.
       -1   -1    0    0    0  501  0.00000000000E+00  0.00000000000E+00 -0.12758561697E+04  0.12758561697E+04  0.50400001928E-02 0.  1.
    10030    2    1    2    0    0  0.00000000000E+00  0.00000000000E+00  0.27741156123E+03  0.28291239006E+04  0.28154901653E+04 0.  0.
        2    1    3    3  502    0  0.81230517033E+03  0.70267497721E+02 -0.10144440254E+04  0.13014891054E+04  0.25500000920E-02 0.  1.
       -2    1    3    3    0  502 -0.81230517033E+03 -0.70267497721E+02  0.12918555866E+04  0.15276347952E+04  0.25500000920E-02 0. -1.
</event>
<event>
 5   0  0.5281919E-06  0.2754372E+04  0.7818609E-02  0.8317576E-01
        1   -1    0    0  501    0  0.00000000000E+00  0.00000000000E+00  0.17497609184E+04  0.17497609184E+04  0.50400001928E-02 0.  1.
       -1   -1    0    0    0  501  0.00000000000E+00  0.00000000000E+00 -0.10839427908E+04  0.10839427908E+04  0.50400001928E-02 0. -1.
    10030    2    1    2    0    0  0.00000000000E+00  0.00000000000E+00  0.66581812760E+03  0.28337037093E+04  0.27543716040E+04 0.  0.
        4    1    3    3  502    0  0.17319806675E+03 -0.13551046279E+04  0.51208907991E+03  0.14589526934E+04  0.12699999809E+01 0. -1.
       -4    1    3    3    0  502 -0.17319806675E+03  0.13551046279E+04  0.15372904769E+03  0.13747510159E+04  0.12699999809E+01 0.  1.
</event>
<event>
 5   0  0.5281919E-06  0.2796345E+04  0.7818609E-02  0.8304404E-01
       -1   -1    0    0    0  501  0.00000000000E+00  0.00000000000E+00  0.21201003320E+04  0.21201003320E+04  0.50400001928E-02 0.  1.
        1   -1    0    0  501    0  0.00000000000E+00  0.00000000000E+00 -0.92207254134E+03  0.92207254135E+03  0.50400001928E-02 0. -1.
    10030    2    1    2    0    0  0.00000000000E+00  0.00000000000E+00  0.11980277906E+04  0.30421728733E+04  0.27963449723E+04 0.  0.
        4    1    3    3  502    0  0.76725697769E+03  0.60868283154E+03  0.16845864159E+04  0.19485920725E+04  0.12699999809E+01 0.  1.
       -4    1    3    3    0  502 -0.76725697769E+03 -0.60868283154E+03 -0.48655862531E+03  0.10935808009E+04  0.12699999809E+01 0. -1.
</event>
<event>
 5   0  0.1350863E-05  0.2676673E+04  0.7818609E-02  0.8342614E-01
       -2   -1    0    0    0  501  0.00000000000E+00  0.00000000000E+00  0.86356680256E+03  0.86356680257E+03  0.25500000920E-02 0.  1.
        2   -1    0    0  501    0  0.00000000000E+00  0.00000000000E+00 -0.20741243919E+04  0.20741243919E+04  0.25500000920E-02 0. -1.
    10030    2    1    2    0    0  0.00000000000E+00  0.00000000000E+00 -0.12105575893E+04  0.29376911944E+04  0.26766732854E+04 0.  0.
        3    1    3    3  502    0  0.31683012460E+03 -0.43295694027E+03 -0.19509387460E+04  0.20233623108E+04  0.10100000352E+00 0. -1.
       -3    1    3    3    0  502 -0.31683012460E+03  0.43295694027E+03  0.74038115671E+03  0.91432888360E+03  0.10100000352E+00 0.  1.
</event>
<event>
 5   0  0.5107453E-06  0.2785503E+04  0.7818609E-02  0.8307783E-01
       -1   -1    0    0    0  501  0.00000000000E+00  0.00000000000E+00  0.10987003204E+04  0.10987003204E+04  0.50400001928E-02 0. -1.
        1   -1    0    0  501    0  0.00000000000E+00  0.00000000000E+00 -0.17655013992E+04  0.17655013992E+04  0.50400001928E-02 0.  1.
    10030    2    1    2    0    0  0.00000000000E+00  0.00000000000E+00 -0.66680107880E+03  0.28642017196E+04  0.27855031524E+04 0.  0.
        2    1    3    3  502    0  0.66478296849E+03 -0.76856594957E+03  0.64594055638E+03  0.12041051517E+04  0.25500000920E-02 0. -1.
       -2    1    3    3    0  502 -0.66478296849E+03  0.76856594957E+03 -0.13127416352E+04  0.16600965679E+04  0.25500000920E-02 0.  1.
</event>
<event>
 5   0  0.1350863E-05  0.2818000E+04  0.7818609E-02  0.8297702E-01
        2   -1    0    0  501    0  0.00000000000E+00  0.00000000000E+00  0.14313133478E+04  0.14313133478E+04  0.25500000920E-02 0.  1.
       -2   -1    0    0    0  501  0.00000000000E+00  0.00000000000E+00 -0.13870344208E+04  0.13870344208E+04  0.25500000920E-02 0. -1.
    10030    2    1    2    0    0  0.00000000000E+00  0.00000000000E+00  0.44278926920E+02  0.28183477686E+04  0.28179999151E+04 0.  0.
        3    1    3    3  502    0  0.10220071233E+03  0.94974268166E+03  0.10580398439E+04  0.14254488656E+04  0.10100000352E+00 0.  1.
       -3    1    3    3    0  502 -0.10220071233E+03 -0.94974268166E+03 -0.10137609170E+04  0.13928989030E+04  0.10100000352E+00 0. -1.
</event>
<event>
 5   0  0.5023691E-06  0.2812796E+04  0.7818609E-02  0.8299307E-01
        1   -1    0    0  501    0  0.00000000000E+00  0.00000000000E+00  0.15165996556E+04  0.15165996556E+04  0.50400001928E-02 0.  1.
       -1   -1    0    0    0  501  0.00000000000E+00  0.00000000000E+00 -0.13042038860E+04  0.13042038860E+04  0.50400001928E-02 0. -1.
    10030    2    1    2    0    0  0.00000000000E+00  0.00000000000E+00  0.21239576961E+03  0.28208035416E+04  0.28127958791E+04 0.  0.
        5    1    3    3  502    0 -0.10106055780E+04 -0.94032040329E+03  0.37604938543E+03  0.14307205616E+04  0.46999998093E+01 0.  1.
       -5    1    3    3    0  502  0.10106055780E+04  0.94032040329E+03 -0.16365361582E+03  0.13900829800E+04  0.46999998093E+01 0. -1.
</event>
<event>
 5   0  0.1350863E-05  0.2398861E+04  0.7818609E-02  0.8439930E-01
        2   -1    0    0  501    0  0.00000000000E+00  0.00000000000E+00  0.20360708857E+04  0.20360708857E+04  0.25500000920E-02 0.  1.
       -2   -1    0    0    0  501  0.00000000000E+00  0.00000000000E+00 -0.70657366665E+03  0.70657366665E+03  0.25500000920E-02 0. -1.
    10030    2    1    2    0    0  0.00000000000E+00  0.00000000000E+00  0.13294972191E+04  0.27426445524E+04  0.23988614560E+04 0.  0.
        3    1    3    3  502    0 -0.46299145246E+01 -0.13362978474E+03  0.20275233166E+04  0.20319274508E+04  0.10100000352E+00 0.  1.
       -3    1    3    3    0  502  0.46299145246E+01  0.13362978474E+03 -0.69802609755E+03  0.71071710162E+03  0.10100000352E+00 0. -1.
</event>
<event>
 5   0  0.4764214E-06  0.2378281E+04  0.7818609E-02  0.8447680E-01
        1   -1    0    0  501    0  0.00000000000E+00  0.00000000000E+00  0.12702048818E+04  0.12702048818E+04  0.50400001928E-02 0. -1.
       -1   -1    0    0    0  501  0.00000000000E+00  0.00000000000E+00 -0.11132495023E+04  0.11132495023E+04  0.50400001928E-02 0.  1.
    10030    2    1    2    0    0  0.00000000000E+00  0.00000000000E+00  0.15695537950E+03  0.23834543841E+04  0.23782808518E+04 0.  0.
        3    1    3    3  502    0  0.69243153173E+02 -0.68753088952E+03 -0.89138863423E+03  0.11278594973E+04  0.10100000352E+00 0.  1.
       -3    1    3    3    0  502 -0.69243153173E+02  0.68753088952E+03  0.10483440137E+04  0.12555948867E+04  0.10100000352E+00 0. -1.
</event>
<event>
 5   0  0.5023691E-06  0.2428780E+04  0.7818609E-02  0.8428807E-01
       -1   -1    0    0    0  501  0.00000000000E+00  0.00000000000E+00  0.65360013969E+03  0.65360013971E+03  0.50400001928E-02 0.  1.
        1   -1    0    0  501    0  0.00000000000E+00  0.00000000000E+00 -0.22563390049E+04  0.22563390049E+04  0.50400001928E-02 0. -1.
    10030    2    1    2    0    0  0.00000000000E+00  0.00000000000E+00 -0.16027388652E+04  0.29099391446E+04  0.24287803432E+04 0.  0.
        5    1    3    3  502    0 -0.50713395165E+02  0.61639263522E+03 -0.20534972844E+04  0.21446176620E+04  0.46999998093E+01 0. -1.
       -5    1    3    3    0  502  0.50713395165E+02 -0.61639263522E+03  0.45075841922E+03  0.76532148258E+03  0.46999998093E+01 0.  1.
</event>
<event>
 5   0  0.1283052E-05  0.2457891E+04  0.7818609E-02  0.8418143E-01
       -2   -1    0    0    0  501  0.00000000000E+00  0.00000000000E+00  0.20055702237E+04  0.20055702237E+04  0.25500000920E-02 0.  1.
        2   -1    0    0  501    0  0.00000000000E+00  0.00000000000E+00 -0.75305613013E+03  0.75305613013E+03  0.25500000920E-02 0. -1.
    10030    2    1    2    0    0  0.00000000000E+00  0.00000000000E+00  0.12525140936E+04  0.27586263539E+04  0.24578909263E+04 0.  0.
        5    1    3    3  502    0  0.11423383913E+04  0.53009399523E+02  0.12115004572E+03  0.11499767042E+04  0.46999998093E+01 0. -1.
       -5    1    3    3    0  502 -0.11423383913E+04 -0.53009399523E+02  0.11313640479E+04  0.16086496497E+04  0.46999998093E+01 0.  1.
</event>
<event>
 5   0  0.4764214E-06  0.2769892E+04  0.7818609E-02  0.8312677E-01
        1   -1    0    0  501    0  0.00000000000E+00  0.00000000000E+00  0.94376521302E+03  0.94376521304E+03  0.50400001928E-02 0.  1.
       -1   -1    0    0    0  501  0.00000000000E+00  0.00000000000E+00 -0.20323643632E+04  0.20323643632E+04  0.50400001928E-02 0. -1.
    10030    2    1    2    0    0  0.00000000000E+00  0.00000000000E+00 -0.10885991502E+04  0.29761295762E+04  0.27698915402E+04 0.  0.
        3    1    3    3  502    0 -0.71109752026E+03  0.10782897391E+04 -0.10812124879E+04  0.16844550748E+04  0.10100000352E+00 0. -1.
       -3    1    3    3    0  502  0.71109752026E+03 -0.10782897391E+04 -0.73866622253E+01  0.12916745014E+04  0.10100000352E+00 0.  1.
</event>
<event>
 5   0  0.5107453E-06  0.2689752E+04  0.7818609E-02  0.8338338E-01
       -1   -1    0    0    0  501  0.00000000000E+00  0.00000000000E+00  0.85516630717E+03  0.85516630719E+03  0.50400001928E-02 0.  1.
        1   -1    0    0  501    0  0.00000000000E+00  0.00000000000E+00 -0.21150178054E+04  0.21150178054E+04  0.50400001928E-02 0. -1.
    10030    2    1    2    0    0  0.00000000000E+00  0.00000000000E+00 -0.12598514982E+04  0.29701841126E+04  0.26897523799E+04 0.  0.
        2    1    3    3  502    0 -0.39526324591E+02 -0.85540775478E+03  0.51521150090E+03  0.99936362148E+03  0.25500000920E-02 0.  1.
       -2    1    3    3    0  502  0.39526324591E+02  0.85540775478E+03 -0.17750629991E+04  0.19708204911E+04  0.25500000920E-02 0. -1.
</event>
<event>
 5   0  0.1302063E-05  0.2666391E+04  0.7818609E-02  0.8345993E-01
       -2   -1    0    0    0  501  0.00000000000E+00  0.00000000000E+00  0.88629240601E+03  0.88629240602E+03  0.25500000920E-02 0. -1.
        2   -1    0    0  501    0  0.00000000000E+00  0.00000000000E+00 -0.20054440904E+04  0.20054440904E+04  0.25500000920E-02 0.  1.
    10030    2    1    2    0    0  0.00000000000E+00  0.00000000000E+00 -0.11191516844E+04  0.28917364964E+04  0.26663907201E+04 0.  0.
        2    1    3    3  502    0  0.26849740653E+03  0.67684519169E+03 -0.17707397151E+04  0.19146094665E+04  0.25500000920E-02 0.  1.
       -2    1    3    3    0  502 -0.26849740653E+03 -0.67684519169E+03  0.65158803067E+03  0.97712702989E+03  0.25500000920E-02 0. -1.
</event>
<event>
 5   0  0.1302063E-05  0.2759611E+04  0.7818609E-02  0.8315918E-01
       -2   -1    0    0    0  501  0.00000000000E+00  0.00000000000E+00  0.13621783106E+04  0.13621783106E+04  0.25500000920E-02 0.  1.
        2   -1    0    0  501    0  0.00000000000E+00  0.00000000000E+00 -0.13976606379E+04  0.13976606379E+04  0.25500000920E-02 0. -1.
    10030    2    1    2    0    0  0.00000000000E+00  0.00000000000E+00 -0.35482327307E+02  0.27598389485E+04  0.27596108469E+04 0.  0.
        2    1    3    3  502    0 -0.16015176134E+03 -0.93245036850E+03 -0.10221900165E+04  0.13928333376E+04  0.25500000920E-02 0. -1.
       -2    1    3    3    0  502  0.16015176134E+03  0.93245036850E+03  0.98670768923E+03  0.13670056109E+04  0.25500000920E-02 0.  1.
</event>
<event>
 5   0  0.1330962E-05  0.2733403E+04  0.7818609E-02  0.8324248E-01
        2   -1    0    0  501    0  0.00000000000E+00  0.00000000000E+00  0.21014791630E+04  0.21014791630E+04  0.25500000920E-02 0. -1.
       -2   -1    0    0    0  501  0.00000000000E+00  0.00000000000E+00 -0.88883703752E+03  0.88883703753E+03  0.25500000920E-02 0.  1.
    10030    2    1    2    0    0  0.00000000000E+00  0.00000000000E+00  0.12126421255E+04  0.29903162005E+04  0.27334026514E+04 0.  0.
        4    1    3    3  502    0  0.13035739476E+04  0.36695486752E+03  0.80777572689E+03  0.15768526087E+04  0.12699999809E+01 0. -1.
       -4    1    3    3    0  502 -0.13035739476E+04 -0.36695486752E+03  0.40486639858E+03  0.14134635918E+04  0.12699999809E+01 0.  1.
</event>
<event>
 5   0  0.1388269E-05  0.2646851E+04  0.7818609E-02  0.8352459E-01
       -2   -1    0    0    0  501  0.00000000000E+00  0.00000000000E+00  0.12047708166E+04  0.12047708166E+04  0.25500000920E-02 0.  1.
        2   -1    0    0  501    0  0.00000000000E+00  0.00000000000E+00 -0.14537657588E+04  0.14537657588E+04  0.25500000920E-02 0. -1.
    10030    2    1    2    0    0  0.00000000000E+00  0.00000000000E+00 -0.24899494225E+03  0.26585365754E+04  0.26468506270E+04 0.  0.
        1    1    3    3  502    0 -0.46851745502E+03  0.14057982451E+03  0.11106403511E+04  0.12135869487E+04  0.50400001928E-02 0.  1.
       -1    1    3    3    0  502  0.46851745502E+03 -0.14057982451E+03 -0.13596352933E+04  0.14449496267E+04  0.50400001928E-02 0. -1.
</event>
<event>
 5   0  0.4447500E-06  0.2825078E+04  0.7818609E-02  0.8295525E-01
        4   -1    0    0  501    0  0.00000000000E+00  0.00000000000E+00  0.19415492122E+04  0.19415496276E+04  0.12699999809E+01 0.  1.
       -4   -1    0    0    0  501  0.00000000000E+00  0.00000000000E+00 -0.10276659617E+04  0.10276667464E+04  0.12699999809E+01 0. -1.
    10030    2    1    2    0    0  0.00000000000E+00  0.00000000000E+00  0.91388325051E+03  0.29692163740E+04  0.28250775706E+04 0.  0.
        3    1    3    3  502    0 -0.33395687423E+03 -0.10520650834E+04  0.13833306068E+04  0.17697377522E+04  0.10100000352E+00 0.  1.
       -3    1    3    3    0  502  0.33395687423E+03  0.10520650834E+04 -0.46944735634E+03  0.11994786218E+04  0.10100000352E+00 0. -1.
</event>
<event>
 5   0  0.1302063E-05  0.2835632E+04  0.7818609E-02  0.8292291E-01
       -2   -1    0    0    0  501  0.00000000000E+00  0.00000000000E+00  0.12665842096E+04  0.12665842096E+04  0.25500000920E-02 0. -1.
        2   -1    0    0  501    0  0.00000000000E+00  0.00000000000E+00 -0.15871051986E+04  0.15871051986E+04  0.25500000920E-02 0.  1.
    10030    2    1    2    0    0  0.00000000000E+00  0.00000000000E+00 -0.32052098904E+03  0.28536894082E+04  0.28356321225E+04 0.  0.
        2    1    3    3  502    0 -0.59165478241E+02 -0.13903061987E+04  0.11303930333E+03  0.13961481885E+04  0.25500000920E-02 0. -1.
       -2    1    3    3    0  502  0.59165478241E+02  0.13903061987E+04 -0.43356029236E+03  0.14575412197E+04  0.25500000920E-02 0.  1.
</event>
<event>
 5   0  0.1350863E-05  0.2804086E+04  0.7818609E-02  0.8302001E-01
        2   -1    0    0  501    0  0.00000000000E+00  0.00000000000E+00  0.20329427365E+04  0.20329427365E+04  0.25500000920E-02 0.  1.
       -2   -1    0    0    0  501  0.00000000000E+00  0.00000000000E+00 -0.96693585359E+03  0.96693585359E+03  0.25500000920E-02 0. -1.
    10030    2    1    2    0    0  0.00000000000E+00  0.00000000000E+00  0.10660068829E+04  0.29998785901E+04  0.28040864610E+04 0.  0.
        3    1    3    3  502    0  0.11299032671E+03 -0.75287916665E+03 -0.72654383166E+03  0.10523591607E+04  0.10100000352E+00 0. -1.
       -3    1    3    3    0  502 -0.11299032671E+03  0.75287916665E+03  0.17925507145E+04  0.19475194294E+04  0.10100000352E+00 0.  1.
</event>
<event>
 5   0  0.4447500E-06  0.2193730E+04  0.7818609E-02  0.8521043E-01
        3   -1    0    0  501    0  0.00000000000E+00  0.00000000000E+00  0.77780518676E+03  0.77780519331E+03  0.10100000352E+00 0.  1.
       -3   -1    0    0    0  501  0.00000000000E+00  0.00000000000E+00 -0.15468042234E+04  0.15468042267E+04  0.10100000352E+00 0. -1.
    10030    2    1    2    0    0  0.00000000000E+00  0.00000000000E+00 -0.76899903660E+03  0.23246094200E+04  0.21937295725E+04 0.  0.
        5    1    3    3  502    0  0.40588951448E+03  0.95045454908E+03 -0.77381512232E+03  0.12910933666E+04  0.46999998093E+01 0. -1.
       -5    1    3    3    0  502 -0.40588951448E+03 -0.95045454908E+03  0.48160857221E+01  0.10335160533E+04  0.46999998093E+01 0.  1.
</event>
<event>
 5   0  0.4447500E-06  0.2797260E+04  0.7818609E-02  0.8304120E-01
       -3   -1    0    0    0  501  0.00000000000E+00  0.00000000000E+00  0.11422106240E+04  0.11422106285E+04  0.10100000352E+00 0. -1.
        3   -1    0    0  501    0  0.00000000000E+00  0.00000000000E+00 -0.17126135576E+04  0.17126135606E+04  0.10100000352E+00 0.  1.
    10030    2    1    2    0    0  0.00000000000E+00  0.00000000000E+00 -0.57040293364E+03  0.28548241891E+04  0.27972596669E+04 0.  0.
        3    1    3    3  502    0  0.21654505287E+02  0.91963027387E+03  0.79003381006E+03  0.12125766736E+04  0.10100000352E+00 0. -1.
       -3    1    3    3    0  502 -0.21654505287E+02 -0.91963027387E+03 -0.13604367437E+04  0.16422475155E+04  0.10100000352E+00 0.  1.
</event>
<event>
 5   0  0.4764214E-06  0.2815856E+04  0.7818609E-02  0.8298363E-01
       -1   -1    0    0    0  501  0.00000000000E+00  0.00000000000E+00  0.13614551513E+04  0.13614551513E+04  0.50400001928E-02 0. -1.
        1   -1    0    0  501    0  0.00000000000E+00  0.00000000000E+00 -0.14559870137E+04  0.14559870138E+04  0.50400001928E-02 0.  1.
    10030    2    1    2    0    0  0.00000000000E+00  0.00000000000E+00 -0.94531862479E+02  0.28174421650E+04  0.28158558344E+04 0.  0.
        3    1    3    3  502    0 -0.44487945646E+03 -0.95691449146E+03  0.88527733260E+03  0.13774320457E+04  0.10100000352E+00 0. -1.
       -3    1    3    3    0  502  0.44487945646E+03  0.95691449146E+03 -0.97980919508E+03  0.14400101193E+04  0.10100000352E+00 0.  1.
</event>
<event>
 5   0  0.1283052E-05  0.2972879E+04  0.7818609E-02  0.8251518E-01
       -2   -1    0    0    0  501  0.00000000000E+00  0.00000000000E+00  0.19018059734E+04  0.19018059734E+04  0.25500000920E-02 0. -1.
        2   -1    0    0  501    0  0.00000000000E+00  0.00000000000E+00 -0.11617913712E+04  0.11617913712E+04  0.25500000920E-02 0.  1.
    10030    2    1    2    0    0  0.00000000000E+00  0.00000000000E+00  0.74001460216E+03  0.30635973446E+04  0.29728785845E+04 0.  0.
        5    1    3    3  502    0 -0.21169004376E+03  0.12719077997E+04  0.11321134107E+04  0.17158860657E+04  0.46999998093E+01 0. -1.
       -5    1    3    3    0  502  0.21169004376E+03 -0.12719077997E+04 -0.39209880857E+03  0.13477112789E+04  0.46999998093E+01 0.  1.
</event>
<event>
 5   0  0.5281919E-06  0.2795822E+04  0.7818609E-02  0.8304567E-01
       -1   -1    0    0    0  501  0.00000000000E+00  0.00000000000E+00  0.10875688959E+04  0.10875688959E+04  0.50400001928E-02 0.  1.
        1   -1    0    0  501    0  0.00000000000E+00  0.00000000000E+00 -0.17968105137E+04  0.17968105138E+04  0.50400001928E-02 0. -1.
    10030    2    1    2    0    0  0.00000000000E+00  0.00000000000E+00 -0.70924161783E+03  0.28843794097E+04  0.27958220449E+04 0.  0.
        4    1    3    3  502    0 -0.83514536215E+03 -0.10773524909E+04 -0.34972283107E+02  0.13635911554E+04  0.12699999809E+01 0.  1.
       -4    1    3    3    0  502  0.83514536215E+03  0.10773524909E+04 -0.67426933472E+03  0.15207882543E+04  0.12699999809E+01 0. -1.
</event>
<event>
 5   0  0.1388269E-05  0.2791706E+04  0.7818609E-02  0.8305848E-01
        2   -1    0    0  501    0  0.00000000000E+00  0.00000000000E+00  0.13211273233E+04  0.13211273233E+04  0.25500000920E-02 0.  1.
       -2   -1    0    0    0  501  0.00000000000E+00  0.00000000000E+00 -0.14748056756E+04  0.14748056756E+04  0.25500000920E-02 0. -1.
    10030    2    1    2    0    0  0.00000000000E+00  0.00000000000E+00 -0.15367835235E+03  0.27959329989E+04  0.27917063417E+04 0.  0.
        1    1    3    3  502    0  0.24538863346E+03 -0.49135659589E+03  0.12083648413E+04  0.13273253088E+04  0.50400001928E-02 0.  1.
       -1    1    3    3    0  502 -0.24538863346E+03  0.49135659589E+03 -0.13620431937E+04  0.14686076900E+04  0.50400001928E-02 0. -1.
</event>
<event>
 5   0  0.1302063E-05  0.2858887E+04  0.7818609E-02  0.8285216E-01
       -2   -1    0    0    0  501  0.00000000000E+00  0.00000000000E+00  0.92381904546E+03  0.92381904546E+03  0.25500000920E-02 0.  1.
        2   -1    0    0  501    0  0.00000000000E+00  0.00000000000E+00 -0.22118064525E+04  0.22118064525E+04  0.25500000920E-02 0. -1.
    10030    2    1    2    0    0  0.00000000000E+00  0.00000000000E+00 -0.12879874070E+04  0.31356254980E+04  0.28588871441E+04 0.  0.
        2    1    3    3  502    0  0.99975387480E+03 -0.91844620402E+03 -0.15317424476E+03  0.13662040803E+04  0.25500000920E-02 0.  1.
       -2    1    3    3    0  502 -0.99975387480E+03  0.91844620402E+03 -0.11348131623E+04  0.17694214176E+04  0.25500000920E-02 0. -1.
</event>
<event>
 5   0  0.5023691E-06  0.2830704E+04  0.7818609E-02  0.8293799E-01
       -1   -1    0    0    0  501  0.00000000000E+00  0.00000000000E+00  0.12733434124E+04  0.12733434124E+04  0.50400001928E-02 0. -1.
        1   -1    0    0  501    0  0.00000000000E+00  0.00000000000E+00 -0.15731980898E+04  0.15731980898E+04  0.50400001928E-02 0.  1.
    10030    2    1    2    0    0  0.00000000000E+00  0.00000000000E+00 -0.29985467738E+03  0.28465415022E+04  0.28307040991E+04 0.  0.
        5    1    3    3  502    0 -0.33393024019E+03 -0.19553318212E+02 -0.15328698592E+04  0.15689499141E+04  0.46999998093E+01 0.  1.
       -5    1    3    3    0  502  0.33393024019E+03  0.19553318212E+02  0.12330151818E+04  0.12775915882E+04  0.46999998093E+01 0. -1.
</event>
<event>
 5   0  0.1330962E-05  0.2845622E+04  0.7818609E-02  0.8289243E-01
        2   -1    0    0  501    0  0.00000000000E+00  0.00000000000E+00  0.16097861158E+04  0.16097861158E+04  0.25500000920E-02 0.  1.
       -2   -1    0    0    0  501  0.00000000000E+00  0.00000000000E+00 -0.12575524942E+04  0.12575524942E+04  0.25500000920E-02 0. -1.
    10030    2    1    2    0    0  0.00000000000E+00  0.00000000000E+00  0.35223362162E+03  0.28673386100E+04  0.28456215807E+04 0.  0.
        4    1    3    3  502    0 -0.29637686691E+03 -0.62067654553E+03 -0.10789047198E+04  0.12794981941E+04  0.12699999809E+01 0. -1.
       -4    1    3    3    0  502  0.29637686691E+03  0.62067654553E+03  0.14311383414E+04  0.15878404159E+04  0.12699999809E+01 0.  1.
</event>
<event>
 5   0  0.1283052E-05  0.2870893E+04  0.7818609E-02  0.8281591E-01
       -2   -1    0    0    0  501  0.00000000000E+00  0.00000000000E+00  0.13481446871E+04  0.13481446871E+04  0.25500000920E-02 0.  1.
        2   -1    0    0  501    0  0.00000000000E+00  0.00000000000E+00 -0.15284014122E+04  0.15284014122E+04  0.25500000920E-02 0. -1.
    10030    2    1    2    0    0  0.00000000000E+00  0.00000000000E+00 -0.18025672517E+03  0.28765460993E+04  0.28708927138E+04 0.  0.
        5    1    3    3  502    0 -0.43129730938E+03 -0.63021396461E+03 -0.13079629504E+04  0.15145877921E+04  0.46999998093E+01 0. -1.
       -5    1    3    3    0  502  0.43129730938E+03  0.63021396461E+03  0.11277062252E+04  0.13619583072E+04  0.46999998093E+01 0.  1.
</event>
<event>
 5   0  0.5281919E-06  0.2825117E+04  0.7818609E-02  0.8295513E-01
        1   -1    0    0  501    0  0.00000000000E+00  0.00000000000E+00  0.78795076404E+03  0.78795076406E+03  0.50400001928E-02 0. -1.
       -1   -1    0    0    0  501  0.00000000000E+00  0.00000000000E+00 -0.25322919541E+04  0.25322919541E+04  0.50400001928E-02 0.  1.
    10030    2    1    2    0    0  0.00000000000E+00  0.00000000000E+00 -0.17443411901E+04  0.33202427182E+04  0.28251169038E+04 0.  0.
        4    1    3    3  502    0  0.38770270277E+03 -0.19830837780E+03 -0.24514312779E+04  0.24898105393E+04  0.12699999809E+01 0.  1.
       -4    1    3    3    0  502 -0.38770270277E+03  0.19830837780E+03  0.70709008785E+03  0.83043217886E+03  0.12699999809E+01 0. -1.
</event>
<event>
 5   0  0.1350863E-05  0.2769955E+04  0.7818609E-02  0.8312657E-01
       -2   -1    0    0    0  501  0.00000000000E+00  0.00000000000E+00  0.14151278548E+04  0.14151278548E+04  0.25500000920E-02 0.  1.
        2   -1    0    0  501    0  0.00000000000E+00  0.00000000000E+00 -0.13554697369E+04  0.13554697369E+04  0.25500000920E-02 0. -1.
    10030    2    1    2    0    0  0.00000000000E+00  0.00000000000E+00  0.59658117828E+02  0.27705975917E+04  0.27699552206E+04 0.  0.
        3    1    3    3  502    0  0.31634133468E+03  0.40009165918E+02 -0.13182558819E+04  0.13562710473E+04  0.10100000352E+00 0. -1.
       -3    1    3    3    0  502 -0.31634133468E+03 -0.40009165918E+02  0.13779139997E+04  0.14143265444E+04  0.10100000352E+00 0.  1.
</event>
<event>
 5   0  0.5023691E-06  0.2782210E+04  0.7818609E-02  0.8308813E-01
        1   -1    0    0  501    0  0.00000000000E+00  0.00000000000E+00  0.15147126187E+04  0.15147126187E+04  0.50400001928E-02 0. -1.
       -1   -1    0    0    0  501  0.00000000000E+00  0.00000000000E+00 -0.12775843845E+04  0.12775843845E+04  0.50400001928E-02 0.  1.
    10030    2    1    2    0    0  0.00000000000E+00  0.00000000000E+00  0.23712823414E+03  0.27922970032E+04  0.27822100486E+04 0.  0.
        5    1    3    3  502    0  0.11829679661E+04  0.64491430643E+03 -0.22884608205E+03  0.13666456346E+04  0.46999998093E+01 0. -1.
       -5    1    3    3    0  502 -0.11829679661E+04 -0.64491430643E+03  0.46597431619E+03  0.14256513686E+04  0.46999998093E+01 0.  1.
</event>
<event>
 5   0  0.4764214E-06  0.2803835E+04  0.7818609E-02  0.8302079E-01
       -1   -1    0    0    0  501  0.00000000000E+00  0.00000000000E+00  0.14049475411E+04  0.14049475412E+04  0.50400001928E-02 0. -1.
        1   -1    0    0  501    0  0.00000000000E+00  0.00000000000E+00 -0.13988940663E+04  0.13988940663E+04  0.50400001928E-02 0.  1.
    10030    2    1    2    0    0  0.00000000000E+00  0.00000000000E+00  0.60534748925E+01  0.28038416074E+04  0.28038350727E+04 0.  0.
        3    1    3    3  502    0 -0.86946105755E+03 -0.77464176614E+03  0.78363112661E+03  0.14036061233E+04  0.10100000352E+00 0. -1.
       -3    1    3    3    0  502  0.86946105755E+03  0.77464176614E+03 -0.77757765172E+03  0.14002354842E+04  0.10100000352E+00 0.  1.
</event>
<event>
 5   0  0.4764214E-06  0.2797967E+04  0.7818609E-02  0.8303900E-01
       -1   -1    0    0    0  501  0.00000000000E+00  0.00000000000E+00  0.14503047568E+04  0.14503047568E+04  0.50400001928E-02 0.  1.
        1   -1    0    0  501    0  0.00000000000E+00  0.00000000000E+00 -0.13494785060E+04  0.13494785060E+04  0.50400001928E-02 0. -1.
    10030    2    1    2    0    0  0.00000000000E+00  0.00000000000E+00  0.10082625083E+03  0.27997832628E+04  0.27979671881E+04 0.  0.
        3    1    3    3  502    0 -0.42870324954E+02 -0.40598858660E+02 -0.13482311862E+04  0.13495234247E+04  0.10100000352E+00 0. -1.
       -3    1    3    3    0  502  0.42870324954E+02  0.40598858660E+02  0.14490574370E+04  0.14502598381E+04  0.10100000352E+00 0.  1.
</event>
<event>
 5   0  0.5217999E-06  0.2796159E+04  0.7818609E-02  0.8304462E-01
       -1   -1    0    0    0  501  0.00000000000E+00  0.00000000000E+00  0.16568155796E+04  0.16568155796E+04  0.50400001928E-02 0.  1.
        1   -1    0    0  501    0  0.00000000000E+00  0.00000000000E+00 -0.11797487308E+04  0.11797487308E+04  0.50400001928E-02 0. -1.
    10030    2    1    2    0    0  0.00000000000E+00  0.00000000000E+00  0.47706684884E+03  0.28365643104E+04  0.27961588490E+04 0.  0.
        1    1    3    3  502    0  0.65964881319E+02  0.29564472047E+03 -0.11460589704E+04  0.11854148346E+04  0.50400001928E-02 0. -1.
       -1    1    3    3    0  502 -0.65964881319E+02 -0.29564472047E+03  0.16231258193E+04  0.16511494758E+04  0.50400001928E-02 0.  1.
</event>
<event>
 5   0  0.1350863E-05  0.2789345E+04  0.7818609E-02  0.8306584E-01
        2   -1    0    0  501    0  0.00000000000E+00  0.00000000000E+00  0.16327415068E+04  0.16327415068E+04  0.25500000920E-02 0. -1.
       -2   -1    0    0    0  501  0.00000000000E+00  0.00000000000E+00 -0.11913157688E+04  0.11913157688E+04  0.25500000920E-02 0.  1.
    10030    2    1    2    0    0  0.00000000000E+00  0.00000000000E+00  0.44142573792E+03  0.28240572756E+04  0.27893445133E+04 0.  0.
        3    1    3    3  502    0  0.10965865193E+03 -0.13898793146E+04  0.18391270756E+03  0.14062764392E+04  0.10100000352E+00 0.  1.
       -3    1    3    3    0  502 -0.10965865193E+03  0.13898793146E+04  0.25751303036E+03  0.14177808364E+04  0.10100000352E+00 0. -1.
</event>
<event>
 5   0  0.4447500E-06  0.2694658E+04  0.7818609E-02  0.8336740E-01
        3   -1    0    0  501    0  0.00000000000E+00  0.00000000000E+00  0.14393458899E+04  0.14393458934E+04  0.10100000352E+00 0.  1.
       -3   -1    0    0    0  501  0.00000000000E+00  0.00000000000E+00 -0.12611945768E+04  0.12611945808E+04  0.10100000352E+00 0. -1.
    10030    2    1    2    0    0  0.00000000000E+00  0.00000000000E+00  0.17815131312E+03  0.27005404742E+04  0.26946578563E+04 0.  0.
        4    1    3    3  502    0 -0.95100648562E+03  0.34059944427E+03 -0.80442678741E+03  0.12913269866E+04  0.12699999809E+01 0. -1.
       -4    1    3    3    0  502  0.95100648562E+03 -0.34059944427E+03  0.98257810054E+03  0.14092134876E+04  0.12699999809E+01 0.  1.
</event>
<event>
 5   0  0.1350863E-05  0.2380691E+04  0.7818609E-02  0.8446768E-01
       -2   -1    0    0    0  501  0.00000000000E+00  0.00000000000E+00  0.93687323887E+03  0.93687323887E+03  0.25500000920E-02 0. -1.
        2   -1    0    0  501    0  0.00000000000E+00  0.00000000000E+00 -0.15123952579E+04  0.15123952579E+04  0.25500000920E-02 0.  1.
    10030    2    1    2    0    0  0.00000000000E+00  0.00000000000E+00 -0.57552201903E+03  0.24492684968E+04  0.23806911969E+04 0.  0.
        3    1    3    3  502    0  0.22480501181E+03 -0.49490686343E+03  0.80173032231E+03  0.96862873007E+03  0.10100000352E+00 0. -1.
       -3    1    3    3    0  502 -0.22480501181E+03  0.49490686343E+03 -0.13772523413E+04  0.14806397667E+04  0.10100000352E+00 0.  1.
</event>
<event>
 5   0  0.1283052E-05  0.2825997E+04  0.7818609E-02  0.8295242E-01
        2   -1    0    0  501    0  0.00000000000E+00  0.00000000000E+00  0.12554618787E+04  0.12554618787E+04  0.25500000920E-02 0. -1.
       -2   -1    0    0    0  501  0.00000000000E+00  0.00000000000E+00 -0.15903031752E+04  0.15903031752E+04  0.25500000920E-02 0.  1.
    10030    2    1    2    0    0  0.00000000000E+00  0.00000000000E+00 -0.33484129651E+03  0.28457650539E+04  0.28259971776E+04 0.  0.
        5    1    3    3  502    0 -0.15834130527E+03 -0.68331181930E+03  0.10677628578E+04  0.12775471114E+04  0.46999998093E+01 0. -1.
       -5    1    3    3    0  502  0.15834130527E+03  0.68331181930E+03 -0.14026041543E+04  0.15682179425E+04  0.46999998093E+01 0.  1.
</event>
<event>
 5   0  0.5107453E-06  0.2879801E+04  0.7818609E-02  0.8278913E-01
       -1   -1    0    0    0  501  0.00000000000E+00  0.00000000000E+00  0.81413748072E+03  0.81413748073E+03  0.50400001928E-02 0.  1.
        1   -1    0    0  501    0  0.00000000000E+00  0.00000000000E+00 -0.25466374417E+04  0.25466374417E+04  0.50400001928E-02 0. -1.
    10030    2    1    2    0    0  0.00000000000E+00  0.00000000000E+00 -0.17324999609E+04  0.33607749224E+04  0.28798006814E+04 0.  0.
        2    1    3    3  502    0  0.10114483150E+04 -0.76993586933E+03 -0.16555915564E+04  0.20872978557E+04  0.25500000920E-02 0. -1.
       -2    1    3    3    0  502 -0.10114483150E+04  0.76993586933E+03 -0.76908404567E+02  0.12734770667E+04  0.25500000920E-02 0.  1.
</event>
<event>
 5   0  0.5281919E-06  0.2805651E+04  0.7818609E-02  0.8301516E-01
       -1   -1    0    0    0  501  0.00000000000E+00  0.00000000000E+00  0.12109362981E+04  0.12109362981E+04  0.50400001928E-02 0. -1.
        1   -1    0    0  501    0  0.00000000000E+00  0.00000000000E+00 -0.16251221571E+04  0.16251221571E+04  0.50400001928E-02 0.  1.
    10030    2    1    2    0    0  0.00000000000E+00  0.00000000000E+00 -0.41418585902E+03  0.28360584552E+04  0.28056510181E+04 0.  0.
        4    1    3    3  502    0  0.12786841070E+04  0.47628744527E+03  0.12206641514E+03  0.13699578821E+04  0.12699999809E+01 0. -1.
       -4    1    3    3    0  502 -0.12786841070E+04 -0.47628744527E+03 -0.53625227416E+03  0.14661005731E+04  0.12699999809E+01 0.  1.
</event>
<event>
 5   0  0.1302063E-05  0.2883592E+04  0.7818609E-02  0.8277776E-01
        2   -1    0    0  501    0  0.00000000000E+00  0.00000000000E+00  0.20299111013E+04  0.20299111013E+04  0.25500000920E-02 0. -1.
       -2   -1    0    0    0  501  0.00000000000E+00  0.00000000000E+00 -0.10240720827E+04  0.10240720827E+04  0.25500000920E-02 0.  1.
    10030    2    1    2    0    0  0.00000000000E+00  0.00000000000E+00  0.10058390186E+04  0.30539831840E+04  0.28835917112E+04 0.  0.
        2    1    3    3  502    0  0.85236412433E+03  0.28215926214E+02  0.17341336515E+04  0.19324958630E+04  0.25500000920E-02 0. -1.
       -2    1    3    3    0  502 -0.85236412433E+03 -0.28215926214E+02 -0.72829463296E+03  0.11214873211E+04  0.25500000920E-02 0.  1.
</event>
<event>
 5   0  0.1350863E-05  0.2805476E+04  0.7818609E-02  0.8301570E-01
        2   -1    0    0  501    0  0.00000000000E+00  0.00000000000E+00  0.20278365380E+04  0.20278365380E+04  0.25500000920E-02 0.  1.
       -2   -1    0    0    0  501  0.00000000000E+00  0.00000000000E+00 -0.97033194695E+03  0.97033194695E+03  0.25500000920E-02 0. -1.
    10030    2    1    2    0    0  0.00000000000E+00  0.00000000000E+00  0.10575045910E+04  0.29981684849E+04  0.28054764843E+04 0.  0.
        3    1    3    3  502    0 -0.75380032650E+03 -0.59451138071E+02 -0.73389041289E+03  0.10537288638E+04  0.10100000352E+00 0. -1.
       -3    1    3    3    0  502  0.75380032650E+03  0.59451138071E+02  0.17913950039E+04  0.19444396212E+04  0.10100000352E+00 0.  1.
</event>
<event>
 5   0  0.5217999E-06  0.2780372E+04  0.7818609E-02  0.8309388E-01
       -1   -1    0    0    0  501  0.00000000000E+00  0.00000000000E+00  0.11413946948E+04  0.11413946948E+04  0.50400001928E-02 0. -1.
        1   -1    0    0  501    0  0.00000000000E+00  0.00000000000E+00 -0.16932061408E+04  0.16932061408E+04  0.50400001928E-02 0.  1.
    10030    2    1    2    0    0  0.00000000000E+00  0.00000000000E+00 -0.55181144606E+03  0.28346008356E+04  0.27803715624E+04 0.  0.
        1    1    3    3  502    0  0.22520861187E+03  0.10954342547E+04  0.56598597457E+03  0.12534094497E+04  0.50400001928E-02 0. -1.
       -1    1    3    3    0  502 -0.22520861187E+03 -0.10954342547E+04 -0.11177974206E+04  0.15811913859E+04  0.50400001928E-02 0.  1.
</event>
<event>
 5   0  0.1283052E-05  0.2827600E+04  0.7818609E-02  0.8294751E-01
        2   -1    0    0  501    0  0.00000000000E+00  0.00000000000E+00  0.12045949545E+04  0.12045949545E+04  0.25500000920E-02 0.  1.
       -2   -1    0    0    0  501  0.00000000000E+00  0.00000000000E+00 -0.16593381505E+04  0.16593381505E+04  0.25500000920E-02 0. -1.
    10030    2    1    2    0    0  0.00000000000E+00  0.00000000000E+00 -0.45474319598E+03  0.28639331051E+04  0.28275999462E+04 0.  0.
        5    1    3    3  502    0  0.81899292683E+03 -0.98902742451E+03 -0.82648178799E+03  0.15270949206E+04  0.46999998093E+01 0. -1.
       -5    1    3    3    0  502 -0.81899292683E+03  0.98902742451E+03  0.37173859201E+03  0.13368381845E+04  0.46999998093E+01 0.  1.
</event>
<event>
 5   0  0.5281919E-06  0.2777292E+04  0.7818609E-02  0.8310353E-01
        1   -1    0    0  501    0  0.00000000000E+00  0.00000000000E+00  0.21298749330E+04  0.21298749330E+04  0.50400001928E-02 0. -1.
       -1   -1    0    0    0  501  0.00000000000E+00  0.00000000000E+00 -0.90537581803E+03  0.90537581804E+03  0.50400001928E-02 0.  1.
    10030    2    1    2    0    0  0.00000000000E+00  0.00000000000E+00  0.12244991150E+04  0.30352507510E+04  0.27772916734E+04 0.  0.
        4    1    3    3  502    0 -0.10085539977E+03 -0.70754253460E+03  0.19134430348E+04  0.20425606748E+04  0.12699999809E+01 0. -1.
       -4    1    3    3    0  502  0.10085539977E+03  0.70754253460E+03 -0.68894391982E+03  0.99269007625E+03  0.12699999809E+01 0.  1.
</event>
<event>
 5   0  0.5023691E-06  0.2816887E+04  0.7818609E-02  0.8298045E-01
        1   -1    0    0  501    0  0.00000000000E+00  0.00000000000E+00  0.32687954510E+04  0.32687954510E+04  0.50400001928E-02 0.  1.
       -1   -1    0    0    0  501  0.00000000000E+00  0.00000000000E+00 -0.60686364112E+03  0.60686364114E+03  0.50400001928E-02 0. -1.
    10030    2    1    2    0    0  0.00000000000E+00  0.00000000000E+00  0.26619318098E+04  0.38756590921E+04  0.28168870119E+04 0.  0.
        5    1    3    3  502    0  0.57695641484E+03 -0.11923592234E+04  0.67242779738E+03  0.14855236299E+04  0.46999998093E+01 0. -1.
       -5    1    3    3    0  502 -0.57695641484E+03  0.11923592234E+04  0.19895040125E+04  0.23901354622E+04  0.46999998093E+01 0.  1.
</event>
<event>
 5   0  0.1302063E-05  0.2832236E+04  0.7818609E-02  0.8293330E-01
        2   -1    0    0  501    0  0.00000000000E+00  0.00000000000E+00  0.16345063132E+04  0.16345063132E+04  0.25500000920E-02 0.  1.
       -2   -1    0    0    0  501  0.00000000000E+00  0.00000000000E+00 -0.12269088186E+04  0.12269088186E+04  0.25500000920E-02 0. -1.
    10030    2    1    2    0    0  0.00000000000E+00  0.00000000000E+00  0.40759749460E+03  0.28614151318E+04  0.28322360140E+04 0.  0.
        2    1    3    3  502    0  0.26332765000E+03  0.13894589275E+04  0.12919594607E+03  0.14200806860E+04  0.25500000920E-02 0.  1.
       -2    1    3    3    0  502 -0.26332765000E+03 -0.13894589275E+04  0.27840154853E+03  0.14413344458E+04  0.25500000920E-02 0. -1.
</event>
<event>
 5   0  0.5217999E-06  0.2793151E+04  0.7818609E-02  0.8305398E-01
       -1   -1    0    0    0  501  0.00000000000E+00  0.00000000000E+00  0.17186794396E+04  0.17186794397E+04  0.50400001928E-02 0. -1.
        1   -1    0    0  501    0  0.00000000000E+00  0.00000000000E+00 -0.11348384888E+04  0.11348384888E+04  0.50400001928E-02 0.  1.
    10030    2    1    2    0    0  0.00000000000E+00  0.00000000000E+00  0.58384095087E+03  0.28535179284E+04  0.27931513228E+04 0.  0.
        1    1    3    3  502    0 -0.13705420503E+04  0.18043551259E+03  0.49491331565E+03  0.14682920948E+04  0.50400001928E-02 0.  1.
       -1    1    3    3    0  502  0.13705420503E+04 -0.18043551259E+03  0.88927635221E+02  0.13852258336E+04  0.50400001928E-02 0. -1.
</event>
<event>
 5   0  0.5107453E-06  0.2243042E+04  0.7818609E-02  0.8500723E-01
        1   -1    0    0  501    0  0.00000000000E+00  0.00000000000E+00  0.12423169151E+04  0.12423169152E+04  0.50400001928E-02 0.  1.
       -1   -1    0    0    0  501  0.00000000000E+00  0.00000000000E+00 -0.10124709728E+04  0.10124709728E+04  0.50400001928E-02 0. -1.
    10030    2    1    2    0    0  0.00000000000E+00  0.00000000000E+00  0.22984594235E+03  0.22547878880E+04  0.22430424121E+04 0.  0.
        2    1    3    3  502    0 -0.59774689225E+03 -0.11256173529E+03 -0.83226277017E+03  0.10308408267E+04  0.25500000920E-02 0. -1.
       -2    1    3    3    0  502  0.59774689225E+03  0.11256173529E+03  0.10621087125E+04  0.12239470612E+04  0.25500000920E-02 0.  1.
</event>
<event>
 5   0  0.1283052E-05  0.2677661E+04  0.7818609E-02  0.8342290E-01
       -2   -1    0    0    0  501  0.00000000000E+00  0.00000000000E+00  0.86828211749E+03  0.86828211749E+03  0.25500000920E-02 0. -1.
        2   -1    0    0  501    0  0.00000000000E+00  0.00000000000E+00 -0.20643826711E+04  0.20643826711E+04  0.25500000920E-02 0.  1.
    10030    2    1    2    0    0  0.00000000000E+00  0.00000000000E+00 -0.11961005537E+04  0.29326647886E+04  0.26776605887E+04 0.  0.
        5    1    3    3  502    0  0.74652810776E+03  0.62462556518E+03  0.40872124865E+03  0.10557160894E+04  0.46999998093E+01 0. -1.
       -5    1    3    3    0  502 -0.74652810776E+03 -0.62462556518E+03 -0.16048218023E+04  0.18769486992E+04  0.46999998093E+01 0.  1.
</event>
<event>
 5   0  0.1330962E-05  0.2798887E+04  0.7818609E-02  0.8303614E-01
       -2   -1    0    0    0  501  0.00000000000E+00  0.00000000000E+00  0.11340805109E+04  0.11340805109E+04  0.25500000920E-02 0. -1.
        2   -1    0    0  501    0  0.00000000000E+00  0.00000000000E+00 -0.17268986245E+04  0.17268986245E+04  0.25500000920E-02 0.  1.
    10030    2    1    2    0    0  0.00000000000E+00  0.00000000000E+00 -0.59281811353E+03  0.28609791354E+04  0.27988869748E+04 0.  0.
        4    1    3    3  502    0 -0.16841195969E+03 -0.12287390940E+03 -0.17109366925E+04  0.17235911825E+04  0.12699999809E+01 0.  1.
       -4    1    3    3    0  502  0.16841195969E+03  0.12287390940E+03  0.11181185790E+04  0.11373879529E+04  0.12699999809E+01 0. -1.
</event>
<event>
 5   0  0.5107453E-06  0.2748224E+04  0.7818609E-02  0.8319525E-01
        1   -1    0    0  501    0  0.00000000000E+00  0.00000000000E+00  0.26627069849E+04  0.26627069849E+04  0.50400001928E-02 0.  1.
       -1   -1    0    0    0  501  0.00000000000E+00  0.00000000000E+00 -0.70912197401E+03  0.70912197403E+03  0.50400001928E-02 0. -1.
    10030    2    1    2    0    0  0.00000000000E+00  0.00000000000E+00  0.19535850109E+04  0.33718289589E+04  0.27482241782E+04 0.  0.
        2    1    3    3  502    0  0.53333380475E+02 -0.10821630725E+04 -0.60120582391E+02  0.10851432391E+04  0.25500000920E-02 0. -1.
       -2    1    3    3    0  502 -0.53333380475E+02  0.10821630725E+04  0.20137055932E+04  0.22866857198E+04  0.25500000920E-02 0.  1.
</event>
<event>
 5   0  0.4764214E-06  0.2899660E+04  0.7818609E-02  0.8272979E-01
       -1   -1    0    0    0  501  0.00000000000E+00  0.00000000000E+00  0.12173016458E+04  0.12173016459E+04  0.50400001928E-02 0.  1.
        1   -1    0    0  501    0  0.00000000000E+00  0.00000000000E+00 -0.17267763345E+04  0.17267763345E+04  0.50400001928E-02 0. -1.
    10030    2    1    2    0    0  0.00000000000E+00  0.00000000000E+00 -0.50947468868E+03  0.29440779804E+04  0.28996604450E+04 0.  0.
        3    1    3    3  502    0  0.17111607649E+03  0.76353506020E+03  0.98450879297E+03  0.12575866067E+04  0.10100000352E+00 0.  1.
       -3    1    3    3    0  502 -0.17111607649E+03 -0.76353506020E+03 -0.14939834816E+04  0.16864913737E+04  0.10100000352E+00 0. -1.
</event>
<event>
 5   0  0.5107453E-06  0.2775637E+04  0.7818609E-02  0.8310872E-01
        1   -1    0    0  501    0  0.00000000000E+00  0.00000000000E+00  0.14417858642E+04  0.14417858642E+04  0.50400001928E-02 0.  1.
       -1   -1    0    0    0  501  0.00000000000E+00  0.00000000000E+00 -0.13358711103E+04  0.13358711103E+04  0.50400001928E-02 0. -1.
    10030    2    1    2    0    0  0.00000000000E+00  0.00000000000E+00  0.10591475393E+03  0.27776569745E+04  0.27756369239E+04 0.  0.
        2    1    3    3  502    0 -0.74543360929E+03 -0.53459498412E+03  0.10951455845E+04  0.14285681342E+04  0.25500000920E-02 0.  1.
       -2    1    3    3    0  502  0.74543360929E+03  0.53459498412E+03 -0.98923083056E+03  0.13490888403E+04  0.25500000920E-02 0. -1.
</event>
<event>
 5   0  0.1350863E-05  0.2790464E+04  0.7818609E-02  0.8306235E-01
        2   -1    0    0  501    0  0.00000000000E+00  0.00000000000E+00  0.94429577000E+03  0.94429577000E+03  0.25500000920E-02 0.  1.
       -2   -1    0    0    0  501  0.00000000000E+00  0.00000000000E+00 -0.20615076895E+04  0.20615076895E+04  0.25500000920E-02 0. -1.
    10030    2    1    2    0    0  0.00000000000E+00  0.00000000000E+00 -0.11172119195E+04  0.30058034595E+04  0.27904644710E+04 0.  0.
        3    1    3    3  502    0  0.43684764998E+03  0.12514012111E+04 -0.10279258193E+04  0.16773408600E+04  0.10100000352E+00 0. -1.
       -3    1    3    3    0  502 -0.43684764998E+03 -0.12514012111E+04 -0.89286100230E+02  0.13284625995E+04  0.10100000352E+00 0.  1.
</event>
<event>
 5   0  0.5023691E-06  0.2953186E+04  0.7818609E-02  0.8257227E-01
        1   -1    0    0  501    0  0.00000000000E+00  0.00000000000E+00  0.16770694861E+04  0.16770694861E+04  0.50400001928E-02 0.  1.
       -1   -1    0    0    0  501  0.00000000000E+00  0.00000000000E+00 -0.13000813503E+04  0.13000813503E+04  0.50400001928E-02 0. -1.
    10030    2    1    2    0    0  0.00000000000E+00  0.00000000000E+00  0.37698813578E+03  0.29771508364E+04  0.29531859149E+04 0.  0.
        5    1    3    3  502    0  0.91358353726E+03  0.13693673251E+03 -0.97277300805E+03  0.13415274740E+04  0.46999998093E+01 0. -1.
       -5    1    3    3    0  502 -0.91358353726E+03 -0.13693673251E+03  0.13497611438E+04  0.16356233624E+04  0.46999998093E+01 0.  1.
</event>
<event>
 5   0  0.5281919E-06  0.2780237E+04  0.7818609E-02  0.8309430E-01
        1   -1    0    0  501    0  0.00000000000E+00  0.00000000000E+00  0.11338811795E+04  0.11338811795E+04  0.50400001928E-02 0.  1.
       -1   -1    0    0    0  501  0.00000000000E+00  0.00000000000E+00 -0.17042604487E+04  0.17042604487E+04  0.50400001928E-02 0. -1.
    10030    2    1    2    0    0  0.00000000000E+00  0.00000000000E+00 -0.57037926921E+03  0.28381416283E+04  0.27802365711E+04 0.  0.
        4    1    3    3  502    0 -0.11456500019E+03  0.85583769528E+03 -0.13973031518E+04  0.16425714629E+04  0.12699999809E+01 0. -1.
       -4    1    3    3    0  502  0.11456500019E+03 -0.85583769528E+03  0.82692388254E+03  0.11955701654E+04  0.12699999809E+01 0.  1.
</event>
<event>
 5   0  0.4764214E-06  0.2800334E+04  0.7818609E-02  0.8303165E-01
        1   -1    0    0  501    0  0.00000000000E+00  0.00000000000E+00  0.14729412114E+04  0.14729412114E+04  0.50400001928E-02 0.  1.
       -1   -1    0    0    0  501  0.00000000000E+00  0.00000000000E+00 -0.13309882573E+04  0.13309882573E+04  0.50400001928E-02 0. -1.
    10030    2    1    2    0    0  0.00000000000E+00  0.00000000000E+00  0.14195295406E+03  0.28039294687E+04  0.28003338773E+04 0.  0.
        3    1    3    3  502    0 -0.68496415482E+03  0.11462280728E+04  0.49276877672E+03  0.14233185750E+04  0.10100000352E+00 0.  1.
       -3    1    3    3    0  502  0.68496415482E+03 -0.11462280728E+04 -0.35081582267E+03  0.13806108938E+04  0.10100000352E+00 0. -1.
</event>
<event>
 5   0  0.1388269E-05  0.2711146E+04  0.7818609E-02  0.8331398E-01
       -2   -1    0    0    0  501  0.00000000000E+00  0.00000000000E+00  0.97290902507E+03  0.97290902507E+03  0.25500000920E-02 0. -1.
        2   -1    0    0  501    0  0.00000000000E+00  0.00000000000E+00 -0.18887461337E+04  0.18887461337E+04  0.25500000920E-02 0.  1.
    10030    2    1    2    0    0  0.00000000000E+00  0.00000000000E+00 -0.91583710859E+03  0.28616551587E+04  0.27111460009E+04 0.  0.
        1    1    3    3  502    0  0.21507597830E+03 -0.86430954964E+03  0.62071728198E+03  0.10856236080E+04  0.50400001928E-02 0. -1.
       -1    1    3    3    0  502 -0.21507597830E+03  0.86430954964E+03 -0.15365543906E+04  0.17760315507E+04  0.50400001928E-02 0.  1.
</event>
<event>
 5   0  0.5217999E-06  0.2776625E+04  0.7818609E-02  0.8310562E-01
        1   -1    0    0  501    0  0.00000000000E+00  0.00000000000E+00  0.12425453667E+04  0.12425453667E+04  0.50400001928E-02 0.  1.
       -1   -1    0    0    0  501  0.00000000000E+00  0.00000000000E+00 -0.15511802070E+04  0.15511802070E+04  0.50400001928E-02 0. -1.
    10030    2    1    2    0    0  0.00000000000E+00  0.00000000000E+00 -0.30863484032E+03  0.27937255737E+04  0.27766251308E+04 0.  0.
        1    1    3    3  502    0 -0.24028537401E+03 -0.97849573897E+03  0.80666729532E+03  0.12906986858E+04  0.50400001928E-02 0.  1.
       -1    1    3    3    0  502  0.24028537401E+03  0.97849573897E+03 -0.11153021356E+04  0.15030268880E+04  0.50400001928E-02 0. -1.
</event>
<event>
 5   0  0.1350863E-05  0.2119216E+04  0.7818609E-02  0.8552826E-01
       -2   -1    0    0    0  501  0.00000000000E+00  0.00000000000E+00  0.90400504397E+03  0.90400504397E+03  0.25500000920E-02 0. -1.
        2   -1    0    0  501    0  0.00000000000E+00  0.00000000000E+00 -0.12419938319E+04  0.12419938319E+04  0.25500000920E-02 0.  1.
    10030    2    1    2    0    0  0.00000000000E+00  0.00000000000E+00 -0.33798878789E+03  0.21459988758E+04  0.21192155988E+04 0.  0.
        3    1    3    3  502    0 -0.67215091306E+03 -0.46006293818E+03  0.51730541826E+03  0.96490914753E+03  0.10100000352E+00 0. -1.
       -3    1    3    3    0  502  0.67215091306E+03  0.46006293818E+03 -0.85529420615E+03  0.11810897283E+04  0.10100000352E+00 0.  1.
</event>
<event>
 5   0  0.1350863E-05  0.2194541E+04  0.7818609E-02  0.8520703E-01
       -2   -1    0    0    0  501  0.00000000000E+00  0.00000000000E+00  0.74855857413E+03  0.74855857413E+03  0.25500000920E-02 0. -1.
        2   -1    0    0  501    0  0.00000000000E+00  0.00000000000E+00 -0.16084286616E+04  0.16084286616E+04  0.25500000920E-02 0.  1.
    10030    2    1    2    0    0  0.00000000000E+00  0.00000000000E+00 -0.85987008751E+03  0.23569872358E+04  0.21945414697E+04 0.  0.
        3    1    3    3  502    0  0.51225625949E+03  0.16008644970E+03  0.59797191169E+03  0.80349521725E+03  0.10100000352E+00 0. -1.
       -3    1    3    3    0  502 -0.51225625949E+03 -0.16008644970E+03 -0.14578419992E+04  0.15534920185E+04  0.10100000352E+00 0.  1.
</event>
<event>
 5   0  0.1330962E-05  0.2798794E+04  0.7818609E-02  0.8303643E-01
        2   -1    0    0  501    0  0.00000000000E+00  0.00000000000E+00  0.17304456004E+04  0.17304456004E+04  0.25500000920E-02 0. -1.
       -2   -1    0    0    0  501  0.00000000000E+00  0.00000000000E+00 -0.11316804039E+04  0.11316804039E+04  0.25500000920E-02 0.  1.
    10030    2    1    2    0    0  0.00000000000E+00  0.00000000000E+00  0.59876519652E+03  0.28621260043E+04  0.27987935801E+04 0.  0.
        4    1    3    3  502    0 -0.13991944440E+04 -0.20345280908E+02  0.31193807295E+03  0.14336896445E+04  0.12699999809E+01 0. -1.
       -4    1    3    3    0  502  0.13991944440E+04  0.20345280908E+02  0.28682712357E+03  0.14284363599E+04  0.12699999809E+01 0.  1.
</event>
<event>
 5   0  0.4764214E-06  0.2830689E+04  0.7818609E-02  0.8293803E-01
       -1   -1    0    0    0  501  0.00000000000E+00  0.00000000000E+00  0.15734944086E+04  0.15734944086E+04  0.50400001928E-02 0. -1.
        1   -1    0    0  501    0  0.00000000000E+00  0.00000000000E+00 -0.12730903443E+04  0.12730903443E+04  0.50400001928E-02 0.  1.
    10030    2    1    2    0    0  0.00000000000E+00  0.00000000000E+00  0.30040406431E+03  0.28465847528E+04  0.28306893424E+04 0.  0.
        3    1    3    3  502    0  0.11369321524E+04  0.38289076240E+03 -0.60500137861E+03  0.13435947058E+04  0.10100000352E+00 0.  1.
       -3    1    3    3    0  502 -0.11369321524E+04 -0.38289076240E+03  0.90540544293E+03  0.15029900470E+04  0.10100000352E+00 0. -1.
</event>
<event>
 5   0  0.1330962E-05  0.2771518E+04  0.7818609E-02  0.8312166E-01
        2   -1    0    0  501    0  0.00000000000E+00  0.00000000000E+00  0.17528303685E+04  0.17528303685E+04  0.25500000920E-02 0. -1.
       -2   -1    0    0    0  501  0.00000000000E+00  0.00000000000E+00 -0.10955585385E+04  0.10955585385E+04  0.25500000920E-02 0.  1.
    10030    2    1    2    0    0  0.00000000000E+00  0.00000000000E+00  0.65727183002E+03  0.28483889070E+04  0.27715181953E+04 0.  0.
        4    1    3    3  502    0 -0.42420175242E+03 -0.53329430083E+03 -0.91146996858E+03  0.11380373696E+04  0.12699999809E+01 0.  1.
       -4    1    3    3    0  502  0.42420175242E+03  0.53329430083E+03  0.15687417986E+04  0.17103515374E+04  0.12699999809E+01 0. -1.
</event>
<event>
 5   0  0.5023691E-06  0.2373307E+04  0.7818609E-02  0.8449565E-01
        1   -1    0    0  501    0  0.00000000000E+00  0.00000000000E+00  0.14891602173E+04  0.14891602173E+04  0.50400001928E-02 0.  1.
       -1   -1    0    0    0  501  0.00000000000E+00  0.00000000000E+00 -0.94559760093E+03  0.94559760094E+03  0.50400001928E-02 0. -1.
    10030    2    1    2    0    0  0.00000000000E+00  0.00000000000E+00  0.54356261639E+03  0.24347578183E+04  0.23733068313E+04 0.  0.
        5    1    3    3  502    0 -0.57535446833E+03  0.13131386375E+03  0.13279266832E+04  0.14531646366E+04  0.46999998093E+01 0.  1.
       -5    1    3    3    0  502  0.57535446833E+03 -0.13131386375E+03 -0.78436406681E+03  0.98159318169E+03  0.46999998093E+01 0. -1.
</event>
<event>
 5   0  0.1388269E-05  0.2770998E+04  0.7818609E-02  0.8312329E-01
        2   -1    0    0  501    0  0.00000000000E+00  0.00000000000E+00  0.16632474513E+04  0.16632474513E+04  0.25500000920E-02 0.  1.
       -2   -1    0    0    0  501  0.00000000000E+00  0.00000000000E+00 -0.11541323086E+04  0.11541323086E+04  0.25500000920E-02 0. -1.
    10030    2    1    2    0    0  0.00000000000E+00  0.00000000000E+00  0.50911514265E+03  0.28173797599E+04  0.27709981023E+04 0.  0.
        1    1    3    3  502    0  0.14719018452E+03  0.11221664985E+04  0.10671121222E+04  0.15555227038E+04  0.50400001928E-02 0.  1.
       -1    1    3    3    0  502 -0.14719018452E+03 -0.11221664985E+04 -0.55799697956E+03  0.12618570561E+04  0.50400001928E-02 0. -1.
</event>
<event>
 5   0  0.5107453E-06  0.2745951E+04  0.7818609E-02  0.8320248E-01
       -1   -1    0    0    0  501  0.00000000000E+00  0.00000000000E+00  0.16283459641E+04  0.16283459641E+04  0.50400001928E-02 0.  1.
        1   -1    0    0  501    0  0.00000000000E+00  0.00000000000E+00 -0.11576545503E+04  0.11576545504E+04  0.50400001928E-02 0. -1.
    10030    2    1    2    0    0  0.00000000000E+00  0.00000000000E+00  0.47069141378E+03  0.27860005145E+04  0.27459512850E+04 0.  0.
        2    1    3    3  502    0 -0.50762063800E+03  0.90199641584E+03 -0.67991208743E+03  0.12383685610E+04  0.25500000920E-02 0. -1.
       -2    1    3    3    0  502  0.50762063800E+03 -0.90199641584E+03  0.11506035012E+04  0.15476319534E+04  0.25500000920E-02 0.  1.
</event>
<event>
 5   0  0.1283052E-05  0.2809081E+04  0.7818609E-02  0.8300454E-01
        2   -1    0    0  501    0  0.00000000000E+00  0.00000000000E+00  0.21228058170E+04  0.21228058170E+04  0.25500000920E-02 0. -1.
       -2   -1    0    0    0  501  0.00000000000E+00  0.00000000000E+00 -0.92930530629E+03  0.92930530630E+03  0.25500000920E-02 0.  1.
    10030    2    1    2    0    0  0.00000000000E+00  0.00000000000E+00  0.11935005107E+04  0.30521111233E+04  0.28090814940E+04 0.  0.
        5    1    3    3  502    0  0.43320011822E+03 -0.95883266033E+01  0.20483605695E+04  0.20936946748E+04  0.46999998093E+01 0. -1.
       -5    1    3    3    0  502 -0.43320011822E+03  0.95883266033E+01 -0.85486005887E+03  0.95841644846E+03  0.46999998093E+01 0.  1.
</event>
<event>
 5   0  0.4764214E-06  0.2836231E+04  0.7818609E-02  0.8292107E-01
        1   -1    0    0  501    0  0.00000000000E+00  0.00000000000E+00  0.16636225567E+04  0.16636225567E+04  0.50400001928E-02 0. -1.
       -1   -1    0    0    0  501  0.00000000000E+00  0.00000000000E+00 -0.12088392691E+04  0.12088392691E+04  0.50400001928E-02 0.  1.
    10030    2    1    2    0    0  0.00000000000E+00  0.00000000000E+00  0.45478328760E+03  0.28724618258E+04  0.28362314966E+04 0.  0.
        3    1    3    3  502    0  0.84754013880E+03 -0.98645505524E+03  0.79997582877E+03  0.15268854573E+04  0.10100000352E+00 0. -1.
       -3    1    3    3    0  502 -0.84754013880E+03  0.98645505524E+03 -0.34519254117E+03  0.13455763685E+04  0.10100000352E+00 0.  1.
</event>
<event>
 5   0  0.4764214E-06  0.2836868E+04  0.7818609E-02  0.8291913E-01
       -1   -1    0    0    0  501  0.00000000000E+00  0.00000000000E+00  0.15127436846E+04  0.15127436846E+04  0.50400001928E-02 0.  1.
        1   -1    0    0  501    0  0.00000000000E+00  0.00000000000E+00 -0.13300034625E+04  0.13300034625E+04  0.50400001928E-02 0. -1.
    10030    2    1    2    0    0  0.00000000000E+00  0.00000000000E+00  0.18274022217E+03  0.28427471471E+04  0.28368675248E+04 0.  0.
        3    1    3    3  502    0 -0.46797446273E+03  0.97138473300E+03 -0.83215050565E+03  0.13620069279E+04  0.10100000352E+00 0. -1.
       -3    1    3    3    0  502  0.46797446273E+03 -0.97138473300E+03  0.10148907278E+04  0.14807402192E+04  0.10100000352E+00 0.  1.
</event>
<event>
 5   0  0.4447500E-06  0.2866147E+04  0.7818609E-02  0.8283022E-01
        3   -1    0    0  501    0  0.00000000000E+00  0.00000000000E+00  0.13612430070E+04  0.13612430108E+04  0.10100000352E+00 0. -1.
       -3   -1    0    0    0  501  0.00000000000E+00  0.00000000000E+00 -0.15086943965E+04  0.15086943999E+04  0.10100000352E+00 0.  1.
    10030    2    1    2    0    0  0.00000000000E+00  0.00000000000E+00 -0.14745138948E+03  0.28699374107E+04  0.28661470355E+04 0.  0.
        1    1    3    3  502    0  0.12588484521E+04 -0.61382234492E+03  0.23035734272E+03  0.14193455541E+04  0.50400001928E-02 0.  1.
       -1    1    3    3    0  502 -0.12588484521E+04  0.61382234492E+03 -0.37780873220E+03  0.14505918567E+04  0.50400001928E-02 0. -1.
</event>
<event>
 5   0  0.4764214E-06  0.2842959E+04  0.7818609E-02  0.8290054E-01
       -1   -1    0    0    0  501  0.00000000000E+00  0.00000000000E+00  0.63498109868E+03  0.63498109870E+03  0.50400001928E-02 0. -1.
        1   -1    0    0  501    0  0.00000000000E+00  0.00000000000E+00 -0.31821476200E+04  0.31821476200E+04  0.50400001928E-02 0.  1.
    10030    2    1    2    0    0  0.00000000000E+00  0.00000000000E+00 -0.25471665214E+04  0.38171287187E+04  0.28429587348E+04 0.  0.
        3    1    3    3  502    0  0.38674511820E+02 -0.36652698464E+03  0.56971218214E+03  0.67853498732E+03  0.10100000352E+00 0. -1.
       -3    1    3    3    0  502 -0.38674511820E+02  0.36652698464E+03 -0.31168787035E+04  0.31385937314E+04  0.10100000352E+00 0.  1.
</event>
<event>
 5   0  0.5107453E-06  0.2884134E+04  0.7818609E-02  0.8277614E-01
        1   -1    0    0  501    0  0.00000000000E+00  0.00000000000E+00  0.97312634707E+03  0.97312634708E+03  0.50400001928E-02 0. -1.
       -1   -1    0    0    0  501  0.00000000000E+00  0.00000000000E+00 -0.21369860356E+04  0.21369860356E+04  0.50400001928E-02 0.  1.
    10030    2    1    2    0    0  0.00000000000E+00  0.00000000000E+00 -0.11638596885E+04  0.31101123826E+04  0.28841341263E+04 0.  0.
        2    1    3    3  502    0  0.10085577661E+03 -0.10960194723E+03 -0.21286692169E+04  0.21338737332E+04  0.25500000920E-02 0.  1.
       -2    1    3    3    0  502 -0.10085577661E+03  0.10960194723E+03  0.96480952839E+03  0.97623864941E+03  0.25500000920E-02 0. -1.
</event>
<event>
 5   0  0.5023691E-06  0.2746802E+04  0.7818609E-02  0.8319977E-01
        1   -1    0    0  501    0  0.00000000000E+00  0.00000000000E+00  0.18809107197E+04  0.18809107197E+04  0.50400001928E-02 0. -1.
       -1   -1    0    0    0  501  0.00000000000E+00  0.00000000000E+00 -0.10028279141E+04  0.10028279141E+04  0.50400001928E-02 0.  1.
    10030    2    1    2    0    0  0.00000000000E+00  0.00000000000E+00  0.87808280560E+03  0.28837386338E+04  0.27468016118E+04 0.  0.
        5    1    3    3  502    0 -0.27168674297E+03  0.53522523342E+03 -0.85782612385E+03  0.10469801744E+04  0.46999998093E+01 0.  1.
       -5    1    3    3    0  502  0.27168674297E+03 -0.53522523342E+03  0.17359089295E+04  0.18367584594E+04  0.46999998093E+01 0. -1.
</event>
<event>
 5   0  0.1283052E-05  0.2852216E+04  0.7818609E-02  0.8287238E-01
        2   -1    0    0  501    0  0.00000000000E+00  0.00000000000E+00  0.15580942591E+04  0.15580942591E+04  0.25500000920E-02 0. -1.
       -2   -1    0    0    0  501  0.00000000000E+00  0.00000000000E+00 -0.13053023879E+04  0.13053023879E+04  0.25500000920E-02 0.  1.
    10030    2    1    2    0    0  0.00000000000E+00  0.00000000000E+00  0.25279187122E+03  0.28633966470E+04  0.28522160907E+04 0.  0.
        5    1    3    3  502    0 -0.12601593382E+04 -0.13506876387E+03 -0.53001491222E+03  0.13737478029E+04  0.46999998093E+01 0.  1.
       -5    1    3    3    0  502  0.12601593382E+04  0.13506876387E+03  0.78280678344E+03  0.14896488442E+04  0.46999998093E+01 0. -1.
</event>
<event>
 5   0  0.5023691E-06  0.2889718E+04  0.7818609E-02  0.8275943E-01
       -1   -1    0    0    0  501  0.00000000000E+00  0.00000000000E+00  0.19671240764E+04  0.19671240764E+04  0.50400001928E-02 0. -1.
        1   -1    0    0  501    0  0.00000000000E+00  0.00000000000E+00 -0.10612533213E+04  0.10612533213E+04  0.50400001928E-02 0.  1.
    10030    2    1    2    0    0  0.00000000000E+00  0.00000000000E+00  0.90587075517E+03  0.30283773977E+04  0.28897176052E+04 0.  0.
        5    1    3    3  502    0  0.38340511135E+03 -0.86012348776E+02 -0.10041757623E+04  0.10783267849E+04  0.46999998093E+01 0.  1.
       -5    1    3    3    0  502 -0.38340511135E+03  0.86012348776E+02  0.19100465174E+04  0.19500506128E+04  0.46999998093E+01 0. -1.
</event>
<event>
 5   0  0.1388269E-05  0.2862786E+04  0.7818609E-02  0.8284037E-01
        2   -1    0    0  501    0  0.00000000000E+00  0.00000000000E+00  0.14130832603E+04  0.14130832603E+04  0.25500000920E-02 0.  1.
       -2   -1    0    0    0  501  0.00000000000E+00  0.00000000000E+00 -0.14499402949E+04  0.14499402949E+04  0.25500000920E-02 0. -1.
    10030    2    1    2    0    0  0.00000000000E+00  0.00000000000E+00 -0.36857034562E+02  0.28630235552E+04  0.28627863065E+04 0.  0.
        1    1    3    3  502    0 -0.53245873518E+03  0.58828035676E+03  0.11730141085E+04  0.14161737822E+04  0.50400001928E-02 0.  1.
       -1    1    3    3    0  502  0.53245873518E+03 -0.58828035676E+03 -0.12098711430E+04  0.14468497730E+04  0.50400001928E-02 0. -1.
</event>
<event>
 5   0  0.5217999E-06  0.2775071E+04  0.7818609E-02  0.8311050E-01
        1   -1    0    0  501    0  0.00000000000E+00  0.00000000000E+00  0.15108157536E+04  0.15108157536E+04  0.50400001928E-02 0. -1.
       -1   -1    0    0    0  501  0.00000000000E+00  0.00000000000E+00 -0.12743145411E+04  0.12743145411E+04  0.50400001928E-02 0.  1.
    10030    2    1    2    0    0  0.00000000000E+00  0.00000000000E+00  0.23650121250E+03  0.27851302948E+04  0.27750707983E+04 0.  0.
        1    1    3    3  502    0 -0.89706983586E+03 -0.47131944974E+03 -0.83301335758E+03  0.13117879280E+04  0.50400001928E-02 0.  1.
       -1    1    3    3    0  502  0.89706983586E+03  0.47131944974E+03  0.10695145701E+04  0.14733423668E+04  0.50400001928E-02 0. -1.
</event>
<event>
 5   0  0.1330962E-05  0.2781361E+04  0.7818609E-02  0.8309078E-01
        2   -1    0    0  501    0  0.00000000000E+00  0.00000000000E+00  0.16808459057E+04  0.16808459057E+04  0.25500000920E-02 0. -1.
       -2   -1    0    0    0  501  0.00000000000E+00  0.00000000000E+00 -0.11506064735E+04  0.11506064735E+04  0.25500000920E-02 0.  1.
    10030    2    1    2    0    0  0.00000000000E+00  0.00000000000E+00  0.53023943218E+03  0.28314523792E+04  0.27813609475E+04 0.  0.
        4    1    3    3  502    0 -0.99588726429E+03  0.26831993281E+02 -0.72265354752E+03  0.12307482121E+04  0.12699999809E+01 0.  1.
       -4    1    3    3    0  502  0.99588726429E+03 -0.26831993281E+02  0.12528929797E+04  0.16007041671E+04  0.12699999809E+01 0. -1.
</event>
<event>
 5   0  0.1350863E-05  0.2846518E+04  0.7818609E-02  0.8288970E-01
        2   -1    0    0  501    0  0.00000000000E+00  0.00000000000E+00  0.16272512127E+04  0.16272512127E+04  0.25500000920E-02 0. -1.
       -2   -1    0    0    0  501  0.00000000000E+00  0.00000000000E+00 -0.12448394989E+04  0.12448394989E+04  0.25500000920E-02 0.  1.
    10030    2    1    2    0    0  0.00000000000E+00  0.00000000000E+00  0.38241171388E+03  0.28720907116E+04  0.28465182832E+04 0.  0.
        3    1    3    3  502    0 -0.28558038023E+03 -0.73618326184E+03  0.13859655996E+04  0.15951246352E+04  0.10100000352E+00 0. -1.
       -3    1    3    3    0  502  0.28558038023E+03  0.73618326184E+03 -0.10035538857E+04  0.12769660764E+04  0.10100000352E+00 0.  1.
</event>
<event>
 5   0  0.4764214E-06  0.2749639E+04  0.7818609E-02  0.8319076E-01
        1   -1    0    0  501    0  0.00000000000E+00  0.00000000000E+00  0.23257335028E+04  0.23257335028E+04  0.50400001928E-02 0.  1.
       -1   -1    0    0    0  501  0.00000000000E+00  0.00000000000E+00 -0.81270199367E+03  0.81270199369E+03  0.50400001928E-02 0. -1.
    10030    2    1    2    0    0  0.00000000000E+00  0.00000000000E+00  0.15130315091E+04  0.31384354965E+04  0.27496387068E+04 0.  0.
        3    1    3    3  502    0  0.13114715648E+04 -0.22719512220E+02  0.28638339875E+03  0.13425681744E+04  0.10100000352E+00 0. -1.
       -3    1    3    3    0  502 -0.13114715648E+04  0.22719512220E+02  0.12266481104E+04  0.17958673221E+04  0.10100000352E+00 0.  1.
</event>
<event>
 5   0  0.5023691E-06  0.3085543E+04  0.7818609E-02  0.8219717E-01
       -1   -1    0    0    0  501  0.00000000000E+00  0.00000000000E+00  0.15523682936E+04  0.15523682936E+04  0.50400001928E-02 0.  1.
        1   -1    0    0  501    0  0.00000000000E+00  0.00000000000E+00 -0.15332337687E+04  0.15332337687E+04  0.50400001928E-02 0. -1.
    10030    2    1    2    0    0  0.00000000000E+00  0.00000000000E+00  0.19134524869E+02  0.30856020623E+04  0.30855427330E+04 0.  0.
        5    1    3    3  502    0 -0.24577101820E+03 -0.60390728129E+03 -0.13886777751E+04  0.15341301935E+04  0.46999998093E+01 0. -1.
       -5    1    3    3    0  502  0.24577101820E+03  0.60390728129E+03  0.14078122999E+04  0.15514718688E+04  0.46999998093E+01 0.  1.
</event>
<event>
 5   0  0.5281919E-06  0.2772285E+04  0.7818609E-02  0.8311925E-01
        1   -1    0    0  501    0  0.00000000000E+00  0.00000000000E+00  0.93922692647E+03  0.93922692649E+03  0.50400001928E-02 0. -1.
       -1   -1    0    0    0  501  0.00000000000E+00  0.00000000000E+00 -0.20457156558E+04  0.20457156558E+04  0.50400001928E-02 0.  1.
    10030    2    1    2    0    0  0.00000000000E+00  0.00000000000E+00 -0.11064887293E+04  0.29849425823E+04  0.27722851425E+04 0.  0.
        4    1    3    3  502    0  0.60530205877E+03 -0.77478551917E+03 -0.16052861953E+04  0.18824528055E+04  0.12699999809E+01 0.  1.
       -4    1    3    3    0  502 -0.60530205877E+03  0.77478551917E+03  0.49879746597E+03  0.11024897768E+04  0.12699999809E+01 0. -1.
</event>
<event>
 5   0  0.1283052E-05  0.2985712E+04  0.7818609E-02  0.8247823E-01
        2   -1    0    0  501    0  0.00000000000E+00  0.00000000000E+00  0.12141212523E+04  0.12141212523E+04  0.25500000920E-02 0.  1.
       -2   -1    0    0    0  501  0.00000000000E+00  0.00000000000E+00 -0.18355817668E+04  0.18355817668E+04  0.25500000920E-02 0. -1.
    10030    2    1    2    0    0  0.00000000000E+00  0.00000000000E+00 -0.62146051443E+03  0.30497030191E+04  0.29857118638E+04 0.  0.
        5    1    3    3  502    0  0.35284818848E+03  0.90672715997E+03  0.84576440734E+03  0.12891840479E+04  0.46999998093E+01 0.  1.
       -5    1    3    3    0  502 -0.35284818848E+03 -0.90672715997E+03 -0.14672249218E+04  0.17605189712E+04  0.46999998093E+01 0. -1.
</event>
<event>
 5   0  0.1302063E-05  0.2772913E+04  0.7818609E-02  0.8311728E-01
       -2   -1    0    0    0  501  0.00000000000E+00  0.00000000000E+00  0.16522772788E+04  0.16522772788E+04  0.25500000920E-02 0. -1.
        2   -1    0    0  501    0  0.00000000000E+00  0.00000000000E+00 -0.11634009957E+04  0.11634009957E+04  0.25500000920E-02 0.  1.
    10030    2    1    2    0    0  0.00000000000E+00  0.00000000000E+00  0.48887628311E+03  0.28156782745E+04  0.27729125708E+04 0.  0.
        2    1    3    3  502    0  0.98277164428E+03  0.71401417536E+03  0.92302975820E+03  0.15256606051E+04  0.25500000920E-02 0. -1.
       -2    1    3    3    0  502 -0.98277164428E+03 -0.71401417536E+03 -0.43415347509E+03  0.12900176694E+04  0.25500000920E-02 0.  1.
</event>
<event>
 5   0  0.1350863E-05  0.3185579E+04  0.7818609E-02  0.8192636E-01
        2   -1    0    0  501    0  0.00000000000E+00  0.00000000000E+00  0.14956627631E+04  0.14956627631E+04  0.25500000920E-02 0. -1.
       -2   -1    0    0    0  501  0.00000000000E+00  0.00000000000E+00 -0.16962232526E+04  0.16962232526E+04  0.25500000920E-02 0.  1.
    10030    2    1    2    0    0  0.00000000000E+00  0.00000000000E+00 -0.20056048958E+03  0.31918860157E+04  0.31855787272E+04 0.  0.
        3    1    3    3  502    0  0.46503776462E+03  0.13370485829E+04  0.63124672172E+03  0.15499778932E+04  0.10100000352E+00 0. -1.
       -3    1    3    3    0  502 -0.46503776462E+03 -0.13370485829E+04 -0.83180721130E+03  0.16419081225E+04  0.10100000352E+00 0.  1.
</event>
<event>
 5   0  0.1302063E-05  0.2787002E+04  0.7818609E-02  0.8307315E-01
       -2   -1    0    0    0  501  0.00000000000E+00  0.00000000000E+00  0.10123530312E+04  0.10123530312E+04  0.25500000920E-02 0. -1.
        2   -1    0    0  501    0  0.00000000000E+00  0.00000000000E+00 -0.19181494873E+04  0.19181494873E+04  0.25500000920E-02 0.  1.
    10030    2    1    2    0    0  0.00000000000E+00  0.00000000000E+00 -0.90579645615E+03  0.29305025185E+04  0.27870015772E+04 0.  0.
        2    1    3    3  502    0  0.95808234856E+03  0.70454468577E+03  0.31081858973E+03  0.12291920910E+04  0.25500000920E-02 0. -1.
       -2    1    3    3    0  502 -0.95808234856E+03 -0.70454468577E+03 -0.12166150459E+04  0.17013104275E+04  0.25500000920E-02 0.  1.
</event>
<event>
 5   0  0.1350863E-05  0.2815531E+04  0.7818609E-02  0.8298463E-01
        2   -1    0    0  501    0  0.00000000000E+00  0.00000000000E+00  0.13796579111E+04  0.13796579111E+04  0.25500000920E-02 0. -1.
       -2   -1    0    0    0  501  0.00000000000E+00  0.00000000000E+00 -0.14364461135E+04  0.14364461136E+04  0.25500000920E-02 0.  1.
    10030    2    1    2    0    0  0.00000000000E+00  0.00000000000E+00 -0.56788202461E+02  0.28161040246E+04  0.28155313846E+04 0.  0.
        3    1    3    3  502    0  0.52229125044E+01  0.30527521038E+03  0.13461430220E+04  0.13803337563E+04  0.10100000352E+00 0. -1.
       -3    1    3    3    0  502 -0.52229125044E+01 -0.30527521038E+03 -0.14029312244E+04  0.14357702684E+04  0.10100000352E+00 0.  1.
</event>
<event>
 5   0  0.1283052E-05  0.2835594E+04  0.7818609E-02  0.8292302E-01
       -2   -1    0    0    0  501  0.00000000000E+00  0.00000000000E+00  0.10061665078E+04  0.10061665078E+04  0.25500000920E-02 0. -1.
        2   -1    0    0  501    0  0.00000000000E+00  0.00000000000E+00 -0.19978291507E+04  0.19978291507E+04  0.25500000920E-02 0.  1.
    10030    2    1    2    0    0  0.00000000000E+00  0.00000000000E+00 -0.99166264285E+03  0.30039956585E+04  0.28355943150E+04 0.  0.
        5    1    3    3  502    0  0.34164294701E+03  0.49582946017E+03  0.86397111381E+03  0.10531072748E+04  0.46999998093E+01 0. -1.
       -5    1    3    3    0  502 -0.34164294701E+03 -0.49582946017E+03 -0.18556337567E+04  0.19508883837E+04  0.46999998093E+01 0.  1.
</event>
<event>
 5   0  0.1330962E-05  0.2792282E+04  0.7818609E-02  0.8305669E-01
       -2   -1    0    0    0  501  0.00000000000E+00  0.00000000000E+00  0.82379984008E+03  0.82379984008E+03  0.25500000920E-02 0.  1.
        2   -1    0    0  501    0  0.00000000000E+00  0.00000000000E+00 -0.23661204138E+04  0.23661204138E+04  0.25500000920E-02 0. -1.
    10030    2    1    2    0    0  0.00000000000E+00  0.00000000000E+00 -0.15423205737E+04  0.31899202538E+04  0.27922819474E+04 0.  0.
        4    1    3    3  502    0 -0.28174386184E+03  0.56337892889E+03  0.65223961773E+03  0.90674889194E+03  0.12699999809E+01 0.  1.
       -4    1    3    3    0  502  0.28174386184E+03 -0.56337892889E+03 -0.21945601914E+04  0.22831713619E+04  0.12699999809E+01 0. -1.
</event>
<event>
 5   0  0.1330962E-05  0.2803530E+04  0.7818609E-02  0.8302173E-01
       -2   -1    0    0    0  501  0.00000000000E+00  0.00000000000E+00  0.16723442573E+04  0.16723442574E+04  0.25500000920E-02 0. -1.
        2   -1    0    0  501    0  0.00000000000E+00  0.00000000000E+00 -0.11749642869E+04  0.11749642869E+04  0.25500000920E-02 0.  1.
    10030    2    1    2    0    0  0.00000000000E+00  0.00000000000E+00  0.49737997045E+03  0.28473085443E+04  0.28035297593E+04 0.  0.
        4    1    3    3  502    0  0.58065199011E+03  0.11707088084E+04  0.76378566229E+03  0.15136333765E+04  0.12699999809E+01 0. -1.
       -4    1    3    3    0  502 -0.58065199011E+03 -0.11707088084E+04 -0.26640569185E+03  0.13336751678E+04  0.12699999809E+01 0.  1.
</event>
<event>
 5   0  0.5217999E-06  0.2836476E+04  0.7818609E-02  0.8292033E-01
       -1   -1    0    0    0  501  0.00000000000E+00  0.00000000000E+00  0.10842566850E+04  0.10842566850E+04  0.50400001928E-02 0. -1.
        1   -1    0    0  501    0  0.00000000000E+00  0.00000000000E+00 -0.18550948692E+04  0.18550948692E+04  0.50400001928E-02 0.  1.
    10030    2    1    2    0    0  0.00000000000E+00  0.00000000000E+00 -0.77083818416E+03  0.29393515542E+04  0.28364759919E+04 0.  0.
        1    1    3    3  502    0 -0.46544999656E+03 -0.11115420069E+04  0.38951992325E+03  0.12664498028E+04  0.50400001928E-02 0. -1.
       -1    1    3    3    0  502  0.46544999656E+03  0.11115420069E+04 -0.11603581074E+04  0.16729017514E+04  0.50400001928E-02 0.  1.
</event>
<event>
 5   0  0.1302063E-05  0.2869168E+04  0.7818609E-02  0.8282110E-01
       -2   -1    0    0    0  501  0.00000000000E+00  0.00000000000E+00  0.11212182920E+04  0.11212182920E+04  0.25500000920E-02 0.  1.
        2   -1    0    0  501    0  0.00000000000E+00  0.00000000000E+00 -0.18355318575E+04  0.18355318575E+04  0.25500000920E-02 0. -1.
    10030    2    1    2    0    0  0.00000000000E+00  0.00000000000E+00 -0.71431356554E+03  0.29567501495E+04  0.28691684469E+04 0.  0.
        2    1    3    3  502    0 -0.63383096322E+03  0.12126888923E+04 -0.80121130482E+03  0.15856530498E+04  0.25500000920E-02 0. -1.
       -2    1    3    3    0  502  0.63383096322E+03 -0.12126888923E+04  0.86897739277E+02  0.13710970996E+04  0.25500000920E-02 0.  1.
</event>
<event>
 5   0  0.5023691E-06  0.2776480E+04  0.7818609E-02  0.8310608E-01
       -1   -1    0    0    0  501  0.00000000000E+00  0.00000000000E+00  0.11075626676E+04  0.11075626676E+04  0.50400001928E-02 0.  1.
        1   -1    0    0  501    0  0.00000000000E+00  0.00000000000E+00 -0.17400461676E+04  0.17400461676E+04  0.50400001928E-02 0. -1.
    10030    2    1    2    0    0  0.00000000000E+00  0.00000000000E+00 -0.63248350000E+03  0.28476088353E+04  0.27764799118E+04 0.  0.
        5    1    3    3  502    0  0.32569610501E+03  0.85667043497E+03  0.75317181982E+03  0.11862765559E+04  0.46999998093E+01 0.  1.
       -5    1    3    3    0  502 -0.32569610501E+03 -0.85667043497E+03 -0.13856553198E+04  0.16613322793E+04  0.46999998093E+01 0. -1.
</event>
<event>
 5   0  0.5217999E-06  0.2797523E+04  0.7818609E-02  0.8304038E-01
       -1   -1    0    0    0  501  0.00000000000E+00  0.00000000000E+00  0.98427698955E+03  0.98427698956E+03  0.50400001928E-02 0.  1.
        1   -1    0    0  501    0  0.00000000000E+00  0.00000000000E+00 -0.19877871171E+04  0.19877871171E+04  0.50400001928E-02 0. -1.
    10030    2    1    2    0    0  0.00000000000E+00  0.00000000000E+00 -0.10035101275E+04  0.29720641066E+04  0.27975225608E+04 0.  0.
        1    1    3    3  502    0  0.68326529109E+03  0.11678499775E+04 -0.12493079734E+03  0.13587982676E+04  0.50400001928E-02 0.  1.
       -1    1    3    3    0  502 -0.68326529109E+03 -0.11678499775E+04 -0.87857933018E+03  0.16132658390E+04  0.50400001928E-02 0. -1.
</event>
<event>
 5   0  0.5023691E-06  0.2049412E+04  0.7818609E-02  0.8583861E-01
        1   -1    0    0  501    0  0.00000000000E+00  0.00000000000E+00  0.27581302311E+04  0.27581302311E+04  0.50400001928E-02 0. -1.
       -1   -1    0    0    0  501  0.00000000000E+00  0.00000000000E+00 -0.38070092418E+03  0.38070092421E+03  0.50400001928E-02 0.  1.
    10030    2    1    2    0    0  0.00000000000E+00  0.00000000000E+00  0.23774293069E+04  0.31388311553E+04  0.20494123334E+04 0.  0.
        5    1    3    3  502    0  0.91286337315E+02 -0.94144162937E+03  0.17923871201E+04  0.20266522186E+04  0.46999998093E+01 0.  1.
       -5    1    3    3    0  502 -0.91286337315E+02  0.94144162937E+03  0.58504218684E+03  0.11121789367E+04  0.46999998093E+01 0. -1.
</event>
<event>
 5   0  0.1388269E-05  0.2770111E+04  0.7818609E-02  0.8312608E-01
       -2   -1    0    0    0  501  0.00000000000E+00  0.00000000000E+00  0.91622603340E+03  0.91622603340E+03  0.25500000920E-02 0.  1.
        2   -1    0    0  501    0  0.00000000000E+00  0.00000000000E+00 -0.20937836725E+04  0.20937836725E+04  0.25500000920E-02 0. -1.
    10030    2    1    2    0    0  0.00000000000E+00  0.00000000000E+00 -0.11775576391E+04  0.30100097059E+04  0.27701112678E+04 0.  0.
        1    1    3    3  502    0  0.90672180138E+03  0.10415046473E+04 -0.70531790062E+03  0.15505965615E+04  0.50400001928E-02 0. -1.
       -1    1    3    3    0  502 -0.90672180138E+03 -0.10415046473E+04 -0.47223973845E+03  0.14594131444E+04  0.50400001928E-02 0.  1.
</event>
<event>
 5   0  0.1350863E-05  0.2780006E+04  0.7818609E-02  0.8309503E-01
        2   -1    0    0  501    0  0.00000000000E+00  0.00000000000E+00  0.16969099216E+04  0.16969099216E+04  0.25500000920E-02 0. -1.
       -2   -1    0    0    0  501  0.00000000000E+00  0.00000000000E+00 -0.11386038849E+04  0.11386038849E+04  0.25500000920E-02 0.  1.
    10030    2    1    2    0    0  0.00000000000E+00  0.00000000000E+00  0.55830603673E+03  0.28355138065E+04  0.27800059202E+04 0.  0.
        3    1    3    3  502    0  0.87240582922E+03  0.85876650756E+03 -0.39242862324E+03  0.12855240487E+04  0.10100000352E+00 0.  1.
       -3    1    3    3    0  502 -0.87240582922E+03 -0.85876650756E+03  0.95073465998E+03  0.15499897578E+04  0.10100000352E+00 0. -1.
</event>
<event>
 5   0  0.1283052E-05  0.2759274E+04  0.7818609E-02  0.8316025E-01
        2   -1    0    0  501    0  0.00000000000E+00  0.00000000000E+00  0.89146943321E+03  0.89146943321E+03  0.25500000920E-02 0.  1.
       -2   -1    0    0    0  501  0.00000000000E+00  0.00000000000E+00 -0.21351244336E+04  0.21351244336E+04  0.25500000920E-02 0. -1.
    10030    2    1    2    0    0  0.00000000000E+00  0.00000000000E+00 -0.12436550004E+04  0.30265938668E+04  0.27592739398E+04 0.  0.
        5    1    3    3  502    0  0.38765042420E+03 -0.12839786718E+04 -0.97641353311E+03  0.16589995656E+04  0.46999998093E+01 0. -1.
       -5    1    3    3    0  502 -0.38765042420E+03  0.12839786718E+04 -0.26724146727E+03  0.13675943012E+04  0.46999998093E+01 0.  1.
</event>
<event>
 5   0  0.5023691E-06  0.2787976E+04  0.7818609E-02  0.8307011E-01
        1   -1    0    0  501    0  0.00000000000E+00  0.00000000000E+00  0.16049395246E+04  0.16049395246E+04  0.50400001928E-02 0.  1.
       -1   -1    0    0    0  501  0.00000000000E+00  0.00000000000E+00 -0.12107634836E+04  0.12107634836E+04  0.50400001928E-02 0. -1.
    10030    2    1    2    0    0  0.00000000000E+00  0.00000000000E+00  0.39417604100E+03  0.28157030082E+04  0.27879757314E+04 0.  0.
        5    1    3    3  502    0 -0.76807486851E+03 -0.12274485305E+03  0.13653877487E+04  0.15714041800E+04  0.46999998093E+01 0.  1.
       -5    1    3    3    0  502  0.76807486851E+03  0.12274485305E+03 -0.97121170771E+03  0.12442988282E+04  0.46999998093E+01 0. -1.
</event>
<event>
 5   0  0.1350863E-05  0.2816762E+04  0.7818609E-02  0.8298083E-01
        2   -1    0    0  501    0  0.00000000000E+00  0.00000000000E+00  0.17672578408E+04  0.17672578408E+04  0.25500000920E-02 0. -1.
       -2   -1    0    0    0  501  0.00000000000E+00  0.00000000000E+00 -0.11223815945E+04  0.11223815945E+04  0.25500000920E-02 0.  1.
    10030    2    1    2    0    0  0.00000000000E+00  0.00000000000E+00  0.64487624629E+03  0.28896394353E+04  0.28167624488E+04 0.  0.
        3    1    3    3  502    0  0.21542636106E+02 -0.12944047140E+04  0.89139525981E+03  0.15717929788E+04  0.10100000352E+00 0. -1.
       -3    1    3    3    0  502 -0.21542636106E+02  0.12944047140E+04 -0.24651901352E+03  0.13178464565E+04  0.10100000352E+00 0.  1.
</event>
<event>
 5   0  0.1330962E-05  0.2734876E+04  0.7818609E-02  0.8323777E-01
        2   -1    0    0  501    0  0.00000000000E+00  0.00000000000E+00  0.21957974092E+04  0.21957974092E+04  0.25500000920E-02 0. -1.
       -2   -1    0    0    0  501  0.00000000000E+00  0.00000000000E+00 -0.85157502874E+03  0.85157502875E+03  0.25500000920E-02 0.  1.
    10030    2    1    2    0    0  0.00000000000E+00  0.00000000000E+00  0.13442223804E+04  0.30473724379E+04  0.27348756768E+04 0.  0.
        4    1    3    3  502    0  0.14413639220E+03  0.53111389054E+03 -0.72273473076E+03  0.90840760027E+03  0.12699999809E+01 0.  1.
       -4    1    3    3    0  502 -0.14413639220E+03 -0.53111389054E+03  0.20669571112E+04  0.21389648376E+04  0.12699999809E+01 0. -1.
</event>
<event>
 5   0  0.1283052E-05  0.2753770E+04  0.7818609E-02  0.8317766E-01
        2   -1    0    0  501    0  0.00000000000E+00  0.00000000000E+00  0.13738672011E+04  0.13738672011E+04  0.25500000920E-02 0. -1.
       -2   -1    0    0    0  501  0.00000000000E+00  0.00000000000E+00 -0.13799094817E+04  0.13799094817E+04  0.25500000920E-02 0.  1.
    10030    2    1    2    0    0  0.00000000000E+00  0.00000000000E+00 -0.60422806525E+01  0.27537766828E+04  0.27537700538E+04 0.  0.
        5    1    3    3  502    0  0.20001272843E+03 -0.12907328164E+04  0.43263343191E+03  0.13759324370E+04  0.46999998093E+01 0.  1.
       -5    1    3    3    0  502 -0.20001272843E+03  0.12907328164E+04 -0.43867571256E+03  0.13778442458E+04  0.46999998093E+01 0. -1.
</event>
<event>
 5   0  0.5023691E-06  0.2681182E+04  0.7818609E-02  0.8341137E-01
        1   -1    0    0  501    0  0.00000000000E+00  0.00000000000E+00  0.15218167128E+04  0.15218167128E+04  0.50400001928E-02 0. -1.
       -1   -1    0    0    0  501  0.00000000000E+00  0.00000000000E+00 -0.11809461365E+04  0.11809461365E+04  0.50400001928E-02 0.  1.
    10030    2    1    2    0    0  0.00000000000E+00  0.00000000000E+00  0.34087057630E+03  0.27027628493E+04  0.26811815063E+04 0.  0.
        5    1    3    3  502    0 -0.77859510746E+03 -0.40854693598E+03  0.11905295390E+04  0.14800350042E+04  0.46999998093E+01 0. -1.
       -5    1    3    3    0  502  0.77859510746E+03  0.40854693598E+03 -0.84965896274E+03  0.12227278451E+04  0.46999998093E+01 0.  1.
</event>
<event>
 5   0  0.1350863E-05  0.2736779E+04  0.7818609E-02  0.8323169E-01
       -2   -1    0    0    0  501  0.00000000000E+00  0.00000000000E+00  0.12610956139E+04  0.12610956139E+04  0.25500000920E-02 0. -1.
        2   -1    0    0  501    0  0.00000000000E+00  0.00000000000E+00 -0.14848120662E+04  0.14848120662E+04  0.25500000920E-02 0.  1.
    10030    2    1    2    0    0  0.00000000000E+00  0.00000000000E+00 -0.22371645225E+03  0.27459076801E+04  0.27367791173E+04 0.  0.
        3    1    3    3  502    0  0.35829089168E+03  0.16281497478E+03  0.12030890043E+04  0.12658215678E+04  0.10100000352E+00 0. -1.
       -3    1    3    3    0  502 -0.35829089168E+03 -0.16281497478E+03 -0.14268054565E+04  0.14800861123E+04  0.10100000352E+00 0.  1.
</event>
<event>
 5   0  0.1388269E-05  0.3022694E+04  0.7818609E-02  0.8237280E-01
        2   -1    0    0  501    0  0.00000000000E+00  0.00000000000E+00  0.12965597255E+04  0.12965597255E+04  0.25500000920E-02 0.  1.
       -2   -1    0    0    0  501  0.00000000000E+00  0.00000000000E+00 -0.17617159537E+04  0.17617159537E+04  0.25500000920E-02 0. -1.
    10030    2    1    2    0    0  0.00000000000E+00  0.00000000000E+00 -0.46515622829E+03  0.30582756792E+04  0.30226941316E+04 0.  0.
        1    1    3    3  502    0  0.53753468907E+03 -0.31150511452E+03  0.11613885252E+04  0.13171189334E+04  0.50400001928E-02 0.  1.
       -1    1    3    3    0  502 -0.53753468907E+03  0.31150511452E+03 -0.16265447535E+04  0.17411567458E+04  0.50400001928E-02 0. -1.
</event>
<event>
 5   0  0.1330962E-05  0.3028891E+04  0.7818609E-02  0.8235529E-01
       -2   -1    0    0    0  501  0.00000000000E+00  0.00000000000E+00  0.82388143533E+03  0.82388143533E+03  0.25500000920E-02 0. -1.
        2   -1    0    0  501    0  0.00000000000E+00  0.00000000000E+00 -0.27838284726E+04  0.27838284726E+04  0.25500000920E-02 0.  1.
    10030    2    1    2    0    0  0.00000000000E+00  0.00000000000E+00 -0.19599470373E+04  0.36077099080E+04  0.30288906205E+04 0.  0.
        4    1    3    3  502    0  0.56050269411E+03 -0.13938470021E+04 -0.12077516263E+04  0.19275991126E+04  0.12699999809E+01 0.  1.
       -4    1    3    3    0  502 -0.56050269411E+03  0.13938470021E+04 -0.75219541105E+03  0.16801107954E+04  0.12699999809E+01 0. -1.
</event>
<event>
 5   0  0.1388269E-05  0.2539339E+04  0.7818609E-02  0.8389103E-01
        2   -1    0    0  501    0  0.00000000000E+00  0.00000000000E+00  0.10295668023E+04  0.10295668023E+04  0.25500000920E-02 0. -1.
       -2   -1    0    0    0  501  0.00000000000E+00  0.00000000000E+00 -0.15657661954E+04  0.15657661954E+04  0.25500000920E-02 0.  1.
    10030    2    1    2    0    0  0.00000000000E+00  0.00000000000E+00 -0.53619939306E+03  0.25953329978E+04  0.25393392015E+04 0.  0.
        1    1    3    3  502    0 -0.50041389902E+03 -0.89644008379E+03  0.49539463124E+03  0.11399275130E+04  0.50400001928E-02 0. -1.
       -1    1    3    3    0  502  0.50041389902E+03  0.89644008379E+03 -0.10315940243E+04  0.14554054848E+04  0.50400001928E-02 0.  1.
</event>
<event>
 5   0  0.1350863E-05  0.2815394E+04  0.7818609E-02  0.8298505E-01
        2   -1    0    0  501    0  0.00000000000E+00  0.00000000000E+00  0.60601903288E+03  0.60601903289E+03  0.25500000920E-02 0.  1.
       -2   -1    0    0    0  501  0.00000000000E+00  0.00000000000E+00 -0.32698823487E+04  0.32698823487E+04  0.25500000920E-02 0. -1.
    10030    2    1    2    0    0  0.00000000000E+00  0.00000000000E+00 -0.26638633158E+04  0.38759013816E+04  0.28153940674E+04 0.  0.
        3    1    3    3  502    0 -0.10682333523E+04  0.86877596013E+03 -0.92887470975E+03  0.16609341951E+04  0.10100000352E+00 0.  1.
       -3    1    3    3    0  502  0.10682333523E+04 -0.86877596013E+03 -0.17349886061E+04  0.22149671865E+04  0.10100000352E+00 0. -1.
</event>
<event>
 5   0  0.1302063E-05  0.2814037E+04  0.7818609E-02  0.8298924E-01
       -2   -1    0    0    0  501  0.00000000000E+00  0.00000000000E+00  0.98913109917E+03  0.98913109917E+03  0.25500000920E-02 0.  1.
        2   -1    0    0  501    0  0.00000000000E+00  0.00000000000E+00 -0.20014547568E+04  0.20014547568E+04  0.25500000920E-02 0. -1.
    10030    2    1    2    0    0  0.00000000000E+00  0.00000000000E+00 -0.10123236577E+04  0.29905858560E+04  0.28140370599E+04 0.  0.
        2    1    3    3  502    0  0.65184242633E+03 -0.96618438350E+03  0.33150971038E+03  0.12117382142E+04  0.25500000920E-02 0.  1.
       -2    1    3    3    0  502 -0.65184242633E+03  0.96618438350E+03 -0.13438333681E+04  0.17788476418E+04  0.25500000920E-02 0. -1.
</event>
<event>
 5   0  0.1388269E-05  0.2945062E+04  0.7818609E-02  0.8259595E-01
        2   -1    0    0  501    0  0.00000000000E+00  0.00000000000E+00  0.24647385433E+04  0.24647385433E+04  0.25500000920E-02 0. -1.
       -2   -1    0    0    0  501  0.00000000000E+00  0.00000000000E+00 -0.87974775652E+03  0.87974775652E+03  0.25500000920E-02 0.  1.
    10030    2    1    2    0    0  0.00000000000E+00  0.00000000000E+00  0.15849907868E+04  0.33444862998E+04  0.29450624468E+04 0.  0.
        1    1    3    3  502    0 -0.42352161427E+03 -0.14102368734E+04  0.80893675548E+03  0.16800349018E+04  0.50400001928E-02 0. -1.
       -1    1    3    3    0  502  0.42352161427E+03  0.14102368734E+04  0.77605403132E+03  0.16644513980E+04  0.50400001928E-02 0.  1.
</event>
<event>
 5   0  0.1302063E-05  0.2823656E+04  0.7818609E-02  0.8295962E-01
        2   -1    0    0  501    0  0.00000000000E+00  0.00000000000E+00  0.27327426916E+04  0.27327426916E+04  0.25500000920E-02 0.  1.
       -2   -1    0    0    0  501  0.00000000000E+00  0.00000000000E+00 -0.72939830964E+03  0.72939830965E+03  0.25500000920E-02 0. -1.
    10030    2    1    2    0    0  0.00000000000E+00  0.00000000000E+00  0.20033443819E+04  0.34621410012E+04  0.28236557155E+04 0.  0.
        2    1    3    3  502    0  0.36113207673E+03  0.12090923361E+04  0.22529778492E+03  0.12818267222E+04  0.25500000920E-02 0. -1.
       -2    1    3    3    0  502 -0.36113207673E+03 -0.12090923361E+04  0.17780465970E+04  0.21803142790E+04  0.25500000920E-02 0.  1.
</event>
<event>
 5   0  0.5217999E-06  0.2767830E+04  0.7818609E-02  0.8313326E-01
       -1   -1    0    0    0  501  0.00000000000E+00  0.00000000000E+00  0.87906863924E+03  0.87906863925E+03  0.50400001928E-02 0. -1.
        1   -1    0    0  501    0  0.00000000000E+00  0.00000000000E+00 -0.21786926902E+04  0.21786926902E+04  0.50400001928E-02 0.  1.
    10030    2    1    2    0    0  0.00000000000E+00  0.00000000000E+00 -0.12996240510E+04  0.30577613295E+04  0.27678297769E+04 0.  0.
        1    1    3    3  502    0 -0.92372643282E+03  0.96175285822E+03 -0.24093293229E+03  0.13550969563E+04  0.50400001928E-02 0. -1.
       -1    1    3    3    0  502  0.92372643282E+03 -0.96175285822E+03 -0.10586911187E+04  0.17026643732E+04  0.50400001928E-02 0.  1.
</event>
<event>
 5   0  0.5107453E-06  0.2814575E+04  0.7818609E-02  0.8298758E-01
       -1   -1    0    0    0  501  0.00000000000E+00  0.00000000000E+00  0.14824786276E+04  0.14824786276E+04  0.50400001928E-02 0.  1.
        1   -1    0    0  501    0  0.00000000000E+00  0.00000000000E+00 -0.13359098834E+04  0.13359098834E+04  0.50400001928E-02 0. -1.
    10030    2    1    2    0    0  0.00000000000E+00  0.00000000000E+00  0.14656874423E+03  0.28183885110E+04  0.28145748173E+04 0.  0.
        2    1    3    3  502    0  0.55151635097E+03 -0.16177903805E+02  0.13696527156E+04  0.14766111781E+04  0.25500000920E-02 0.  1.
       -2    1    3    3    0  502 -0.55151635097E+03  0.16177903805E+02 -0.12230839714E+04  0.13417773329E+04  0.25500000920E-02 0. -1.
</event>
<event>
 5   0  0.5281919E-06  0.2578099E+04  0.7818609E-02  0.8375679E-01
       -1   -1    0    0    0  501  0.00000000000E+00  0.00000000000E+00  0.73685360905E+03  0.73685360907E+03  0.50400001928E-02 0.  1.
        1   -1    0    0  501    0  0.00000000000E+00  0.00000000000E+00 -0.22550600578E+04  0.22550600578E+04  0.50400001928E-02 0. -1.
    10030    2    1    2    0    0  0.00000000000E+00  0.00000000000E+00 -0.15182064487E+04  0.29919136668E+04  0.25780994102E+04 0.  0.
        4    1    3    3  502    0  0.83149168296E+03  0.19996219706E+03  0.36022441436E+03  0.92796904080E+03  0.12699999809E+01 0.  1.
       -4    1    3    3    0  502 -0.83149168296E+03 -0.19996219706E+03 -0.18784308631E+04  0.20639446260E+04  0.12699999809E+01 0. -1.
</event>
<event>
 5   0  0.5023691E-06  0.2801780E+04  0.7818609E-02  0.8302716E-01
       -1   -1    0    0    0  501  0.00000000000E+00  0.00000000000E+00  0.74845471011E+03  0.74845471012E+03  0.50400001928E-02 0.  1.
        1   -1    0    0  501    0  0.00000000000E+00  0.00000000000E+00 -0.26220592270E+04  0.26220592271E+04  0.50400001928E-02 0. -1.
    10030    2    1    2    0    0  0.00000000000E+00  0.00000000000E+00 -0.18736045169E+04  0.33705139372E+04  0.28017798477E+04 0.  0.
        5    1    3    3  502    0 -0.98288741097E+03  0.87540088082E+03 -0.35977291837E+03  0.13644973461E+04  0.46999998093E+01 0.  1.
       -5    1    3    3    0  502  0.98288741097E+03 -0.87540088082E+03 -0.15138315986E+04  0.20060165911E+04  0.46999998093E+01 0. -1.
</event>
<event>
 5   0  0.1350863E-05  0.2711364E+04  0.7818609E-02  0.8331327E-01
       -2   -1    0    0    0  501  0.00000000000E+00  0.00000000000E+00  0.73903506758E+03  0.73903506758E+03  0.25500000920E-02 0. -1.
        2   -1    0    0  501    0  0.00000000000E+00  0.00000000000E+00 -0.24868551461E+04  0.24868551461E+04  0.25500000920E-02 0.  1.
    10030    2    1    2    0    0  0.00000000000E+00  0.00000000000E+00 -0.17478200785E+04  0.32258902137E+04  0.27113636134E+04 0.  0.
        3    1    3    3  502    0 -0.59644653359E+03 -0.10925342004E+04 -0.23486717525E+03  0.12667051933E+04  0.10100000352E+00 0. -1.
       -3    1    3    3    0  502  0.59644653359E+03  0.10925342004E+04 -0.15129529033E+04  0.19591850204E+04  0.10100000352E+00 0.  1.
</event>
<event>
 5   0  0.1350863E-05  0.2813711E+04  0.7818609E-02  0.8299024E-01
       -2   -1    0    0    0  501  0.00000000000E+00  0.00000000000E+00  0.10963470842E+04  0.10963470842E+04  0.25500000920E-02 0.  1.
        2   -1    0    0  501    0  0.00000000000E+00  0.00000000000E+00 -0.18053067635E+04  0.18053067635E+04  0.25500000920E-02 0. -1.
    10030    2    1    2    0    0  0.00000000000E+00  0.00000000000E+00 -0.70895967935E+03  0.29016538477E+04  0.28137112903E+04 0.  0.
        3    1    3    3  502    0  0.73043758468E+03 -0.11979547744E+04 -0.24826513285E+03  0.14248755360E+04  0.10100000352E+00 0.  1.
       -3    1    3    3    0  502 -0.73043758468E+03  0.11979547744E+04 -0.46069454650E+03  0.14767783118E+04  0.10100000352E+00 0. -1.
</event>
<event>
 5   0  0.4764214E-06  0.2765080E+04  0.7818609E-02  0.8314192E-01
        1   -1    0    0  501    0  0.00000000000E+00  0.00000000000E+00  0.60687676675E+03  0.60687676677E+03  0.50400001928E-02 0.  1.
       -1   -1    0    0    0  501  0.00000000000E+00  0.00000000000E+00 -0.31495963260E+04  0.31495963260E+04  0.50400001928E-02 0. -1.
    10030    2    1    2    0    0  0.00000000000E+00  0.00000000000E+00 -0.25427195593E+04  0.37564730928E+04  0.27650799879E+04 0.  0.
        3    1    3    3  502    0  0.10440262300E+04  0.64127422269E+03 -0.21414552983E+04  0.24671956150E+04  0.10100000352E+00 0. -1.
       -3    1    3    3    0  502 -0.10440262300E+04 -0.64127422269E+03 -0.40126426093E+03  0.12892774778E+04  0.10100000352E+00 0.  1.
</event>
<event>
 5   0  0.5281919E-06  0.2802123E+04  0.7818609E-02  0.8302609E-01
        1   -1    0    0  501    0  0.00000000000E+00  0.00000000000E+00  0.15208177610E+04  0.15208177610E+04  0.50400001928E-02 0.  1.
       -1   -1    0    0    0  501  0.00000000000E+00  0.00000000000E+00 -0.12907355874E+04  0.12907355874E+04  0.50400001928E-02 0. -1.
    10030    2    1    2    0    0  0.00000000000E+00  0.00000000000E+00  0.23008217366E+03  0.28115533484E+04  0.28021231994E+04 0.  0.
        4    1    3    3  502    0 -0.12900569137E+04  0.15650163821E+03  0.64047545604E+03  0.14487753539E+04  0.12699999809E+01 0.  1.
       -4    1    3    3    0  502  0.12900569137E+04 -0.15650163821E+03 -0.41039328238E+03  0.13627779946E+04  0.12699999809E+01 0. -1.
</event>
<event>
 5   0  0.5023691E-06  0.2800344E+04  0.7818609E-02  0.8303162E-01
        1   -1    0    0  501    0  0.00000000000E+00  0.00000000000E+00  0.23710032745E+04  0.23710032745E+04  0.50400001928E-02 0. -1.
       -1   -1    0    0    0  501  0.00000000000E+00  0.00000000000E+00 -0.82685753813E+03  0.82685753815E+03  0.50400001928E-02 0.  1.
    10030    2    1    2    0    0  0.00000000000E+00  0.00000000000E+00  0.15441457364E+04  0.31978608127E+04  0.28003442149E+04 0.  0.
        5    1    3    3  502    0 -0.10843028850E+04  0.86416663962E+03  0.99457237323E+03  0.17063683726E+04  0.46999998093E+01 0. -1.
       -5    1    3    3    0  502  0.10843028850E+04 -0.86416663962E+03  0.54957336316E+03  0.14914924401E+04  0.46999998093E+01 0.  1.
</event>
<event>
 5   0  0.1330962E-05  0.2791985E+04  0.7818609E-02  0.8305761E-01
        2   -1    0    0  501    0  0.00000000000E+00  0.00000000000E+00  0.15880090706E+04  0.15880090706E+04  0.25500000920E-02 0.  1.
       -2   -1    0    0    0  501  0.00000000000E+00  0.00000000000E+00 -0.12271937695E+04  0.12271937695E+04  0.25500000920E-02 0. -1.
    10030    2    1    2    0    0  0.00000000000E+00  0.00000000000E+00  0.36081530108E+03  0.28152028401E+04  0.27919848404E+04 0.  0.
        4    1    3    3  502    0  0.60614376827E+02  0.58811981487E+03 -0.10947170868E+04  0.12441728708E+04  0.12699999809E+01 0. -1.
       -4    1    3    3    0  502 -0.60614376827E+02 -0.58811981487E+03  0.14555323879E+04  0.15710299693E+04  0.12699999809E+01 0.  1.
</event>
<event>
 5   0  0.1330962E-05  0.2810827E+04  0.7818609E-02  0.8299915E-01
       -2   -1    0    0    0  501  0.00000000000E+00  0.00000000000E+00  0.13617093881E+04  0.13617093881E+04  0.25500000920E-02 0. -1.
        2   -1    0    0  501    0  0.00000000000E+00  0.00000000000E+00 -0.14505200974E+04  0.14505200974E+04  0.25500000920E-02 0.  1.
    10030    2    1    2    0    0  0.00000000000E+00  0.00000000000E+00 -0.88810709338E+02  0.28122294855E+04  0.28108268067E+04 0.  0.
        4    1    3    3  502    0  0.88058982662E+03  0.10949872143E+04 -0.17009593653E+02  0.14052495797E+04  0.12699999809E+01 0.  1.
       -4    1    3    3    0  502 -0.88058982662E+03 -0.10949872143E+04 -0.71801115685E+02  0.14069799058E+04  0.12699999809E+01 0. -1.
</event>
<event>
 5   0  0.1350863E-05  0.2796313E+04  0.7818609E-02  0.8304414E-01
       -2   -1    0    0    0  501  0.00000000000E+00  0.00000000000E+00  0.10034181145E+04  0.10034181145E+04  0.25500000920E-02 0. -1.
        2   -1    0    0  501    0  0.00000000000E+00  0.00000000000E+00 -0.19481819834E+04  0.19481819834E+04  0.25500000920E-02 0.  1.
    10030    2    1    2    0    0  0.00000000000E+00  0.00000000000E+00 -0.94476386891E+03  0.29516000979E+04  0.27963126381E+04 0.  0.
        3    1    3    3  502    0  0.11070733494E+04  0.61363632527E+03 -0.10992300056E+04  0.16764449159E+04  0.10100000352E+00 0. -1.
       -3    1    3    3    0  502 -0.11070733494E+04 -0.61363632527E+03  0.15446613670E+03  0.12751551820E+04  0.10100000352E+00 0.  1.
</event>
<event>
 5   0  0.5217999E-06  0.2801105E+04  0.7818609E-02  0.8302926E-01
        1   -1    0    0  501    0  0.00000000000E+00  0.00000000000E+00  0.14054064574E+04  0.14054064574E+04  0.50400001928E-02 0.  1.
       -1   -1    0    0    0  501  0.00000000000E+00  0.00000000000E+00 -0.13957148957E+04  0.13957148957E+04  0.50400001928E-02 0. -1.
    10030    2    1    2    0    0  0.00000000000E+00  0.00000000000E+00  0.96915617083E+01  0.28011213531E+04  0.28011045872E+04 0.  0.
        1    1    3    3  502    0  0.74295198756E+03  0.11556267755E+04 -0.26736133499E+03  0.13996188709E+04  0.50400001928E-02 0. -1.
       -1    1    3    3    0  502 -0.74295198756E+03 -0.11556267755E+04  0.27705289670E+03  0.14015024823E+04  0.50400001928E-02 0.  1.
</event>
<event>
 5   0  0.1330962E-05  0.2678952E+04  0.7818609E-02  0.8341867E-01
        2   -1    0    0  501    0  0.00000000000E+00  0.00000000000E+00  0.22327152062E+04  0.22327152062E+04  0.25500000920E-02 0.  1.
       -2   -1    0    0    0  501  0.00000000000E+00  0.00000000000E+00 -0.80359378392E+03  0.80359378392E+03  0.25500000920E-02 0. -1.
    10030    2    1    2    0    0  0.00000000000E+00  0.00000000000E+00  0.14291214223E+04  0.30363089901E+04  0.26789520794E+04 0.  0.
        4    1    3    3  502    0  0.11371388260E+04 -0.41363926995E+03  0.63463134165E+02  0.12116977088E+04  0.12699999809E+01 0. -1.
       -4    1    3    3    0  502 -0.11371388260E+04  0.41363926995E+03  0.13656582881E+04  0.18246112813E+04  0.12699999809E+01 0.  1.
</event>
<event>
 5   0  0.5281919E-06  0.2420260E+04  0.7818609E-02  0.8431957E-01
       -1   -1    0    0    0  501  0.00000000000E+00  0.00000000000E+00  0.41042144357E+03  0.41042144361E+03  0.50400001928E-02 0. -1.
        1   -1    0    0  501    0  0.00000000000E+00  0.00000000000E+00 -0.35680748215E+04  0.35680748215E+04  0.50400001928E-02 0.  1.
    10030    2    1    2    0    0  0.00000000000E+00  0.00000000000E+00 -0.31576533779E+04  0.39784962651E+04  0.24202598365E+04 0.  0.
        4    1    3    3  502    0 -0.46871245560E+03  0.10038339286E+04 -0.23791523788E+04  0.26244507190E+04  0.12699999809E+01 0.  1.
       -4    1    3    3    0  502  0.46871245560E+03 -0.10038339286E+04 -0.77850099911E+03  0.13540455461E+04  0.12699999809E+01 0. -1.
</event>
<event>
 5   0  0.1388269E-05  0.2112334E+04  0.7818609E-02  0.8555830E-01
        2   -1    0    0  501    0  0.00000000000E+00  0.00000000000E+00  0.24830280977E+04  0.24830280977E+04  0.25500000920E-02 0. -1.
       -2   -1    0    0    0  501  0.00000000000E+00  0.00000000000E+00 -0.44924524123E+03  0.44924524124E+03  0.25500000920E-02 0.  1.
    10030    2    1    2    0    0  0.00000000000E+00  0.00000000000E+00  0.20337828564E+04  0.29322733389E+04  0.21123338342E+04 0.  0.
        1    1    3    3  502    0 -0.56762886395E+03  0.25083082902E+03  0.22032428007E+04  0.22889730166E+04  0.50400001928E-02 0. -1.
       -1    1    3    3    0  502  0.56762886395E+03 -0.25083082902E+03 -0.16945994423E+03  0.64330032232E+03  0.50400001928E-02 0.  1.
</event>
<event>
 5   0  0.1283052E-05  0.2616687E+04  0.7818609E-02  0.8362555E-01
        2   -1    0    0  501    0  0.00000000000E+00  0.00000000000E+00  0.15889980379E+04  0.15889980379E+04  0.25500000920E-02 0. -1.
       -2   -1    0    0    0  501  0.00000000000E+00  0.00000000000E+00 -0.10772588421E+04  0.10772588421E+04  0.25500000920E-02 0.  1.
    10030    2    1    2    0    0  0.00000000000E+00  0.00000000000E+00  0.51173919581E+03  0.26662568799E+04  0.26166865967E+04 0.  0.
        5    1    3    3  502    0 -0.98084544888E+03 -0.44513360541E+03  0.10125947109E+04  0.14783679717E+04  0.46999998093E+01 0. -1.
       -5    1    3    3    0  502  0.98084544888E+03  0.44513360541E+03 -0.50085551510E+03  0.11878889082E+04  0.46999998093E+01 0.  1.
</event>
<event>
 5   0  0.5217999E-06  0.2790461E+04  0.7818609E-02  0.8306236E-01
        1   -1    0    0  501    0  0.00000000000E+00  0.00000000000E+00  0.15147163526E+04  0.15147163526E+04  0.50400001928E-02 0. -1.
       -1   -1    0    0    0  501  0.00000000000E+00  0.00000000000E+00 -0.12851703268E+04  0.12851703269E+04  0.50400001928E-02 0.  1.
    10030    2    1    2    0    0  0.00000000000E+00  0.00000000000E+00  0.22954602575E+03  0.27998866795E+04  0.27904612594E+04 0.  0.
        1    1    3    3  502    0 -0.84941615644E+03  0.52055430344E+03 -0.86534981351E+03  0.13195889093E+04  0.50400001928E-02 0.  1.
       -1    1    3    3    0  502  0.84941615644E+03 -0.52055430344E+03  0.10948958393E+04  0.14802977702E+04  0.50400001928E-02 0. -1.
</event>
<event>
 5   0  0.5217999E-06  0.2794993E+04  0.7818609E-02  0.8304825E-01
        1   -1    0    0  501    0  0.00000000000E+00  0.00000000000E+00  0.14714570220E+04  0.14714570220E+04  0.50400001928E-02 0.  1.
       -1   -1    0    0    0  501  0.00000000000E+00  0.00000000000E+00 -0.13272531644E+04  0.13272531644E+04  0.50400001928E-02 0. -1.
    10030    2    1    2    0    0  0.00000000000E+00  0.00000000000E+00  0.14420385759E+03  0.27987101865E+04  0.27949926575E+04 0.  0.
        1    1    3    3  502    0  0.85528854882E+03  0.10926939869E+04  0.23814569814E+03  0.14079105171E+04  0.50400001928E-02 0.  1.
       -1    1    3    3    0  502 -0.85528854882E+03 -0.10926939869E+04 -0.93941840549E+02  0.13907996693E+04  0.50400001928E-02 0. -1.
</event>
<event>
 5   0  0.5281919E-06  0.2961782E+04  0.7818609E-02  0.8254729E-01
       -1   -1    0    0    0  501  0.00000000000E+00  0.00000000000E+00  0.92450670396E+03  0.92450670397E+03  0.50400001928E-02 0. -1.
        1   -1    0    0  501    0  0.00000000000E+00  0.00000000000E+00 -0.23721166649E+04  0.23721166649E+04  0.50400001928E-02 0.  1.
    10030    2    1    2    0    0  0.00000000000E+00  0.00000000000E+00 -0.14476099610E+04  0.32966233689E+04  0.29617817336E+04 0.  0.
        4    1    3    3  502    0  0.31078221216E+03  0.30770803143E+03  0.85098619552E+03  0.95679095620E+03  0.12699999809E+01 0. -1.
       -4    1    3    3    0  502 -0.31078221216E+03 -0.30770803143E+03 -0.22985961565E+04  0.23398324127E+04  0.12699999809E+01 0.  1.
</event>
<event>
 5   0  0.1330962E-05  0.2698701E+04  0.7818609E-02  0.8335427E-01
       -2   -1    0    0    0  501  0.00000000000E+00  0.00000000000E+00  0.14548140559E+04  0.14548140559E+04  0.25500000920E-02 0.  1.
        2   -1    0    0  501    0  0.00000000000E+00  0.00000000000E+00 -0.12515319227E+04  0.12515319227E+04  0.25500000920E-02 0. -1.
    10030    2    1    2    0    0  0.00000000000E+00  0.00000000000E+00  0.20328213315E+03  0.27063459786E+04  0.26987006004E+04 0.  0.
        4    1    3    3  502    0 -0.57110530999E+03  0.12009618405E+04  0.33092387180E+03  0.13703951398E+04  0.12699999809E+01 0. -1.
       -4    1    3    3    0  502  0.57110530999E+03 -0.12009618405E+04 -0.12764173865E+03  0.13359508388E+04  0.12699999809E+01 0.  1.
</event>
<event>
 5   0  0.5217999E-06  0.2768096E+04  0.7818609E-02  0.8313242E-01
        1   -1    0    0  501    0  0.00000000000E+00  0.00000000000E+00  0.15695067155E+04  0.15695067156E+04  0.50400001928E-02 0.  1.
       -1   -1    0    0    0  501  0.00000000000E+00  0.00000000000E+00 -0.12205033491E+04  0.12205033491E+04  0.50400001928E-02 0. -1.
    10030    2    1    2    0    0  0.00000000000E+00  0.00000000000E+00  0.34900336645E+03  0.27900100647E+04  0.27680955206E+04 0.  0.
        1    1    3    3  502    0  0.76019393516E+03 -0.56975019579E+03  0.11889879226E+04  0.15219074823E+04  0.50400001928E-02 0.  1.
       -1    1    3    3    0  502 -0.76019393516E+03  0.56975019579E+03 -0.83998455617E+03  0.12681025823E+04  0.50400001928E-02 0. -1.
</event>
<event>
 5   0  0.1388269E-05  0.2839688E+04  0.7818609E-02  0.8291052E-01
        2   -1    0    0  501    0  0.00000000000E+00  0.00000000000E+00  0.16585525274E+04  0.16585525274E+04  0.25500000920E-02 0.  1.
       -2   -1    0    0    0  501  0.00000000000E+00  0.00000000000E+00 -0.12154914886E+04  0.12154914886E+04  0.25500000920E-02 0. -1.
    10030    2    1    2    0    0  0.00000000000E+00  0.00000000000E+00  0.44306103887E+03  0.28740440160E+04  0.28396876451E+04 0.  0.
        1    1    3    3  502    0 -0.92277456063E+02  0.13256054449E+04  0.72779391176E+03  0.15150672931E+04  0.50400001928E-02 0. -1.
       -1    1    3    3    0  502  0.92277456063E+02 -0.13256054449E+04 -0.28473287289E+03  0.13589767229E+04  0.50400001928E-02 0.  1.
</event>
<event>
 5   0  0.4447500E-06  0.2793622E+04  0.7818609E-02  0.8305251E-01
       -3   -1    0    0    0  501  0.00000000000E+00  0.00000000000E+00  0.21944210903E+04  0.21944210927E+04  0.10100000352E+00 0.  1.
        3   -1    0    0  501    0  0.00000000000E+00  0.00000000000E+00 -0.88910978885E+03  0.88910979458E+03  0.10100000352E+00 0. -1.
    10030    2    1    2    0    0  0.00000000000E+00  0.00000000000E+00  0.13053113015E+04  0.30835308872E+04  0.27936222255E+04 0.  0.
        5    1    3    3  502    0 -0.12111934328E+04 -0.35813533121E+03 -0.57430062749E+01  0.12630540445E+04  0.46999998093E+01 0. -1.
       -5    1    3    3    0  502  0.12111934328E+04  0.35813533121E+03  0.13110543078E+04  0.18204768428E+04  0.46999998093E+01 0.  1.
</event>
<event>
 5   0  0.5023691E-06  0.3130543E+04  0.7818609E-02  0.8207405E-01
        1   -1    0    0  501    0  0.00000000000E+00  0.00000000000E+00  0.15709265638E+04  0.15709265638E+04  0.50400001928E-02 0.  1.
       -1   -1    0    0    0  501  0.00000000000E+00  0.00000000000E+00 -0.15596368799E+04  0.15596368799E+04  0.50400001928E-02 0. -1.
    10030    2    1    2    0    0  0.00000000000E+00  0.00000000000E+00  0.11289683924E+02  0.31305634437E+04  0.31305430867E+04 0.  0.
        5    1    3    3  502    0 -0.81039712313E+03  0.69954915634E+03  0.11475543627E+04  0.15693997657E+04  0.46999998093E+01 0.  1.
       -5    1    3    3    0  502  0.81039712313E+03 -0.69954915634E+03 -0.11362646787E+04  0.15611636780E+04  0.46999998093E+01 0. -1.
</event>
<event>
 5   0  0.1350863E-05  0.2844640E+04  0.7818609E-02  0.8289542E-01
       -2   -1    0    0    0  501  0.00000000000E+00  0.00000000000E+00  0.17127953054E+04  0.17127953054E+04  0.25500000920E-02 0.  1.
        2   -1    0    0  501    0  0.00000000000E+00  0.00000000000E+00 -0.11811065810E+04  0.11811065810E+04  0.25500000920E-02 0. -1.
    10030    2    1    2    0    0  0.00000000000E+00  0.00000000000E+00  0.53168872439E+03  0.28939018864E+04  0.28446397361E+04 0.  0.
        3    1    3    3  502    0 -0.75714943347E+03 -0.26865459808E+03 -0.92816889940E+03  0.12275781334E+04  0.10100000352E+00 0. -1.
       -3    1    3    3    0  502  0.75714943347E+03  0.26865459808E+03  0.14598576238E+04  0.16663237529E+04  0.10100000352E+00 0.  1.
</event>
<event>
 5   0  0.5217999E-06  0.2804883E+04  0.7818609E-02  0.8301754E-01
        1   -1    0    0  501    0  0.00000000000E+00  0.00000000000E+00  0.22057808250E+04  0.22057808251E+04  0.50400001928E-02 0. -1.
       -1   -1    0    0    0  501  0.00000000000E+00  0.00000000000E+00 -0.89167625216E+03  0.89167625217E+03  0.50400001928E-02 0.  1.
    10030    2    1    2    0    0  0.00000000000E+00  0.00000000000E+00  0.13141045729E+04  0.30974570772E+04  0.28048831556E+04 0.  0.
        1    1    3    3  502    0  0.43004510527E+03 -0.13134906974E+04  0.39422268157E+03  0.14372223653E+04  0.50400001928E-02 0.  1.
       -1    1    3    3    0  502 -0.43004510527E+03  0.13134906974E+04  0.91988189132E+03  0.16602347119E+04  0.50400001928E-02 0. -1.
</event>
<event>
 5   0  0.5023691E-06  0.2839865E+04  0.7818609E-02  0.8290998E-01
       -1   -1    0    0    0  501  0.00000000000E+00  0.00000000000E+00  0.29668039036E+04  0.29668039036E+04  0.50400001928E-02 0. -1.
        1   -1    0    0  501    0  0.00000000000E+00  0.00000000000E+00 -0.67958936939E+03  0.67958936941E+03  0.50400001928E-02 0.  1.
    10030    2    1    2    0    0  0.00000000000E+00  0.00000000000E+00  0.22872145342E+04  0.36463932730E+04  0.28398650630E+04 0.  0.
        5    1    3    3  502    0 -0.10323144164E+04  0.61982154197E+03  0.17732877397E+03  0.12170946480E+04  0.46999998093E+01 0.  1.
       -5    1    3    3    0  502  0.10323144164E+04 -0.61982154197E+03  0.21098857602E+04  0.24292986250E+04  0.46999998093E+01 0. -1.
</event>
<event>
 5   0  0.1283052E-05  0.2611189E+04  0.7818609E-02  0.8364410E-01
       -2   -1    0    0    0  501  0.00000000000E+00  0.00000000000E+00  0.18359981427E+04  0.18359981427E+04  0.25500000920E-02 0. -1.
        2   -1    0    0  501    0  0.00000000000E+00  0.00000000000E+00 -0.92842004300E+03  0.92842004301E+03  0.25500000920E-02 0.  1.
    10030    2    1    2    0    0  0.00000000000E+00  0.00000000000E+00  0.90757809974E+03  0.27644181857E+04  0.26111893647E+04 0.  0.
        5    1    3    3  502    0 -0.70957308706E+03  0.44160191356E+03  0.15156679135E+04  0.17308314562E+04  0.46999998093E+01 0. -1.
       -5    1    3    3    0  502  0.70957308706E+03 -0.44160191356E+03 -0.60808981372E+03  0.10335867295E+04  0.46999998093E+01 0.  1.
</event>
<event>
 5   0  0.5217999E-06  0.2800738E+04  0.7818609E-02  0.8303039E-01
       -1   -1    0    0    0  501  0.00000000000E+00  0.00000000000E+00  0.27154839437E+04  0.27154839437E+04  0.50400001928E-02 0. -1.
        1   -1    0    0  501    0  0.00000000000E+00  0.00000000000E+00 -0.72216711017E+03  0.72216711019E+03  0.50400001928E-02 0.  1.
    10030    2    1    2    0    0  0.00000000000E+00  0.00000000000E+00  0.19933168335E+04  0.34376510539E+04  0.28007378973E+04 0.  0.
        1    1    3    3  502    0  0.93685611278E+03  0.56417786955E+03 -0.76912120803E+02  0.10963172528E+04  0.50400001928E-02 0.  1.
       -1    1    3    3    0  502 -0.93685611278E+03 -0.56417786955E+03  0.20702289543E+04  0.23413338010E+04  0.50400001928E-02 0. -1.
</event>
<event>
 5   0  0.5023691E-06  0.2802569E+04  0.7818609E-02  0.8302471E-01
       -1   -1    0    0    0  501  0.00000000000E+00  0.00000000000E+00  0.24288846120E+04  0.24288846120E+04  0.50400001928E-02 0. -1.
        1   -1    0    0  501    0  0.00000000000E+00  0.00000000000E+00 -0.80843637836E+03  0.80843637838E+03  0.50400001928E-02 0.  1.
    10030    2    1    2    0    0  0.00000000000E+00  0.00000000000E+00  0.16204482337E+04  0.32373209904E+04  0.28025693064E+04 0.  0.
        5    1    3    3  502    0 -0.10852633070E+04 -0.87876224290E+03  0.94472100201E+03  0.16859832107E+04  0.46999998093E+01 0.  1.
       -5    1    3    3    0  502  0.10852633070E+04  0.87876224290E+03  0.67572723165E+03  0.15513377797E+04  0.46999998093E+01 0. -1.
</event>
<event>
 5   0  0.4764214E-06  0.2783478E+04  0.7818609E-02  0.8308416E-01
        1   -1    0    0  501    0  0.00000000000E+00  0.00000000000E+00  0.23524990310E+04  0.23524990310E+04  0.50400001928E-02 0. -1.
       -1   -1    0    0    0  501  0.00000000000E+00  0.00000000000E+00 -0.82335330893E+03  0.82335330895E+03  0.50400001928E-02 0.  1.
    10030    2    1    2    0    0  0.00000000000E+00  0.00000000000E+00  0.15291457221E+04  0.31758523400E+04  0.27834782999E+04 0.  0.
        3    1    3    3  502    0 -0.64705764860E+03  0.32567732522E+03 -0.59129948147E+03  0.93508524091E+03  0.10100000352E+00 0.  1.
       -3    1    3    3    0  502  0.64705764860E+03 -0.32567732522E+03  0.21204452035E+04  0.22407670990E+04  0.10100000352E+00 0. -1.
</event>
<event>
 5   0  0.1330962E-05  0.2852561E+04  0.7818609E-02  0.8287134E-01
       -2   -1    0    0    0  501  0.00000000000E+00  0.00000000000E+00  0.98446664619E+03  0.98446664619E+03  0.25500000920E-02 0. -1.
        2   -1    0    0  501    0  0.00000000000E+00  0.00000000000E+00 -0.20663737398E+04  0.20663737398E+04  0.25500000920E-02 0.  1.
    10030    2    1    2    0    0  0.00000000000E+00  0.00000000000E+00 -0.10819070936E+04  0.30508403860E+04  0.28525609725E+04 0.  0.
        4    1    3    3  502    0 -0.81014686659E+03 -0.24286223597E+03  0.68733228256E+03  0.10898381947E+04  0.12699999809E+01 0. -1.
       -4    1    3    3    0  502  0.81014686659E+03  0.24286223597E+03 -0.17692393762E+04  0.19610021913E+04  0.12699999809E+01 0.  1.
</event>
<event>
 5   0  0.5107453E-06  0.2809689E+04  0.7818609E-02  0.8300267E-01
       -1   -1    0    0    0  501  0.00000000000E+00  0.00000000000E+00  0.10825530114E+04  0.10825530114E+04  0.50400001928E-02 0.  1.
        1   -1    0    0  501    0  0.00000000000E+00  0.00000000000E+00 -0.18230861902E+04  0.18230861902E+04  0.50400001928E-02 0. -1.
    10030    2    1    2    0    0  0.00000000000E+00  0.00000000000E+00 -0.74053317878E+03  0.29056392015E+04  0.28096885558E+04 0.  0.
        2    1    3    3  502    0  0.44167287016E+03  0.71882756403E+03  0.79139243667E+03  0.11567583930E+04  0.25500000920E-02 0.  1.
       -2    1    3    3    0  502 -0.44167287016E+03 -0.71882756403E+03 -0.15319256155E+04  0.17488808085E+04  0.25500000920E-02 0. -1.
</event>
<event>
 5   0  0.4447500E-06  0.2750636E+04  0.7818609E-02  0.8318760E-01
       -3   -1    0    0    0  501  0.00000000000E+00  0.00000000000E+00  0.11457583131E+04  0.11457583175E+04  0.10100000352E+00 0. -1.
        3   -1    0    0  501    0  0.00000000000E+00  0.00000000000E+00 -0.16508715493E+04  0.16508715524E+04  0.10100000352E+00 0.  1.
    10030    2    1    2    0    0  0.00000000000E+00  0.00000000000E+00 -0.50511323623E+03  0.27966298699E+04  0.27506361533E+04 0.  0.
        1    1    3    3  502    0 -0.10887879720E+03  0.27457986511E+03  0.11131277438E+04  0.11516518870E+04  0.50400001928E-02 0. -1.
       -1    1    3    3    0  502  0.10887879720E+03 -0.27457986511E+03 -0.16182409800E+04  0.16449779829E+04  0.50400001928E-02 0.  1.
</event>
<event>
 5   0  0.1388269E-05  0.2764292E+04  0.7818609E-02  0.8314441E-01
        2   -1    0    0  501    0  0.00000000000E+00  0.00000000000E+00  0.15813834770E+04  0.15813834770E+04  0.25500000920E-02 0. -1.
       -2   -1    0    0    0  501  0.00000000000E+00  0.00000000000E+00 -0.12080104145E+04  0.12080104145E+04  0.25500000920E-02 0.  1.
    10030    2    1    2    0    0  0.00000000000E+00  0.00000000000E+00  0.37337306250E+03  0.27893938915E+04  0.27642921043E+04 0.  0.
        1    1    3    3  502    0  0.12890722649E+04  0.12086715136E+03 -0.30145363729E+03  0.13293571634E+04  0.50400001928E-02 0.  1.
       -1    1    3    3    0  502 -0.12890722649E+04 -0.12086715136E+03  0.67482669979E+03  0.14600367281E+04  0.50400001928E-02 0. -1.
</event>
<event>
 5   0  0.1330962E-05  0.2689289E+04  0.7818609E-02  0.8338489E-01
        2   -1    0    0  501    0  0.00000000000E+00  0.00000000000E+00  0.18538543752E+04  0.18538543752E+04  0.25500000920E-02 0. -1.
       -2   -1    0    0    0  501  0.00000000000E+00  0.00000000000E+00 -0.97530238164E+03  0.97530238164E+03  0.25500000920E-02 0.  1.
    10030    2    1    2    0    0  0.00000000000E+00  0.00000000000E+00  0.87855199359E+03  0.28291567569E+04  0.26892888185E+04 0.  0.
        4    1    3    3  502    0 -0.11603637809E+04 -0.67261737218E+03  0.33832288862E+03  0.13832289121E+04  0.12699999809E+01 0.  1.
       -4    1    3    3    0  502  0.11603637809E+04  0.67261737218E+03  0.54022910497E+03  0.14459278448E+04  0.12699999809E+01 0. -1.
</event>
<event>
 5   0  0.1330962E-05  0.2752773E+04  0.7818609E-02  0.8318082E-01
       -2   -1    0    0    0  501  0.00000000000E+00  0.00000000000E+00  0.19038645260E+04  0.19038645260E+04  0.25500000920E-02 0.  1.
        2   -1    0    0  501    0  0.00000000000E+00  0.00000000000E+00 -0.99504957158E+03  0.99504957158E+03  0.25500000920E-02 0. -1.
    10030    2    1    2    0    0  0.00000000000E+00  0.00000000000E+00  0.90881495439E+03  0.28989140976E+04  0.27527728427E+04 0.  0.
        4    1    3    3  502    0  0.46062475531E+01  0.15870822061E+03 -0.98537260902E+03  0.99808331732E+03  0.12699999809E+01 0. -1.
       -4    1    3    3    0  502 -0.46062475531E+01 -0.15870822061E+03  0.18941875634E+04  0.19008307802E+04  0.12699999809E+01 0.  1.
</event>
<event>
 5   0  0.1302063E-05  0.2830402E+04  0.7818609E-02  0.8293891E-01
        2   -1    0    0  501    0  0.00000000000E+00  0.00000000000E+00  0.20004055205E+04  0.20004055205E+04  0.25500000920E-02 0. -1.
       -2   -1    0    0    0  501  0.00000000000E+00  0.00000000000E+00 -0.10011940115E+04  0.10011940115E+04  0.25500000920E-02 0.  1.
    10030    2    1    2    0    0  0.00000000000E+00  0.00000000000E+00  0.99921150897E+03  0.30015995320E+04  0.28304021111E+04 0.  0.
        2    1    3    3  502    0 -0.11241202913E+04  0.67930621095E+03 -0.59231375731E+02  0.13147667905E+04  0.25500000920E-02 0.  1.
       -2    1    3    3    0  502  0.11241202913E+04 -0.67930621095E+03  0.10584428847E+04  0.16868327415E+04  0.25500000920E-02 0. -1.
</event>
<event>
 5   0  0.1350863E-05  0.2210210E+04  0.7818609E-02  0.8514191E-01
       -2   -1    0    0    0  501  0.00000000000E+00  0.00000000000E+00  0.13890668117E+04  0.13890668117E+04  0.25500000920E-02 0.  1.
        2   -1    0    0  501    0  0.00000000000E+00  0.00000000000E+00 -0.87919241556E+03  0.87919241557E+03  0.25500000920E-02 0. -1.
    10030    2    1    2    0    0  0.00000000000E+00  0.00000000000E+00  0.50987439618E+03  0.22682592273E+04  0.22102099498E+04 0.  0.
        3    1    3    3  502    0  0.64672314868E+03 -0.40950406068E+03  0.10729364134E+04  0.13180049181E+04  0.10100000352E+00 0. -1.
       -3    1    3    3    0  502 -0.64672314868E+03  0.40950406068E+03 -0.56306201721E+03  0.95025430921E+03  0.10100000352E+00 0.  1.
</event>
<event>
 5   0  0.4764214E-06  0.2798909E+04  0.7818609E-02  0.8303607E-01
       -1   -1    0    0    0  501  0.00000000000E+00  0.00000000000E+00  0.15945957602E+04  0.15945957602E+04  0.50400001928E-02 0. -1.
        1   -1    0    0  501    0  0.00000000000E+00  0.00000000000E+00 -0.12281936742E+04  0.12281936743E+04  0.50400001928E-02 0.  1.
    10030    2    1    2    0    0  0.00000000000E+00  0.00000000000E+00  0.36640208594E+03  0.28227894344E+04  0.27989086628E+04 0.  0.
        3    1    3    3  502    0  0.33490030951E+03  0.13389565291E+04  0.41649616319E+03  0.14416767558E+04  0.10100000352E+00 0. -1.
       -3    1    3    3    0  502 -0.33490030951E+03 -0.13389565291E+04 -0.50094077242E+02  0.13811126786E+04  0.10100000352E+00 0.  1.
</event>
<event>
 5   0  0.5281919E-06  0.2778039E+04  0.7818609E-02  0.8310119E-01
       -1   -1    0    0    0  501  0.00000000000E+00  0.00000000000E+00  0.14143801678E+04  0.14143801678E+04  0.50400001928E-02 0.  1.
        1   -1    0    0  501    0  0.00000000000E+00  0.00000000000E+00 -0.13641137305E+04  0.13641137305E+04  0.50400001928E-02 0. -1.
    10030    2    1    2    0    0  0.00000000000E+00  0.00000000000E+00  0.50266437267E+02  0.27784938983E+04  0.27780391696E+04 0.  0.
        4    1    3    3  502    0  0.91012858273E+03  0.10458693848E+04  0.10998216231E+03  0.13907819729E+04  0.12699999809E+01 0. -1.
       -4    1    3    3    0  502 -0.91012858273E+03 -0.10458693848E+04 -0.59715725045E+02  0.13877119254E+04  0.12699999809E+01 0.  1.
</event>
<event>
 5   0  0.1350863E-05  0.2733198E+04  0.7818609E-02  0.8324313E-01
        2   -1    0    0  501    0  0.00000000000E+00  0.00000000000E+00  0.12532138881E+04  0.12532138881E+04  0.25500000920E-02 0.  1.
       -2   -1    0    0    0  501  0.00000000000E+00  0.00000000000E+00 -0.14902430071E+04  0.14902430071E+04  0.25500000920E-02 0. -1.
    10030    2    1    2    0    0  0.00000000000E+00  0.00000000000E+00 -0.23702911900E+03  0.27434568952E+04  0.27331982973E+04 0.  0.
        3    1    3    3  502    0 -0.33053393771E+03  0.79287535299E+03  0.94834312694E+03  0.12795541044E+04  0.10100000352E+00 0.  1.
       -3    1    3    3    0  502  0.33053393771E+03 -0.79287535299E+03 -0.11853722459E+04  0.14639027908E+04  0.10100000352E+00 0. -1.
</event>
<event>
 5   0  0.1302063E-05  0.2833777E+04  0.7818609E-02  0.8292858E-01
        2   -1    0    0  501    0  0.00000000000E+00  0.00000000000E+00  0.22168827838E+04  0.22168827838E+04  0.25500000920E-02 0. -1.
       -2   -1    0    0    0  501  0.00000000000E+00  0.00000000000E+00 -0.90558357382E+03  0.90558357383E+03  0.25500000920E-02 0.  1.
    10030    2    1    2    0    0  0.00000000000E+00  0.00000000000E+00  0.13112992100E+04  0.31224663576E+04  0.28337767266E+04 0.  0.
        2    1    3    3  502    0 -0.37805660485E+02  0.10515855262E+04 -0.38986108210E+03  0.11221644488E+04  0.25500000920E-02 0.  1.
       -2    1    3    3    0  502  0.37805660485E+02 -0.10515855262E+04  0.17011602921E+04  0.20003019088E+04  0.25500000920E-02 0. -1.
</event>
<event>
 5   0  0.5217999E-06  0.2666989E+04  0.7818609E-02  0.8345796E-01
       -1   -1    0    0    0  501  0.00000000000E+00  0.00000000000E+00  0.10852638414E+04  0.10852638414E+04  0.50400001928E-02 0. -1.
        1   -1    0    0  501    0  0.00000000000E+00  0.00000000000E+00 -0.16385024855E+04  0.16385024855E+04  0.50400001928E-02 0.  1.
    10030    2    1    2    0    0  0.00000000000E+00  0.00000000000E+00 -0.55323864415E+03  0.27237663269E+04  0.26669889400E+04 0.  0.
        1    1    3    3  502    0  0.46967709990E+03 -0.70448242398E+03 -0.13287528797E+04  0.15755875980E+04  0.50400001928E-02 0.  1.
       -1    1    3    3    0  502 -0.46967709990E+03  0.70448242398E+03  0.77551423551E+03  0.11481787288E+04  0.50400001928E-02 0. -1.
</event>
<event>
 5   0  0.1388269E-05  0.2767644E+04  0.7818609E-02  0.8313385E-01
       -2   -1    0    0    0  501  0.00000000000E+00  0.00000000000E+00  0.10703692335E+04  0.10703692335E+04  0.25500000920E-02 0.  1.
        2   -1    0    0  501    0  0.00000000000E+00  0.00000000000E+00 -0.17890673534E+04  0.17890673534E+04  0.25500000920E-02 0. -1.
    10030    2    1    2    0    0  0.00000000000E+00  0.00000000000E+00 -0.71869811985E+03  0.28594365870E+04  0.27676435116E+04 0.  0.
        1    1    3    3  502    0  0.66414642551E+03 -0.81054191600E+03 -0.12931475507E+04  0.16644215993E+04  0.50400001928E-02 0. -1.
       -1    1    3    3    0  502 -0.66414642551E+03  0.81054191600E+03  0.57444943088E+03  0.11950149877E+04  0.50400001928E-02 0.  1.
</event>
<event>
 5   0  0.5107453E-06  0.2183684E+04  0.7818609E-02  0.8525250E-01
       -1   -1    0    0    0  501  0.00000000000E+00  0.00000000000E+00  0.76470941164E+03  0.76470941165E+03  0.50400001928E-02 0. -1.
        1   -1    0    0  501    0  0.00000000000E+00  0.00000000000E+00 -0.15589170662E+04  0.15589170662E+04  0.50400001928E-02 0.  1.
    10030    2    1    2    0    0  0.00000000000E+00  0.00000000000E+00 -0.79420765455E+03  0.23236264778E+04  0.21836836332E+04 0.  0.
        2    1    3    3  502    0 -0.27067838967E+03 -0.75836107847E+03 -0.11817472407E+04  0.14300016982E+04  0.25500000920E-02 0.  1.
       -2    1    3    3    0  502  0.27067838967E+03  0.75836107847E+03  0.38753958614E+03  0.89362477965E+03  0.25500000920E-02 0. -1.
</event>
<event>
 5   0  0.1283052E-05  0.2189629E+04  0.7818609E-02  0.8522757E-01
        2   -1    0    0  501    0  0.00000000000E+00  0.00000000000E+00  0.11997675803E+04  0.11997675803E+04  0.25500000920E-02 0. -1.
       -2   -1    0    0    0  501  0.00000000000E+00  0.00000000000E+00 -0.99904225671E+03  0.99904225671E+03  0.25500000920E-02 0.  1.
    10030    2    1    2    0    0  0.00000000000E+00  0.00000000000E+00  0.20072532360E+03  0.21988098370E+04  0.21896287457E+04 0.  0.
        5    1    3    3  502    0 -0.31293624608E+03  0.47277661091E+03 -0.84012698902E+03  0.10135493405E+04  0.46999998093E+01 0.  1.
       -5    1    3    3    0  502  0.31293624608E+03 -0.47277661091E+03  0.10408523126E+04  0.11852604965E+04  0.46999998093E+01 0. -1.
</event>
<event>
 5   0  0.5107453E-06  0.2844976E+04  0.7818609E-02  0.8289439E-01
       -1   -1    0    0    0  501  0.00000000000E+00  0.00000000000E+00  0.10968537200E+04  0.10968537200E+04  0.50400001928E-02 0.  1.
        1   -1    0    0  501    0  0.00000000000E+00  0.00000000000E+00 -0.18447973339E+04  0.18447973339E+04  0.50400001928E-02 0. -1.
    10030    2    1    2    0    0  0.00000000000E+00  0.00000000000E+00 -0.74794361393E+03  0.29416510539E+04  0.28449764979E+04 0.  0.
        2    1    3    3  502    0 -0.25703746821E+03  0.59187934553E+02  0.10713474442E+04  0.11033389406E+04  0.25500000920E-02 0.  1.
       -2    1    3    3    0  502  0.25703746821E+03 -0.59187934553E+02 -0.18192910581E+04  0.18383121133E+04  0.25500000920E-02 0. -1.
</event>
<event>
 5   0  0.4764214E-06  0.2781377E+04  0.7818609E-02  0.8309074E-01
        1   -1    0    0  501    0  0.00000000000E+00  0.00000000000E+00  0.18465421051E+04  0.18465421051E+04  0.50400001928E-02 0.  1.
       -1   -1    0    0    0  501  0.00000000000E+00  0.00000000000E+00 -0.10473705867E+04  0.10473705867E+04  0.50400001928E-02 0. -1.
    10030    2    1    2    0    0  0.00000000000E+00  0.00000000000E+00  0.79917151838E+03  0.28939126918E+04  0.27813765570E+04 0.  0.
        3    1    3    3  502    0  0.99244247122E+03  0.10413267039E+02 -0.61397633948E+03  0.11670550332E+04  0.10100000352E+00 0. -1.
       -3    1    3    3    0  502 -0.99244247122E+03 -0.10413267039E+02  0.14131478579E+04  0.17268576586E+04  0.10100000352E+00 0.  1.
</event>
<event>
 5   0  0.5023691E-06  0.2101753E+04  0.7818609E-02  0.8560472E-01
        1   -1    0    0  501    0  0.00000000000E+00  0.00000000000E+00  0.13619740021E+04  0.13619740021E+04  0.50400001928E-02 0. -1.
       -1   -1    0    0    0  501  0.00000000000E+00  0.00000000000E+00 -0.81083870518E+03  0.81083870519E+03  0.50400001928E-02 0.  1.
    10030    2    1    2    0    0  0.00000000000E+00  0.00000000000E+00  0.55113529696E+03  0.21728127073E+04  0.21017528270E+04 0.  0.
        5    1    3    3  502    0 -0.75407200379E+02 -0.97230056245E+03  0.68029398178E+03  0.11890654403E+04  0.46999998093E+01 0. -1.
       -5    1    3    3    0  502  0.75407200379E+02  0.97230056245E+03 -0.12915868481E+03  0.98374726707E+03  0.46999998093E+01 0.  1.
</event>
<event>
 5   0  0.1388269E-05  0.2471816E+04  0.7818609E-02  0.8413095E-01
       -2   -1    0    0    0  501  0.00000000000E+00  0.00000000000E+00  0.14661644318E+04  0.14661644318E+04  0.25500000920E-02 0.  1.
        2   -1    0    0  501    0  0.00000000000E+00  0.00000000000E+00 -0.10418127594E+04  0.10418127594E+04  0.25500000920E-02 0. -1.
    10030    2    1    2    0    0  0.00000000000E+00  0.00000000000E+00  0.42435167239E+03  0.25079771911E+04  0.24718161844E+04 0.  0.
        1    1    3    3  502    0  0.39504255318E+03  0.51817614218E+03 -0.85337997944E+03  0.10736957309E+04  0.50400001928E-02 0. -1.
       -1    1    3    3    0  502 -0.39504255318E+03 -0.51817614218E+03  0.12777316518E+04  0.14342814603E+04  0.50400001928E-02 0.  1.
</event>
<event>
 5   0  0.4764214E-06  0.2811134E+04  0.7818609E-02  0.8299820E-01
        1   -1    0    0  501    0  0.00000000000E+00  0.00000000000E+00  0.20424196491E+04  0.20424196491E+04  0.50400001928E-02 0. -1.
       -1   -1    0    0    0  501  0.00000000000E+00  0.00000000000E+00 -0.96729337920E+03  0.96729337921E+03  0.50400001928E-02 0.  1.
    10030    2    1    2    0    0  0.00000000000E+00  0.00000000000E+00  0.10751262699E+04  0.30097130283E+04  0.28111342936E+04 0.  0.
        3    1    3    3  502    0 -0.10690695067E+03 -0.98525028842E+03  0.16047027928E+04  0.18860589308E+04  0.10100000352E+00 0. -1.
       -3    1    3    3    0  502  0.10690695067E+03  0.98525028842E+03 -0.52957652296E+03  0.11236540975E+04  0.10100000352E+00 0.  1.
</event>
<event>
 5   0  0.1302063E-05  0.2798618E+04  0.7818609E-02  0.8303698E-01
       -2   -1    0    0    0  501  0.00000000000E+00  0.00000000000E+00  0.89327577794E+03  0.89327577794E+03  0.25500000920E-02 0.  1.
        2   -1    0    0  501    0  0.00000000000E+00  0.00000000000E+00 -0.21920056277E+04  0.21920056277E+04  0.25500000920E-02 0. -1.
    10030    2    1    2    0    0  0.00000000000E+00  0.00000000000E+00 -0.12987298498E+04  0.30852814057E+04  0.27986178963E+04 0.  0.
        2    1    3    3  502    0  0.10479596395E+04 -0.64825463360E+03 -0.13803120663E+04  0.18503283158E+04  0.25500000920E-02 0. -1.
       -2    1    3    3    0  502 -0.10479596395E+04  0.64825463360E+03  0.81582216526E+02  0.12349530898E+04  0.25500000920E-02 0.  1.
</event>
<event>
 5   0  0.5281919E-06  0.2668708E+04  0.7818609E-02  0.8345230E-01
        1   -1    0    0  501    0  0.00000000000E+00  0.00000000000E+00  0.20863152201E+04  0.20863152201E+04  0.50400001928E-02 0. -1.
       -1   -1    0    0    0  501  0.00000000000E+00  0.00000000000E+00 -0.85341892058E+03  0.85341892059E+03  0.50400001928E-02 0.  1.
    10030    2    1    2    0    0  0.00000000000E+00  0.00000000000E+00  0.12328962996E+04  0.29397341407E+04  0.26687082142E+04 0.  0.
        4    1    3    3  502    0  0.10725234408E+04 -0.69821954809E+03  0.10325425443E+04  0.16443730681E+04  0.12699999809E+01 0. -1.
       -4    1    3    3    0  502 -0.10725234408E+04  0.69821954809E+03  0.20035375521E+03  0.12953610726E+04  0.12699999809E+01 0.  1.
</event>
<event>
 5   0  0.5023691E-06  0.2762284E+04  0.7818609E-02  0.8315074E-01
       -1   -1    0    0    0  501  0.00000000000E+00  0.00000000000E+00  0.88377007469E+03  0.88377007470E+03  0.50400001928E-02 0. -1.
        1   -1    0    0  501    0  0.00000000000E+00  0.00000000000E+00 -0.21584274360E+04  0.21584274360E+04  0.50400001928E-02 0.  1.
    10030    2    1    2    0    0  0.00000000000E+00  0.00000000000E+00 -0.12746573613E+04  0.30421975107E+04  0.27622842550E+04 0.  0.
        5    1    3    3  502    0  0.11515994234E+04  0.23198581068E+03 -0.14372435837E+04  0.18562569481E+04  0.46999998093E+01 0.  1.
       -5    1    3    3    0  502 -0.11515994234E+04 -0.23198581068E+03  0.16258622241E+03  0.11859405626E+04  0.46999998093E+01 0. -1.
</event>
<event>
 5   0  0.1283052E-05  0.2765336E+04  0.7818609E-02  0.8314112E-01
       -2   -1    0    0    0  501  0.00000000000E+00  0.00000000000E+00  0.72928499587E+03  0.72928499588E+03  0.25500000920E-02 0. -1.
        2   -1    0    0  501    0  0.00000000000E+00  0.00000000000E+00 -0.26214315747E+04  0.26214315747E+04  0.25500000920E-02 0.  1.
    10030    2    1    2    0    0  0.00000000000E+00  0.00000000000E+00 -0.18921465789E+04  0.33507165706E+04  0.27653359399E+04 0.  0.
        5    1    3    3  502    0 -0.36806971152E+03 -0.96838395295E+03  0.16346639293E+03  0.10488022428E+04  0.46999998093E+01 0. -1.
       -5    1    3    3    0  502  0.36806971152E+03  0.96838395295E+03 -0.20556129718E+04  0.23019143278E+04  0.46999998093E+01 0.  1.
</event>
<event>
 5   0  0.5023691E-06  0.2760542E+04  0.7818609E-02  0.8315624E-01
        1   -1    0    0  501    0  0.00000000000E+00  0.00000000000E+00  0.15394186939E+04  0.15394186939E+04  0.50400001928E-02 0.  1.
       -1   -1    0    0    0  501  0.00000000000E+00  0.00000000000E+00 -0.12375762821E+04  0.12375762822E+04  0.50400001928E-02 0. -1.
    10030    2    1    2    0    0  0.00000000000E+00  0.00000000000E+00  0.30184241175E+03  0.27769949761E+04  0.27605420221E+04 0.  0.
        5    1    3    3  502    0  0.93552651915E+03 -0.76740223299E+03 -0.51712255165E+03  0.13158852072E+04  0.46999998093E+01 0. -1.
       -5    1    3    3    0  502 -0.93552651915E+03  0.76740223299E+03  0.81896496340E+03  0.14611097688E+04  0.46999998093E+01 0.  1.
</event>
<event>
 5   0  0.5107453E-06  0.2806249E+04  0.7818609E-02  0.8301331E-01
        1   -1    0    0  501    0  0.00000000000E+00  0.00000000000E+00  0.25973252724E+04  0.25973252724E+04  0.50400001928E-02 0. -1.
       -1   -1    0    0    0  501  0.00000000000E+00  0.00000000000E+00 -0.75799465913E+03  0.75799465914E+03  0.50400001928E-02 0.  1.
    10030    2    1    2    0    0  0.00000000000E+00  0.00000000000E+00  0.18393306132E+04  0.33553199315E+04  0.28062492295E+04 0.  0.
        2    1    3    3  502    0  0.89780718378E+02  0.11892443120E+04  0.18034805394E+04  0.21621527853E+04  0.25500000920E-02 0. -1.
       -2    1    3    3    0  502 -0.89780718378E+02 -0.11892443120E+04  0.35850073846E+02  0.11931671462E+04  0.25500000920E-02 0.  1.
</event>
<event>
 5   0  0.1388269E-05  0.2795304E+04  0.7818609E-02  0.8304728E-01
       -2   -1    0    0    0  501  0.00000000000E+00  0.00000000000E+00  0.12749392758E+04  0.12749392758E+04  0.25500000920E-02 0.  1.
        2   -1    0    0  501    0  0.00000000000E+00  0.00000000000E+00 -0.15321756039E+04  0.15321756039E+04  0.25500000920E-02 0. -1.
    10030    2    1    2    0    0  0.00000000000E+00  0.00000000000E+00 -0.25723632816E+03  0.28071148797E+04  0.27953038152E+04 0.  0.
        1    1    3    3  502    0 -0.72837147635E+03  0.53311849625E+02  0.10680812574E+04  0.12938951787E+04  0.50400001928E-02 0.  1.
       -1    1    3    3    0  502  0.72837147635E+03 -0.53311849625E+02 -0.13253175856E+04  0.15132197010E+04  0.50400001928E-02 0. -1.
</event>
<event>
 5   0  0.5281919E-06  0.2807239E+04  0.7818609E-02  0.8301024E-01
        1   -1    0    0  501    0  0.00000000000E+00  0.00000000000E+00  0.17726632348E+04  0.17726632348E+04  0.50400001928E-02 0.  1.
       -1   -1    0    0    0  501  0.00000000000E+00  0.00000000000E+00 -0.11114056573E+04  0.11114056573E+04  0.50400001928E-02 0. -1.
    10030    2    1    2    0    0  0.00000000000E+00  0.00000000000E+00  0.66125757749E+03  0.28840688921E+04  0.28072391758E+04 0.  0.
        4    1    3    3  502    0 -0.11305167434E+04  0.68610149818E+03  0.81397583912E+03  0.15528559665E+04  0.12699999809E+01 0. -1.
       -4    1    3    3    0  502  0.11305167434E+04 -0.68610149818E+03 -0.15271826163E+03  0.13312129256E+04  0.12699999809E+01 0.  1.
</event>
<event>
 5   0  0.1388269E-05  0.2783990E+04  0.7818609E-02  0.8308256E-01
       -2   -1    0    0    0  501  0.00000000000E+00  0.00000000000E+00  0.10250936064E+04  0.10250936064E+04  0.25500000920E-02 0. -1.
        2   -1    0    0  501    0  0.00000000000E+00  0.00000000000E+00 -0.18902179477E+04  0.18902179477E+04  0.25500000920E-02 0.  1.
    10030    2    1    2    0    0  0.00000000000E+00  0.00000000000E+00 -0.86512434129E+03  0.29153115542E+04  0.27839901817E+04 0.  0.
        1    1    3    3  502    0  0.70079847869E+03  0.12015202619E+04 -0.48876785866E+03  0.14743349237E+04  0.50400001928E-02 0.  1.
       -1    1    3    3    0  502 -0.70079847869E+03 -0.12015202619E+04 -0.37635648263E+03  0.14409766305E+04  0.50400001928E-02 0. -1.
</event>
<event>
 5   0  0.1388269E-05  0.2830173E+04  0.7818609E-02  0.8293962E-01
        2   -1    0    0  501    0  0.00000000000E+00  0.00000000000E+00  0.20779024068E+04  0.20779024068E+04  0.25500000920E-02 0.  1.
       -2   -1    0    0    0  501  0.00000000000E+00  0.00000000000E+00 -0.96369795948E+03  0.96369795948E+03  0.25500000920E-02 0. -1.
    10030    2    1    2    0    0  0.00000000000E+00  0.00000000000E+00  0.11142044474E+04  0.30416003663E+04  0.28301733583E+04 0.  0.
        1    1    3    3  502    0  0.11774417520E+04  0.49898638152E+03 -0.94060424949E+02  0.12822651254E+04  0.50400001928E-02 0. -1.
       -1    1    3    3    0  502 -0.11774417520E+04 -0.49898638152E+03  0.12082648723E+04  0.17593352409E+04  0.50400001928E-02 0.  1.
</event>
<event>
 5   0  0.5281919E-06  0.2804311E+04  0.7818609E-02  0.8301931E-01
       -1   -1    0    0    0  501  0.00000000000E+00  0.00000000000E+00  0.84884835122E+03  0.84884835124E+03  0.50400001928E-02 0. -1.
        1   -1    0    0  501    0  0.00000000000E+00  0.00000000000E+00 -0.23161256494E+04  0.23161256494E+04  0.50400001928E-02 0.  1.
    10030    2    1    2    0    0  0.00000000000E+00  0.00000000000E+00 -0.14672772982E+04  0.31649740007E+04  0.28043105668E+04 0.  0.
        4    1    3    3  502    0  0.65155030353E+03 -0.10399980422E+02  0.66757186561E+03  0.93288786372E+03  0.12699999809E+01 0. -1.
       -4    1    3    3    0  502 -0.65155030353E+03  0.10399980422E+02 -0.21348491638E+04  0.22320861370E+04  0.12699999809E+01 0.  1.
</event>
<event>
 5   0  0.4764214E-06  0.2792179E+04  0.7818609E-02  0.8305701E-01
       -1   -1    0    0    0  501  0.00000000000E+00  0.00000000000E+00  0.90779500092E+03  0.90779500094E+03  0.50400001928E-02 0.  1.
        1   -1    0    0  501    0  0.00000000000E+00  0.00000000000E+00 -0.21470333391E+04  0.21470333391E+04  0.50400001928E-02 0. -1.
    10030    2    1    2    0    0  0.00000000000E+00  0.00000000000E+00 -0.12392383381E+04  0.30548283400E+04  0.27921791719E+04 0.  0.
        3    1    3    3  502    0 -0.29450834919E+03 -0.10110117449E+04  0.38322002980E+03  0.11205969469E+04  0.10100000352E+00 0. -1.
       -3    1    3    3    0  502  0.29450834919E+03  0.10110117449E+04 -0.16224583679E+04  0.19342313931E+04  0.10100000352E+00 0.  1.
</event>
<event>
 5   0  0.1330962E-05  0.2807940E+04  0.7818609E-02  0.8300807E-01
       -2   -1    0    0    0  501  0.00000000000E+00  0.00000000000E+00  0.11220504830E+04  0.11220504830E+04  0.25500000920E-02 0.  1.
        2   -1    0    0  501    0  0.00000000000E+00  0.00000000000E+00 -0.17567232940E+04  0.17567232940E+04  0.25500000920E-02 0. -1.
    10030    2    1    2    0    0  0.00000000000E+00  0.00000000000E+00 -0.63467281098E+03  0.28787737770E+04  0.28079403273E+04 0.  0.
        4    1    3    3  502    0  0.10981008472E+04  0.15521082520E+03 -0.11999928297E+04  0.16339829482E+04  0.12699999809E+01 0. -1.
       -4    1    3    3    0  502 -0.10981008472E+04 -0.15521082520E+03  0.56532001872E+03  0.12447908287E+04  0.12699999809E+01 0.  1.
</event>
<event>
 5   0  0.5281919E-06  0.2832257E+04  0.7818609E-02  0.8293323E-01
        1   -1    0    0  501    0  0.00000000000E+00  0.00000000000E+00  0.13559255757E+04  0.13559255757E+04  0.50400001928E-02 0. -1.
       -1   -1    0    0    0  501  0.00000000000E+00  0.00000000000E+00 -0.14790039359E+04  0.14790039359E+04  0.50400001928E-02 0.  1.
    10030    2    1    2    0    0  0.00000000000E+00  0.00000000000E+00 -0.12307836026E+03  0.28349295116E+04  0.28322565303E+04 0.  0.
        4    1    3    3  502    0 -0.82718926233E+03  0.11466490496E+04  0.18358027458E+02  0.14139960215E+04  0.12699999809E+01 0. -1.
       -4    1    3    3    0  502  0.82718926233E+03 -0.11466490496E+04 -0.14143638772E+03  0.14209334901E+04  0.12699999809E+01 0.  1.
</event>
<event>
 5   0  0.5217999E-06  0.2809385E+04  0.7818609E-02  0.8300361E-01
        1   -1    0    0  501    0  0.00000000000E+00  0.00000000000E+00  0.13114831212E+04  0.13114831212E+04  0.50400001928E-02 0.  1.
       -1   -1    0    0    0  501  0.00000000000E+00  0.00000000000E+00 -0.15045260320E+04  0.15045260320E+04  0.50400001928E-02 0. -1.
    10030    2    1    2    0    0  0.00000000000E+00  0.00000000000E+00 -0.19304291085E+03  0.28160091532E+04  0.28093846276E+04 0.  0.
        1    1    3    3  502    0 -0.13233670965E+04 -0.46301061206E+03 -0.98235882081E+01  0.14020612690E+04  0.50400001928E-02 0.  1.
       -1    1    3    3    0  502  0.13233670965E+04  0.46301061206E+03 -0.18321932264E+03  0.14139478842E+04  0.50400001928E-02 0. -1.
</event>
<event>
 5   0  0.5023691E-06  0.2798663E+04  0.7818609E-02  0.8303683E-01
        1   -1    0    0  501    0  0.00000000000E+00  0.00000000000E+00  0.68072585317E+03  0.68072585319E+03  0.50400001928E-02 0. -1.
       -1   -1    0    0    0  501  0.00000000000E+00  0.00000000000E+00 -0.28765309081E+04  0.28765309081E+04  0.50400001928E-02 0.  1.
    10030    2    1    2    0    0  0.00000000000E+00  0.00000000000E+00 -0.21958050549E+04  0.35572567613E+04  0.27986632213E+04 0.  0.
        5    1    3    3  502    0  0.22233809792E+03  0.13428576537E+04 -0.15105670698E+04  0.20333558150E+04  0.46999998093E+01 0.  1.
       -5    1    3    3    0  502 -0.22233809792E+03 -0.13428576537E+04 -0.68523798507E+03  0.15239009463E+04  0.46999998093E+01 0. -1.
</event>
<event>
 5   0  0.1330962E-05  0.2667098E+04  0.7818609E-02  0.8345760E-01
        2   -1    0    0  501    0  0.00000000000E+00  0.00000000000E+00  0.12101433786E+04  0.12101433786E+04  0.25500000920E-02 0. -1.
       -2   -1    0    0    0  501  0.00000000000E+00  0.00000000000E+00 -0.14695385608E+04  0.14695385608E+04  0.25500000920E-02 0.  1.
    10030    2    1    2    0    0  0.00000000000E+00  0.00000000000E+00 -0.25939518219E+03  0.26796819394E+04  0.26670975677E+04 0.  0.
        4    1    3    3  502    0 -0.94400690359E+03  0.53201289249E+03  0.65124977699E+03  0.12642446902E+04  0.12699999809E+01 0. -1.
       -4    1    3    3    0  502  0.94400690359E+03 -0.53201289249E+03 -0.91064495919E+03  0.14154372492E+04  0.12699999809E+01 0.  1.
</event>
<event>
 5   0  0.1302063E-05  0.2244657E+04  0.7818609E-02  0.8500067E-01
       -2   -1    0    0    0  501  0.00000000000E+00  0.00000000000E+00  0.51299800686E+03  0.51299800686E+03  0.25500000920E-02 0.  1.
        2   -1    0    0  501    0  0.00000000000E+00  0.00000000000E+00 -0.24554122774E+04  0.24554122774E+04  0.25500000920E-02 0. -1.
    10030    2    1    2    0    0  0.00000000000E+00  0.00000000000E+00 -0.19424142705E+04  0.29684102842E+04  0.22446573051E+04 0.  0.
        2    1    3    3  502    0  0.46360731452E+03 -0.21732682415E+02 -0.23225618964E+04  0.23684800641E+04  0.25500000920E-02 0. -1.
       -2    1    3    3    0  502 -0.46360731452E+03  0.21732682415E+02  0.38014762587E+03  0.59993022012E+03  0.25500000920E-02 0.  1.
</event>
<event>
 5   0  0.5023691E-06  0.2830021E+04  0.7818609E-02  0.8294008E-01
       -1   -1    0    0    0  501  0.00000000000E+00  0.00000000000E+00  0.62984101534E+03  0.62984101536E+03  0.50400001928E-02 0. -1.
        1   -1    0    0  501    0  0.00000000000E+00  0.00000000000E+00 -0.31789845265E+04  0.31789845265E+04  0.50400001928E-02 0.  1.
    10030    2    1    2    0    0  0.00000000000E+00  0.00000000000E+00 -0.25491435112E+04  0.38088255419E+04  0.28300210897E+04 0.  0.
        5    1    3    3  502    0  0.15458995581E+03 -0.10023626045E+04 -0.26025549003E+04  0.27931958299E+04  0.46999998093E+01 0.  1.
       -5    1    3    3    0  502 -0.15458995581E+03  0.10023626045E+04  0.53411389096E+02  0.10156297120E+04  0.46999998093E+01 0. -1.
</event>
<event>
 5   0  0.5217999E-06  0.2699516E+04  0.7818609E-02  0.8335162E-01
        1   -1    0    0  501    0  0.00000000000E+00  0.00000000000E+00  0.17481166749E+04  0.17481166749E+04  0.50400001928E-02 0. -1.
       -1   -1    0    0    0  501  0.00000000000E+00  0.00000000000E+00 -0.10421769943E+04  0.10421769943E+04  0.50400001928E-02 0.  1.
    10030    2    1    2    0    0  0.00000000000E+00  0.00000000000E+00  0.70593968060E+03  0.27902936692E+04  0.26995162396E+04 0.  0.
        1    1    3    3  502    0 -0.84283136582E+02  0.69327217339E+03  0.15468505444E+04  0.16971966770E+04  0.50400001928E-02 0. -1.
       -1    1    3    3    0  502  0.84283136582E+02 -0.69327217339E+03 -0.84091086383E+03  0.10930969922E+04  0.50400001928E-02 0.  1.
</event>
<event>
 5   0  0.1350863E-05  0.2793191E+04  0.7818609E-02  0.8305385E-01
        2   -1    0    0  501    0  0.00000000000E+00  0.00000000000E+00  0.14863003617E+04  0.14863003617E+04  0.25500000920E-02 0. -1.
       -2   -1    0    0    0  501  0.00000000000E+00  0.00000000000E+00 -0.13123050189E+04  0.13123050189E+04  0.25500000920E-02 0.  1.
    10030    2    1    2    0    0  0.00000000000E+00  0.00000000000E+00  0.17399534284E+03  0.27986053806E+04  0.27931913105E+04 0.  0.
        3    1    3    3  502    0  0.46007756783E+03 -0.22770594914E+03  0.13883446963E+04  0.14802102464E+04  0.10100000352E+00 0. -1.
       -3    1    3    3    0  502 -0.46007756783E+03  0.22770594914E+03 -0.12143493534E+04  0.13183951343E+04  0.10100000352E+00 0.  1.
</event>
<event>
 5   0  0.1330962E-05  0.2795381E+04  0.7818609E-02  0.8304704E-01
       -2   -1    0    0    0  501  0.00000000000E+00  0.00000000000E+00  0.13303865395E+04  0.13303865395E+04  0.25500000920E-02 0.  1.
        2   -1    0    0  501    0  0.00000000000E+00  0.00000000000E+00 -0.14683992496E+04  0.14683992496E+04  0.25500000920E-02 0. -1.
    10030    2    1    2    0    0  0.00000000000E+00  0.00000000000E+00 -0.13801271015E+03  0.27987857891E+04  0.27953809016E+04 0.  0.
        4    1    3    3  502    0 -0.65188932575E+03 -0.17545091575E+03  0.11563283899E+04  0.13389696318E+04  0.12699999809E+01 0.  1.
       -4    1    3    3    0  502  0.65188932575E+03  0.17545091575E+03 -0.12943411000E+04  0.14598161572E+04  0.12699999809E+01 0. -1.
</event>
<event>
 5   0  0.1330962E-05  0.2763058E+04  0.7818609E-02  0.8314830E-01
       -2   -1    0    0    0  501  0.00000000000E+00  0.00000000000E+00  0.14195279892E+04  0.14195279892E+04  0.25500000920E-02 0. -1.
        2   -1    0    0  501    0  0.00000000000E+00  0.00000000000E+00 -0.13445473208E+04  0.13445473208E+04  0.25500000920E-02 0.  1.
    10030    2    1    2    0    0  0.00000000000E+00  0.00000000000E+00  0.74980668382E+02  0.27640753101E+04  0.27630581281E+04 0.  0.
        4    1    3    3  502    0  0.27769083450E+03  0.25610682544E+03 -0.12918773624E+04  0.13459760911E+04  0.12699999809E+01 0.  1.
       -4    1    3    3    0  502 -0.27769083450E+03 -0.25610682544E+03  0.13668580308E+04  0.14180992189E+04  0.12699999809E+01 0. -1.
</event>
<event>
 5   0  0.4764214E-06  0.2875549E+04  0.7818609E-02  0.8280190E-01
       -1   -1    0    0    0  501  0.00000000000E+00  0.00000000000E+00  0.93663855707E+03  0.93663855708E+03  0.50400001928E-02 0. -1.
        1   -1    0    0  501    0  0.00000000000E+00  0.00000000000E+00 -0.22070368377E+04  0.22070368377E+04  0.50400001928E-02 0.  1.
    10030    2    1    2    0    0  0.00000000000E+00  0.00000000000E+00 -0.12703982806E+04  0.31436753948E+04  0.28755491991E+04 0.  0.
        3    1    3    3  502    0  0.10236117882E+04  0.94656567951E+03 -0.25111715894E+03  0.14166253973E+04  0.10100000352E+00 0. -1.
       -3    1    3    3    0  502 -0.10236117882E+04 -0.94656567951E+03 -0.10192811217E+04  0.17270499975E+04  0.10100000352E+00 0.  1.
</event>
<event>
 5   0  0.4764214E-06  0.2775412E+04  0.7818609E-02  0.8310943E-01
       -1   -1    0    0    0  501  0.00000000000E+00  0.00000000000E+00  0.86201358084E+03  0.86201358085E+03  0.50400001928E-02 0.  1.
        1   -1    0    0  501    0  0.00000000000E+00  0.00000000000E+00 -0.22339882569E+04  0.22339882569E+04  0.50400001928E-02 0. -1.
    10030    2    1    2    0    0  0.00000000000E+00  0.00000000000E+00 -0.13719746760E+04  0.30960018377E+04  0.27754121978E+04 0.  0.
        3    1    3    3  502    0  0.91710251121E+03 -0.10350877993E+04 -0.81436530411E+03  0.16048908458E+04  0.10100000352E+00 0. -1.
       -3    1    3    3    0  502 -0.91710251121E+03  0.10350877993E+04 -0.55760937192E+03  0.14911109919E+04  0.10100000352E+00 0.  1.
</event>
<event>
 5   0  0.4764214E-06  0.2827800E+04  0.7818609E-02  0.8294689E-01
       -1   -1    0    0    0  501  0.00000000000E+00  0.00000000000E+00  0.90072332688E+03  0.90072332689E+03  0.50400001928E-02 0. -1.
        1   -1    0    0  501    0  0.00000000000E+00  0.00000000000E+00 -0.22194533768E+04  0.22194533768E+04  0.50400001928E-02 0.  1.
    10030    2    1    2    0    0  0.00000000000E+00  0.00000000000E+00 -0.13187300499E+04  0.31201767037E+04  0.28278001552E+04 0.  0.
        3    1    3    3  502    0 -0.11396480527E+04  0.24902124972E+03 -0.15409096683E+04  0.19326696259E+04  0.10100000352E+00 0.  1.
       -3    1    3    3    0  502  0.11396480527E+04 -0.24902124972E+03  0.22217961838E+03  0.11875070778E+04  0.10100000352E+00 0. -1.
</event>
<event>
 5   0  0.5107453E-06  0.2817242E+04  0.7818609E-02  0.8297935E-01
       -1   -1    0    0    0  501  0.00000000000E+00  0.00000000000E+00  0.16039913222E+04  0.16039913222E+04  0.50400001928E-02 0.  1.
        1   -1    0    0  501    0  0.00000000000E+00  0.00000000000E+00 -0.12370469060E+04  0.12370469060E+04  0.50400001928E-02 0. -1.
    10030    2    1    2    0    0  0.00000000000E+00  0.00000000000E+00  0.36694441621E+03  0.28410382283E+04  0.28172415605E+04 0.  0.
        2    1    3    3  502    0 -0.35502121519E+03  0.11812822219E+04  0.86947161751E+03  0.15091218124E+04  0.25500000920E-02 0.  1.
       -2    1    3    3    0  502  0.35502121519E+03 -0.11812822219E+04 -0.50252720131E+03  0.13319164159E+04  0.25500000920E-02 0. -1.
</event>
<event>
 5   0  0.1350863E-05  0.2953949E+04  0.7818609E-02  0.8257005E-01
        2   -1    0    0  501    0  0.00000000000E+00  0.00000000000E+00  0.18985822479E+04  0.18985822479E+04  0.25500000920E-02 0. -1.
       -2   -1    0    0    0  501  0.00000000000E+00  0.00000000000E+00 -0.11489906061E+04  0.11489906061E+04  0.25500000920E-02 0.  1.
    10030    2    1    2    0    0  0.00000000000E+00  0.00000000000E+00  0.74959164181E+03  0.30475728541E+04  0.29539486576E+04 0.  0.
        3    1    3    3  502    0 -0.36477903291E+03  0.43043511661E+03 -0.10334257355E+04  0.11774153445E+04  0.10100000352E+00 0.  1.
       -3    1    3    3    0  502  0.36477903291E+03 -0.43043511661E+03  0.17830173773E+04  0.18701575096E+04  0.10100000352E+00 0. -1.
</event>
<event>
 5   0  0.1350863E-05  0.2549645E+04  0.7818609E-02  0.8385510E-01
       -2   -1    0    0    0  501  0.00000000000E+00  0.00000000000E+00  0.20035376001E+04  0.20035376001E+04  0.25500000920E-02 0.  1.
        2   -1    0    0  501    0  0.00000000000E+00  0.00000000000E+00 -0.81115161312E+03  0.81115161312E+03  0.25500000920E-02 0. -1.
    10030    2    1    2    0    0  0.00000000000E+00  0.00000000000E+00  0.11923859869E+04  0.28146892132E+04  0.25496452743E+04 0.  0.
        3    1    3    3  502    0 -0.32637755193E+03  0.59253824203E+03 -0.59666355919E+03  0.90201512611E+03  0.10100000352E+00 0. -1.
       -3    1    3    3    0  502  0.32637755193E+03 -0.59253824203E+03  0.17890495461E+04  0.19126740871E+04  0.10100000352E+00 0.  1.
</event>
<event>
 5   0  0.4764214E-06  0.2770483E+04  0.7818609E-02  0.8312491E-01
        1   -1    0    0  501    0  0.00000000000E+00  0.00000000000E+00  0.88426901359E+03  0.88426901360E+03  0.50400001928E-02 0.  1.
       -1   -1    0    0    0  501  0.00000000000E+00  0.00000000000E+00 -0.21700344719E+04  0.21700344719E+04  0.50400001928E-02 0. -1.
    10030    2    1    2    0    0  0.00000000000E+00  0.00000000000E+00 -0.12857654583E+04  0.30543034855E+04  0.27704831651E+04 0.  0.
        3    1    3    3  502    0 -0.36942495560E+03 -0.12343042177E+04 -0.81921032126E+02  0.12910045567E+04  0.10100000352E+00 0.  1.
       -3    1    3    3    0  502  0.36942495560E+03  0.12343042177E+04 -0.12038444262E+04  0.17632989288E+04  0.10100000352E+00 0. -1.
</event>
<event>
 5   0  0.1302063E-05  0.2702556E+04  0.7818609E-02  0.8334176E-01
        2   -1    0    0  501    0  0.00000000000E+00  0.00000000000E+00  0.75462954960E+03  0.75462954961E+03  0.25500000920E-02 0. -1.
       -2   -1    0    0    0  501  0.00000000000E+00  0.00000000000E+00 -0.24196672542E+04  0.24196672542E+04  0.25500000920E-02 0.  1.
    10030    2    1    2    0    0  0.00000000000E+00  0.00000000000E+00 -0.16650377046E+04  0.31742968038E+04  0.27025561310E+04 0.  0.
        2    1    3    3  502    0 -0.42122145880E+03 -0.75072460182E+03  0.39089998244E+03  0.94541934686E+03  0.25500000920E-02 0. -1.
       -2    1    3    3    0  502  0.42122145880E+03  0.75072460182E+03 -0.20559376871E+04  0.22288774570E+04  0.25500000920E-02 0.  1.
</event>
<event>
 5   0  0.1388269E-05  0.2861350E+04  0.7818609E-02  0.8284471E-01
        2   -1    0    0  501    0  0.00000000000E+00  0.00000000000E+00  0.20085535283E+04  0.20085535283E+04  0.25500000920E-02 0.  1.
       -2   -1    0    0    0  501  0.00000000000E+00  0.00000000000E+00 -0.10190568844E+04  0.10190568844E+04  0.25500000920E-02 0. -1.
    10030    2    1    2    0    0  0.00000000000E+00  0.00000000000E+00  0.98949664394E+03  0.30276104127E+04  0.28613495422E+04 0.  0.
        1    1    3    3  502    0 -0.38998200379E+03 -0.75055864142E+02 -0.95956441932E+03  0.10385004674E+04  0.50400001928E-02 0. -1.
       -1    1    3    3    0  502  0.38998200379E+03  0.75055864142E+02  0.19490610633E+04  0.19891099453E+04  0.50400001928E-02 0.  1.
</event>
<event>
 5   0  0.1330962E-05  0.2824317E+04  0.7818609E-02  0.8295758E-01
        2   -1    0    0  501    0  0.00000000000E+00  0.00000000000E+00  0.17412908795E+04  0.17412908795E+04  0.25500000920E-02 0.  1.
       -2   -1    0    0    0  501  0.00000000000E+00  0.00000000000E+00 -0.11452373469E+04  0.11452373469E+04  0.25500000920E-02 0. -1.
    10030    2    1    2    0    0  0.00000000000E+00  0.00000000000E+00  0.59605353267E+03  0.28865282264E+04  0.28243168002E+04 0.  0.
        4    1    3    3  502    0 -0.11132298722E+04 -0.45732487154E+03  0.10530571403E+04  0.15991740806E+04  0.12699999809E+01 0.  1.
       -4    1    3    3    0  502  0.11132298722E+04  0.45732487154E+03 -0.45700360763E+03  0.12873541458E+04  0.12699999809E+01 0. -1.
</event>
<event>
 5   0  0.5023691E-06  0.2824249E+04  0.7818609E-02  0.8295779E-01
       -1   -1    0    0    0  501  0.00000000000E+00  0.00000000000E+00  0.12047801082E+04  0.12047801082E+04  0.50400001928E-02 0. -1.
        1   -1    0    0  501    0  0.00000000000E+00  0.00000000000E+00 -0.16551532183E+04  0.16551532183E+04  0.50400001928E-02 0.  1.
    10030    2    1    2    0    0  0.00000000000E+00  0.00000000000E+00 -0.45037311004E+03  0.28599333265E+04  0.28242490495E+04 0.  0.
        5    1    3    3  502    0  0.12002602635E+04  0.74278246548E+03 -0.26722118072E+03  0.14365861410E+04  0.46999998093E+01 0.  1.
       -5    1    3    3    0  502 -0.12002602635E+04 -0.74278246548E+03 -0.18315192932E+03  0.14233471855E+04  0.46999998093E+01 0. -1.
</event>
<event>
 5   0  0.1388269E-05  0.2826948E+04  0.7818609E-02  0.8294950E-01
        2   -1    0    0  501    0  0.00000000000E+00  0.00000000000E+00  0.24520494483E+04  0.24520494484E+04  0.25500000920E-02 0.  1.
       -2   -1    0    0    0  501  0.00000000000E+00  0.00000000000E+00 -0.81479156781E+03  0.81479156782E+03  0.25500000920E-02 0. -1.
    10030    2    1    2    0    0  0.00000000000E+00  0.00000000000E+00  0.16372578805E+04  0.32668410162E+04  0.28269483295E+04 0.  0.
        1    1    3    3  502    0 -0.76049549013E+03  0.87162842476E+03  0.17573201961E+04  0.21038687633E+04  0.50400001928E-02 0.  1.
       -1    1    3    3    0  502  0.76049549013E+03 -0.87162842476E+03 -0.12006231558E+03  0.11629722529E+04  0.50400001928E-02 0. -1.
</event>
<event>
 5   0  0.1350863E-05  0.2854130E+04  0.7818609E-02  0.8286658E-01
        2   -1    0    0  501    0  0.00000000000E+00  0.00000000000E+00  0.13657778460E+04  0.13657778460E+04  0.25500000920E-02 0.  1.
       -2   -1    0    0    0  501  0.00000000000E+00  0.00000000000E+00 -0.14911020548E+04  0.14911020548E+04  0.25500000920E-02 0. -1.
    10030    2    1    2    0    0  0.00000000000E+00  0.00000000000E+00 -0.12532420879E+03  0.28568799009E+04  0.28541297466E+04 0.  0.
        3    1    3    3  502    0 -0.11476647539E+04 -0.59102459480E+03 -0.67158180612E+03  0.14551517418E+04  0.10100000352E+00 0.  1.
       -3    1    3    3    0  502  0.11476647539E+04  0.59102459480E+03  0.54625759733E+03  0.14017281591E+04  0.10100000352E+00 0. -1.
</event>
<event>
 5   0  0.5281919E-06  0.2812374E+04  0.7818609E-02  0.8299437E-01
       -1   -1    0    0    0  501  0.00000000000E+00  0.00000000000E+00  0.85851031451E+03  0.85851031453E+03  0.50400001928E-02 0.  1.
        1   -1    0    0  501    0  0.00000000000E+00  0.00000000000E+00 -0.23032476545E+04  0.23032476545E+04  0.50400001928E-02 0. -1.
    10030    2    1    2    0    0  0.00000000000E+00  0.00000000000E+00 -0.14447373400E+04  0.31617579690E+04  0.28123739924E+04 0.  0.
        4    1    3    3  502    0 -0.67910760182E+03 -0.37541027982E+03  0.59602416717E+03  0.97845103802E+03  0.12699999809E+01 0.  1.
       -4    1    3    3    0  502  0.67910760182E+03  0.37541027982E+03 -0.20407615072E+04  0.21833069310E+04  0.12699999809E+01 0. -1.
</event>
<event>
 5   0  0.1283052E-05  0.2804717E+04  0.7818609E-02  0.8301805E-01
       -2   -1    0    0    0  501  0.00000000000E+00  0.00000000000E+00  0.89853131547E+03  0.89853131547E+03  0.25500000920E-02 0.  1.
        2   -1    0    0  501    0  0.00000000000E+00  0.00000000000E+00 -0.21886929844E+04  0.21886929844E+04  0.25500000920E-02 0. -1.
    10030    2    1    2    0    0  0.00000000000E+00  0.00000000000E+00 -0.12901616689E+04  0.30872242998E+04  0.28047168744E+04 0.  0.
        5    1    3    3  502    0  0.91279843932E+03  0.10623516882E+04 -0.56886007178E+03  0.15117592307E+04  0.46999998093E+01 0. -1.
       -5    1    3    3    0  502 -0.91279843932E+03 -0.10623516882E+04 -0.72130159711E+03  0.15754650692E+04  0.46999998093E+01 0.  1.
</event>
<event>
 5   0  0.1302063E-05  0.2763929E+04  0.7818609E-02  0.8314555E-01
        2   -1    0    0  501    0  0.00000000000E+00  0.00000000000E+00  0.21392542910E+04  0.21392542910E+04  0.25500000920E-02 0.  1.
       -2   -1    0    0    0  501  0.00000000000E+00  0.00000000000E+00 -0.89275291784E+03  0.89275291784E+03  0.25500000920E-02 0. -1.
    10030    2    1    2    0    0  0.00000000000E+00  0.00000000000E+00  0.12465013732E+04  0.30320072089E+04  0.27639287330E+04 0.  0.
        2    1    3    3  502    0 -0.33610674778E+03 -0.51670836579E+03 -0.73359570979E+03  0.95818471425E+03  0.25500000920E-02 0. -1.
       -2    1    3    3    0  502  0.33610674778E+03  0.51670836579E+03  0.19800970830E+04  0.20738224946E+04  0.25500000920E-02 0.  1.
</event>
<event>
 5   0  0.1302063E-05  0.2824818E+04  0.7818609E-02  0.8295604E-01
        2   -1    0    0  501    0  0.00000000000E+00  0.00000000000E+00  0.15160927958E+04  0.15160927958E+04  0.25500000920E-02 0. -1.
       -2   -1    0    0    0  501  0.00000000000E+00  0.00000000000E+00 -0.13158163243E+04  0.13158163243E+04  0.25500000920E-02 0.  1.
    10030    2    1    2    0    0  0.00000000000E+00  0.00000000000E+00  0.20027647150E+03  0.28319091200E+04  0.28248183303E+04 0.  0.
        2    1    3    3  502    0  0.12850550110E+04  0.52733427554E+03 -0.15633950966E+03  0.13978161044E+04  0.25500000920E-02 0. -1.
       -2    1    3    3    0  502 -0.12850550110E+04 -0.52733427554E+03  0.35661598116E+03  0.14340930156E+04  0.25500000920E-02 0.  1.
</event>
<event>
 5   0  0.4764214E-06  0.2657053E+04  0.7818609E-02  0.8349076E-01
        1   -1    0    0  501    0  0.00000000000E+00  0.00000000000E+00  0.21326765621E+04  0.21326765621E+04  0.50400001928E-02 0.  1.
       -1   -1    0    0    0  501  0.00000000000E+00  0.00000000000E+00 -0.82759032615E+03  0.82759032617E+03  0.50400001928E-02 0. -1.
    10030    2    1    2    0    0  0.00000000000E+00  0.00000000000E+00  0.13050862360E+04  0.29602668883E+04  0.26570528724E+04 0.  0.
        3    1    3    3  502    0 -0.78494858200E+03 -0.10585533698E+04  0.83997637985E+03  0.15627667267E+04  0.10100000352E+00 0.  1.
       -3    1    3    3    0  502  0.78494858200E+03  0.10585533698E+04  0.46510985612E+03  0.13975001616E+04  0.10100000352E+00 0. -1.
</event>
<event>
 5   0  0.5107453E-06  0.2252055E+04  0.7818609E-02  0.8497069E-01
        1   -1    0    0  501    0  0.00000000000E+00  0.00000000000E+00  0.13364085146E+04  0.13364085147E+04  0.50400001928E-02 0.  1.
       -1   -1    0    0    0  501  0.00000000000E+00  0.00000000000E+00 -0.94876545334E+03  0.94876545335E+03  0.50400001928E-02 0. -1.
    10030    2    1    2    0    0  0.00000000000E+00  0.00000000000E+00  0.38764306131E+03  0.22851739680E+04  0.22520552660E+04 0.  0.
        2    1    3    3  502    0 -0.23237093044E+03 -0.25248485142E+03 -0.89442090242E+03  0.95798413358E+03  0.25500000920E-02 0. -1.
       -2    1    3    3    0  502  0.23237093044E+03  0.25248485142E+03  0.12820639637E+04  0.13271898344E+04  0.25500000920E-02 0.  1.
</event>
<event>
 5   0  0.1388269E-05  0.2817895E+04  0.7818609E-02  0.8297734E-01
       -2   -1    0    0    0  501  0.00000000000E+00  0.00000000000E+00  0.83851857780E+03  0.83851857780E+03  0.25500000920E-02 0.  1.
        2   -1    0    0  501    0  0.00000000000E+00  0.00000000000E+00 -0.23674292324E+04  0.23674292324E+04  0.25500000920E-02 0. -1.
    10030    2    1    2    0    0  0.00000000000E+00  0.00000000000E+00 -0.15289106546E+04  0.32059478102E+04  0.28178952379E+04 0.  0.
        1    1    3    3  502    0 -0.11196808059E+04 -0.90227086217E+02 -0.17320490603E+04  0.20644175889E+04  0.50400001928E-02 0. -1.
       -1    1    3    3    0  502  0.11196808059E+04  0.90227086217E+02  0.20313840569E+03  0.11415302213E+04  0.50400001928E-02 0.  1.
</event>
<event>
 5   0  0.5107453E-06  0.2757156E+04  0.7818609E-02  0.8316695E-01
        1   -1    0    0  501    0  0.00000000000E+00  0.00000000000E+00  0.22954229551E+04  0.22954229551E+04  0.50400001928E-02 0. -1.
       -1   -1    0    0    0  501  0.00000000000E+00  0.00000000000E+00 -0.82794192279E+03  0.82794192280E+03  0.50400001928E-02 0.  1.
    10030    2    1    2    0    0  0.00000000000E+00  0.00000000000E+00  0.14674810323E+04  0.31233648779E+04  0.27571557048E+04 0.  0.
        2    1    3    3  502    0 -0.34917889645E+03  0.13221077392E+04  0.93184541660E+03  0.16547599996E+04  0.25500000920E-02 0. -1.
       -2    1    3    3    0  502  0.34917889645E+03 -0.13221077392E+04  0.53563561573E+03  0.14686048783E+04  0.25500000920E-02 0.  1.
</event>
<event>
 5   0  0.5023691E-06  0.2759883E+04  0.7818609E-02  0.8315833E-01
       -1   -1    0    0    0  501  0.00000000000E+00  0.00000000000E+00  0.21567016229E+04  0.21567016229E+04  0.50400001928E-02 0. -1.
        1   -1    0    0  501    0  0.00000000000E+00  0.00000000000E+00 -0.88293988800E+03  0.88293988801E+03  0.50400001928E-02 0.  1.
    10030    2    1    2    0    0  0.00000000000E+00  0.00000000000E+00  0.12737617349E+04  0.30396415109E+04  0.27598825260E+04 0.  0.
        5    1    3    3  502    0  0.11082818087E+03 -0.13537237579E+04  0.90522780516E+03  0.16322715361E+04  0.46999998093E+01 0.  1.
       -5    1    3    3    0  502 -0.11082818087E+03  0.13537237579E+04  0.36853392974E+03  0.14073699748E+04  0.46999998093E+01 0. -1.
</event>
<event>
 5   0  0.1283052E-05  0.2790736E+04  0.7818609E-02  0.8306150E-01
       -2   -1    0    0    0  501  0.00000000000E+00  0.00000000000E+00  0.13867565068E+04  0.13867565068E+04  0.25500000920E-02 0.  1.
        2   -1    0    0  501    0  0.00000000000E+00  0.00000000000E+00 -0.14040330659E+04  0.14040330659E+04  0.25500000920E-02 0. -1.
    10030    2    1    2    0    0  0.00000000000E+00  0.00000000000E+00 -0.17276559097E+02  0.27907895726E+04  0.27907360963E+04 0.  0.
        5    1    3    3  502    0  0.12961140023E+04  0.51660835481E+03 -0.23942184728E+02  0.13954895261E+04  0.46999998093E+01 0.  1.
       -5    1    3    3    0  502 -0.12961140023E+04 -0.51660835481E+03  0.66656256308E+01  0.13953000465E+04  0.46999998093E+01 0. -1.
</event>
<event>
 5   0  0.5107453E-06  0.2757211E+04  0.7818609E-02  0.8316677E-01
       -1   -1    0    0    0  501  0.00000000000E+00  0.00000000000E+00  0.11862102290E+04  0.11862102290E+04  0.50400001928E-02 0. -1.
        1   -1    0    0  501    0  0.00000000000E+00  0.00000000000E+00 -0.16022059533E+04  0.16022059533E+04  0.50400001928E-02 0.  1.
    10030    2    1    2    0    0  0.00000000000E+00  0.00000000000E+00 -0.41599572423E+03  0.27884161823E+04  0.27572109755E+04 0.  0.
        2    1    3    3  502    0  0.10220753878E+03  0.10583898196E+04 -0.10953780899E+04  0.15265937741E+04  0.25500000920E-02 0.  1.
       -2    1    3    3    0  502 -0.10220753878E+03 -0.10583898196E+04  0.67938236562E+03  0.12618224083E+04  0.25500000920E-02 0. -1.
</event>
<event>
 5   0  0.4764214E-06  0.2800317E+04  0.7818609E-02  0.8303170E-01
        1   -1    0    0  501    0  0.00000000000E+00  0.00000000000E+00  0.19285990980E+04  0.19285990980E+04  0.50400001928E-02 0.  1.
       -1   -1    0    0    0  501  0.00000000000E+00  0.00000000000E+00 -0.10165121527E+04  0.10165121527E+04  0.50400001928E-02 0. -1.
    10030    2    1    2    0    0  0.00000000000E+00  0.00000000000E+00  0.91208694527E+03  0.29451112507E+04  0.28003174254E+04 0.  0.
        3    1    3    3  502    0  0.95144015213E+03 -0.36758973192E+03  0.14648506015E+04  0.17849783945E+04  0.10100000352E+00 0.  1.
       -3    1    3    3    0  502 -0.95144015213E+03  0.36758973192E+03 -0.55276365620E+03  0.11601328561E+04  0.10100000352E+00 0. -1.
</event>
<event>
 5   0  0.5023691E-06  0.2805759E+04  0.7818609E-02  0.8301483E-01
        1   -1    0    0  501    0  0.00000000000E+00  0.00000000000E+00  0.17303182121E+04  0.17303182121E+04  0.50400001928E-02 0. -1.
       -1   -1    0    0    0  501  0.00000000000E+00  0.00000000000E+00 -0.11374038824E+04  0.11374038824E+04  0.50400001928E-02 0.  1.
    10030    2    1    2    0    0  0.00000000000E+00  0.00000000000E+00  0.59291432972E+03  0.28677220945E+04  0.28057588294E+04 0.  0.
        5    1    3    3  502    0 -0.44565385231E+03 -0.37095187454E+03 -0.10091874068E+04  0.11639132104E+04  0.46999998093E+01 0. -1.
       -5    1    3    3    0  502  0.44565385231E+03  0.37095187454E+03  0.16021017365E+04  0.17038088841E+04  0.46999998093E+01 0.  1.
</event>
<event>
 5   0  0.1302063E-05  0.2834288E+04  0.7818609E-02  0.8292702E-01
        2   -1    0    0  501    0  0.00000000000E+00  0.00000000000E+00  0.28218632864E+04  0.28218632864E+04  0.25500000920E-02 0.  1.
       -2   -1    0    0    0  501  0.00000000000E+00  0.00000000000E+00 -0.71169198015E+03  0.71169198015E+03  0.25500000920E-02 0. -1.
    10030    2    1    2    0    0  0.00000000000E+00  0.00000000000E+00  0.21101713062E+04  0.35335552665E+04  0.28342882493E+04 0.  0.
        2    1    3    3  502    0 -0.97551510256E+02 -0.11046897761E+04  0.21550558296E+04  0.24236586862E+04  0.25500000920E-02 0.  1.
       -2    1    3    3    0  502  0.97551510256E+02  0.11046897761E+04 -0.44884523420E+02  0.11098965803E+04  0.25500000920E-02 0. -1.
</event>
<event>
 5   0  0.1388269E-05  0.2811080E+04  0.7818609E-02  0.8299837E-01
        2   -1    0    0  501    0  0.00000000000E+00  0.00000000000E+00  0.16017131109E+04  0.16017131109E+04  0.25500000920E-02 0. -1.
       -2   -1    0    0    0  501  0.00000000000E+00  0.00000000000E+00 -0.12333938924E+04  0.12333938924E+04  0.25500000920E-02 0.  1.
    10030    2    1    2    0    0  0.00000000000E+00  0.00000000000E+00  0.36831921850E+03  0.28351070033E+04  0.28110803392E+04 0.  0.
        1    1    3    3  502    0  0.32452971355E+03  0.13530816487E+04 -0.16015236818E+02  0.13915480483E+04  0.50400001928E-02 0.  1.
       -1    1    3    3    0  502 -0.32452971355E+03 -0.13530816487E+04  0.38433445531E+03  0.14435589550E+04  0.50400001928E-02 0. -1.
</event>
<event>
 5   0  0.4764214E-06  0.2757296E+04  0.7818609E-02  0.8316650E-01
       -1   -1    0    0    0  501  0.00000000000E+00  0.00000000000E+00  0.13539582806E+04  0.13539582806E+04  0.50400001928E-02 0. -1.
        1   -1    0    0  501    0  0.00000000000E+00  0.00000000000E+00 -0.14037879611E+04  0.14037879611E+04  0.50400001928E-02 0.  1.
    10030    2    1    2    0    0  0.00000000000E+00  0.00000000000E+00 -0.49829680486E+02  0.27577462417E+04  0.27572960190E+04 0.  0.
        3    1    3    3  502    0  0.12117942648E+04  0.37456868269E+03 -0.56530231825E+03  0.13886373750E+04  0.10100000352E+00 0.  1.
       -3    1    3    3    0  502 -0.12117942648E+04 -0.37456868269E+03  0.51547263777E+03  0.13691088666E+04  0.10100000352E+00 0. -1.
</event>
<event>
 5   0  0.1388269E-05  0.2904962E+04  0.7818609E-02  0.8271403E-01
        2   -1    0    0  501    0  0.00000000000E+00  0.00000000000E+00  0.21182613169E+04  0.21182613170E+04  0.25500000920E-02 0. -1.
       -2   -1    0    0    0  501  0.00000000000E+00  0.00000000000E+00 -0.99595900711E+03  0.99595900711E+03  0.25500000920E-02 0.  1.
    10030    2    1    2    0    0  0.00000000000E+00  0.00000000000E+00  0.11223023098E+04  0.31142203241E+04  0.29049622635E+04 0.  0.
        1    1    3    3  502    0 -0.10502648452E+04  0.16794660705E+03 -0.49926356090E+03  0.11749580465E+04  0.50400001928E-02 0.  1.
       -1    1    3    3    0  502  0.10502648452E+04 -0.16794660705E+03  0.16215658707E+04  0.19392622775E+04  0.50400001928E-02 0. -1.
</event>
<event>
 5   0  0.1388269E-05  0.2769992E+04  0.7818609E-02  0.8312646E-01
       -2   -1    0    0    0  501  0.00000000000E+00  0.00000000000E+00  0.15327739679E+04  0.15327739679E+04  0.25500000920E-02 0. -1.
        2   -1    0    0  501    0  0.00000000000E+00  0.00000000000E+00 -0.12514654541E+04  0.12514654541E+04  0.25500000920E-02 0.  1.
    10030    2    1    2    0    0  0.00000000000E+00  0.00000000000E+00  0.28130851372E+03  0.27842394220E+04  0.27699918193E+04 0.  0.
        1    1    3    3  502    0  0.31591787332E+03 -0.11008358566E+04  0.92348621990E+03  0.14712139492E+04  0.50400001928E-02 0. -1.
       -1    1    3    3    0  502 -0.31591787332E+03  0.11008358566E+04 -0.64217770618E+03  0.13130254728E+04  0.50400001928E-02 0.  1.
</event>
<event>
 5   0  0.1283052E-05  0.2691051E+04  0.7818609E-02  0.8337914E-01
        2   -1    0    0  501    0  0.00000000000E+00  0.00000000000E+00  0.11743244133E+04  0.11743244133E+04  0.25500000920E-02 0.  1.
       -2   -1    0    0    0  501  0.00000000000E+00  0.00000000000E+00 -0.15416853363E+04  0.15416853363E+04  0.25500000920E-02 0. -1.
    10030    2    1    2    0    0  0.00000000000E+00  0.00000000000E+00 -0.36736092302E+03  0.27160097497E+04  0.26910508937E+04 0.  0.
        5    1    3    3  502    0 -0.12349034786E+04 -0.34279834804E+03  0.22989975749E+03  0.13020650127E+04  0.46999998093E+01 0.  1.
       -5    1    3    3    0  502  0.12349034786E+04  0.34279834804E+03 -0.59726068051E+03  0.14139447370E+04  0.46999998093E+01 0. -1.
</event>
<event>
 5   0  0.1350863E-05  0.2742760E+04  0.7818609E-02  0.8321263E-01
       -2   -1    0    0    0  501  0.00000000000E+00  0.00000000000E+00  0.11807892800E+04  0.11807892800E+04  0.25500000920E-02 0.  1.
        2   -1    0    0  501    0  0.00000000000E+00  0.00000000000E+00 -0.15927341318E+04  0.15927341318E+04  0.25500000920E-02 0. -1.
    10030    2    1    2    0    0  0.00000000000E+00  0.00000000000E+00 -0.41194485183E+03  0.27735234119E+04  0.27427602074E+04 0.  0.
        3    1    3    3  502    0 -0.68922471127E+03  0.14651298947E+03 -0.13956829946E+04  0.15634665940E+04  0.10100000352E+00 0. -1.
       -3    1    3    3    0  502  0.68922471127E+03 -0.14651298947E+03  0.98373814282E+03  0.12100568179E+04  0.10100000352E+00 0.  1.
</event>
<event>
 5   0  0.5217999E-06  0.2488539E+04  0.7818609E-02  0.8407080E-01
        1   -1    0    0  501    0  0.00000000000E+00  0.00000000000E+00  0.16745857234E+04  0.16745857234E+04  0.50400001928E-02 0. -1.
       -1   -1    0    0    0  501  0.00000000000E+00  0.00000000000E+00 -0.92453141082E+03  0.92453141083E+03  0.50400001928E-02 0.  1.
    10030    2    1    2    0    0  0.00000000000E+00  0.00000000000E+00  0.75005431262E+03  0.25991171343E+04  0.24885394122E+04 0.  0.
        1    1    3    3  502    0 -0.65501973785E+03  0.33088445640E+03 -0.67444621935E+03  0.99670110027E+03  0.50400001928E-02 0.  1.
       -1    1    3    3    0  502  0.65501973785E+03 -0.33088445640E+03  0.14245005320E+04  0.16024160340E+04  0.50400001928E-02 0. -1.
</event>
<event>
 5   0  0.5217999E-06  0.2801756E+04  0.7818609E-02  0.8302723E-01
        1   -1    0    0  501    0  0.00000000000E+00  0.00000000000E+00  0.16524147654E+04  0.16524147654E+04  0.50400001928E-02 0.  1.
       -1   -1    0    0    0  501  0.00000000000E+00  0.00000000000E+00 -0.11876311043E+04  0.11876311043E+04  0.50400001928E-02 0. -1.
    10030    2    1    2    0    0  0.00000000000E+00  0.00000000000E+00  0.46478366111E+03  0.28400458697E+04  0.28017560012E+04 0.  0.
        1    1    3    3  502    0  0.10532326959E+04  0.71222127424E+03  0.82856290452E+03  0.15175884627E+04  0.50400001928E-02 0.  1.
       -1    1    3    3    0  502 -0.10532326959E+04 -0.71222127424E+03 -0.36377924341E+03  0.13224574070E+04  0.50400001928E-02 0. -1.
</event>
<event>
 5   0  0.5217999E-06  0.2777007E+04  0.7818609E-02  0.8310443E-01
       -1   -1    0    0    0  501  0.00000000000E+00  0.00000000000E+00  0.79622039339E+03  0.79622039340E+03  0.50400001928E-02 0. -1.
        1   -1    0    0  501    0  0.00000000000E+00  0.00000000000E+00 -0.24213668129E+04  0.24213668129E+04  0.50400001928E-02 0.  1.
    10030    2    1    2    0    0  0.00000000000E+00  0.00000000000E+00 -0.16251464195E+04  0.32175872063E+04  0.27770067600E+04 0.  0.
        1    1    3    3  502    0 -0.27534261711E+03  0.69985017255E+03  0.53979762251E+03  0.92573500210E+03  0.50400001928E-02 0. -1.
       -1    1    3    3    0  502  0.27534261711E+03 -0.69985017255E+03 -0.21649440420E+04  0.22918522042E+04  0.50400001928E-02 0.  1.
</event>
<event>
 5   0  0.1283052E-05  0.2840795E+04  0.7818609E-02  0.8290714E-01
       -2   -1    0    0    0  501  0.00000000000E+00  0.00000000000E+00  0.17569668840E+04  0.17569668840E+04  0.25500000920E-02 0.  1.
        2   -1    0    0  501    0  0.00000000000E+00  0.00000000000E+00 -0.11483026694E+04  0.11483026694E+04  0.25500000920E-02 0. -1.
    10030    2    1    2    0    0  0.00000000000E+00  0.00000000000E+00  0.60866421454E+03  0.29052695534E+04  0.28407954963E+04 0.  0.
        5    1    3    3  502    0 -0.11729895854E+04 -0.14488864737E+03 -0.50133564603E+03  0.12838445418E+04  0.46999998093E+01 0. -1.
       -5    1    3    3    0  502  0.11729895854E+04  0.14488864737E+03  0.11099998606E+04  0.16214250115E+04  0.46999998093E+01 0.  1.
</event>
<event>
 5   0  0.1388269E-05  0.2823622E+04  0.7818609E-02  0.8295972E-01
       -2   -1    0    0    0  501  0.00000000000E+00  0.00000000000E+00  0.24362045309E+04  0.24362045309E+04  0.25500000920E-02 0. -1.
        2   -1    0    0  501    0  0.00000000000E+00  0.00000000000E+00 -0.81816185796E+03  0.81816185797E+03  0.25500000920E-02 0.  1.
    10030    2    1    2    0    0  0.00000000000E+00  0.00000000000E+00  0.16180426730E+04  0.32543663889E+04  0.28236215224E+04 0.  0.
        1    1    3    3  502    0 -0.22576513965E+03  0.15366036467E+02  0.24151671831E+04  0.24257449445E+04  0.50400001928E-02 0. -1.
       -1    1    3    3    0  502  0.22576513965E+03 -0.15366036467E+02 -0.79712451016E+03  0.82862144438E+03  0.50400001928E-02 0.  1.
</event>
<event>
 5   0  0.5023691E-06  0.2811271E+04  0.7818609E-02  0.8299778E-01
        1   -1    0    0  501    0  0.00000000000E+00  0.00000000000E+00  0.10189537358E+04  0.10189537359E+04  0.50400001928E-02 0. -1.
       -1   -1    0    0    0  501  0.00000000000E+00  0.00000000000E+00 -0.19390590566E+04  0.19390590566E+04  0.50400001928E-02 0.  1.
    10030    2    1    2    0    0  0.00000000000E+00  0.00000000000E+00 -0.92010532076E+03  0.29580127925E+04  0.28112712212E+04 0.  0.
        5    1    3    3  502    0  0.86722720969E+03  0.98987122220E+03  0.59546872925E+02  0.13173822489E+04  0.46999998093E+01 0. -1.
       -5    1    3    3    0  502 -0.86722720969E+03 -0.98987122220E+03 -0.97965219368E+03  0.16406305435E+04  0.46999998093E+01 0.  1.
</event>
<event>
 5   0  0.4764214E-06  0.2822711E+04  0.7818609E-02  0.8296252E-01
       -1   -1    0    0    0  501  0.00000000000E+00  0.00000000000E+00  0.86152956906E+03  0.86152956908E+03  0.50400001928E-02 0. -1.
        1   -1    0    0  501    0  0.00000000000E+00  0.00000000000E+00 -0.23120782837E+04  0.23120782837E+04  0.50400001928E-02 0.  1.
    10030    2    1    2    0    0  0.00000000000E+00  0.00000000000E+00 -0.14505487147E+04  0.31736078528E+04  0.28227106174E+04 0.  0.
        3    1    3    3  502    0 -0.64263176280E+03  0.35413960204E+03  0.63022528294E+03  0.96725092802E+03  0.10100000352E+00 0. -1.
       -3    1    3    3    0  502  0.64263176280E+03 -0.35413960204E+03 -0.20807739976E+04  0.22063569248E+04  0.10100000352E+00 0.  1.
</event>
<event>
 5   0  0.1388269E-05  0.2736413E+04  0.7818609E-02  0.8323286E-01
        2   -1    0    0  501    0  0.00000000000E+00  0.00000000000E+00  0.23047908562E+04  0.23047908562E+04  0.25500000920E-02 0. -1.
       -2   -1    0    0    0  501  0.00000000000E+00  0.00000000000E+00 -0.81221618270E+03  0.81221618270E+03  0.25500000920E-02 0.  1.
    10030    2    1    2    0    0  0.00000000000E+00  0.00000000000E+00  0.14925746735E+04  0.31170070389E+04  0.27364125648E+04 0.  0.
        1    1    3    3  502    0 -0.63860380036E+03 -0.38894681573E+03  0.20514692221E+04  0.21834881287E+04  0.50400001928E-02 0. -1.
       -1    1    3    3    0  502  0.63860380036E+03  0.38894681573E+03 -0.55889454852E+03  0.93351891020E+03  0.50400001928E-02 0.  1.
</event>
<event>
 5   0  0.4764214E-06  0.2815888E+04  0.7818609E-02  0.8298353E-01
        1   -1    0    0  501    0  0.00000000000E+00  0.00000000000E+00  0.14338302209E+04  0.14338302209E+04  0.50400001928E-02 0.  1.
       -1   -1    0    0    0  501  0.00000000000E+00  0.00000000000E+00 -0.13825253469E+04  0.13825253469E+04  0.50400001928E-02 0. -1.
    10030    2    1    2    0    0  0.00000000000E+00  0.00000000000E+00  0.51304873944E+02  0.28163555678E+04  0.28158882248E+04 0.  0.
        3    1    3    3  502    0  0.12917022547E+04  0.84503172960E+02  0.57952328386E+03  0.14182675163E+04  0.10100000352E+00 0.  1.
       -3    1    3    3    0  502 -0.12917022547E+04 -0.84503172960E+02 -0.52821840991E+03  0.13980880515E+04  0.10100000352E+00 0. -1.
</event>
<event>
 5   0  0.5107453E-06  0.2890897E+04  0.7818609E-02  0.8275591E-01
        1   -1    0    0  501    0  0.00000000000E+00  0.00000000000E+00  0.17291024774E+04  0.17291024774E+04  0.50400001928E-02 0. -1.
       -1   -1    0    0    0  501  0.00000000000E+00  0.00000000000E+00 -0.12083269426E+04  0.12083269426E+04  0.50400001928E-02 0.  1.
    10030    2    1    2    0    0  0.00000000000E+00  0.00000000000E+00  0.52077553485E+03  0.29374294200E+04  0.28908968228E+04 0.  0.
        2    1    3    3  502    0  0.92775421295E+03  0.19354549799E+03  0.13693456299E+04  0.16653213485E+04  0.25500000920E-02 0. -1.
       -2    1    3    3    0  502 -0.92775421295E+03 -0.19354549799E+03 -0.84857009507E+03  0.12721080715E+04  0.25500000920E-02 0.  1.
</event>
<event>
 5   0  0.5281919E-06  0.2878802E+04  0.7818609E-02  0.8279213E-01
       -1   -1    0    0    0  501  0.00000000000E+00  0.00000000000E+00  0.16448921759E+04  0.16448921759E+04  0.50400001928E-02 0.  1.
        1   -1    0    0  501    0  0.00000000000E+00  0.00000000000E+00 -0.12595812507E+04  0.12595812507E+04  0.50400001928E-02 0. -1.
    10030    2    1    2    0    0  0.00000000000E+00  0.00000000000E+00  0.38531092526E+03  0.29044734266E+04  0.28788020732E+04 0.  0.
        4    1    3    3  502    0 -0.74940854421E+03  0.47745728205E+03  0.13351380601E+04  0.16037998237E+04  0.12699999809E+01 0.  1.
       -4    1    3    3    0  502  0.74940854421E+03 -0.47745728205E+03 -0.94982713479E+03  0.13006736029E+04  0.12699999809E+01 0. -1.
</event>
<event>
 5   0  0.5281919E-06  0.2902856E+04  0.7818609E-02  0.8272028E-01
        1   -1    0    0  501    0  0.00000000000E+00  0.00000000000E+00  0.16093958372E+04  0.16093958372E+04  0.50400001928E-02 0. -1.
       -1   -1    0    0    0  501  0.00000000000E+00  0.00000000000E+00 -0.13089652770E+04  0.13089652770E+04  0.50400001928E-02 0.  1.
    10030    2    1    2    0    0  0.00000000000E+00  0.00000000000E+00  0.30043056025E+03  0.29183611142E+04  0.29028560198E+04 0.  0.
        4    1    3    3  502    0 -0.90862044946E+03 -0.10664820358E+04 -0.23084303528E+03  0.14199525251E+04  0.12699999809E+01 0.  1.
       -4    1    3    3    0  502  0.90862044946E+03  0.10664820358E+04  0.53127359552E+03  0.14984085891E+04  0.12699999809E+01 0. -1.
</event>
<event>
 5   0  0.5217999E-06  0.2820420E+04  0.7818609E-02  0.8296957E-01
       -1   -1    0    0    0  501  0.00000000000E+00  0.00000000000E+00  0.19908790511E+04  0.19908790511E+04  0.50400001928E-02 0. -1.
        1   -1    0    0  501    0  0.00000000000E+00  0.00000000000E+00 -0.99890187141E+03  0.99890187142E+03  0.50400001928E-02 0.  1.
    10030    2    1    2    0    0  0.00000000000E+00  0.00000000000E+00  0.99197717966E+03  0.29897809225E+04  0.28204204012E+04 0.  0.
        1    1    3    3  502    0  0.10946021259E+04  0.48168577458E+03 -0.29622818172E+03  0.12320414502E+04  0.50400001928E-02 0. -1.
       -1    1    3    3    0  502 -0.10946021259E+04 -0.48168577458E+03  0.12882053614E+04  0.17577394723E+04  0.50400001928E-02 0.  1.
</event>
<event>
 5   0  0.4764214E-06  0.2725565E+04  0.7818609E-02  0.8326757E-01
        1   -1    0    0  501    0  0.00000000000E+00  0.00000000000E+00  0.17239997870E+04  0.17239997870E+04  0.50400001928E-02 0. -1.
       -1   -1    0    0    0  501  0.00000000000E+00  0.00000000000E+00 -0.10772484800E+04  0.10772484800E+04  0.50400001928E-02 0.  1.
    10030    2    1    2    0    0  0.00000000000E+00  0.00000000000E+00  0.64675130698E+03  0.28012482670E+04  0.27255650057E+04 0.  0.
        3    1    3    3  502    0  0.80658470033E+03 -0.56925510940E+03 -0.64214974517E+03  0.11777039372E+04  0.10100000352E+00 0.  1.
       -3    1    3    3    0  502 -0.80658470033E+03  0.56925510940E+03  0.12889010521E+04  0.16235443298E+04  0.10100000352E+00 0. -1.
</event>
<event>
 5   0  0.5281919E-06  0.2840266E+04  0.7818609E-02  0.8290875E-01
       -1   -1    0    0    0  501  0.00000000000E+00  0.00000000000E+00  0.81967073110E+03  0.81967073112E+03  0.50400001928E-02 0.  1.
        1   -1    0    0  501    0  0.00000000000E+00  0.00000000000E+00 -0.24604728547E+04  0.24604728547E+04  0.50400001928E-02 0. -1.
    10030    2    1    2    0    0  0.00000000000E+00  0.00000000000E+00 -0.16408021236E+04  0.32801435858E+04  0.28402658915E+04 0.  0.
        4    1    3    3  502    0  0.13621098306E+04  0.36222086982E+03 -0.10211921645E+04  0.17405120508E+04  0.12699999809E+01 0. -1.
       -4    1    3    3    0  502 -0.13621098306E+04 -0.36222086982E+03 -0.61960995909E+03  0.15396315350E+04  0.12699999809E+01 0.  1.
</event>
<event>
 5   0  0.1283052E-05  0.2771059E+04  0.7818609E-02  0.8312310E-01
       -2   -1    0    0    0  501  0.00000000000E+00  0.00000000000E+00  0.10277169490E+04  0.10277169490E+04  0.25500000920E-02 0. -1.
        2   -1    0    0  501    0  0.00000000000E+00  0.00000000000E+00 -0.18679195602E+04  0.18679195602E+04  0.25500000920E-02 0.  1.
    10030    2    1    2    0    0  0.00000000000E+00  0.00000000000E+00 -0.84020261124E+03  0.28956365092E+04  0.27710594302E+04 0.  0.
        5    1    3    3  502    0 -0.45150652718E+03 -0.12959110355E+04 -0.22066253835E+03  0.13899487767E+04  0.46999998093E+01 0. -1.
       -5    1    3    3    0  502  0.45150652718E+03  0.12959110355E+04 -0.61954007289E+03  0.15056877325E+04  0.46999998093E+01 0.  1.
</event>
<event>
 5   0  0.5107453E-06  0.2793581E+04  0.7818609E-02  0.8305264E-01
       -1   -1    0    0    0  501  0.00000000000E+00  0.00000000000E+00  0.12497007541E+04  0.12497007541E+04  0.50400001928E-02 0.  1.
        1   -1    0    0  501    0  0.00000000000E+00  0.00000000000E+00 -0.15611921548E+04  0.15611921548E+04  0.50400001928E-02 0. -1.
    10030    2    1    2    0    0  0.00000000000E+00  0.00000000000E+00 -0.31149140069E+03  0.28108929089E+04  0.27935805076E+04 0.  0.
        2    1    3    3  502    0 -0.21890880538E+03  0.10647680008E+03 -0.15396837819E+04  0.15588086868E+04  0.25500000920E-02 0. -1.
       -2    1    3    3    0  502  0.21890880538E+03 -0.10647680008E+03  0.12281923812E+04  0.12520842221E+04  0.25500000920E-02 0.  1.
</event>
<event>
 5   0  0.4764214E-06  0.2855034E+04  0.7818609E-02  0.8286383E-01
        1   -1    0    0  501    0  0.00000000000E+00  0.00000000000E+00  0.25947962931E+04  0.25947962931E+04  0.50400001928E-02 0. -1.
       -1   -1    0    0    0  501  0.00000000000E+00  0.00000000000E+00 -0.78534306761E+03  0.78534306763E+03  0.50400001928E-02 0.  1.
    10030    2    1    2    0    0  0.00000000000E+00  0.00000000000E+00  0.18094532255E+04  0.33801393607E+04  0.28550343470E+04 0.  0.
        3    1    3    3  502    0  0.11992791320E+04 -0.76356437421E+03  0.10568239348E+04  0.17714902849E+04  0.10100000352E+00 0.  1.
       -3    1    3    3    0  502 -0.11992791320E+04  0.76356437421E+03  0.75262929065E+03  0.16086490759E+04  0.10100000352E+00 0. -1.
</event>
<event>
 5   0  0.5107453E-06  0.2802094E+04  0.7818609E-02  0.8302618E-01
       -1   -1    0    0    0  501  0.00000000000E+00  0.00000000000E+00  0.14293070170E+04  0.14293070170E+04  0.50400001928E-02 0. -1.
        1   -1    0    0  501    0  0.00000000000E+00  0.00000000000E+00 -0.13733461379E+04  0.13733461379E+04  0.50400001928E-02 0.  1.
    10030    2    1    2    0    0  0.00000000000E+00  0.00000000000E+00  0.55960879124E+02  0.28026531549E+04  0.28020944107E+04 0.  0.
        2    1    3    3  502    0  0.78400458544E+03  0.11397978351E+03 -0.11277925741E+04  0.13782491325E+04  0.25500000920E-02 0.  1.
       -2    1    3    3    0  502 -0.78400458544E+03 -0.11397978351E+03  0.11837534532E+04  0.14244040224E+04  0.25500000920E-02 0. -1.
</event>
<event>
 5   0  0.1388269E-05  0.2671945E+04  0.7818609E-02  0.8344166E-01
        2   -1    0    0  501    0  0.00000000000E+00  0.00000000000E+00  0.17133167211E+04  0.17133167211E+04  0.25500000920E-02 0. -1.
       -2   -1    0    0    0  501  0.00000000000E+00  0.00000000000E+00 -0.10417351241E+04  0.10417351241E+04  0.25500000920E-02 0.  1.
    10030    2    1    2    0    0  0.00000000000E+00  0.00000000000E+00  0.67158159701E+03  0.27550518452E+04  0.26719447652E+04 0.  0.
        1    1    3    3  502    0  0.55966328320E+03  0.11623870900E+04 -0.22071182948E+02  0.12902921664E+04  0.50400001928E-02 0.  1.
       -1    1    3    3    0  502 -0.55966328320E+03 -0.11623870900E+04  0.69365277996E+03  0.14647596788E+04  0.50400001928E-02 0. -1.
</event>
<event>
 5   0  0.5217999E-06  0.2747722E+04  0.7818609E-02  0.8319685E-01
        1   -1    0    0  501    0  0.00000000000E+00  0.00000000000E+00  0.17967903165E+04  0.17967903165E+04  0.50400001928E-02 0.  1.
       -1   -1    0    0    0  501  0.00000000000E+00  0.00000000000E+00 -0.10504812829E+04  0.10504812829E+04  0.50400001928E-02 0. -1.
    10030    2    1    2    0    0  0.00000000000E+00  0.00000000000E+00  0.74630903358E+03  0.28472715994E+04  0.27477223999E+04 0.  0.
        1    1    3    3  502    0 -0.18387416611E+03 -0.11548638122E+04 -0.37406300897E+03  0.12277798126E+04  0.50400001928E-02 0. -1.
       -1    1    3    3    0  502  0.18387416611E+03  0.11548638122E+04  0.11203720426E+04  0.16194917868E+04  0.50400001928E-02 0.  1.
</event>
<event>
 5   0  0.1302063E-05  0.2780790E+04  0.7818609E-02  0.8309257E-01
        2   -1    0    0  501    0  0.00000000000E+00  0.00000000000E+00  0.19983536656E+04  0.19983536656E+04  0.25500000920E-02 0.  1.
       -2   -1    0    0    0  501  0.00000000000E+00  0.00000000000E+00 -0.96739517309E+03  0.96739517309E+03  0.25500000920E-02 0. -1.
    10030    2    1    2    0    0  0.00000000000E+00  0.00000000000E+00  0.10309584925E+04  0.29657488387E+04  0.27807895930E+04 0.  0.
        2    1    3    3  502    0  0.33540468684E+03 -0.23058615439E+03  0.19333929826E+04  0.19757719260E+04  0.25500000920E-02 0.  1.
       -2    1    3    3    0  502 -0.33540468684E+03  0.23058615439E+03 -0.90243449012E+03  0.98997691262E+03  0.25500000920E-02 0. -1.
</event>
<event>
 5   0  0.5023691E-06  0.2801708E+04  0.7818609E-02  0.8302738E-01
       -1   -1    0    0    0  501  0.00000000000E+00  0.00000000000E+00  0.21451104360E+04  0.21451104360E+04  0.50400001928E-02 0. -1.
        1   -1    0    0  501    0  0.00000000000E+00  0.00000000000E+00 -0.91482086678E+03  0.91482086679E+03  0.50400001928E-02 0.  1.
    10030    2    1    2    0    0  0.00000000000E+00  0.00000000000E+00  0.12302895692E+04  0.30599313028E+04  0.28017078994E+04 0.  0.
        5    1    3    3  502    0 -0.12477156362E+04 -0.61709228821E+02  0.13074157987E+04  0.18083032098E+04  0.46999998093E+01 0. -1.
       -5    1    3    3    0  502  0.12477156362E+04  0.61709228821E+02 -0.77126229537E+02  0.12516280930E+04  0.46999998093E+01 0.  1.
</event>
<event>
 5   0  0.5217999E-06  0.2836325E+04  0.7818609E-02  0.8292079E-01
        1   -1    0    0  501    0  0.00000000000E+00  0.00000000000E+00  0.20062049187E+04  0.20062049187E+04  0.50400001928E-02 0.  1.
       -1   -1    0    0    0  501  0.00000000000E+00  0.00000000000E+00 -0.10024823506E+04  0.10024823506E+04  0.50400001928E-02 0. -1.
    10030    2    1    2    0    0  0.00000000000E+00  0.00000000000E+00  0.10037225680E+04  0.30086872693E+04  0.28363251032E+04 0.  0.
        1    1    3    3  502    0 -0.10871144127E+04  0.47068099842E+03  0.13288715814E+04  0.17802410029E+04  0.50400001928E-02 0.  1.
       -1    1    3    3    0  502  0.10871144127E+04 -0.47068099842E+03 -0.32514901342E+03  0.12284462664E+04  0.50400001928E-02 0. -1.
</event>
<event>
 5   0  0.4764214E-06  0.2893120E+04  0.7818609E-02  0.8274928E-01
       -1   -1    0    0    0  501  0.00000000000E+00  0.00000000000E+00  0.15406816961E+04  0.15406816961E+04  0.50400001928E-02 0. -1.
        1   -1    0    0  501    0  0.00000000000E+00  0.00000000000E+00 -0.13581878350E+04  0.13581878350E+04  0.50400001928E-02 0.  1.
    10030    2    1    2    0    0  0.00000000000E+00  0.00000000000E+00  0.18249386114E+03  0.28988695311E+04  0.28931195187E+04 0.  0.
        3    1    3    3  502    0 -0.13576327821E+04 -0.83974569766E+02 -0.40198808746E+03  0.14183839156E+04  0.10100000352E+00 0.  1.
       -3    1    3    3    0  502  0.13576327821E+04  0.83974569766E+02  0.58448194860E+03  0.14804856155E+04  0.10100000352E+00 0. -1.
</event>
<event>
 5   0  0.1350863E-05  0.2851732E+04  0.7818609E-02  0.8287385E-01
        2   -1    0    0  501    0  0.00000000000E+00  0.00000000000E+00  0.19136082623E+04  0.19136082623E+04  0.25500000920E-02 0.  1.
       -2   -1    0    0    0  501  0.00000000000E+00  0.00000000000E+00 -0.10624398534E+04  0.10624398534E+04  0.25500000920E-02 0. -1.
    10030    2    1    2    0    0  0.00000000000E+00  0.00000000000E+00  0.85116840887E+03  0.29760481157E+04  0.28517318820E+04 0.  0.
        3    1    3    3  502    0  0.21307596135E+03  0.10274293960E+04 -0.58194610127E+03  0.11998640773E+04  0.10100000352E+00 0. -1.
       -3    1    3    3    0  502 -0.21307596135E+03 -0.10274293960E+04  0.14331145101E+04  0.17761840384E+04  0.10100000352E+00 0.  1.
</event>
<event>
 5   0  0.1330962E-05  0.2815952E+04  0.7818609E-02  0.8298333E-01
       -2   -1    0    0    0  501  0.00000000000E+00  0.00000000000E+00  0.93037200143E+03  0.93037200143E+03  0.25500000920E-02 0. -1.
        2   -1    0    0  501    0  0.00000000000E+00  0.00000000000E+00 -0.21307562719E+04  0.21307562719E+04  0.25500000920E-02 0.  1.
    10030    2    1    2    0    0  0.00000000000E+00  0.00000000000E+00 -0.12003842705E+04  0.30611282734E+04  0.28159516880E+04 0.  0.
        4    1    3    3  502    0  0.72287112280E+03 -0.10087787504E+04  0.12270102115E+03  0.12470903660E+04  0.12699999809E+01 0. -1.
       -4    1    3    3    0  502 -0.72287112280E+03  0.10087787504E+04 -0.13230852916E+04  0.18140379074E+04  0.12699999809E+01 0.  1.
</event>
<event>
 5   0  0.5217999E-06  0.2784118E+04  0.7818609E-02  0.8308216E-01
        1   -1    0    0  501    0  0.00000000000E+00  0.00000000000E+00  0.15066229821E+04  0.15066229821E+04  0.50400001928E-02 0.  1.
       -1   -1    0    0    0  501  0.00000000000E+00  0.00000000000E+00 -0.12862063072E+04  0.12862063073E+04  0.50400001928E-02 0. -1.
    10030    2    1    2    0    0  0.00000000000E+00  0.00000000000E+00  0.22041667489E+03  0.27928292894E+04  0.27841178009E+04 0.  0.
        1    1    3    3  502    0 -0.61548754568E+03  0.73571475864E+03  0.11221894363E+04  0.14762825800E+04  0.50400001928E-02 0.  1.
       -1    1    3    3    0  502  0.61548754568E+03 -0.73571475864E+03 -0.90177276138E+03  0.13165467094E+04  0.50400001928E-02 0. -1.
</event>
<event>
 5   0  0.5023691E-06  0.2794686E+04  0.7818609E-02  0.8304920E-01
       -1   -1    0    0    0  501  0.00000000000E+00  0.00000000000E+00  0.11771827273E+04  0.11771827273E+04  0.50400001928E-02 0.  1.
        1   -1    0    0  501    0  0.00000000000E+00  0.00000000000E+00 -0.16586778560E+04  0.16586778560E+04  0.50400001928E-02 0. -1.
    10030    2    1    2    0    0  0.00000000000E+00  0.00000000000E+00 -0.48149512869E+03  0.28358605833E+04  0.27946856154E+04 0.  0.
        5    1    3    3  502    0 -0.13770447139E+04 -0.52524941286E+02 -0.59648990643E+01  0.13780670098E+04  0.46999998093E+01 0. -1.
       -5    1    3    3    0  502  0.13770447139E+04  0.52524941286E+02 -0.47553022963E+03  0.14577935735E+04  0.46999998093E+01 0.  1.
</event>
<event>
 5   0  0.1350863E-05  0.2743250E+04  0.7818609E-02  0.8321107E-01
        2   -1    0    0  501    0  0.00000000000E+00  0.00000000000E+00  0.15222376082E+04  0.15222376082E+04  0.25500000920E-02 0. -1.
       -2   -1    0    0    0  501  0.00000000000E+00  0.00000000000E+00 -0.12359146399E+04  0.12359146399E+04  0.25500000920E-02 0.  1.
    10030    2    1    2    0    0  0.00000000000E+00  0.00000000000E+00  0.28632296830E+03  0.27581522480E+04  0.27432504408E+04 0.  0.
        3    1    3    3  502    0 -0.23567138168E+03 -0.13117148000E+04  0.46929835525E+03  0.14129322961E+04  0.10100000352E+00 0. -1.
       -3    1    3    3    0  502  0.23567138168E+03  0.13117148000E+04 -0.18297538695E+03  0.13452199520E+04  0.10100000352E+00 0.  1.
</event>
<event>
 5   0  0.5281919E-06  0.2755357E+04  0.7818609E-02  0.8317264E-01
        1   -1    0    0  501    0  0.00000000000E+00  0.00000000000E+00  0.18735426289E+04  0.18735426289E+04  0.50400001928E-02 0.  1.
       -1   -1    0    0    0  501  0.00000000000E+00  0.00000000000E+00 -0.10130531050E+04  0.10130531050E+04  0.50400001928E-02 0. -1.
    10030    2    1    2    0    0  0.00000000000E+00  0.00000000000E+00  0.86048952385E+03  0.28865957339E+04  0.27553570931E+04 0.  0.
        4    1    3    3  502    0  0.11567096844E+04 -0.57401366545E+03  0.93324654239E+03  0.15932418849E+04  0.12699999809E+01 0.  1.
       -4    1    3    3    0  502 -0.11567096844E+04  0.57401366545E+03 -0.72757018545E+02  0.12933538490E+04  0.12699999809E+01 0. -1.
</event>
<event>
 5   0  0.1350863E-05  0.2803375E+04  0.7818609E-02  0.8302221E-01
        2   -1    0    0  501    0  0.00000000000E+00  0.00000000000E+00  0.19091726029E+04  0.19091726029E+04  0.25500000920E-02 0. -1.
       -2   -1    0    0    0  501  0.00000000000E+00  0.00000000000E+00 -0.10290994355E+04  0.10290994355E+04  0.25500000920E-02 0.  1.
    10030    2    1    2    0    0  0.00000000000E+00  0.00000000000E+00  0.88007316742E+03  0.29382720384E+04  0.28033754282E+04 0.  0.
        3    1    3    3  502    0  0.11684712081E+03 -0.63870860484E+02 -0.10224545308E+04  0.10310897217E+04  0.10100000352E+00 0.  1.
       -3    1    3    3    0  502 -0.11684712081E+03  0.63870860484E+02  0.19025276982E+04  0.19071823167E+04  0.10100000352E+00 0. -1.
</event>
<event>
 5   0  0.5023691E-06  0.2817189E+04  0.7818609E-02  0.8297952E-01
        1   -1    0    0  501    0  0.00000000000E+00  0.00000000000E+00  0.15794770144E+04  0.15794770144E+04  0.50400001928E-02 0. -1.
       -1   -1    0    0    0  501  0.00000000000E+00  0.00000000000E+00 -0.12561999646E+04  0.12561999646E+04  0.50400001928E-02 0.  1.
    10030    2    1    2    0    0  0.00000000000E+00  0.00000000000E+00  0.32327704981E+03  0.28356769790E+04  0.28171893579E+04 0.  0.
        5    1    3    3  502    0  0.89167763833E+03 -0.99680437523E+03 -0.28331320075E+03  0.13671124434E+04  0.46999998093E+01 0. -1.
       -5    1    3    3    0  502 -0.89167763833E+03  0.99680437523E+03  0.60659025055E+03  0.14685645356E+04  0.46999998093E+01 0.  1.
</event>
<event>
 5   0  0.5107453E-06  0.2811973E+04  0.7818609E-02  0.8299561E-01
       -1   -1    0    0    0  501  0.00000000000E+00  0.00000000000E+00  0.85972815888E+03  0.85972815889E+03  0.50400001928E-02 0.  1.
        1   -1    0    0  501    0  0.00000000000E+00  0.00000000000E+00 -0.22993291448E+04  0.22993291448E+04  0.50400001928E-02 0. -1.
    10030    2    1    2    0    0  0.00000000000E+00  0.00000000000E+00 -0.14396009859E+04  0.31590573037E+04  0.28119729816E+04 0.  0.
        2    1    3    3  502    0 -0.37191820559E+03  0.63238250710E+03 -0.20672467153E+04  0.21935678172E+04  0.25500000920E-02 0. -1.
       -2    1    3    3    0  502  0.37191820559E+03 -0.63238250710E+03  0.62764572934E+03  0.96548948648E+03  0.25500000920E-02 0.  1.
</event>
<event>
 5   0  0.1283052E-05  0.2806974E+04  0.7818609E-02  0.8301106E-01
       -2   -1    0    0    0  501  0.00000000000E+00  0.00000000000E+00  0.66844716592E+03  0.66844716592E+03  0.25500000920E-02 0. -1.
        2   -1    0    0  501    0  0.00000000000E+00  0.00000000000E+00 -0.29467936201E+04  0.29467936201E+04  0.25500000920E-02 0.  1.
    10030    2    1    2    0    0  0.00000000000E+00  0.00000000000E+00 -0.22783464542E+04  0.36152407861E+04  0.28069740604E+04 0.  0.
        5    1    3    3  502    0 -0.10994769801E+04 -0.40848100224E+03 -0.14649298821E+03  0.11820273451E+04  0.46999998093E+01 0. -1.
       -5    1    3    3    0  502  0.10994769801E+04  0.40848100224E+03 -0.21318534660E+04  0.24332134410E+04  0.46999998093E+01 0.  1.
</event>
<event>
 5   0  0.5217999E-06  0.2824227E+04  0.7818609E-02  0.8295786E-01
        1   -1    0    0  501    0  0.00000000000E+00  0.00000000000E+00  0.18900340981E+04  0.18900340981E+04  0.50400001928E-02 0. -1.
       -1   -1    0    0    0  501  0.00000000000E+00  0.00000000000E+00 -0.10550414692E+04  0.10550414692E+04  0.50400001928E-02 0.  1.
    10030    2    1    2    0    0  0.00000000000E+00  0.00000000000E+00  0.83499262895E+03  0.29450755673E+04  0.28242268689E+04 0.  0.
        1    1    3    3  502    0 -0.15665239048E+03 -0.94496433701E+03  0.14994716230E+04  0.17793011881E+04  0.50400001928E-02 0. -1.
       -1    1    3    3    0  502  0.15665239048E+03  0.94496433701E+03 -0.66447899408E+03  0.11657743792E+04  0.50400001928E-02 0.  1.
</event>
<event>
 5   0  0.5217999E-06  0.2765140E+04  0.7818609E-02  0.8314173E-01
       -1   -1    0    0    0  501  0.00000000000E+00  0.00000000000E+00  0.14250271982E+04  0.14250271982E+04  0.50400001928E-02 0. -1.
        1   -1    0    0  501    0  0.00000000000E+00  0.00000000000E+00 -0.13413778163E+04  0.13413778163E+04  0.50400001928E-02 0.  1.
    10030    2    1    2    0    0  0.00000000000E+00  0.00000000000E+00  0.83649381835E+02  0.27664050145E+04  0.27651400480E+04 0.  0.
        1    1    3    3  502    0  0.67600379706E+03  0.11670849634E+04 -0.26233976151E+03  0.13740053115E+04  0.50400001928E-02 0. -1.
       -1    1    3    3    0  502 -0.67600379706E+03 -0.11670849634E+04  0.34598914334E+03  0.13923997030E+04  0.50400001928E-02 0.  1.
</event>
<event>
 5   0  0.1350863E-05  0.2776097E+04  0.7818609E-02  0.8310728E-01
       -2   -1    0    0    0  501  0.00000000000E+00  0.00000000000E+00  0.95533064182E+03  0.95533064182E+03  0.25500000920E-02 0. -1.
        2   -1    0    0  501    0  0.00000000000E+00  0.00000000000E+00 -0.20167665990E+04  0.20167665990E+04  0.25500000920E-02 0.  1.
    10030    2    1    2    0    0  0.00000000000E+00  0.00000000000E+00 -0.10614359572E+04  0.29720972408E+04  0.27760972097E+04 0.  0.
        3    1    3    3  502    0  0.12981665479E+04 -0.44657108073E+03 -0.75017013247E+03  0.15644223707E+04  0.10100000352E+00 0.  1.
       -3    1    3    3    0  502 -0.12981665479E+04  0.44657108073E+03 -0.31126582471E+03  0.14076748701E+04  0.10100000352E+00 0. -1.
</event>
<event>
 5   0  0.5281919E-06  0.2785734E+04  0.7818609E-02  0.8307711E-01
        1   -1    0    0  501    0  0.00000000000E+00  0.00000000000E+00  0.11968232758E+04  0.11968232758E+04  0.50400001928E-02 0. -1.
       -1   -1    0    0    0  501  0.00000000000E+00  0.00000000000E+00 -0.16210231093E+04  0.16210231093E+04  0.50400001928E-02 0.  1.
    10030    2    1    2    0    0  0.00000000000E+00  0.00000000000E+00 -0.42419983349E+03  0.28178463852E+04  0.27857337905E+04 0.  0.
        4    1    3    3  502    0 -0.65684619207E+03  0.31594116568E+03 -0.14127156860E+04  0.15896644183E+04  0.12699999809E+01 0.  1.
       -4    1    3    3    0  502  0.65684619207E+03 -0.31594116568E+03  0.98851585254E+03  0.12281819669E+04  0.12699999809E+01 0. -1.
</event>
<event>
 5   0  0.5217999E-06  0.2538002E+04  0.7818609E-02  0.8389571E-01
        1   -1    0    0  501    0  0.00000000000E+00  0.00000000000E+00  0.10598394747E+04  0.10598394748E+04  0.50400001928E-02 0.  1.
       -1   -1    0    0    0  501  0.00000000000E+00  0.00000000000E+00 -0.15194411163E+04  0.15194411163E+04  0.50400001928E-02 0. -1.
    10030    2    1    2    0    0  0.00000000000E+00  0.00000000000E+00 -0.45960164158E+03  0.25792805911E+04  0.25380021077E+04 0.  0.
        1    1    3    3  502    0 -0.32905158356E+03  0.12250429864E+04 -0.19234474404E+03  0.12829660026E+04  0.50400001928E-02 0. -1.
       -1    1    3    3    0  502  0.32905158356E+03 -0.12250429864E+04 -0.26725689755E+03  0.12963145885E+04  0.50400001928E-02 0.  1.
</event>
<event>
 5   0  0.1283052E-05  0.2899671E+04  0.7818609E-02  0.8272975E-01
        2   -1    0    0  501    0  0.00000000000E+00  0.00000000000E+00  0.12571375543E+04  0.12571375543E+04  0.25500000920E-02 0.  1.
       -2   -1    0    0    0  501  0.00000000000E+00  0.00000000000E+00 -0.16720706265E+04  0.16720706265E+04  0.25500000920E-02 0. -1.
    10030    2    1    2    0    0  0.00000000000E+00  0.00000000000E+00 -0.41493307221E+03  0.29292081808E+04  0.28996708627E+04 0.  0.
        5    1    3    3  502    0 -0.33459448336E+03 -0.13520573902E+04  0.19911064472E+03  0.14070109429E+04  0.46999998093E+01 0.  1.
       -5    1    3    3    0  502  0.33459448336E+03  0.13520573902E+04 -0.61404371693E+03  0.15221972379E+04  0.46999998093E+01 0. -1.
</event>
<event>
 5   0  0.5023691E-06  0.2784423E+04  0.7818609E-02  0.8308121E-01
        1   -1    0    0  501    0  0.00000000000E+00  0.00000000000E+00  0.13600410644E+04  0.13600410644E+04  0.50400001928E-02 0.  1.
       -1   -1    0    0    0  501  0.00000000000E+00  0.00000000000E+00 -0.14251429688E+04  0.14251429688E+04  0.50400001928E-02 0. -1.
    10030    2    1    2    0    0  0.00000000000E+00  0.00000000000E+00 -0.65101904354E+02  0.27851840332E+04  0.27844230714E+04 0.  0.
        5    1    3    3  502    0 -0.83234590019E+03 -0.11659522117E+02  0.10836819898E+04  0.13665007819E+04  0.46999998093E+01 0.  1.
       -5    1    3    3    0  502  0.83234590019E+03  0.11659522117E+02 -0.11487838941E+04  0.14186832513E+04  0.46999998093E+01 0. -1.
</event>
<event>
 5   0  0.1350863E-05  0.2747074E+04  0.7818609E-02  0.8319891E-01
       -2   -1    0    0    0  501  0.00000000000E+00  0.00000000000E+00  0.60564714643E+03  0.60564714644E+03  0.25500000920E-02 0.  1.
        2   -1    0    0  501    0  0.00000000000E+00  0.00000000000E+00 -0.31150211603E+04  0.31150211603E+04  0.25500000920E-02 0. -1.
    10030    2    1    2    0    0  0.00000000000E+00  0.00000000000E+00 -0.25093740138E+04  0.37206683067E+04  0.27470738445E+04 0.  0.
        3    1    3    3  502    0 -0.93787063367E+03  0.53980195406E+03 -0.10893480607E+03  0.10875910432E+04  0.10100000352E+00 0.  1.
       -3    1    3    3    0  502  0.93787063367E+03 -0.53980195406E+03 -0.24004392078E+04  0.26330772635E+04  0.10100000352E+00 0. -1.
</event>
<event>
 5   0  0.5107453E-06  0.2804044E+04  0.7818609E-02  0.8302014E-01
        1   -1    0    0  501    0  0.00000000000E+00  0.00000000000E+00  0.20299471489E+04  0.20299471489E+04  0.50400001928E-02 0.  1.
       -1   -1    0    0    0  501  0.00000000000E+00  0.00000000000E+00 -0.96833327319E+03  0.96833327321E+03  0.50400001928E-02 0. -1.
    10030    2    1    2    0    0  0.00000000000E+00  0.00000000000E+00  0.10616138757E+04  0.29982804221E+04  0.28040437708E+04 0.  0.
        2    1    3    3  502    0 -0.50780025412E+03 -0.27253501881E+03  0.18974367042E+04  0.19830286133E+04  0.25500000920E-02 0.  1.
       -2    1    3    3    0  502  0.50780025412E+03  0.27253501881E+03 -0.83582282854E+03  0.10152518088E+04  0.25500000920E-02 0. -1.
</event>
<event>
 5   0  0.5281919E-06  0.2696484E+04  0.7818609E-02  0.8336147E-01
       -1   -1    0    0    0  501  0.00000000000E+00  0.00000000000E+00  0.10982677847E+04  0.10982677847E+04  0.50400001928E-02 0.  1.
        1   -1    0    0  501    0  0.00000000000E+00  0.00000000000E+00 -0.16551121141E+04  0.16551121142E+04  0.50400001928E-02 0. -1.
    10030    2    1    2    0    0  0.00000000000E+00  0.00000000000E+00 -0.55684432945E+03  0.27533798989E+04  0.26964838698E+04 0.  0.
        4    1    3    3  502    0  0.12736478733E+04  0.36815419429E+03 -0.52861937000E+03  0.14272899030E+04  0.12699999809E+01 0. -1.
       -4    1    3    3    0  502 -0.12736478733E+04 -0.36815419429E+03 -0.28224959454E+02  0.13260899959E+04  0.12699999809E+01 0.  1.
</event>
<event>
 5   0  0.5217999E-06  0.2994304E+04  0.7818609E-02  0.8245359E-01
        1   -1    0    0  501    0  0.00000000000E+00  0.00000000000E+00  0.20562260452E+04  0.20562260452E+04  0.50400001928E-02 0. -1.
       -1   -1    0    0    0  501  0.00000000000E+00  0.00000000000E+00 -0.10900862637E+04  0.10900862638E+04  0.50400001928E-02 0.  1.
    10030    2    1    2    0    0  0.00000000000E+00  0.00000000000E+00  0.96613978147E+03  0.31463123090E+04  0.29943037702E+04 0.  0.
        1    1    3    3  502    0  0.17032561310E+03 -0.14844104808E+04  0.38350475035E+03  0.15425826343E+04  0.50400001928E-02 0. -1.
       -1    1    3    3    0  502 -0.17032561310E+03  0.14844104808E+04  0.58263503112E+03  0.16037296747E+04  0.50400001928E-02 0.  1.
</event>
<event>
 5   0  0.5281919E-06  0.2777750E+04  0.7818609E-02  0.8310210E-01
       -1   -1    0    0    0  501  0.00000000000E+00  0.00000000000E+00  0.13219306188E+04  0.13219306188E+04  0.50400001928E-02 0.  1.
        1   -1    0    0  501    0  0.00000000000E+00  0.00000000000E+00 -0.14592090616E+04  0.14592090617E+04  0.50400001928E-02 0. -1.
    10030    2    1    2    0    0  0.00000000000E+00  0.00000000000E+00 -0.13727844290E+03  0.27811396804E+04  0.27777495479E+04 0.  0.
        4    1    3    3  502    0 -0.10012312497E+04  0.95296585463E+03  0.67038487798E+02  0.13838727208E+04  0.12699999809E+01 0. -1.
       -4    1    3    3    0  502  0.10012312497E+04 -0.95296585463E+03 -0.20431693069E+03  0.13972669597E+04  0.12699999809E+01 0.  1.
</event>
<event>
 5   0  0.1302063E-05  0.2825833E+04  0.7818609E-02  0.8295293E-01
       -2   -1    0    0    0  501  0.00000000000E+00  0.00000000000E+00  0.12968011906E+04  0.12968011907E+04  0.25500000920E-02 0.  1.
        2   -1    0    0  501    0  0.00000000000E+00  0.00000000000E+00 -0.15394286632E+04  0.15394286632E+04  0.25500000920E-02 0. -1.
    10030    2    1    2    0    0  0.00000000000E+00  0.00000000000E+00 -0.24262747256E+03  0.28362298539E+04  0.28258329203E+04 0.  0.
        2    1    3    3  502    0 -0.27172279950E+03 -0.11155376721E+04  0.70516925591E+03  0.13474128013E+04  0.25500000920E-02 0.  1.
       -2    1    3    3    0  502  0.27172279950E+03  0.11155376721E+04 -0.94779672847E+03  0.14888170526E+04  0.25500000920E-02 0. -1.
</event>
<event>
 5   0  0.1388269E-05  0.2680138E+04  0.7818609E-02  0.8341478E-01
        2   -1    0    0  501    0  0.00000000000E+00  0.00000000000E+00  0.18864556719E+04  0.18864556719E+04  0.25500000920E-02 0.  1.
       -2   -1    0    0    0  501  0.00000000000E+00  0.00000000000E+00 -0.95193582779E+03  0.95193582779E+03  0.25500000920E-02 0. -1.
    10030    2    1    2    0    0  0.00000000000E+00  0.00000000000E+00  0.93451984407E+03  0.28383914997E+04  0.26801378633E+04 0.  0.
        1    1    3    3  502    0  0.63381231570E+03 -0.10237607951E+04  0.10901924220E+04  0.16242917638E+04  0.50400001928E-02 0.  1.
       -1    1    3    3    0  502 -0.63381231570E+03  0.10237607951E+04 -0.15567257791E+03  0.12140997358E+04  0.50400001928E-02 0. -1.
</event>
<event>
 5   0  0.1350863E-05  0.2839009E+04  0.7818609E-02  0.8291259E-01
        2   -1    0    0  501    0  0.00000000000E+00  0.00000000000E+00  0.14358389605E+04  0.14358389605E+04  0.25500000920E-02 0.  1.
       -2   -1    0    0    0  501  0.00000000000E+00  0.00000000000E+00 -0.14033563371E+04  0.14033563371E+04  0.25500000920E-02 0. -1.
    10030    2    1    2    0    0  0.00000000000E+00  0.00000000000E+00  0.32482623377E+02  0.28391952976E+04  0.28390094782E+04 0.  0.
        3    1    3    3  502    0 -0.83279003604E+03 -0.94178260221E+03 -0.64296795704E+03  0.14120557772E+04  0.10100000352E+00 0. -1.
       -3    1    3    3    0  502  0.83279003604E+03  0.94178260221E+03  0.67545058042E+03  0.14271395204E+04  0.10100000352E+00 0.  1.
</event>
<event>
 5   0  0.1388269E-05  0.2766105E+04  0.7818609E-02  0.8313869E-01
       -2   -1    0    0    0  501  0.00000000000E+00  0.00000000000E+00  0.10221481689E+04  0.10221481689E+04  0.25500000920E-02 0.  1.
        2   -1    0    0  501    0  0.00000000000E+00  0.00000000000E+00 -0.18713871096E+04  0.18713871096E+04  0.25500000920E-02 0. -1.
    10030    2    1    2    0    0  0.00000000000E+00  0.00000000000E+00 -0.84923894069E+03  0.28935352784E+04  0.27661054986E+04 0.  0.
        1    1    3    3  502    0 -0.14147301500E+03 -0.95535196113E+03 -0.14602391989E+04  0.17507171393E+04  0.50400001928E-02 0. -1.
       -1    1    3    3    0  502  0.14147301500E+03  0.95535196113E+03  0.61100025826E+03  0.11428181392E+04  0.50400001928E-02 0.  1.
</event>
<event>
 5   0  0.1330962E-05  0.2805970E+04  0.7818609E-02  0.8301417E-01
       -2   -1    0    0    0  501  0.00000000000E+00  0.00000000000E+00  0.15210482500E+04  0.15210482500E+04  0.25500000920E-02 0. -1.
        2   -1    0    0  501    0  0.00000000000E+00  0.00000000000E+00 -0.12940855067E+04  0.12940855067E+04  0.25500000920E-02 0.  1.
    10030    2    1    2    0    0  0.00000000000E+00  0.00000000000E+00  0.22696274327E+03  0.28151337566E+04  0.28059697042E+04 0.  0.
        4    1    3    3  502    0 -0.35450307431E+03  0.92686890106E+03  0.11084897788E+04  0.14877868100E+04  0.12699999809E+01 0. -1.
       -4    1    3    3    0  502  0.35450307431E+03 -0.92686890106E+03 -0.88152703553E+03  0.13273469466E+04  0.12699999809E+01 0.  1.
</event>
<event>
 5   0  0.4764214E-06  0.2875562E+04  0.7818609E-02  0.8280186E-01
        1   -1    0    0  501    0  0.00000000000E+00  0.00000000000E+00  0.16496473509E+04  0.16496473509E+04  0.50400001928E-02 0.  1.
       -1   -1    0    0    0  501  0.00000000000E+00  0.00000000000E+00 -0.12531246874E+04  0.12531246874E+04  0.50400001928E-02 0. -1.
    10030    2    1    2    0    0  0.00000000000E+00  0.00000000000E+00  0.39652266358E+03  0.29027720383E+04  0.28755617336E+04 0.  0.
        3    1    3    3  502    0  0.12559675891E+04  0.30513513157E+03  0.83402387556E+03  0.15382320594E+04  0.10100000352E+00 0. -1.
       -3    1    3    3    0  502 -0.12559675891E+04 -0.30513513157E+03 -0.43750121198E+03  0.13645399789E+04  0.10100000352E+00 0.  1.
</event>
<event>
 5   0  0.5217999E-06  0.2756048E+04  0.7818609E-02  0.8317045E-01
        1   -1    0    0  501    0  0.00000000000E+00  0.00000000000E+00  0.18671137835E+04  0.18671137835E+04  0.50400001928E-02 0.  1.
       -1   -1    0    0    0  501  0.00000000000E+00  0.00000000000E+00 -0.10170507830E+04  0.10170507830E+04  0.50400001928E-02 0. -1.
    10030    2    1    2    0    0  0.00000000000E+00  0.00000000000E+00  0.85006300054E+03  0.28841645665E+04  0.27560475580E+04 0.  0.
        1    1    3    3  502    0 -0.17990876221E+03  0.31662391958E+03  0.18158467921E+04  0.18520036289E+04  0.50400001928E-02 0.  1.
       -1    1    3    3    0  502  0.17990876221E+03 -0.31662391958E+03 -0.96578379153E+03  0.10321609376E+04  0.50400001928E-02 0. -1.
</event>
<event>
 5   0  0.5023691E-06  0.2810988E+04  0.7818609E-02  0.8299865E-01
        1   -1    0    0  501    0  0.00000000000E+00  0.00000000000E+00  0.13975630288E+04  0.13975630288E+04  0.50400001928E-02 0. -1.
       -1   -1    0    0    0  501  0.00000000000E+00  0.00000000000E+00 -0.14134700600E+04  0.14134700600E+04  0.50400001928E-02 0.  1.
    10030    2    1    2    0    0  0.00000000000E+00  0.00000000000E+00 -0.15907031177E+02  0.28110330888E+04  0.28109880812E+04 0.  0.
        5    1    3    3  502    0 -0.87561267247E+03  0.81807135898E+03  0.72653295974E+03  0.14013602435E+04  0.46999998093E+01 0. -1.
       -5    1    3    3    0  502  0.87561267247E+03 -0.81807135898E+03 -0.74243999092E+03  0.14096728453E+04  0.46999998093E+01 0.  1.
</event>
<event>
 5   0  0.5217999E-06  0.2793647E+04  0.7818609E-02  0.8305243E-01
       -1   -1    0    0    0  501  0.00000000000E+00  0.00000000000E+00  0.79635032699E+03  0.79635032701E+03  0.50400001928E-02 0. -1.
        1   -1    0    0  501    0  0.00000000000E+00  0.00000000000E+00 -0.24500728674E+04  0.24500728674E+04  0.50400001928E-02 0.  1.
    10030    2    1    2    0    0  0.00000000000E+00  0.00000000000E+00 -0.16537225404E+04  0.32464231944E+04  0.27936473143E+04 0.  0.
        1    1    3    3  502    0  0.11174442450E+04 -0.55383852436E+03 -0.95864849014E+02  0.12508432440E+04  0.50400001928E-02 0. -1.
       -1    1    3    3    0  502 -0.11174442450E+04  0.55383852436E+03 -0.15578576914E+04  0.19955799504E+04  0.50400001928E-02 0.  1.
</event>
<event>
 5   0  0.5281919E-06  0.2778795E+04  0.7818609E-02  0.8309882E-01
       -1   -1    0    0    0  501  0.00000000000E+00  0.00000000000E+00  0.24832105874E+04  0.24832105874E+04  0.50400001928E-02 0. -1.
        1   -1    0    0  501    0  0.00000000000E+00  0.00000000000E+00 -0.77739086316E+03  0.77739086318E+03  0.50400001928E-02 0.  1.
    10030    2    1    2    0    0  0.00000000000E+00  0.00000000000E+00  0.17058197242E+04  0.32606014506E+04  0.27787948625E+04 0.  0.
        4    1    3    3  502    0 -0.68648542188E+03 -0.26442030814E+03  0.22359359803E+04  0.23538461409E+04  0.12699999809E+01 0. -1.
       -4    1    3    3    0  502  0.68648542188E+03  0.26442030814E+03 -0.53011625611E+03  0.90675530971E+03  0.12699999809E+01 0.  1.
</event>
<event>
 5   0  0.4764214E-06  0.2900482E+04  0.7818609E-02  0.8272734E-01
        1   -1    0    0  501    0  0.00000000000E+00  0.00000000000E+00  0.19155019113E+04  0.19155019113E+04  0.50400001928E-02 0. -1.
       -1   -1    0    0    0  501  0.00000000000E+00  0.00000000000E+00 -0.10979882663E+04  0.10979882663E+04  0.50400001928E-02 0.  1.
    10030    2    1    2    0    0  0.00000000000E+00  0.00000000000E+00  0.81751364502E+03  0.30134901776E+04  0.29004817687E+04 0.  0.
        3    1    3    3  502    0  0.12315306231E+03 -0.96439048844E+03  0.15267797695E+04  0.18100475589E+04  0.10100000352E+00 0. -1.
       -3    1    3    3    0  502 -0.12315306231E+03  0.96439048844E+03 -0.70926612445E+03  0.12034426187E+04  0.10100000352E+00 0.  1.
</event>
<event>
 5   0  0.1330962E-05  0.2836498E+04  0.7818609E-02  0.8292026E-01
        2   -1    0    0  501    0  0.00000000000E+00  0.00000000000E+00  0.20307975260E+04  0.20307975260E+04  0.25500000920E-02 0.  1.
       -2   -1    0    0    0  501  0.00000000000E+00  0.00000000000E+00 -0.99046331049E+03  0.99046331049E+03  0.25500000920E-02 0. -1.
    10030    2    1    2    0    0  0.00000000000E+00  0.00000000000E+00  0.10403342155E+04  0.30212608365E+04  0.28364981513E+04 0.  0.
        4    1    3    3  502    0  0.13089555899E+04  0.26648841624E+03  0.10277004416E+04  0.16853933141E+04  0.12699999809E+01 0.  1.
       -4    1    3    3    0  502 -0.13089555899E+04 -0.26648841624E+03  0.12633773897E+02  0.13358675225E+04  0.12699999809E+01 0. -1.
</event>
<event>
 5   0  0.5107453E-06  0.2816849E+04  0.7818609E-02  0.8298056E-01
        1   -1    0    0  501    0  0.00000000000E+00  0.00000000000E+00  0.31203348048E+04  0.31203348048E+04  0.50400001928E-02 0. -1.
       -1   -1    0    0    0  501  0.00000000000E+00  0.00000000000E+00 -0.63572024521E+03  0.63572024523E+03  0.50400001928E-02 0.  1.
    10030    2    1    2    0    0  0.00000000000E+00  0.00000000000E+00  0.24846145596E+04  0.37560550501E+04  0.28168493089E+04 0.  0.
        2    1    3    3  502    0  0.10266493412E+04 -0.31747565014E+03  0.28334310968E+02  0.10749895309E+04  0.25500000920E-02 0.  1.
       -2    1    3    3    0  502 -0.10266493412E+04  0.31747565014E+03  0.24562802487E+04  0.26810655192E+04  0.25500000920E-02 0. -1.
</event>
<event>
 5   0  0.4764214E-06  0.2784694E+04  0.7818609E-02  0.8308036E-01
        1   -1    0    0  501    0  0.00000000000E+00  0.00000000000E+00  0.18773593895E+04  0.18773593895E+04  0.50400001928E-02 0. -1.
       -1   -1    0    0    0  501  0.00000000000E+00  0.00000000000E+00 -0.10326366690E+04  0.10326366690E+04  0.50400001928E-02 0.  1.
    10030    2    1    2    0    0  0.00000000000E+00  0.00000000000E+00  0.84472272048E+03  0.29099960585E+04  0.27846939843E+04 0.  0.
        3    1    3    3  502    0 -0.11435271853E+03 -0.12687637610E+04  0.10096012686E+04  0.16254638591E+04  0.10100000352E+00 0. -1.
       -3    1    3    3    0  502  0.11435271853E+03  0.12687637610E+04 -0.16487854810E+03  0.12845321994E+04  0.10100000352E+00 0.  1.
</event>
<event>
 5   0  0.1283052E-05  0.2782999E+04  0.7818609E-02  0.8308566E-01
       -2   -1    0    0    0  501  0.00000000000E+00  0.00000000000E+00  0.84087936066E+03  0.84087936067E+03  0.25500000920E-02 0.  1.
        2   -1    0    0  501    0  0.00000000000E+00  0.00000000000E+00 -0.23026745254E+04  0.23026745254E+04  0.25500000920E-02 0. -1.
    10030    2    1    2    0    0  0.00000000000E+00  0.00000000000E+00 -0.14617951648E+04  0.31435538861E+04  0.27829994486E+04 0.  0.
        5    1    3    3  502    0 -0.59975678791E+03  0.11183806086E+04 -0.86193131814E+02  0.12719806352E+04  0.46999998093E+01 0.  1.
       -5    1    3    3    0  502  0.59975678791E+03 -0.11183806086E+04 -0.13756020330E+04  0.18715732509E+04  0.46999998093E+01 0. -1.
</event>
<event>
 5   0  0.5107453E-06  0.2774965E+04  0.7818609E-02  0.8311083E-01
        1   -1    0    0  501    0  0.00000000000E+00  0.00000000000E+00  0.18061413887E+04  0.18061413887E+04  0.50400001928E-02 0.  1.
       -1   -1    0    0    0  501  0.00000000000E+00  0.00000000000E+00 -0.10658673523E+04  0.10658673523E+04  0.50400001928E-02 0. -1.
    10030    2    1    2    0    0  0.00000000000E+00  0.00000000000E+00  0.74027403641E+03  0.28720087410E+04  0.27749646050E+04 0.  0.
        2    1    3    3  502    0  0.74126665933E+03 -0.18164118527E+02  0.15838812526E+04  0.17488527719E+04  0.25500000920E-02 0.  1.
       -2    1    3    3    0  502 -0.74126665933E+03  0.18164118527E+02 -0.84360721624E+03  0.11231559690E+04  0.25500000920E-02 0. -1.
</event>
<event>
 5   0  0.5023691E-06  0.2773300E+04  0.7818609E-02  0.8311606E-01
       -1   -1    0    0    0  501  0.00000000000E+00  0.00000000000E+00  0.71104771483E+03  0.71104771485E+03  0.50400001928E-02 0. -1.
        1   -1    0    0  501    0  0.00000000000E+00  0.00000000000E+00 -0.27041769034E+04  0.27041769034E+04  0.50400001928E-02 0.  1.
    10030    2    1    2    0    0  0.00000000000E+00  0.00000000000E+00 -0.19931291885E+04  0.34152246182E+04  0.27733004220E+04 0.  0.
        5    1    3    3  502    0  0.93580589700E+03  0.51036650504E+03  0.95607468910E+02  0.10702193815E+04  0.46999998093E+01 0. -1.
       -5    1    3    3    0  502 -0.93580589700E+03 -0.51036650504E+03 -0.20887366574E+04  0.23450052368E+04  0.46999998093E+01 0.  1.
</event>
<event>
 5   0  0.5023691E-06  0.2793542E+04  0.7818609E-02  0.8305276E-01
       -1   -1    0    0    0  501  0.00000000000E+00  0.00000000000E+00  0.11796740585E+04  0.11796740585E+04  0.50400001928E-02 0.  1.
        1   -1    0    0  501    0  0.00000000000E+00  0.00000000000E+00 -0.16538210797E+04  0.16538210797E+04  0.50400001928E-02 0. -1.
    10030    2    1    2    0    0  0.00000000000E+00  0.00000000000E+00 -0.47414702118E+03  0.28334951381E+04  0.27935424286E+04 0.  0.
        5    1    3    3  502    0 -0.27049173590E+03  0.80131227233E+03 -0.13645832806E+04  0.16054210528E+04  0.46999998093E+01 0. -1.
       -5    1    3    3    0  502  0.27049173590E+03 -0.80131227233E+03  0.89043625945E+03  0.12280740854E+04  0.46999998093E+01 0.  1.
</event>
<event>
 5   0  0.1302063E-05  0.2795034E+04  0.7818609E-02  0.8304812E-01
        2   -1    0    0  501    0  0.00000000000E+00  0.00000000000E+00  0.19044300337E+04  0.19044300337E+04  0.25500000920E-02 0. -1.
       -2   -1    0    0    0  501  0.00000000000E+00  0.00000000000E+00 -0.10255317762E+04  0.10255317762E+04  0.25500000920E-02 0.  1.
    10030    2    1    2    0    0  0.00000000000E+00  0.00000000000E+00  0.87889825756E+03  0.29299618099E+04  0.27950338209E+04 0.  0.
        2    1    3    3  502    0 -0.11026284645E+04 -0.85279265198E+03  0.54432201762E+03  0.14964395400E+04  0.25500000920E-02 0. -1.
       -2    1    3    3    0  502  0.11026284645E+04  0.85279265198E+03  0.33457623994E+03  0.14335222699E+04  0.25500000920E-02 0.  1.
</event>
<event>
 5   0  0.1302063E-05  0.2838922E+04  0.7818609E-02  0.8291286E-01
        2   -1    0    0  501    0  0.00000000000E+00  0.00000000000E+00  0.17144804024E+04  0.17144804024E+04  0.25500000920E-02 0.  1.
       -2   -1    0    0    0  501  0.00000000000E+00  0.00000000000E+00 -0.11752068980E+04  0.11752068980E+04  0.25500000920E-02 0. -1.
    10030    2    1    2    0    0  0.00000000000E+00  0.00000000000E+00  0.53927350437E+03  0.28896873004E+04  0.28389217639E+04 0.  0.
        2    1    3    3  502    0  0.10554563926E+04 -0.92404806328E+03  0.49034627617E+03  0.14860324662E+04  0.25500000920E-02 0. -1.
       -2    1    3    3    0  502 -0.10554563926E+04  0.92404806328E+03  0.48927228198E+02  0.14036548342E+04  0.25500000920E-02 0.  1.
</event>
<event>
 5   0  0.1283052E-05  0.2984891E+04  0.7818609E-02  0.8248059E-01
        2   -1    0    0  501    0  0.00000000000E+00  0.00000000000E+00  0.14496249291E+04  0.14496249291E+04  0.25500000920E-02 0.  1.
       -2   -1    0    0    0  501  0.00000000000E+00  0.00000000000E+00 -0.15365306345E+04  0.15365306345E+04  0.25500000920E-02 0. -1.
    10030    2    1    2    0    0  0.00000000000E+00  0.00000000000E+00 -0.86905705425E+02  0.29861555636E+04  0.29848906929E+04 0.  0.
        5    1    3    3  502    0  0.12667635478E+04  0.46632310484E+03 -0.68029459467E+03  0.15116117060E+04  0.46999998093E+01 0. -1.
       -5    1    3    3    0  502 -0.12667635478E+04 -0.46632310484E+03  0.59338888924E+03  0.14745438576E+04  0.46999998093E+01 0.  1.
</event>
<event>
 5   0  0.1330962E-05  0.2808729E+04  0.7818609E-02  0.8300564E-01
       -2   -1    0    0    0  501  0.00000000000E+00  0.00000000000E+00  0.11702066544E+04  0.11702066544E+04  0.25500000920E-02 0.  1.
        2   -1    0    0  501    0  0.00000000000E+00  0.00000000000E+00 -0.16853769975E+04  0.16853769975E+04  0.25500000920E-02 0. -1.
    10030    2    1    2    0    0  0.00000000000E+00  0.00000000000E+00 -0.51517034309E+03  0.28555836519E+04  0.28087288069E+04 0.  0.
        4    1    3    3  502    0 -0.34759035897E+03  0.13133553220E+04 -0.61921035904E+03  0.14930319291E+04  0.12699999809E+01 0.  1.
       -4    1    3    3    0  502  0.34759035897E+03 -0.13133553220E+04  0.10404001595E+03  0.13625517228E+04  0.12699999809E+01 0. -1.
</event>
<event>
 5   0  0.5217999E-06  0.2372234E+04  0.7818609E-02  0.8449973E-01
        1   -1    0    0  501    0  0.00000000000E+00  0.00000000000E+00  0.18027097295E+04  0.18027097295E+04  0.50400001928E-02 0.  1.
       -1   -1    0    0    0  501  0.00000000000E+00  0.00000000000E+00 -0.78042137178E+03  0.78042137180E+03  0.50400001928E-02 0. -1.
    10030    2    1    2    0    0  0.00000000000E+00  0.00000000000E+00  0.10222883577E+04  0.25831311013E+04  0.23722337153E+04 0.  0.
        1    1    3    3  502    0  0.70348010901E+03 -0.93143548760E+03  0.74063374417E+03  0.13823873098E+04  0.50400001928E-02 0.  1.
       -1    1    3    3    0  502 -0.70348010901E+03  0.93143548760E+03  0.28165461351E+03  0.12007437914E+04  0.50400001928E-02 0. -1.
</event>
<event>
 5   0  0.1330962E-05  0.2785303E+04  0.7818609E-02  0.8307846E-01
        2   -1    0    0  501    0  0.00000000000E+00  0.00000000000E+00  0.17865458348E+04  0.17865458348E+04  0.25500000920E-02 0. -1.
       -2   -1    0    0    0  501  0.00000000000E+00  0.00000000000E+00 -0.10856026174E+04  0.10856026174E+04  0.25500000920E-02 0.  1.
    10030    2    1    2    0    0  0.00000000000E+00  0.00000000000E+00  0.70094321738E+03  0.28721484523E+04  0.27853034553E+04 0.  0.
        4    1    3    3  502    0 -0.13638990979E+03  0.81338247943E+03 -0.80669581955E+03  0.11536693736E+04  0.12699999809E+01 0.  1.
       -4    1    3    3    0  502  0.13638990979E+03 -0.81338247943E+03  0.15076390369E+04  0.17184790787E+04  0.12699999809E+01 0. -1.
</event>
<event>
 5   0  0.5281919E-06  0.2785416E+04  0.7818609E-02  0.8307810E-01
        1   -1    0    0  501    0  0.00000000000E+00  0.00000000000E+00  0.22705164580E+04  0.22705164581E+04  0.50400001928E-02 0. -1.
       -1   -1    0    0    0  501  0.00000000000E+00  0.00000000000E+00 -0.85427076576E+03  0.85427076578E+03  0.50400001928E-02 0.  1.
    10030    2    1    2    0    0  0.00000000000E+00  0.00000000000E+00  0.14162456923E+04  0.31247872238E+04  0.27854161867E+04 0.  0.
        4    1    3    3  502    0  0.89570575545E+03  0.38374604267E+03  0.18243856745E+04  0.20683168345E+04  0.12699999809E+01 0. -1.
       -4    1    3    3    0  502 -0.89570575545E+03 -0.38374604267E+03 -0.40813998219E+03  0.10564703894E+04  0.12699999809E+01 0.  1.
</event>
<event>
 5   0  0.1388269E-05  0.2801626E+04  0.7818609E-02  0.8302764E-01
       -2   -1    0    0    0  501  0.00000000000E+00  0.00000000000E+00  0.12309014567E+04  0.12309014567E+04  0.25500000920E-02 0. -1.
        2   -1    0    0  501    0  0.00000000000E+00  0.00000000000E+00 -0.15941787692E+04  0.15941787692E+04  0.25500000920E-02 0.  1.
    10030    2    1    2    0    0  0.00000000000E+00  0.00000000000E+00 -0.36327731254E+03  0.28250802259E+04  0.28016259345E+04 0.  0.
        1    1    3    3  502    0 -0.95906459474E+03  0.10140565643E+04 -0.61640915800E+02  0.13971095930E+04  0.50400001928E-02 0.  1.
       -1    1    3    3    0  502  0.95906459474E+03 -0.10140565643E+04 -0.30163639674E+03  0.14279706328E+04  0.50400001928E-02 0. -1.
</event>
<event>
 5   0  0.4764214E-06  0.2760552E+04  0.7818609E-02  0.8315621E-01
        1   -1    0    0  501    0  0.00000000000E+00  0.00000000000E+00  0.18480210278E+04  0.18480210278E+04  0.50400001928E-02 0. -1.
       -1   -1    0    0    0  501  0.00000000000E+00  0.00000000000E+00 -0.10309201297E+04  0.10309201297E+04  0.50400001928E-02 0.  1.
    10030    2    1    2    0    0  0.00000000000E+00  0.00000000000E+00  0.81710089813E+03  0.28789411575E+04  0.27605521749E+04 0.  0.
        3    1    3    3  502    0  0.65502807626E+03 -0.45282046026E+03 -0.76720991435E+03  0.11057663464E+04  0.10100000352E+00 0.  1.
       -3    1    3    3    0  502 -0.65502807626E+03  0.45282046026E+03  0.15843108125E+04  0.17731748111E+04  0.10100000352E+00 0. -1.
</event>
<event>
 5   0  0.1350863E-05  0.2790481E+04  0.7818609E-02  0.8306230E-01
       -2   -1    0    0    0  501  0.00000000000E+00  0.00000000000E+00  0.11118796174E+04  0.11118796174E+04  0.25500000920E-02 0.  1.
        2   -1    0    0  501    0  0.00000000000E+00  0.00000000000E+00 -0.17508160206E+04  0.17508160206E+04  0.25500000920E-02 0. -1.
    10030    2    1    2    0    0  0.00000000000E+00  0.00000000000E+00 -0.63893640326E+03  0.28626956380E+04  0.27904814259E+04 0.  0.
        3    1    3    3  502    0 -0.14384786476E+03  0.12952661031E+04  0.19171407331E+03  0.13172550179E+04  0.10100000352E+00 0.  1.
       -3    1    3    3    0  502  0.14384786476E+03 -0.12952661031E+04 -0.83065047657E+03  0.15454406201E+04  0.10100000352E+00 0. -1.
</event>
<event>
 5   0  0.5023691E-06  0.2861661E+04  0.7818609E-02  0.8284377E-01
       -1   -1    0    0    0  501  0.00000000000E+00  0.00000000000E+00  0.14348022565E+04  0.14348022565E+04  0.50400001928E-02 0. -1.
        1   -1    0    0  501    0  0.00000000000E+00  0.00000000000E+00 -0.14268698788E+04  0.14268698789E+04  0.50400001928E-02 0.  1.
    10030    2    1    2    0    0  0.00000000000E+00  0.00000000000E+00  0.79323776427E+01  0.28616721354E+04  0.28616611413E+04 0.  0.
        5    1    3    3  502    0  0.86856757157E+03 -0.37447339101E+03 -0.10696365968E+04  0.14278601074E+04  0.46999998093E+01 0.  1.
       -5    1    3    3    0  502 -0.86856757157E+03  0.37447339101E+03  0.10775689744E+04  0.14338120280E+04  0.46999998093E+01 0. -1.
</event>
<event>
 5   0  0.1388269E-05  0.2811800E+04  0.7818609E-02  0.8299614E-01
        2   -1    0    0  501    0  0.00000000000E+00  0.00000000000E+00  0.17187581990E+04  0.17187581990E+04  0.25500000920E-02 0. -1.
       -2   -1    0    0    0  501  0.00000000000E+00  0.00000000000E+00 -0.11499904190E+04  0.11499904190E+04  0.25500000920E-02 0.  1.
    10030    2    1    2    0    0  0.00000000000E+00  0.00000000000E+00  0.56876777997E+03  0.28687486180E+04  0.28118004633E+04 0.  0.
        1    1    3    3  502    0 -0.32737255173E+03 -0.12476482499E+04 -0.28618906244E+03  0.13212505904E+04  0.50400001928E-02 0. -1.
       -1    1    3    3    0  502  0.32737255173E+03  0.12476482499E+04  0.85495684241E+03  0.15474980276E+04  0.50400001928E-02 0.  1.
</event>
<event>
 5   0  0.1350863E-05  0.2684901E+04  0.7818609E-02  0.8339921E-01
       -2   -1    0    0    0  501  0.00000000000E+00  0.00000000000E+00  0.15074330082E+04  0.15074330083E+04  0.25500000920E-02 0.  1.
        2   -1    0    0  501    0  0.00000000000E+00  0.00000000000E+00 -0.11955242278E+04  0.11955242278E+04  0.25500000920E-02 0. -1.
    10030    2    1    2    0    0  0.00000000000E+00  0.00000000000E+00  0.31190878049E+03  0.27029572360E+04  0.26849005070E+04 0.  0.
        3    1    3    3  502    0 -0.72551241203E+01  0.39985554247E+02 -0.11949048456E+04  0.11955957016E+04  0.10100000352E+00 0. -1.
       -3    1    3    3    0  502  0.72551241203E+01 -0.39985554247E+02  0.15068136261E+04  0.15073615344E+04  0.10100000352E+00 0.  1.
</event>
<event>
 5   0  0.5023691E-06  0.2545546E+04  0.7818609E-02  0.8386937E-01
       -1   -1    0    0    0  501  0.00000000000E+00  0.00000000000E+00  0.12256334386E+04  0.12256334386E+04  0.50400001928E-02 0. -1.
        1   -1    0    0  501    0  0.00000000000E+00  0.00000000000E+00 -0.13217256111E+04  0.13217256111E+04  0.50400001928E-02 0.  1.
    10030    2    1    2    0    0  0.00000000000E+00  0.00000000000E+00 -0.96092172534E+02  0.25473590497E+04  0.25455459970E+04 0.  0.
        5    1    3    3  502    0  0.75468949895E+03 -0.67968875082E+03 -0.81566216263E+03  0.13026357478E+04  0.46999998093E+01 0.  1.
       -5    1    3    3    0  502 -0.75468949895E+03  0.67968875082E+03  0.71956999009E+03  0.12447233020E+04  0.46999998093E+01 0. -1.
</event>
<event>
 5   0  0.5281919E-06  0.2748787E+04  0.7818609E-02  0.8319347E-01
       -1   -1    0    0    0  501  0.00000000000E+00  0.00000000000E+00  0.11367466361E+04  0.11367466361E+04  0.50400001928E-02 0. -1.
        1   -1    0    0  501    0  0.00000000000E+00  0.00000000000E+00 -0.16617219920E+04  0.16617219920E+04  0.50400001928E-02 0.  1.
    10030    2    1    2    0    0  0.00000000000E+00  0.00000000000E+00 -0.52497535588E+03  0.27984686282E+04  0.27487865575E+04 0.  0.
        4    1    3    3  502    0  0.27439940152E+03  0.13453622049E+04 -0.20088974987E+03  0.13876789249E+04  0.12699999809E+01 0. -1.
       -4    1    3    3    0  502 -0.27439940152E+03 -0.13453622049E+04 -0.32408560601E+03  0.14107897033E+04  0.12699999809E+01 0.  1.
</event>
<event>
 5   0  0.5107453E-06  0.2789823E+04  0.7818609E-02  0.8306435E-01
       -1   -1    0    0    0  501  0.00000000000E+00  0.00000000000E+00  0.91645006263E+03  0.91645006264E+03  0.50400001928E-02 0. -1.
        1   -1    0    0  501    0  0.00000000000E+00  0.00000000000E+00 -0.21231684169E+04  0.21231684169E+04  0.50400001928E-02 0.  1.
    10030    2    1    2    0    0  0.00000000000E+00  0.00000000000E+00 -0.12067183543E+04  0.30396184796E+04  0.27898228106E+04 0.  0.
        2    1    3    3  502    0 -0.80320014125E+03  0.79299863879E+02  0.63620726752E+03  0.10277055135E+04  0.25500000920E-02 0. -1.
       -2    1    3    3    0  502  0.80320014125E+03 -0.79299863879E+02 -0.18429256218E+04  0.20119129660E+04  0.25500000920E-02 0.  1.
</event>
<event>
 5   0  0.1330962E-05  0.2803889E+04  0.7818609E-02  0.8302062E-01
        2   -1    0    0  501    0  0.00000000000E+00  0.00000000000E+00  0.24735933710E+04  0.24735933710E+04  0.25500000920E-02 0.  1.
       -2   -1    0    0    0  501  0.00000000000E+00  0.00000000000E+00 -0.79457213560E+03  0.79457213560E+03  0.25500000920E-02 0. -1.
    10030    2    1    2    0    0  0.00000000000E+00  0.00000000000E+00  0.16790212354E+04  0.32681655066E+04  0.28038889903E+04 0.  0.
        4    1    3    3  502    0 -0.58096773883E+03  0.52781310103E+03 -0.51444170709E+03  0.93848924665E+03  0.12699999809E+01 0. -1.
       -4    1    3    3    0  502  0.58096773883E+03 -0.52781310103E+03  0.21934629425E+04  0.23296762600E+04  0.12699999809E+01 0.  1.
</event>
<event>
 5   0  0.1388269E-05  0.2791093E+04  0.7818609E-02  0.8306039E-01
        2   -1    0    0  501    0  0.00000000000E+00  0.00000000000E+00  0.16738719111E+04  0.16738719111E+04  0.25500000920E-02 0.  1.
       -2   -1    0    0    0  501  0.00000000000E+00  0.00000000000E+00 -0.11634997173E+04  0.11634997173E+04  0.25500000920E-02 0. -1.
    10030    2    1    2    0    0  0.00000000000E+00  0.00000000000E+00  0.51037219378E+03  0.28373716285E+04  0.27910926143E+04 0.  0.
        1    1    3    3  502    0 -0.19495622030E+03 -0.11962375963E+04 -0.44806253008E+03  0.12921889744E+04  0.50400001928E-02 0. -1.
       -1    1    3    3    0  502  0.19495622030E+03  0.11962375963E+04  0.95843472387E+03  0.15451826541E+04  0.50400001928E-02 0.  1.
</event>
<event>
 5   0  0.5217999E-06  0.2800176E+04  0.7818609E-02  0.8303214E-01
       -1   -1    0    0    0  501  0.00000000000E+00  0.00000000000E+00  0.15229263406E+04  0.15229263406E+04  0.50400001928E-02 0.  1.
        1   -1    0    0  501    0  0.00000000000E+00  0.00000000000E+00 -0.12871572997E+04  0.12871572997E+04  0.50400001928E-02 0. -1.
    10030    2    1    2    0    0  0.00000000000E+00  0.00000000000E+00  0.23576904087E+03  0.28100836403E+04  0.28001755347E+04 0.  0.
        1    1    3    3  502    0 -0.82618957079E+02 -0.13768667525E+04  0.35885456680E+03  0.14252594663E+04  0.50400001928E-02 0. -1.
       -1    1    3    3    0  502  0.82618957079E+02  0.13768667525E+04 -0.12308552593E+03  0.13848241740E+04  0.50400001928E-02 0.  1.
</event>
<event>
 5   0  0.1283052E-05  0.2768433E+04  0.7818609E-02  0.8313136E-01
       -2   -1    0    0    0  501  0.00000000000E+00  0.00000000000E+00  0.13352604014E+04  0.13352604014E+04  0.25500000920E-02 0. -1.
        2   -1    0    0  501    0  0.00000000000E+00  0.00000000000E+00 -0.14349671196E+04  0.14349671196E+04  0.25500000920E-02 0.  1.
    10030    2    1    2    0    0  0.00000000000E+00  0.00000000000E+00 -0.99706718120E+02  0.27702275210E+04  0.27684326050E+04 0.  0.
        5    1    3    3  502    0 -0.51619200261E+03 -0.40565758166E+03  0.11695508718E+04  0.13412246601E+04  0.46999998093E+01 0. -1.
       -5    1    3    3    0  502  0.51619200261E+03  0.40565758166E+03 -0.12692575899E+04  0.14290028609E+04  0.46999998093E+01 0.  1.
</event>
<event>
 5   0  0.5281919E-06  0.2828698E+04  0.7818609E-02  0.8294414E-01
       -1   -1    0    0    0  501  0.00000000000E+00  0.00000000000E+00  0.16138352774E+04  0.16138352774E+04  0.50400001928E-02 0. -1.
        1   -1    0    0  501    0  0.00000000000E+00  0.00000000000E+00 -0.12395208824E+04  0.12395208824E+04  0.50400001928E-02 0.  1.
    10030    2    1    2    0    0  0.00000000000E+00  0.00000000000E+00  0.37431439496E+03  0.28533561598E+04  0.28286975994E+04 0.  0.
        4    1    3    3  502    0 -0.63157847224E+03  0.12653937401E+04  0.20367769702E+03  0.14288453035E+04  0.12699999809E+01 0.  1.
       -4    1    3    3    0  502  0.63157847224E+03 -0.12653937401E+04  0.17063669794E+03  0.14245108563E+04  0.12699999809E+01 0. -1.
</event>
<event>
 5   0  0.4764214E-06  0.2765776E+04  0.7818609E-02  0.8313973E-01
       -1   -1    0    0    0  501  0.00000000000E+00  0.00000000000E+00  0.17452403925E+04  0.17452403925E+04  0.50400001928E-02 0. -1.
        1   -1    0    0  501    0  0.00000000000E+00  0.00000000000E+00 -0.10957683050E+04  0.10957683051E+04  0.50400001928E-02 0.  1.
    10030    2    1    2    0    0  0.00000000000E+00  0.00000000000E+00  0.64947208746E+03  0.28410086976E+04  0.27657759178E+04 0.  0.
        3    1    3    3  502    0  0.34257592298E+03 -0.86480704956E+03  0.13758644933E+04  0.16607987868E+04  0.10100000352E+00 0. -1.
       -3    1    3    3    0  502 -0.34257592298E+03  0.86480704956E+03 -0.72639240588E+03  0.11802099108E+04  0.10100000352E+00 0.  1.
</event>
<event>
 5   0  0.5107453E-06  0.2782390E+04  0.7818609E-02  0.8308756E-01
        1   -1    0    0  501    0  0.00000000000E+00  0.00000000000E+00  0.12518488596E+04  0.12518488596E+04  0.50400001928E-02 0. -1.
       -1   -1    0    0    0  501  0.00000000000E+00  0.00000000000E+00 -0.15460525363E+04  0.15460525364E+04  0.50400001928E-02 0.  1.
    10030    2    1    2    0    0  0.00000000000E+00  0.00000000000E+00 -0.29420367678E+03  0.27979013959E+04  0.27823904144E+04 0.  0.
        2    1    3    3  502    0  0.12471861352E+04  0.10435579292E+03 -0.75799216354E+03  0.14631867643E+04  0.25500000920E-02 0. -1.
       -2    1    3    3    0  502 -0.12471861352E+04 -0.10435579292E+03  0.46378848676E+03  0.13347146316E+04  0.25500000920E-02 0.  1.
</event>
<event>
 5   0  0.1330962E-05  0.2783455E+04  0.7818609E-02  0.8308423E-01
        2   -1    0    0  501    0  0.00000000000E+00  0.00000000000E+00  0.12180322405E+04  0.12180322405E+04  0.25500000920E-02 0. -1.
       -2   -1    0    0    0  501  0.00000000000E+00  0.00000000000E+00 -0.15901919092E+04  0.15901919092E+04  0.25500000920E-02 0.  1.
    10030    2    1    2    0    0  0.00000000000E+00  0.00000000000E+00 -0.37215966879E+03  0.28082241497E+04  0.27834546980E+04 0.  0.
        4    1    3    3  502    0  0.73746636456E+03 -0.25354452959E+03  0.97689736802E+03  0.12499886191E+04  0.12699999809E+01 0. -1.
       -4    1    3    3    0  502 -0.73746636456E+03  0.25354452959E+03 -0.13490570368E+04  0.15582355306E+04  0.12699999809E+01 0.  1.
</event>
<event>
 5   0  0.5217999E-06  0.2382861E+04  0.7818609E-02  0.8445948E-01
        1   -1    0    0  501    0  0.00000000000E+00  0.00000000000E+00  0.18301658991E+04  0.18301658992E+04  0.50400001928E-02 0.  1.
       -1   -1    0    0    0  501  0.00000000000E+00  0.00000000000E+00 -0.77561622941E+03  0.77561622943E+03  0.50400001928E-02 0. -1.
    10030    2    1    2    0    0  0.00000000000E+00  0.00000000000E+00  0.10545496697E+04  0.26057821286E+04  0.23828607798E+04 0.  0.
        1    1    3    3  502    0 -0.10060190945E+04  0.63705012163E+03  0.48354508701E+03  0.12851938092E+04  0.50400001928E-02 0. -1.
       -1    1    3    3    0  502  0.10060190945E+04 -0.63705012163E+03  0.57100458272E+03  0.13205883194E+04  0.50400001928E-02 0.  1.
</event>
<event>
 5   0  0.4764214E-06  0.2793688E+04  0.7818609E-02  0.8305231E-01
        1   -1    0    0  501    0  0.00000000000E+00  0.00000000000E+00  0.28676829297E+04  0.28676829297E+04  0.50400001928E-02 0. -1.
       -1   -1    0    0    0  501  0.00000000000E+00  0.00000000000E+00 -0.68040065393E+03  0.68040065395E+03  0.50400001928E-02 0.  1.
    10030    2    1    2    0    0  0.00000000000E+00  0.00000000000E+00  0.21872822757E+04  0.35480835836E+04  0.27936881291E+04 0.  0.
        3    1    3    3  502    0 -0.10482192307E+04 -0.72712376321E+03  0.37105801886E+03  0.13285919562E+04  0.10100000352E+00 0.  1.
       -3    1    3    3    0  502  0.10482192307E+04  0.72712376321E+03  0.18162242569E+04  0.22194916274E+04  0.10100000352E+00 0. -1.
</event>
<event>
 5   0  0.1302063E-05  0.2798490E+04  0.7818609E-02  0.8303737E-01
       -2   -1    0    0    0  501  0.00000000000E+00  0.00000000000E+00  0.10355750894E+04  0.10355750894E+04  0.25500000920E-02 0. -1.
        2   -1    0    0  501    0  0.00000000000E+00  0.00000000000E+00 -0.18906271275E+04  0.18906271275E+04  0.25500000920E-02 0.  1.
    10030    2    1    2    0    0  0.00000000000E+00  0.00000000000E+00 -0.85505203811E+03  0.29262022169E+04  0.27984898475E+04 0.  0.
        2    1    3    3  502    0 -0.46850427792E+03 -0.12704807275E+04 -0.58920625776E+02  0.13553926285E+04  0.25500000920E-02 0. -1.
       -2    1    3    3    0  502  0.46850427792E+03  0.12704807275E+04 -0.79613141234E+03  0.15708095884E+04  0.25500000920E-02 0.  1.
</event>
<event>
 5   0  0.1330962E-05  0.2087544E+04  0.7818609E-02  0.8566750E-01
        2   -1    0    0  501    0  0.00000000000E+00  0.00000000000E+00  0.84487287891E+03  0.84487287891E+03  0.25500000920E-02 0. -1.
       -2   -1    0    0    0  501  0.00000000000E+00  0.00000000000E+00 -0.12894961328E+04  0.12894961328E+04  0.25500000920E-02 0.  1.
    10030    2    1    2    0    0  0.00000000000E+00  0.00000000000E+00 -0.44462325386E+03  0.21343690117E+04  0.20875443085E+04 0.  0.
        4    1    3    3  502    0  0.16548040761E+03 -0.99056593867E+03 -0.51303818187E+03  0.11277475041E+04  0.12699999809E+01 0. -1.
       -4    1    3    3    0  502 -0.16548040761E+03  0.99056593867E+03  0.68414928018E+02  0.10066215075E+04  0.12699999809E+01 0.  1.
</event>
<event>
 5   0  0.5023691E-06  0.2757149E+04  0.7818609E-02  0.8316697E-01
       -1   -1    0    0    0  501  0.00000000000E+00  0.00000000000E+00  0.94441534379E+03  0.94441534381E+03  0.50400001928E-02 0. -1.
        1   -1    0    0  501    0  0.00000000000E+00  0.00000000000E+00 -0.20123220099E+04  0.20123220099E+04  0.50400001928E-02 0.  1.
    10030    2    1    2    0    0  0.00000000000E+00  0.00000000000E+00 -0.10679066661E+04  0.29567373537E+04  0.27571490949E+04 0.  0.
        5    1    3    3  502    0 -0.11170266989E+04 -0.51523013652E+03 -0.12012819855E+04  0.17193926946E+04  0.46999998093E+01 0. -1.
       -5    1    3    3    0  502  0.11170266989E+04  0.51523013652E+03  0.13337531939E+03  0.12373446591E+04  0.46999998093E+01 0.  1.
</event>
<event>
 5   0  0.1330962E-05  0.2931497E+04  0.7818609E-02  0.8263567E-01
       -2   -1    0    0    0  501  0.00000000000E+00  0.00000000000E+00  0.15010732907E+04  0.15010732907E+04  0.25500000920E-02 0.  1.
        2   -1    0    0  501    0  0.00000000000E+00  0.00000000000E+00 -0.14312553132E+04  0.14312553132E+04  0.25500000920E-02 0. -1.
    10030    2    1    2    0    0  0.00000000000E+00  0.00000000000E+00  0.69817977500E+02  0.29323286040E+04  0.29314973123E+04 0.  0.
        4    1    3    3  502    0  0.51757530545E+02 -0.12625132404E+04 -0.70813339245E+03  0.14484726571E+04  0.12699999809E+01 0. -1.
       -4    1    3    3    0  502 -0.51757530545E+02  0.12625132404E+04  0.77795136995E+03  0.14838559468E+04  0.12699999809E+01 0.  1.
</event>
<event>
 5   0  0.5107453E-06  0.2790472E+04  0.7818609E-02  0.8306232E-01
        1   -1    0    0  501    0  0.00000000000E+00  0.00000000000E+00  0.11553264754E+04  0.11553264754E+04  0.50400001928E-02 0.  1.
       -1   -1    0    0    0  501  0.00000000000E+00  0.00000000000E+00 -0.16849641541E+04  0.16849641541E+04  0.50400001928E-02 0. -1.
    10030    2    1    2    0    0  0.00000000000E+00  0.00000000000E+00 -0.52963767872E+03  0.28402906294E+04  0.27904721445E+04 0.  0.
        2    1    3    3  502    0  0.40696552743E+02 -0.11229804730E+04  0.57695385902E+03  0.12631773857E+04  0.25500000920E-02 0.  1.
       -2    1    3    3    0  502 -0.40696552743E+02  0.11229804730E+04 -0.11065915377E+04  0.15771132438E+04  0.25500000920E-02 0. -1.
</event>
<event>
 5   0  0.1283052E-05  0.2804853E+04  0.7818609E-02  0.8301763E-01
        2   -1    0    0  501    0  0.00000000000E+00  0.00000000000E+00  0.15209460381E+04  0.15209460381E+04  0.25500000920E-02 0. -1.
       -2   -1    0    0    0  501  0.00000000000E+00  0.00000000000E+00 -0.12931421462E+04  0.12931421462E+04  0.25500000920E-02 0.  1.
    10030    2    1    2    0    0  0.00000000000E+00  0.00000000000E+00  0.22780389198E+03  0.28140881843E+04  0.28048525266E+04 0.  0.
        5    1    3    3  502    0  0.32124543408E+03  0.93563131027E+03 -0.88344005527E+03  0.13263080332E+04  0.46999998093E+01 0.  1.
       -5    1    3    3    0  502 -0.32124543408E+03 -0.93563131027E+03  0.11112439472E+04  0.14877801511E+04  0.46999998093E+01 0. -1.
</event>
<event>
 5   0  0.5281919E-06  0.2789365E+04  0.7818609E-02  0.8306578E-01
        1   -1    0    0  501    0  0.00000000000E+00  0.00000000000E+00  0.11226879484E+04  0.11226879485E+04  0.50400001928E-02 0. -1.
       -1   -1    0    0    0  501  0.00000000000E+00  0.00000000000E+00 -0.17325727789E+04  0.17325727789E+04  0.50400001928E-02 0.  1.
    10030    2    1    2    0    0  0.00000000000E+00  0.00000000000E+00 -0.60988483050E+03  0.28552607274E+04  0.27893645002E+04 0.  0.
        4    1    3    3  502    0  0.37052386480E+03  0.13414948292E+04 -0.39786501728E+03  0.14474786686E+04  0.12699999809E+01 0.  1.
       -4    1    3    3    0  502 -0.37052386480E+03 -0.13414948292E+04 -0.21201981322E+03  0.14077820588E+04  0.12699999809E+01 0. -1.
</event>
<event>
 5   0  0.1350863E-05  0.2945067E+04  0.7818609E-02  0.8259594E-01
        2   -1    0    0  501    0  0.00000000000E+00  0.00000000000E+00  0.21069237695E+04  0.21069237695E+04  0.25500000920E-02 0.  1.
       -2   -1    0    0    0  501  0.00000000000E+00  0.00000000000E+00 -0.10291567792E+04  0.10291567793E+04  0.25500000920E-02 0. -1.
    10030    2    1    2    0    0  0.00000000000E+00  0.00000000000E+00  0.10777669902E+04  0.31360805487E+04  0.29450669811E+04 0.  0.
        3    1    3    3  502    0  0.51293115034E+03  0.25624829683E+03  0.19831686377E+04  0.20643932305E+04  0.10100000352E+00 0.  1.
       -3    1    3    3    0  502 -0.51293115034E+03 -0.25624829683E+03 -0.90540164744E+03  0.10716873182E+04  0.10100000352E+00 0. -1.
</event>
<event>
 5   0  0.5107453E-06  0.2824615E+04  0.7818609E-02  0.8295667E-01
       -1   -1    0    0    0  501  0.00000000000E+00  0.00000000000E+00  0.23836160197E+04  0.23836160197E+04  0.50400001928E-02 0.  1.
        1   -1    0    0  501    0  0.00000000000E+00  0.00000000000E+00 -0.83680084848E+03  0.83680084850E+03  0.50400001928E-02 0. -1.
    10030    2    1    2    0    0  0.00000000000E+00  0.00000000000E+00  0.15468151712E+04  0.32204168682E+04  0.28246145987E+04 0.  0.
        2    1    3    3  502    0 -0.19148245638E+03 -0.12876525027E+04  0.13977735926E+04  0.19101009174E+04  0.25500000920E-02 0. -1.
       -2    1    3    3    0  502  0.19148245638E+03  0.12876525027E+04  0.14904157865E+03  0.13103159508E+04  0.25500000920E-02 0.  1.
</event>
<event>
 5   0  0.1302063E-05  0.2811930E+04  0.7818609E-02  0.8299574E-01
        2   -1    0    0  501    0  0.00000000000E+00  0.00000000000E+00  0.17640844050E+04  0.17640844050E+04  0.25500000920E-02 0.  1.
       -2   -1    0    0    0  501  0.00000000000E+00  0.00000000000E+00 -0.11205458782E+04  0.11205458782E+04  0.25500000920E-02 0. -1.
    10030    2    1    2    0    0  0.00000000000E+00  0.00000000000E+00  0.64353852684E+03  0.28846302832E+04  0.28119299485E+04 0.  0.
        2    1    3    3  502    0  0.11583804702E+04  0.64763749060E+02  0.11364666762E+04  0.16240677828E+04  0.25500000920E-02 0.  1.
       -2    1    3    3    0  502 -0.11583804702E+04 -0.64763749060E+02 -0.49292814938E+03  0.12605625004E+04  0.25500000920E-02 0. -1.
</event>
<event>
 5   0  0.4447500E-06  0.2795911E+04  0.7818609E-02  0.8304539E-01
        3   -1    0    0  501    0  0.00000000000E+00  0.00000000000E+00  0.20006251960E+04  0.20006251985E+04  0.10100000352E+00 0.  1.
       -3   -1    0    0    0  501  0.00000000000E+00  0.00000000000E+00 -0.97683420742E+03  0.97683421264E+03  0.10100000352E+00 0. -1.
    10030    2    1    2    0    0  0.00000000000E+00  0.00000000000E+00  0.10237909886E+04  0.29774594112E+04  0.27959106847E+04 0.  0.
        1    1    3    3  502    0 -0.73948175612E+03  0.10365393503E+04  0.11264573050E+04  0.17000450442E+04  0.50400001928E-02 0.  1.
       -1    1    3    3    0  502  0.73948175612E+03 -0.10365393503E+04 -0.10266631647E+03  0.12774143669E+04  0.50400001928E-02 0. -1.
</event>
<event>
 5   0  0.1330962E-05  0.2825819E+04  0.7818609E-02  0.8295297E-01
        2   -1    0    0  501    0  0.00000000000E+00  0.00000000000E+00  0.23896111324E+04  0.23896111324E+04  0.25500000920E-02 0.  1.
       -2   -1    0    0    0  501  0.00000000000E+00  0.00000000000E+00 -0.83541324601E+03  0.83541324601E+03  0.25500000920E-02 0. -1.
    10030    2    1    2    0    0  0.00000000000E+00  0.00000000000E+00  0.15541978864E+04  0.32250243784E+04  0.28258186727E+04 0.  0.
        4    1    3    3  502    0  0.79447021017E+03  0.11371707262E+04  0.47092551746E+03  0.14649616484E+04  0.12699999809E+01 0.  1.
       -4    1    3    3    0  502 -0.79447021017E+03 -0.11371707262E+04  0.10832723689E+04  0.17600627300E+04  0.12699999809E+01 0. -1.
</event>
<event>
 5   0  0.1283052E-05  0.2444862E+04  0.7818609E-02  0.8422896E-01
        2   -1    0    0  501    0  0.00000000000E+00  0.00000000000E+00  0.11296386687E+04  0.11296386687E+04  0.25500000920E-02 0.  1.
       -2   -1    0    0    0  501  0.00000000000E+00  0.00000000000E+00 -0.13228455556E+04  0.13228455556E+04  0.25500000920E-02 0. -1.
    10030    2    1    2    0    0  0.00000000000E+00  0.00000000000E+00 -0.19320688696E+03  0.24524842243E+04  0.24448619530E+04 0.  0.
        5    1    3    3  502    0 -0.70087095747E+03 -0.74273676306E+03  0.57738220708E+03  0.11731454732E+04  0.46999998093E+01 0.  1.
       -5    1    3    3    0  502  0.70087095747E+03  0.74273676306E+03 -0.77058909404E+03  0.12793387511E+04  0.46999998093E+01 0. -1.
</event>
<event>
 5   0  0.5281919E-06  0.2835422E+04  0.7818609E-02  0.8292355E-01
        1   -1    0    0  501    0  0.00000000000E+00  0.00000000000E+00  0.17398491430E+04  0.17398491431E+04  0.50400001928E-02 0.  1.
       -1   -1    0    0    0  501  0.00000000000E+00  0.00000000000E+00 -0.11552176337E+04  0.11552176337E+04  0.50400001928E-02 0. -1.
    10030    2    1    2    0    0  0.00000000000E+00  0.00000000000E+00  0.58463150937E+03  0.28950667767E+04  0.28354219510E+04 0.  0.
        4    1    3    3  502    0  0.19294840553E+03  0.65679424817E+03  0.15599202674E+04  0.17035141987E+04  0.12699999809E+01 0.  1.
       -4    1    3    3    0  502 -0.19294840553E+03 -0.65679424817E+03 -0.97528875807E+03  0.11915525780E+04  0.12699999809E+01 0. -1.
</event>
<event>
 5   0  0.5107453E-06  0.3108335E+04  0.7818609E-02  0.8213454E-01
        1   -1    0    0  501    0  0.00000000000E+00  0.00000000000E+00  0.18962213219E+04  0.18962213219E+04  0.50400001928E-02 0. -1.
       -1   -1    0    0    0  501  0.00000000000E+00  0.00000000000E+00 -0.12738154107E+04  0.12738154107E+04  0.50400001928E-02 0.  1.
    10030    2    1    2    0    0  0.00000000000E+00  0.00000000000E+00  0.62240591114E+03  0.31700367326E+04  0.31083345650E+04 0.  0.
        2    1    3    3  502    0  0.34133725434E+03 -0.16176771478E+03  0.18486952428E+04  0.18868900380E+04  0.25500000920E-02 0. -1.
       -2    1    3    3    0  502 -0.34133725434E+03  0.16176771478E+03 -0.12262893317E+04  0.12831466946E+04  0.25500000920E-02 0.  1.
</event>
<event>
 5   0  0.1283052E-05  0.2771946E+04  0.7818609E-02  0.8312031E-01
       -2   -1    0    0    0  501  0.00000000000E+00  0.00000000000E+00  0.10674467883E+04  0.10674467883E+04  0.25500000920E-02 0. -1.
        2   -1    0    0  501    0  0.00000000000E+00  0.00000000000E+00 -0.17995468363E+04  0.17995468363E+04  0.25500000920E-02 0.  1.
    10030    2    1    2    0    0  0.00000000000E+00  0.00000000000E+00 -0.73210004798E+03  0.28669936247E+04  0.27719455196E+04 0.  0.
        5    1    3    3  502    0  0.12839965011E+04 -0.33452452650E+03 -0.78021119359E+03  0.15392547776E+04  0.46999998093E+01 0. -1.
       -5    1    3    3    0  502 -0.12839965011E+04  0.33452452650E+03  0.48111145608E+02  0.13277388471E+04  0.46999998093E+01 0.  1.
</event>
<event>
 5   0  0.4764214E-06  0.2784551E+04  0.7818609E-02  0.8308081E-01
        1   -1    0    0  501    0  0.00000000000E+00  0.00000000000E+00  0.22029838833E+04  0.22029838833E+04  0.50400001928E-02 0. -1.
       -1   -1    0    0    0  501  0.00000000000E+00  0.00000000000E+00 -0.87991142918E+03  0.87991142920E+03  0.50400001928E-02 0.  1.
    10030    2    1    2    0    0  0.00000000000E+00  0.00000000000E+00  0.13230724541E+04  0.30828953125E+04  0.27845507338E+04 0.  0.
        3    1    3    3  502    0  0.21276704254E+02 -0.11148407405E+04  0.15845959917E+04  0.19375931053E+04  0.10100000352E+00 0. -1.
       -3    1    3    3    0  502 -0.21276704254E+02  0.11148407405E+04 -0.26152353756E+03  0.11453022072E+04  0.10100000352E+00 0.  1.
</event>
<event>
 5   0  0.1388269E-05  0.2595618E+04  0.7818609E-02  0.8369691E-01
        2   -1    0    0  501    0  0.00000000000E+00  0.00000000000E+00  0.14431685534E+04  0.14431685534E+04  0.25500000920E-02 0. -1.
       -2   -1    0    0    0  501  0.00000000000E+00  0.00000000000E+00 -0.11670901729E+04  0.11670901729E+04  0.25500000920E-02 0.  1.
    10030    2    1    2    0    0  0.00000000000E+00  0.00000000000E+00  0.27607838049E+03  0.26102587263E+04  0.25956177196E+04 0.  0.
        1    1    3    3  502    0 -0.57337567834E+03  0.75287173838E+03 -0.75507634328E+03  0.12106675048E+04  0.50400001928E-02 0.  1.
       -1    1    3    3    0  502  0.57337567834E+03 -0.75287173838E+03  0.10311547238E+04  0.13995912215E+04  0.50400001928E-02 0. -1.
</event>
<event>
 5   0  0.5217999E-06  0.2175503E+04  0.7818609E-02  0.8528694E-01
        1   -1    0    0  501    0  0.00000000000E+00  0.00000000000E+00  0.16080479294E+04  0.16080479294E+04  0.50400001928E-02 0. -1.
       -1   -1    0    0    0  501  0.00000000000E+00  0.00000000000E+00 -0.73580092905E+03  0.73580092907E+03  0.50400001928E-02 0.  1.
    10030    2    1    2    0    0  0.00000000000E+00  0.00000000000E+00  0.87224700031E+03  0.23438488584E+04  0.21755028480E+04 0.  0.
        1    1    3    3  502    0 -0.19658369621E+03 -0.89310825212E+03  0.10706969531E+04  0.14080765125E+04  0.50400001928E-02 0. -1.
       -1    1    3    3    0  502  0.19658369621E+03  0.89310825212E+03 -0.19844995281E+03  0.93577234594E+03  0.50400001928E-02 0.  1.
</event>
<event>
 5   0  0.1388269E-05  0.2801755E+04  0.7818609E-02  0.8302724E-01
        2   -1    0    0  501    0  0.00000000000E+00  0.00000000000E+00  0.20728996417E+04  0.20728996418E+04  0.25500000920E-02 0.  1.
       -2   -1    0    0    0  501  0.00000000000E+00  0.00000000000E+00 -0.94672126627E+03  0.94672126627E+03  0.25500000920E-02 0. -1.
    10030    2    1    2    0    0  0.00000000000E+00  0.00000000000E+00  0.11261783755E+04  0.30196209080E+04  0.28017552882E+04 0.  0.
        1    1    3    3  502    0  0.45811328607E+03 -0.88421162245E+03  0.16249759435E+04  0.19058449027E+04  0.50400001928E-02 0.  1.
       -1    1    3    3    0  502 -0.45811328607E+03  0.88421162245E+03 -0.49879756802E+03  0.11137760053E+04  0.50400001928E-02 0. -1.
</event>
<event>
 5   0  0.1388269E-05  0.2813425E+04  0.7818609E-02  0.8299113E-01
        2   -1    0    0  501    0  0.00000000000E+00  0.00000000000E+00  0.90476140436E+03  0.90476140437E+03  0.25500000920E-02 0.  1.
       -2   -1    0    0    0  501  0.00000000000E+00  0.00000000000E+00 -0.21871400298E+04  0.21871400298E+04  0.25500000920E-02 0. -1.
    10030    2    1    2    0    0  0.00000000000E+00  0.00000000000E+00 -0.12823786254E+04  0.30919014342E+04  0.28134248772E+04 0.  0.
        1    1    3    3  502    0  0.72666341559E+03  0.15466447980E+03  0.67156634989E+03  0.10014799964E+04  0.50400001928E-02 0.  1.
       -1    1    3    3    0  502 -0.72666341559E+03 -0.15466447980E+03 -0.19539449753E+04  0.20904214378E+04  0.50400001928E-02 0. -1.
</event>
<event>
 5   0  0.1283052E-05  0.2819828E+04  0.7818609E-02  0.8297139E-01
       -2   -1    0    0    0  501  0.00000000000E+00  0.00000000000E+00  0.67165020368E+03  0.67165020368E+03  0.25500000920E-02 0.  1.
        2   -1    0    0  501    0  0.00000000000E+00  0.00000000000E+00 -0.29596614147E+04  0.29596614147E+04  0.25500000920E-02 0. -1.
    10030    2    1    2    0    0  0.00000000000E+00  0.00000000000E+00 -0.22880112110E+04  0.36313116184E+04  0.28198277905E+04 0.  0.
        5    1    3    3  502    0  0.46763448211E+03  0.66768190379E+03  0.33741692310E+03  0.88224339243E+03  0.46999998093E+01 0.  1.
       -5    1    3    3    0  502 -0.46763448211E+03 -0.66768190379E+03 -0.26254281341E+04  0.27490682259E+04  0.46999998093E+01 0. -1.
</event>
<event>
 5   0  0.1350863E-05  0.2888946E+04  0.7818609E-02  0.8276174E-01
       -2   -1    0    0    0  501  0.00000000000E+00  0.00000000000E+00  0.82953579455E+03  0.82953579455E+03  0.25500000920E-02 0.  1.
        2   -1    0    0  501    0  0.00000000000E+00  0.00000000000E+00 -0.25152642636E+04  0.25152642636E+04  0.25500000920E-02 0. -1.
    10030    2    1    2    0    0  0.00000000000E+00  0.00000000000E+00 -0.16857284691E+04  0.33448000582E+04  0.28889456481E+04 0.  0.
        3    1    3    3  502    0  0.84136698345E+03 -0.11418138994E+04 -0.11596519359E+04  0.18320562231E+04  0.10100000352E+00 0. -1.
       -3    1    3    3    0  502 -0.84136698345E+03  0.11418138994E+04 -0.52607653313E+03  0.15127438351E+04  0.10100000352E+00 0.  1.
</event>
<event>
 5   0  0.5107453E-06  0.2814735E+04  0.7818609E-02  0.8298708E-01
       -1   -1    0    0    0  501  0.00000000000E+00  0.00000000000E+00  0.11860030257E+04  0.11860030257E+04  0.50400001928E-02 0. -1.
        1   -1    0    0  501    0  0.00000000000E+00  0.00000000000E+00 -0.16700491846E+04  0.16700491846E+04  0.50400001928E-02 0.  1.
    10030    2    1    2    0    0  0.00000000000E+00  0.00000000000E+00 -0.48404615893E+03  0.28560522103E+04  0.28147350752E+04 0.  0.
        2    1    3    3  502    0  0.11517613233E+03  0.11337027058E+04  0.59601568627E+03  0.12859945820E+04  0.25500000920E-02 0. -1.
       -2    1    3    3    0  502 -0.11517613233E+03 -0.11337027058E+04 -0.10800618452E+04  0.15700576283E+04  0.25500000920E-02 0.  1.
</event>
<event>
 5   0  0.4764214E-06  0.2819511E+04  0.7818609E-02  0.8297237E-01
       -1   -1    0    0    0  501  0.00000000000E+00  0.00000000000E+00  0.19213458256E+04  0.19213458256E+04  0.50400001928E-02 0. -1.
        1   -1    0    0  501    0  0.00000000000E+00  0.00000000000E+00 -0.10343843155E+04  0.10343843155E+04  0.50400001928E-02 0.  1.
    10030    2    1    2    0    0  0.00000000000E+00  0.00000000000E+00  0.88696151016E+03  0.29557301411E+04  0.28195105864E+04 0.  0.
        3    1    3    3  502    0 -0.19023046110E+02  0.10877395615E+04 -0.49642468466E+03  0.11958163353E+04  0.10100000352E+00 0.  1.
       -3    1    3    3    0  502  0.19023046110E+02 -0.10877395615E+04  0.13833861948E+04  0.17599138059E+04  0.10100000352E+00 0. -1.
</event>
<event>
 5   0  0.4447500E-06  0.2805032E+04  0.7818609E-02  0.8301708E-01
        3   -1    0    0  501    0  0.00000000000E+00  0.00000000000E+00  0.10840497866E+04  0.10840497913E+04  0.10100000352E+00 0. -1.
       -3   -1    0    0    0  501  0.00000000000E+00  0.00000000000E+00 -0.18145400635E+04  0.18145400663E+04  0.10100000352E+00 0.  1.
    10030    2    1    2    0    0  0.00000000000E+00  0.00000000000E+00 -0.73049027690E+03  0.28985898576E+04  0.28050324629E+04 0.  0.
        5    1    3    3  502    0 -0.41223889078E+03 -0.47735775939E+03 -0.16597108953E+04  0.17755206784E+04  0.46999998093E+01 0.  1.
       -5    1    3    3    0  502  0.41223889078E+03  0.47735775939E+03  0.92922061843E+03  0.11230691792E+04  0.46999998093E+01 0. -1.
</event>
<event>
 5   0  0.5107453E-06  0.2378939E+04  0.7818609E-02  0.8447431E-01
       -1   -1    0    0    0  501  0.00000000000E+00  0.00000000000E+00  0.15902721370E+04  0.15902721370E+04  0.50400001928E-02 0. -1.
        1   -1    0    0  501    0  0.00000000000E+00  0.00000000000E+00 -0.88968243005E+03  0.88968243007E+03  0.50400001928E-02 0.  1.
    10030    2    1    2    0    0  0.00000000000E+00  0.00000000000E+00  0.70058970693E+03  0.24799545671E+04  0.23789385694E+04 0.  0.
        2    1    3    3  502    0  0.43233801976E+03 -0.40759390605E+03  0.14244807578E+04  0.15434359025E+04  0.25500000920E-02 0. -1.
       -2    1    3    3    0  502 -0.43233801976E+03  0.40759390605E+03 -0.72389105089E+03  0.93651866460E+03  0.25500000920E-02 0.  1.
</event>
<event>
 5   0  0.5217999E-06  0.2781604E+04  0.7818609E-02  0.8309002E-01
        1   -1    0    0  501    0  0.00000000000E+00  0.00000000000E+00  0.14127676441E+04  0.14127676441E+04  0.50400001928E-02 0.  1.
       -1   -1    0    0    0  501  0.00000000000E+00  0.00000000000E+00 -0.13691782638E+04  0.13691782638E+04  0.50400001928E-02 0. -1.
    10030    2    1    2    0    0  0.00000000000E+00  0.00000000000E+00  0.43589380273E+02  0.27819459079E+04  0.27816043932E+04 0.  0.
        1    1    3    3  502    0  0.10348935579E+04  0.90302034024E+03 -0.19704794021E+03  0.13875439820E+04  0.50400001928E-02 0.  1.
       -1    1    3    3    0  502 -0.10348935579E+04 -0.90302034024E+03  0.24063732048E+03  0.13944019260E+04  0.50400001928E-02 0. -1.
</event>
<event>
 5   0  0.1330962E-05  0.2799056E+04  0.7818609E-02  0.8303561E-01
        2   -1    0    0  501    0  0.00000000000E+00  0.00000000000E+00  0.21603725612E+04  0.21603725612E+04  0.25500000920E-02 0.  1.
       -2   -1    0    0    0  501  0.00000000000E+00  0.00000000000E+00 -0.90663941671E+03  0.90663941672E+03  0.25500000920E-02 0. -1.
    10030    2    1    2    0    0  0.00000000000E+00  0.00000000000E+00  0.12537331445E+04  0.30670119779E+04  0.27990562115E+04 0.  0.
        4    1    3    3  502    0  0.17917407317E+03  0.20314345953E+03 -0.87764265785E+03  0.91849271169E+03  0.12699999809E+01 0. -1.
       -4    1    3    3    0  502 -0.17917407317E+03 -0.20314345953E+03  0.21313758023E+04  0.21485192662E+04  0.12699999809E+01 0.  1.
</event>
<event>
 5   0  0.4764214E-06  0.2696672E+04  0.7818609E-02  0.8336085E-01
        1   -1    0    0  501    0  0.00000000000E+00  0.00000000000E+00  0.19851377591E+04  0.19851377591E+04  0.50400001928E-02 0.  1.
       -1   -1    0    0    0  501  0.00000000000E+00  0.00000000000E+00 -0.91581078884E+03  0.91581078885E+03  0.50400001928E-02 0. -1.
    10030    2    1    2    0    0  0.00000000000E+00  0.00000000000E+00  0.10693269702E+04  0.29009485479E+04  0.26966724511E+04 0.  0.
        3    1    3    3  502    0  0.78259740422E+03  0.86264860509E+03 -0.19604738045E+03  0.11811248446E+04  0.10100000352E+00 0. -1.
       -3    1    3    3    0  502 -0.78259740422E+03 -0.86264860509E+03  0.12653743507E+04  0.17198237033E+04  0.10100000352E+00 0.  1.
</event>
<event>
 5   0  0.1302063E-05  0.2705917E+04  0.7818609E-02  0.8333088E-01
        2   -1    0    0  501    0  0.00000000000E+00  0.00000000000E+00  0.30682803903E+04  0.30682803903E+04  0.25500000920E-02 0. -1.
       -2   -1    0    0    0  501  0.00000000000E+00  0.00000000000E+00 -0.59658734888E+03  0.59658734888E+03  0.25500000920E-02 0.  1.
    10030    2    1    2    0    0  0.00000000000E+00  0.00000000000E+00  0.24716930414E+04  0.36648677392E+04  0.27059174146E+04 0.  0.
        2    1    3    3  502    0 -0.86752711092E+03 -0.12332282886E+03  0.26320417081E+04  0.27740683772E+04  0.25500000920E-02 0. -1.
       -2    1    3    3    0  502  0.86752711092E+03  0.12332282886E+03 -0.16034866671E+03  0.89079936194E+03  0.25500000920E-02 0.  1.
</event>
<event>
 5   0  0.5023691E-06  0.2787157E+04  0.7818609E-02  0.8307267E-01
       -1   -1    0    0    0  501  0.00000000000E+00  0.00000000000E+00  0.10914086283E+04  0.10914086283E+04  0.50400001928E-02 0. -1.
        1   -1    0    0  501    0  0.00000000000E+00  0.00000000000E+00 -0.17794083872E+04  0.17794083872E+04  0.50400001928E-02 0.  1.
    10030    2    1    2    0    0  0.00000000000E+00  0.00000000000E+00 -0.68799975886E+03  0.28708170155E+04  0.27871574531E+04 0.  0.
        5    1    3    3  502    0 -0.88126915539E+03  0.10771732070E+04 -0.27042662258E+03  0.14177764599E+04  0.46999998093E+01 0. -1.
       -5    1    3    3    0  502  0.88126915539E+03 -0.10771732070E+04 -0.41757313628E+03  0.14530405556E+04  0.46999998093E+01 0.  1.
</event>
<event>
 5   0  0.1330962E-05  0.2739988E+04  0.7818609E-02  0.8322146E-01
        2   -1    0    0  501    0  0.00000000000E+00  0.00000000000E+00  0.96601047791E+03  0.96601047791E+03  0.25500000920E-02 0. -1.
       -2   -1    0    0    0  501  0.00000000000E+00  0.00000000000E+00 -0.19429231210E+04  0.19429231210E+04  0.25500000920E-02 0.  1.
    10030    2    1    2    0    0  0.00000000000E+00  0.00000000000E+00 -0.97691264308E+03  0.29089335989E+04  0.27399883888E+04 0.  0.
        4    1    3    3  502    0  0.49233651425E+03  0.70862277501E+03  0.64127118126E+03  0.10750682868E+04  0.12699999809E+01 0. -1.
       -4    1    3    3    0  502 -0.49233651425E+03 -0.70862277501E+03 -0.16181838243E+04  0.18338653121E+04  0.12699999809E+01 0.  1.
</event>
<event>
 5   0  0.1388269E-05  0.2749057E+04  0.7818609E-02  0.8319261E-01
        2   -1    0    0  501    0  0.00000000000E+00  0.00000000000E+00  0.16078884390E+04  0.16078884390E+04  0.25500000920E-02 0. -1.
       -2   -1    0    0    0  501  0.00000000000E+00  0.00000000000E+00 -0.11750367232E+04  0.11750367232E+04  0.25500000920E-02 0.  1.
    10030    2    1    2    0    0  0.00000000000E+00  0.00000000000E+00  0.43285171583E+03  0.27829251622E+04  0.27490565383E+04 0.  0.
        1    1    3    3  502    0  0.98114472283E+03 -0.92183044773E+03 -0.64320310910E+02  0.13477957723E+04  0.50400001928E-02 0.  1.
       -1    1    3    3    0  502 -0.98114472283E+03  0.92183044773E+03  0.49717202674E+03  0.14351293899E+04  0.50400001928E-02 0. -1.
</event>
<event>
 5   0  0.1388269E-05  0.2803022E+04  0.7818609E-02  0.8302331E-01
       -2   -1    0    0    0  501  0.00000000000E+00  0.00000000000E+00  0.14406218916E+04  0.14406218916E+04  0.25500000920E-02 0. -1.
        2   -1    0    0  501    0  0.00000000000E+00  0.00000000000E+00 -0.13634622925E+04  0.13634622925E+04  0.25500000920E-02 0.  1.
    10030    2    1    2    0    0  0.00000000000E+00  0.00000000000E+00  0.77159599156E+02  0.28040841841E+04  0.28030223880E+04 0.  0.
        1    1    3    3  502    0 -0.10325894640E+04 -0.73056048844E+03 -0.56519998452E+03  0.13854279667E+04  0.50400001928E-02 0.  1.
       -1    1    3    3    0  502  0.10325894640E+04  0.73056048844E+03  0.64235958367E+03  0.14186562174E+04  0.50400001928E-02 0. -1.
</event>
<event>
 5   0  0.5281919E-06  0.2323117E+04  0.7818609E-02  0.8468862E-01
       -1   -1    0    0    0  501  0.00000000000E+00  0.00000000000E+00  0.70152632534E+03  0.70152632536E+03  0.50400001928E-02 0.  1.
        1   -1    0    0  501    0  0.00000000000E+00  0.00000000000E+00 -0.19232616040E+04  0.19232616040E+04  0.50400001928E-02 0. -1.
    10030    2    1    2    0    0  0.00000000000E+00  0.00000000000E+00 -0.12217352786E+04  0.26247879293E+04  0.23231174277E+04 0.  0.
        4    1    3    3  502    0  0.46767651934E+03 -0.14779411058E+03  0.57878671529E+03  0.75865677388E+03  0.12699999809E+01 0.  1.
       -4    1    3    3    0  502 -0.46767651934E+03  0.14779411058E+03 -0.18005219939E+04  0.18661311555E+04  0.12699999809E+01 0. -1.
</event>
<event>
 5   0  0.1330962E-05  0.2439679E+04  0.7818609E-02  0.8424796E-01
       -2   -1    0    0    0  501  0.00000000000E+00  0.00000000000E+00  0.13540156496E+04  0.13540156496E+04  0.25500000920E-02 0.  1.
        2   -1    0    0  501    0  0.00000000000E+00  0.00000000000E+00 -0.10989596053E+04  0.10989596053E+04  0.25500000920E-02 0. -1.
    10030    2    1    2    0    0  0.00000000000E+00  0.00000000000E+00  0.25505604422E+03  0.24529752549E+04  0.24396790804E+04 0.  0.
        4    1    3    3  502    0  0.51300872265E+03  0.89075531537E+03 -0.53284973356E+03  0.11578227122E+04  0.12699999809E+01 0. -1.
       -4    1    3    3    0  502 -0.51300872265E+03 -0.89075531537E+03  0.78790577778E+03  0.12951525427E+04  0.12699999809E+01 0.  1.
</event>
<event>
 5   0  0.1330962E-05  0.2816169E+04  0.7818609E-02  0.8298266E-01
        2   -1    0    0  501    0  0.00000000000E+00  0.00000000000E+00  0.19244075140E+04  0.19244075140E+04  0.25500000920E-02 0.  1.
       -2   -1    0    0    0  501  0.00000000000E+00  0.00000000000E+00 -0.10302924180E+04  0.10302924180E+04  0.25500000920E-02 0. -1.
    10030    2    1    2    0    0  0.00000000000E+00  0.00000000000E+00  0.89411509606E+03  0.29546999320E+04  0.28161693634E+04 0.  0.
        4    1    3    3  502    0  0.96388015643E+03  0.91860953897E+03  0.92761963583E+03  0.16227717778E+04  0.12699999809E+01 0.  1.
       -4    1    3    3    0  502 -0.96388015643E+03 -0.91860953897E+03 -0.33504539764E+02  0.13319281543E+04  0.12699999809E+01 0. -1.
</event>
<event>
 5   0  0.5107453E-06  0.2804892E+04  0.7818609E-02  0.8301751E-01
       -1   -1    0    0    0  501  0.00000000000E+00  0.00000000000E+00  0.14921422640E+04  0.14921422640E+04  0.50400001928E-02 0. -1.
        1   -1    0    0  501    0  0.00000000000E+00  0.00000000000E+00 -0.13181419820E+04  0.13181419820E+04  0.50400001928E-02 0.  1.
    10030    2    1    2    0    0  0.00000000000E+00  0.00000000000E+00  0.17400028197E+03  0.28102842460E+04  0.28048924125E+04 0.  0.
        2    1    3    3  502    0  0.52335380538E+03  0.12046972204E+04  0.57953515805E+03  0.14356376973E+04  0.25500000920E-02 0. -1.
       -2    1    3    3    0  502 -0.52335380538E+03 -0.12046972204E+04 -0.40553487608E+03  0.13746465488E+04  0.25500000920E-02 0.  1.
</event>
<event>
 5   0  0.1330962E-05  0.2292369E+04  0.7818609E-02  0.8480936E-01
        2   -1    0    0  501    0  0.00000000000E+00  0.00000000000E+00  0.19240020162E+04  0.19240020162E+04  0.25500000920E-02 0. -1.
       -2   -1    0    0    0  501  0.00000000000E+00  0.00000000000E+00 -0.68281573760E+03  0.68281573761E+03  0.25500000920E-02 0.  1.
    10030    2    1    2    0    0  0.00000000000E+00  0.00000000000E+00  0.12411862786E+04  0.26068177538E+04  0.22923689544E+04 0.  0.
        4    1    3    3  502    0 -0.74267628058E+03 -0.75879269826E+03  0.12962603068E+03  0.10696443041E+04  0.12699999809E+01 0.  1.
       -4    1    3    3    0  502  0.74267628058E+03  0.75879269826E+03  0.11115602479E+04  0.15371734496E+04  0.12699999809E+01 0. -1.
</event>
<event>
 5   0  0.5023691E-06  0.2782833E+04  0.7818609E-02  0.8308618E-01
       -1   -1    0    0    0  501  0.00000000000E+00  0.00000000000E+00  0.11279523394E+04  0.11279523394E+04  0.50400001928E-02 0. -1.
        1   -1    0    0  501    0  0.00000000000E+00  0.00000000000E+00 -0.17164193270E+04  0.17164193270E+04  0.50400001928E-02 0.  1.
    10030    2    1    2    0    0  0.00000000000E+00  0.00000000000E+00 -0.58846698762E+03  0.28443716664E+04  0.27828325105E+04 0.  0.
        5    1    3    3  502    0 -0.13796421260E+04  0.20328860864E+02 -0.11084608067E+03  0.13842451380E+04  0.46999998093E+01 0.  1.
       -5    1    3    3    0  502  0.13796421260E+04 -0.20328860864E+02 -0.47762090696E+03  0.14601265285E+04  0.46999998093E+01 0. -1.
</event>
<event>
 5   0  0.5023691E-06  0.2721732E+04  0.7818609E-02  0.8327988E-01
       -1   -1    0    0    0  501  0.00000000000E+00  0.00000000000E+00  0.86927418880E+03  0.86927418881E+03  0.50400001928E-02 0. -1.
        1   -1    0    0  501    0  0.00000000000E+00  0.00000000000E+00 -0.21304620293E+04  0.21304620293E+04  0.50400001928E-02 0.  1.
    10030    2    1    2    0    0  0.00000000000E+00  0.00000000000E+00 -0.12611878405E+04  0.29997362182E+04  0.27217315462E+04 0.  0.
        5    1    3    3  502    0 -0.10803849836E+04 -0.74078393357E+03 -0.22423197442E+03  0.13290201719E+04  0.46999998093E+01 0. -1.
       -5    1    3    3    0  502  0.10803849836E+04  0.74078393357E+03 -0.10369558661E+04  0.16707160463E+04  0.46999998093E+01 0.  1.
</event>
<event>
 5   0  0.5023691E-06  0.2862134E+04  0.7818609E-02  0.8284234E-01
        1   -1    0    0  501    0  0.00000000000E+00  0.00000000000E+00  0.25780397794E+04  0.25780397794E+04  0.50400001928E-02 0.  1.
       -1   -1    0    0    0  501  0.00000000000E+00  0.00000000000E+00 -0.79438352390E+03  0.79438352392E+03  0.50400001928E-02 0. -1.
    10030    2    1    2    0    0  0.00000000000E+00  0.00000000000E+00  0.17836562555E+04  0.33724233033E+04  0.28621336969E+04 0.  0.
        5    1    3    3  502    0  0.89289111224E+03  0.11148475832E+04  0.99582890376E+03  0.17412170937E+04  0.46999998093E+01 0. -1.
       -5    1    3    3    0  502 -0.89289111224E+03 -0.11148475832E+04  0.78782735173E+03  0.16312062096E+04  0.46999998093E+01 0.  1.
</event>
<event>
 5   0  0.5107453E-06  0.2835370E+04  0.7818609E-02  0.8292371E-01
        1   -1    0    0  501    0  0.00000000000E+00  0.00000000000E+00  0.10344355633E+04  0.10344355633E+04  0.50400001928E-02 0. -1.
       -1   -1    0    0    0  501  0.00000000000E+00  0.00000000000E+00 -0.19429249310E+04  0.19429249310E+04  0.50400001928E-02 0.  1.
    10030    2    1    2    0    0  0.00000000000E+00  0.00000000000E+00 -0.90848936774E+03  0.29773604943E+04  0.28353699197E+04 0.  0.
        2    1    3    3  502    0 -0.10553829939E+04 -0.48379012032E+03  0.40009874469E+03  0.12279923248E+04  0.25500000920E-02 0. -1.
       -2    1    3    3    0  502  0.10553829939E+04  0.48379012032E+03 -0.13085881124E+04  0.17493681695E+04  0.25500000920E-02 0.  1.
</event>
<event>
 5   0  0.1350863E-05  0.2637461E+04  0.7818609E-02  0.8355587E-01
        2   -1    0    0  501    0  0.00000000000E+00  0.00000000000E+00  0.13022124632E+04  0.13022124632E+04  0.25500000920E-02 0. -1.
       -2   -1    0    0    0  501  0.00000000000E+00  0.00000000000E+00 -0.13354578726E+04  0.13354578726E+04  0.25500000920E-02 0.  1.
    10030    2    1    2    0    0  0.00000000000E+00  0.00000000000E+00 -0.33245409324E+02  0.26376703358E+04  0.26374608136E+04 0.  0.
        3    1    3    3  502    0  0.10292335394E+04  0.79492735572E+03 -0.23531494038E+03  0.13215915824E+04  0.10100000352E+00 0.  1.
       -3    1    3    3    0  502 -0.10292335394E+04 -0.79492735572E+03  0.20206953106E+03  0.13160787533E+04  0.10100000352E+00 0. -1.
</event>
<event>
 5   0  0.1283052E-05  0.2712905E+04  0.7818609E-02  0.8330830E-01
        2   -1    0    0  501    0  0.00000000000E+00  0.00000000000E+00  0.13049224164E+04  0.13049224164E+04  0.25500000920E-02 0.  1.
       -2   -1    0    0    0  501  0.00000000000E+00  0.00000000000E+00 -0.14100170270E+04  0.14100170270E+04  0.25500000920E-02 0. -1.
    10030    2    1    2    0    0  0.00000000000E+00  0.00000000000E+00 -0.10509461059E+03  0.27149394433E+04  0.27129045880E+04 0.  0.
        5    1    3    3  502    0 -0.76419655981E+03 -0.28576101104E+03 -0.11370044228E+04  0.13994487790E+04  0.46999998093E+01 0. -1.
       -5    1    3    3    0  502  0.76419655981E+03  0.28576101104E+03  0.10319098122E+04  0.13154906644E+04  0.46999998093E+01 0.  1.
</event>
<event>
 5   0  0.1302063E-05  0.2634636E+04  0.7818609E-02  0.8356531E-01
       -2   -1    0    0    0  501  0.00000000000E+00  0.00000000000E+00  0.12689608312E+04  0.12689608312E+04  0.25500000920E-02 0.  1.
        2   -1    0    0  501    0  0.00000000000E+00  0.00000000000E+00 -0.13675175562E+04  0.13675175562E+04  0.25500000920E-02 0. -1.
    10030    2    1    2    0    0  0.00000000000E+00  0.00000000000E+00 -0.98556724996E+02  0.26364783875E+04  0.26346356218E+04 0.  0.
        2    1    3    3  502    0  0.14356905435E+03 -0.27796329566E+02 -0.13593699385E+04  0.13672129823E+04  0.25500000920E-02 0. -1.
       -2    1    3    3    0  502 -0.14356905435E+03  0.27796329566E+02  0.12608132135E+04  0.12692654051E+04  0.25500000920E-02 0.  1.
</event>
<event>
 5   0  0.5281919E-06  0.2772437E+04  0.7818609E-02  0.8311877E-01
       -1   -1    0    0    0  501  0.00000000000E+00  0.00000000000E+00  0.12132986848E+04  0.12132986848E+04  0.50400001928E-02 0. -1.
        1   -1    0    0  501    0  0.00000000000E+00  0.00000000000E+00 -0.15837831048E+04  0.15837831048E+04  0.50400001928E-02 0.  1.
    10030    2    1    2    0    0  0.00000000000E+00  0.00000000000E+00 -0.37048441999E+03  0.27970817896E+04  0.27724371647E+04 0.  0.
        4    1    3    3  502    0 -0.90166777290E+02 -0.10084442610E+04 -0.11405012070E+04  0.15250686842E+04  0.12699999809E+01 0. -1.
       -4    1    3    3    0  502  0.90166777290E+02  0.10084442610E+04  0.77001678704E+03  0.12720131055E+04  0.12699999809E+01 0.  1.
</event>
<event>
 5   0  0.1388269E-05  0.2860698E+04  0.7818609E-02  0.8284668E-01
        2   -1    0    0  501    0  0.00000000000E+00  0.00000000000E+00  0.13089199020E+04  0.13089199020E+04  0.25500000920E-02 0. -1.
       -2   -1    0    0    0  501  0.00000000000E+00  0.00000000000E+00 -0.15630433480E+04  0.15630433480E+04  0.25500000920E-02 0.  1.
    10030    2    1    2    0    0  0.00000000000E+00  0.00000000000E+00 -0.25412344599E+03  0.28719632499E+04  0.28606981985E+04 0.  0.
        1    1    3    3  502    0 -0.97024809127E+02 -0.94697157323E+03  0.94472344859E+03  0.13411455433E+04  0.50400001928E-02 0. -1.
       -1    1    3    3    0  502  0.97024809127E+02  0.94697157323E+03 -0.11988468946E+04  0.15308177066E+04  0.50400001928E-02 0.  1.
</event>
<event>
 5   0  0.5107453E-06  0.2752946E+04  0.7818609E-02  0.8318027E-01
        1   -1    0    0  501    0  0.00000000000E+00  0.00000000000E+00  0.13259104427E+04  0.13259104427E+04  0.50400001928E-02 0.  1.
       -1   -1    0    0    0  501  0.00000000000E+00  0.00000000000E+00 -0.14289637008E+04  0.14289637008E+04  0.50400001928E-02 0. -1.
    10030    2    1    2    0    0  0.00000000000E+00  0.00000000000E+00 -0.10305325811E+03  0.27548741434E+04  0.27529459806E+04 0.  0.
        2    1    3    3  502    0 -0.78716529931E+03 -0.19925958026E+03 -0.11637655333E+04  0.14190432711E+04  0.25500000920E-02 0. -1.
       -2    1    3    3    0  502  0.78716529931E+03  0.19925958026E+03  0.10607122752E+04  0.13358308723E+04  0.25500000920E-02 0.  1.
</event>
<event>
 5   0  0.5217999E-06  0.2852773E+04  0.7818609E-02  0.8287069E-01
       -1   -1    0    0    0  501  0.00000000000E+00  0.00000000000E+00  0.12036619509E+04  0.12036619509E+04  0.50400001928E-02 0. -1.
        1   -1    0    0  501    0  0.00000000000E+00  0.00000000000E+00 -0.16903235451E+04  0.16903235451E+04  0.50400001928E-02 0.  1.
    10030    2    1    2    0    0  0.00000000000E+00  0.00000000000E+00 -0.48666159415E+03  0.28939854960E+04  0.28527727816E+04 0.  0.
        1    1    3    3  502    0 -0.22955527875E+03  0.26262880143E+03 -0.16463909163E+04  0.16829356977E+04  0.50400001928E-02 0.  1.
       -1    1    3    3    0  502  0.22955527875E+03 -0.26262880143E+03  0.11597293221E+04  0.12110497983E+04  0.50400001928E-02 0. -1.
</event>
<event>
 5   0  0.4764214E-06  0.2810978E+04  0.7818609E-02  0.8299868E-01
       -1   -1    0    0    0  501  0.00000000000E+00  0.00000000000E+00  0.10617049127E+04  0.10617049127E+04  0.50400001928E-02 0.  1.
        1   -1    0    0  501    0  0.00000000000E+00  0.00000000000E+00 -0.18605919394E+04  0.18605919394E+04  0.50400001928E-02 0. -1.
    10030    2    1    2    0    0  0.00000000000E+00  0.00000000000E+00 -0.79888702675E+03  0.29222968521E+04  0.28109781946E+04 0.  0.
        3    1    3    3  502    0  0.52844489050E+02 -0.42254192888E+03 -0.17919139558E+04  0.18418169987E+04  0.10100000352E+00 0. -1.
       -3    1    3    3    0  502 -0.52844489050E+02  0.42254192888E+03  0.99302692902E+03  0.10804798534E+04  0.10100000352E+00 0.  1.
</event>
<event>
 5   0  0.5107453E-06  0.2829317E+04  0.7818609E-02  0.8294224E-01
       -1   -1    0    0    0  501  0.00000000000E+00  0.00000000000E+00  0.86554241646E+03  0.86554241648E+03  0.50400001928E-02 0. -1.
        1   -1    0    0  501    0  0.00000000000E+00  0.00000000000E+00 -0.23121439887E+04  0.23121439887E+04  0.50400001928E-02 0.  1.
    10030    2    1    2    0    0  0.00000000000E+00  0.00000000000E+00 -0.14466015723E+04  0.31776864052E+04  0.28293170167E+04 0.  0.
        2    1    3    3  502    0  0.56414648956E+03 -0.75431905687E+03  0.46211868808E+03  0.10491959698E+04  0.25500000920E-02 0. -1.
       -2    1    3    3    0  502 -0.56414648956E+03  0.75431905687E+03 -0.19087202604E+04  0.21284904354E+04  0.25500000920E-02 0.  1.
</event>
<event>
 5   0  0.4764214E-06  0.2802374E+04  0.7818609E-02  0.8302532E-01
       -1   -1    0    0    0  501  0.00000000000E+00  0.00000000000E+00  0.85535738622E+03  0.85535738623E+03  0.50400001928E-02 0.  1.
        1   -1    0    0  501    0  0.00000000000E+00  0.00000000000E+00 -0.22953265543E+04  0.22953265543E+04  0.50400001928E-02 0. -1.
    10030    2    1    2    0    0  0.00000000000E+00  0.00000000000E+00 -0.14399691681E+04  0.31506839405E+04  0.28023736525E+04 0.  0.
        3    1    3    3  502    0  0.34089419353E+03  0.82096026198E+03  0.49775297908E+03  0.10187947003E+04  0.10100000352E+00 0.  1.
       -3    1    3    3    0  502 -0.34089419353E+03 -0.82096026198E+03 -0.19377221471E+04  0.21318892402E+04  0.10100000352E+00 0. -1.
</event>
<event>
 5   0  0.5217999E-06  0.2816544E+04  0.7818609E-02  0.8298150E-01
        1   -1    0    0  501    0  0.00000000000E+00  0.00000000000E+00  0.10941394781E+04  0.10941394781E+04  0.50400001928E-02 0. -1.
       -1   -1    0    0    0  501  0.00000000000E+00  0.00000000000E+00 -0.18125936145E+04  0.18125936145E+04  0.50400001928E-02 0.  1.
    10030    2    1    2    0    0  0.00000000000E+00  0.00000000000E+00 -0.71845413639E+03  0.29067330926E+04  0.28165441458E+04 0.  0.
        1    1    3    3  502    0  0.84587672150E+03 -0.87140921090E+03  0.37660385106E+03  0.12714919982E+04  0.50400001928E-02 0.  1.
       -1    1    3    3    0  502 -0.84587672150E+03  0.87140921090E+03 -0.10950579874E+04  0.16352410944E+04  0.50400001928E-02 0. -1.
</event>
<event>
 5   0  0.5107453E-06  0.2688609E+04  0.7818609E-02  0.8338710E-01
       -1   -1    0    0    0  501  0.00000000000E+00  0.00000000000E+00  0.79840924297E+03  0.79840924299E+03  0.50400001928E-02 0.  1.
        1   -1    0    0  501    0  0.00000000000E+00  0.00000000000E+00 -0.22634439870E+04  0.22634439870E+04  0.50400001928E-02 0. -1.
    10030    2    1    2    0    0  0.00000000000E+00  0.00000000000E+00 -0.14650347440E+04  0.30618532300E+04  0.26886090085E+04 0.  0.
        2    1    3    3  502    0  0.96449711567E+02  0.18163805169E+03  0.78038815373E+03  0.80703196912E+03  0.25500000920E-02 0.  1.
       -2    1    3    3    0  502 -0.96449711567E+02 -0.18163805169E+03 -0.22454228978E+04  0.22548212609E+04  0.25500000920E-02 0. -1.
</event>
<event>
 5   0  0.1302063E-05  0.2808757E+04  0.7818609E-02  0.8300555E-01
       -2   -1    0    0    0  501  0.00000000000E+00  0.00000000000E+00  0.13348349870E+04  0.13348349870E+04  0.25500000920E-02 0. -1.
        2   -1    0    0  501    0  0.00000000000E+00  0.00000000000E+00 -0.14775452954E+04  0.14775452954E+04  0.25500000920E-02 0.  1.
    10030    2    1    2    0    0  0.00000000000E+00  0.00000000000E+00 -0.14271030845E+03  0.28123802824E+04  0.28087571310E+04 0.  0.
        2    1    3    3  502    0  0.46642000466E+02  0.35778612164E+03 -0.14303431027E+04  0.14751500861E+04  0.25500000920E-02 0.  1.
       -2    1    3    3    0  502 -0.46642000466E+02 -0.35778612164E+03  0.12876327943E+04  0.13372301963E+04  0.25500000920E-02 0. -1.
</event>
<event>
 5   0  0.5107453E-06  0.2736990E+04  0.7818609E-02  0.8323102E-01
       -1   -1    0    0    0  501  0.00000000000E+00  0.00000000000E+00  0.12950508583E+04  0.12950508583E+04  0.50400001928E-02 0. -1.
        1   -1    0    0  501    0  0.00000000000E+00  0.00000000000E+00 -0.14461043599E+04  0.14461043599E+04  0.50400001928E-02 0.  1.
    10030    2    1    2    0    0  0.00000000000E+00  0.00000000000E+00 -0.15105350164E+03  0.27411552182E+04  0.27369900931E+04 0.  0.
        2    1    3    3  502    0  0.11790046219E+04  0.65444594756E+03 -0.30917836278E+03  0.13834531639E+04  0.25500000920E-02 0. -1.
       -2    1    3    3    0  502 -0.11790046219E+04 -0.65444594756E+03  0.15812486114E+03  0.13577020543E+04  0.25500000920E-02 0.  1.
</event>
<event>
 5   0  0.5023691E-06  0.2812548E+04  0.7818609E-02  0.8299383E-01
       -1   -1    0    0    0  501  0.00000000000E+00  0.00000000000E+00  0.11519414733E+04  0.11519414733E+04  0.50400001928E-02 0. -1.
        1   -1    0    0  501    0  0.00000000000E+00  0.00000000000E+00 -0.17167598712E+04  0.17167598712E+04  0.50400001928E-02 0.  1.
    10030    2    1    2    0    0  0.00000000000E+00  0.00000000000E+00 -0.56481839796E+03  0.28687013445E+04  0.28125482363E+04 0.  0.
        5    1    3    3  502    0  0.14036476415E+04  0.37527303993E+02 -0.20373420198E+03  0.14188603578E+04  0.46999998093E+01 0.  1.
       -5    1    3    3    0  502 -0.14036476415E+04 -0.37527303993E+02 -0.36108419598E+03  0.14498409867E+04  0.46999998093E+01 0. -1.
</event>
<event>
 5   0  0.4447500E-06  0.2817443E+04  0.7818609E-02  0.8297873E-01
       -3   -1    0    0    0  501  0.00000000000E+00  0.00000000000E+00  0.10616590938E+04  0.10616590986E+04  0.10100000352E+00 0.  1.
        3   -1    0    0  501    0  0.00000000000E+00  0.00000000000E+00 -0.18692405784E+04  0.18692405811E+04  0.10100000352E+00 0. -1.
    10030    2    1    2    0    0  0.00000000000E+00  0.00000000000E+00 -0.80758148452E+03  0.29308996797E+04  0.28174430036E+04 0.  0.
        3    1    3    3  502    0 -0.14469989605E+03  0.19973704470E+03  0.10390232504E+04  0.10678961897E+04  0.10100000352E+00 0.  1.
       -3    1    3    3    0  502  0.14469989605E+03 -0.19973704470E+03 -0.18466047349E+04  0.18630034901E+04  0.10100000352E+00 0. -1.
</event>
<event>
 5   0  0.1350863E-05  0.2787011E+04  0.7818609E-02  0.8307312E-01
       -2   -1    0    0    0  501  0.00000000000E+00  0.00000000000E+00  0.74447984941E+03  0.74447984942E+03  0.25500000920E-02 0.  1.
        2   -1    0    0  501    0  0.00000000000E+00  0.00000000000E+00 -0.26083408391E+04  0.26083408391E+04  0.25500000920E-02 0. -1.
    10030    2    1    2    0    0  0.00000000000E+00  0.00000000000E+00 -0.18638609897E+04  0.33528206885E+04  0.27870107248E+04 0.  0.
        3    1    3    3  502    0  0.10666438194E+04  0.14740190535E+03 -0.19960400373E+04  0.22679577156E+04  0.10100000352E+00 0. -1.
       -3    1    3    3    0  502 -0.10666438194E+04 -0.14740190535E+03  0.13217904759E+03  0.10848629729E+04  0.10100000352E+00 0.  1.
</event>
<event>
 5   0  0.1350863E-05  0.2848095E+04  0.7818609E-02  0.8288490E-01
        2   -1    0    0  501    0  0.00000000000E+00  0.00000000000E+00  0.17479524529E+04  0.17479524529E+04  0.25500000920E-02 0.  1.
       -2   -1    0    0    0  501  0.00000000000E+00  0.00000000000E+00 -0.11601639816E+04  0.11601639816E+04  0.25500000920E-02 0. -1.
    10030    2    1    2    0    0  0.00000000000E+00  0.00000000000E+00  0.58778847125E+03  0.29081164345E+04  0.28480951370E+04 0.  0.
        3    1    3    3  502    0  0.22479852887E+03  0.22983710303E+03 -0.11226238467E+04  0.11677515934E+04  0.10100000352E+00 0. -1.
       -3    1    3    3    0  502 -0.22479852887E+03 -0.22983710303E+03  0.17104123179E+04  0.17403648411E+04  0.10100000352E+00 0.  1.
</event>
<event>
 5   0  0.1330962E-05  0.2763711E+04  0.7818609E-02  0.8314624E-01
        2   -1    0    0  501    0  0.00000000000E+00  0.00000000000E+00  0.18734889614E+04  0.18734889614E+04  0.25500000920E-02 0. -1.
       -2   -1    0    0    0  501  0.00000000000E+00  0.00000000000E+00 -0.10192346312E+04  0.10192346312E+04  0.25500000920E-02 0.  1.
    10030    2    1    2    0    0  0.00000000000E+00  0.00000000000E+00  0.85425433015E+03  0.28927235926E+04  0.27637111503E+04 0.  0.
        4    1    3    3  502    0  0.93255961731E+03  0.96115831188E+03  0.78366065186E+03  0.15516502088E+04  0.12699999809E+01 0. -1.
       -4    1    3    3    0  502 -0.93255961731E+03 -0.96115831188E+03  0.70593678287E+02  0.13410733838E+04  0.12699999809E+01 0.  1.
</event>
<event>
 5   0  0.1350863E-05  0.2833370E+04  0.7818609E-02  0.8292983E-01
       -2   -1    0    0    0  501  0.00000000000E+00  0.00000000000E+00  0.12007462601E+04  0.12007462601E+04  0.25500000920E-02 0.  1.
        2   -1    0    0  501    0  0.00000000000E+00  0.00000000000E+00 -0.16714577655E+04  0.16714577656E+04  0.25500000920E-02 0. -1.
    10030    2    1    2    0    0  0.00000000000E+00  0.00000000000E+00 -0.47071150543E+03  0.28722040257E+04  0.28333701918E+04 0.  0.
        3    1    3    3  502    0  0.12767523433E+04 -0.59091912319E+03 -0.40411477982E+03  0.14637591065E+04  0.10100000352E+00 0. -1.
       -3    1    3    3    0  502 -0.12767523433E+04  0.59091912319E+03 -0.66596725606E+02  0.14084449192E+04  0.10100000352E+00 0.  1.
</event>
<event>
 5   0  0.1388269E-05  0.2684446E+04  0.7818609E-02  0.8340069E-01
       -2   -1    0    0    0  501  0.00000000000E+00  0.00000000000E+00  0.11147526878E+04  0.11147526878E+04  0.25500000920E-02 0.  1.
        2   -1    0    0  501    0  0.00000000000E+00  0.00000000000E+00 -0.16161097605E+04  0.16161097605E+04  0.25500000920E-02 0. -1.
    10030    2    1    2    0    0  0.00000000000E+00  0.00000000000E+00 -0.50135707268E+03  0.27308624483E+04  0.26844460876E+04 0.  0.
        1    1    3    3  502    0  0.45214494178E+03 -0.13922635406E+03  0.10271228733E+04  0.11308405824E+04  0.50400001928E-02 0.  1.
       -1    1    3    3    0  502 -0.45214494178E+03  0.13922635406E+03 -0.15284799459E+04  0.16000218659E+04  0.50400001928E-02 0. -1.
</event>
<event>
 5   0  0.1283052E-05  0.2794585E+04  0.7818609E-02  0.8304951E-01
        2   -1    0    0  501    0  0.00000000000E+00  0.00000000000E+00  0.15417764707E+04  0.15417764707E+04  0.25500000920E-02 0. -1.
       -2   -1    0    0    0  501  0.00000000000E+00  0.00000000000E+00 -0.12663486037E+04  0.12663486037E+04  0.25500000920E-02 0.  1.
    10030    2    1    2    0    0  0.00000000000E+00  0.00000000000E+00  0.27542786701E+03  0.28081250745E+04  0.27945851076E+04 0.  0.
        5    1    3    3  502    0  0.74092347229E+03  0.25209168696E+03 -0.10254291053E+04  0.12899785852E+04  0.46999998093E+01 0.  1.
       -5    1    3    3    0  502 -0.74092347229E+03 -0.25209168696E+03  0.13008569723E+04  0.15181464892E+04  0.46999998093E+01 0. -1.
</event>
<event>
 5   0  0.1283052E-05  0.2818449E+04  0.7818609E-02  0.8297563E-01
       -2   -1    0    0    0  501  0.00000000000E+00  0.00000000000E+00  0.82800054016E+03  0.82800054017E+03  0.25500000920E-02 0.  1.
        2   -1    0    0  501    0  0.00000000000E+00  0.00000000000E+00 -0.23984456466E+04  0.23984456466E+04  0.25500000920E-02 0. -1.
    10030    2    1    2    0    0  0.00000000000E+00  0.00000000000E+00 -0.15704451065E+04  0.32264461868E+04  0.28184494255E+04 0.  0.
        5    1    3    3  502    0  0.13509485060E+03 -0.36728590848E+02 -0.23904561895E+04  0.23945568467E+04  0.46999998093E+01 0. -1.
       -5    1    3    3    0  502 -0.13509485060E+03  0.36728590848E+02  0.82001108299E+03  0.83188934016E+03  0.46999998093E+01 0.  1.
</event>
<event>
 5   0  0.4764214E-06  0.2776874E+04  0.7818609E-02  0.8310484E-01
       -1   -1    0    0    0  501  0.00000000000E+00  0.00000000000E+00  0.11194345672E+04  0.11194345673E+04  0.50400001928E-02 0. -1.
        1   -1    0    0  501    0  0.00000000000E+00  0.00000000000E+00 -0.17220813585E+04  0.17220813586E+04  0.50400001928E-02 0.  1.
    10030    2    1    2    0    0  0.00000000000E+00  0.00000000000E+00 -0.60264679130E+03  0.28415159258E+04  0.27768740702E+04 0.  0.
        3    1    3    3  502    0  0.74134786521E+03  0.94987098472E+03  0.40459488531E+03  0.12710423188E+04  0.10100000352E+00 0.  1.
       -3    1    3    3    0  502 -0.74134786521E+03 -0.94987098472E+03 -0.10072416766E+04  0.15704736070E+04  0.10100000352E+00 0. -1.
</event>
<event>
 5   0  0.5217999E-06  0.2768016E+04  0.7818609E-02  0.8313268E-01
       -1   -1    0    0    0  501  0.00000000000E+00  0.00000000000E+00  0.19427337887E+04  0.19427337888E+04  0.50400001928E-02 0.  1.
        1   -1    0    0  501    0  0.00000000000E+00  0.00000000000E+00 -0.98597023784E+03  0.98597023786E+03  0.50400001928E-02 0. -1.
    10030    2    1    2    0    0  0.00000000000E+00  0.00000000000E+00  0.95676355090E+03  0.29287040266E+04  0.27680156761E+04 0.  0.
        1    1    3    3  502    0 -0.13462694353E+04  0.15041489879E+03  0.77841300163E+03  0.15623677017E+04  0.50400001928E-02 0.  1.
       -1    1    3    3    0  502  0.13462694353E+04 -0.15041489879E+03  0.17835054928E+03  0.13663363249E+04  0.50400001928E-02 0. -1.
</event>
<event>
 5   0  0.4764214E-06  0.2811872E+04  0.7818609E-02  0.8299592E-01
       -1   -1    0    0    0  501  0.00000000000E+00  0.00000000000E+00  0.10525958271E+04  0.10525958271E+04  0.50400001928E-02 0.  1.
        1   -1    0    0  501    0  0.00000000000E+00  0.00000000000E+00 -0.18778869550E+04  0.18778869550E+04  0.50400001928E-02 0. -1.
    10030    2    1    2    0    0  0.00000000000E+00  0.00000000000E+00 -0.82529112793E+03  0.29304827821E+04  0.28118719548E+04 0.  0.
        3    1    3    3  502    0 -0.45740235177E+03  0.17179461976E+03  0.96126743195E+03  0.10783159967E+04  0.10100000352E+00 0.  1.
       -3    1    3    3    0  502  0.45740235177E+03 -0.17179461976E+03 -0.17865585599E+04  0.18521667854E+04  0.10100000352E+00 0. -1.
</event>
<event>
 5   0  0.5217999E-06  0.2788407E+04  0.7818609E-02  0.8306877E-01
        1   -1    0    0  501    0  0.00000000000E+00  0.00000000000E+00  0.18167852552E+04  0.18167852552E+04  0.50400001928E-02 0.  1.
       -1   -1    0    0    0  501  0.00000000000E+00  0.00000000000E+00 -0.10699133200E+04  0.10699133200E+04  0.50400001928E-02 0. -1.
    10030    2    1    2    0    0  0.00000000000E+00  0.00000000000E+00  0.74687193526E+03  0.28866985752E+04  0.27884065300E+04 0.  0.
        1    1    3    3  502    0  0.10485351690E+04  0.85490624044E+03  0.72222783971E+03  0.15335917753E+04  0.50400001928E-02 0.  1.
       -1    1    3    3    0  502 -0.10485351690E+04 -0.85490624044E+03  0.24644095552E+02  0.13531068000E+04  0.50400001928E-02 0. -1.
</event>
<event>
 5   0  0.5281919E-06  0.2858420E+04  0.7818609E-02  0.8285357E-01
        1   -1    0    0  501    0  0.00000000000E+00  0.00000000000E+00  0.22571747578E+04  0.22571747578E+04  0.50400001928E-02 0.  1.
       -1   -1    0    0    0  501  0.00000000000E+00  0.00000000000E+00 -0.90495512680E+03  0.90495512682E+03  0.50400001928E-02 0. -1.
    10030    2    1    2    0    0  0.00000000000E+00  0.00000000000E+00  0.13522196310E+04  0.31621298847E+04  0.28584204514E+04 0.  0.
        4    1    3    3  502    0 -0.93820509720E+03 -0.26084921058E+03 -0.48116236512E+03  0.10861813613E+04  0.12699999809E+01 0. -1.
       -4    1    3    3    0  502  0.93820509720E+03  0.26084921058E+03  0.18333819962E+04  0.20759485234E+04  0.12699999809E+01 0.  1.
</event>
<event>
 5   0  0.1330962E-05  0.2888449E+04  0.7818609E-02  0.8276322E-01
       -2   -1    0    0    0  501  0.00000000000E+00  0.00000000000E+00  0.10906111671E+04  0.10906111671E+04  0.25500000920E-02 0. -1.
        2   -1    0    0  501    0  0.00000000000E+00  0.00000000000E+00 -0.19124917123E+04  0.19124917123E+04  0.25500000920E-02 0.  1.
    10030    2    1    2    0    0  0.00000000000E+00  0.00000000000E+00 -0.82188054518E+03  0.30031028794E+04  0.28884492853E+04 0.  0.
        4    1    3    3  502    0 -0.11134405375E+04  0.43141253274E+03  0.43365761464E+03  0.12704043229E+04  0.12699999809E+01 0. -1.
       -4    1    3    3    0  502  0.11134405375E+04 -0.43141253274E+03 -0.12555381598E+04  0.17326985565E+04  0.12699999809E+01 0.  1.
</event>
<event>
 5   0  0.1283052E-05  0.2811317E+04  0.7818609E-02  0.8299763E-01
        2   -1    0    0  501    0  0.00000000000E+00  0.00000000000E+00  0.14151770804E+04  0.14151770804E+04  0.25500000920E-02 0.  1.
       -2   -1    0    0    0  501  0.00000000000E+00  0.00000000000E+00 -0.13962040221E+04  0.13962040221E+04  0.25500000920E-02 0. -1.
    10030    2    1    2    0    0  0.00000000000E+00  0.00000000000E+00  0.18973058303E+02  0.28113811024E+04  0.28113170803E+04 0.  0.
        5    1    3    3  502    0 -0.91208581536E+03  0.93839363630E+03 -0.50372169949E+03  0.14022270828E+04  0.46999998093E+01 0.  1.
       -5    1    3    3    0  502  0.91208581536E+03 -0.93839363630E+03  0.52269475780E+03  0.14091540196E+04  0.46999998093E+01 0. -1.
</event>
<event>
 5   0  0.5217999E-06  0.2860471E+04  0.7818609E-02  0.8284736E-01
       -1   -1    0    0    0  501  0.00000000000E+00  0.00000000000E+00  0.15873459511E+04  0.15873459511E+04  0.50400001928E-02 0. -1.
        1   -1    0    0  501    0  0.00000000000E+00  0.00000000000E+00 -0.12886756223E+04  0.12886756223E+04  0.50400001928E-02 0.  1.
    10030    2    1    2    0    0  0.00000000000E+00  0.00000000000E+00  0.29867032881E+03  0.28760215734E+04  0.28604713118E+04 0.  0.
        1    1    3    3  502    0  0.55340037684E+03 -0.62071859450E+03  0.13192891019E+04  0.15595086678E+04  0.50400001928E-02 0. -1.
       -1    1    3    3    0  502 -0.55340037684E+03  0.62071859450E+03 -0.10206187731E+04  0.13165129056E+04  0.50400001928E-02 0.  1.
</event>
<event>
 5   0  0.1350863E-05  0.2806007E+04  0.7818609E-02  0.8301406E-01
        2   -1    0    0  501    0  0.00000000000E+00  0.00000000000E+00  0.29812444297E+04  0.29812444297E+04  0.25500000920E-02 0.  1.
       -2   -1    0    0    0  501  0.00000000000E+00  0.00000000000E+00 -0.66026772234E+03  0.66026772235E+03  0.25500000920E-02 0. -1.
    10030    2    1    2    0    0  0.00000000000E+00  0.00000000000E+00  0.23209767074E+04  0.36415121521E+04  0.28060074621E+04 0.  0.
        3    1    3    3  502    0  0.28532012743E+02 -0.60657321510E+03  0.28018668075E+04  0.28669151990E+04  0.10100000352E+00 0.  1.
       -3    1    3    3    0  502 -0.28532012743E+02  0.60657321510E+03 -0.48089010016E+03  0.77459695304E+03  0.10100000352E+00 0. -1.
</event>
<event>
 5   0  0.1388269E-05  0.2795254E+04  0.7818609E-02  0.8304743E-01
        2   -1    0    0  501    0  0.00000000000E+00  0.00000000000E+00  0.18827894236E+04  0.18827894236E+04  0.25500000920E-02 0. -1.
       -2   -1    0    0    0  501  0.00000000000E+00  0.00000000000E+00 -0.10374825682E+04  0.10374825682E+04  0.25500000920E-02 0.  1.
    10030    2    1    2    0    0  0.00000000000E+00  0.00000000000E+00  0.84530685537E+03  0.29202719918E+04  0.27952539824E+04 0.  0.
        1    1    3    3  502    0  0.12905554111E+04 -0.31857827125E+03  0.87362607916E+03  0.15906753001E+04  0.50400001928E-02 0. -1.
       -1    1    3    3    0  502 -0.12905554111E+04  0.31857827125E+03 -0.28319223795E+02  0.13295966917E+04  0.50400001928E-02 0.  1.
</event>
<event>
 5   0  0.1302063E-05  0.2781400E+04  0.7818609E-02  0.8309066E-01
       -2   -1    0    0    0  501  0.00000000000E+00  0.00000000000E+00  0.13051810188E+04  0.13051810188E+04  0.25500000920E-02 0.  1.
        2   -1    0    0  501    0  0.00000000000E+00  0.00000000000E+00 -0.14818222673E+04  0.14818222673E+04  0.25500000920E-02 0. -1.
    10030    2    1    2    0    0  0.00000000000E+00  0.00000000000E+00 -0.17664124848E+03  0.27870032860E+04  0.27813998608E+04 0.  0.
        2    1    3    3  502    0 -0.30122000857E+02  0.55161080246E+03  0.11905203103E+04  0.13124482548E+04  0.25500000920E-02 0.  1.
       -2    1    3    3    0  502  0.30122000857E+02 -0.55161080246E+03 -0.13671615588E+04  0.14745550312E+04  0.25500000920E-02 0. -1.
</event>
<event>
 5   0  0.5107453E-06  0.3054837E+04  0.7818609E-02  0.8228243E-01
       -1   -1    0    0    0  501  0.00000000000E+00  0.00000000000E+00  0.95343391958E+03  0.95343391959E+03  0.50400001928E-02 0.  1.
        1   -1    0    0  501    0  0.00000000000E+00  0.00000000000E+00 -0.24469526459E+04  0.24469526459E+04  0.50400001928E-02 0. -1.
    10030    2    1    2    0    0  0.00000000000E+00  0.00000000000E+00 -0.14935187263E+04  0.34003865655E+04  0.30548372475E+04 0.  0.
        2    1    3    3  502    0 -0.13574468305E+04  0.54668143447E+03 -0.12338477550E+04  0.19141323807E+04  0.25500000920E-02 0. -1.
       -2    1    3    3    0  502  0.13574468305E+04 -0.54668143447E+03 -0.25967097131E+03  0.14862541848E+04  0.25500000920E-02 0.  1.
</event>
<event>
 5   0  0.5281919E-06  0.2791091E+04  0.7818609E-02  0.8306040E-01
       -1   -1    0    0    0  501  0.00000000000E+00  0.00000000000E+00  0.21741689155E+04  0.21741689155E+04  0.50400001928E-02 0.  1.
        1   -1    0    0  501    0  0.00000000000E+00  0.00000000000E+00 -0.89576606317E+03  0.89576606318E+03  0.50400001928E-02 0. -1.
    10030    2    1    2    0    0  0.00000000000E+00  0.00000000000E+00  0.12784028523E+04  0.30699349787E+04  0.27910906328E+04 0.  0.
        4    1    3    3  502    0  0.22053763000E+03  0.18788268500E+03  0.21407264137E+04  0.21602425653E+04  0.12699999809E+01 0.  1.
       -4    1    3    3    0  502 -0.22053763000E+03 -0.18788268500E+03 -0.86232356139E+03  0.90969241340E+03  0.12699999809E+01 0. -1.
</event>
<event>
 5   0  0.1283052E-05  0.2759654E+04  0.7818609E-02  0.8315905E-01
       -2   -1    0    0    0  501  0.00000000000E+00  0.00000000000E+00  0.15096078394E+04  0.15096078395E+04  0.25500000920E-02 0. -1.
        2   -1    0    0  501    0  0.00000000000E+00  0.00000000000E+00 -0.12612033853E+04  0.12612033853E+04  0.25500000920E-02 0.  1.
    10030    2    1    2    0    0  0.00000000000E+00  0.00000000000E+00  0.24840445419E+03  0.27708112247E+04  0.27596539765E+04 0.  0.
        5    1    3    3  502    0 -0.50628391070E+03  0.10012921028E+04 -0.68215816392E+03  0.13131150460E+04  0.46999998093E+01 0.  1.
       -5    1    3    3    0  502  0.50628391070E+03 -0.10012921028E+04  0.93056261811E+03  0.14576961788E+04  0.46999998093E+01 0. -1.
</event>
<event>
 5   0  0.4447500E-06  0.2887391E+04  0.7818609E-02  0.8276639E-01
        4   -1    0    0  501    0  0.00000000000E+00  0.00000000000E+00  0.12715259410E+04  0.12715265752E+04  0.12699999809E+01 0.  1.
       -4   -1    0    0    0  501  0.00000000000E+00  0.00000000000E+00 -0.16391767187E+04  0.16391772107E+04  0.12699999809E+01 0. -1.
    10030    2    1    2    0    0  0.00000000000E+00  0.00000000000E+00 -0.36765077773E+03  0.29107037859E+04  0.28873914585E+04 0.  0.
        5    1    3    3  502    0  0.12809680470E+04 -0.50440193763E+03 -0.62200114176E+03  0.15106978395E+04  0.46999998093E+01 0.  1.
       -5    1    3    3    0  502 -0.12809680470E+04  0.50440193763E+03  0.25435036403E+03  0.14000059463E+04  0.46999998093E+01 0. -1.
</event>
<event>
 5   0  0.5023691E-06  0.2616331E+04  0.7818609E-02  0.8362675E-01
        1   -1    0    0  501    0  0.00000000000E+00  0.00000000000E+00  0.93886192431E+03  0.93886192433E+03  0.50400001928E-02 0. -1.
       -1   -1    0    0    0  501  0.00000000000E+00  0.00000000000E+00 -0.18227355146E+04  0.18227355146E+04  0.50400001928E-02 0.  1.
    10030    2    1    2    0    0  0.00000000000E+00  0.00000000000E+00 -0.88387359032E+03  0.27615974390E+04  0.26163309980E+04 0.  0.
        5    1    3    3  502    0  0.86293821698E+03 -0.95956752195E+03 -0.66793381829E+03  0.14531310578E+04  0.46999998093E+01 0.  1.
       -5    1    3    3    0  502 -0.86293821698E+03  0.95956752195E+03 -0.21593977203E+03  0.13084663812E+04  0.46999998093E+01 0. -1.
</event>
<event>
 5   0  0.5281919E-06  0.2802826E+04  0.7818609E-02  0.8302392E-01
        1   -1    0    0  501    0  0.00000000000E+00  0.00000000000E+00  0.26656660984E+04  0.26656660984E+04  0.50400001928E-02 0.  1.
       -1   -1    0    0    0  501  0.00000000000E+00  0.00000000000E+00 -0.73676081515E+03  0.73676081517E+03  0.50400001928E-02 0. -1.
    10030    2    1    2    0    0  0.00000000000E+00  0.00000000000E+00  0.19289052833E+04  0.34024269136E+04  0.28028259508E+04 0.  0.
        4    1    3    3  502    0  0.15672356397E+03 -0.12473675111E+04  0.17161753220E+04  0.21273803919E+04  0.12699999809E+01 0.  1.
       -4    1    3    3    0  502 -0.15672356397E+03  0.12473675111E+04  0.21272996129E+03  0.12750465217E+04  0.12699999809E+01 0. -1.
</event>
<event>
 5   0  0.4764214E-06  0.2802990E+04  0.7818609E-02  0.8302341E-01
        1   -1    0    0  501    0  0.00000000000E+00  0.00000000000E+00  0.12639536386E+04  0.12639536386E+04  0.50400001928E-02 0.  1.
       -1   -1    0    0    0  501  0.00000000000E+00  0.00000000000E+00 -0.15540036918E+04  0.15540036918E+04  0.50400001928E-02 0. -1.
    10030    2    1    2    0    0  0.00000000000E+00  0.00000000000E+00 -0.29005005316E+03  0.28179573305E+04  0.28029902752E+04 0.  0.
        3    1    3    3  502    0  0.11614261747E+04 -0.41902072661E+02  0.64243390978E+03  0.13279261582E+04  0.10100000352E+00 0.  1.
       -3    1    3    3    0  502 -0.11614261747E+04  0.41902072661E+02 -0.93248396294E+03  0.14900311723E+04  0.10100000352E+00 0. -1.
</event>
<event>
 5   0  0.5023691E-06  0.2808398E+04  0.7818609E-02  0.8300666E-01
       -1   -1    0    0    0  501  0.00000000000E+00  0.00000000000E+00  0.16305959961E+04  0.16305959961E+04  0.50400001928E-02 0. -1.
        1   -1    0    0  501    0  0.00000000000E+00  0.00000000000E+00 -0.12092353578E+04  0.12092353578E+04  0.50400001928E-02 0.  1.
    10030    2    1    2    0    0  0.00000000000E+00  0.00000000000E+00  0.42136063832E+03  0.28398313539E+04  0.28083976448E+04 0.  0.
        5    1    3    3  502    0  0.10173509322E+04 -0.75455012745E+03  0.82360280202E+03  0.15108581931E+04  0.46999998093E+01 0. -1.
       -5    1    3    3    0  502 -0.10173509322E+04  0.75455012745E+03 -0.40224216369E+03  0.13289731609E+04  0.46999998093E+01 0.  1.
</event>
<event>
 5   0  0.5217999E-06  0.2780395E+04  0.7818609E-02  0.8309381E-01
       -1   -1    0    0    0  501  0.00000000000E+00  0.00000000000E+00  0.16075107642E+04  0.16075107642E+04  0.50400001928E-02 0. -1.
        1   -1    0    0  501    0  0.00000000000E+00  0.00000000000E+00 -0.12022617170E+04  0.12022617170E+04  0.50400001928E-02 0.  1.
    10030    2    1    2    0    0  0.00000000000E+00  0.00000000000E+00  0.40524904722E+03  0.28097724812E+04  0.27803946853E+04 0.  0.
        1    1    3    3  502    0 -0.94509821697E+02 -0.81405145790E+03 -0.93219965401E+03  0.12412123418E+04  0.50400001928E-02 0.  1.
       -1    1    3    3    0  502  0.94509821697E+02  0.81405145790E+03  0.13374487012E+04  0.15685601394E+04  0.50400001928E-02 0. -1.
</event>
<event>
 5   0  0.4447500E-06  0.2780485E+04  0.7818609E-02  0.8309353E-01
       -3   -1    0    0    0  501  0.00000000000E+00  0.00000000000E+00  0.11781408553E+04  0.11781408597E+04  0.10100000352E+00 0. -1.
        3   -1    0    0  501    0  0.00000000000E+00  0.00000000000E+00 -0.16405283800E+04  0.16405283831E+04  0.10100000352E+00 0.  1.
    10030    2    1    2    0    0  0.00000000000E+00  0.00000000000E+00 -0.46238752469E+03  0.28186692428E+04  0.27804845041E+04 0.  0.
        3    1    3    3  502    0  0.12181487729E+03  0.13810684742E+04 -0.12689981475E+03  0.13922257604E+04  0.10100000352E+00 0. -1.
       -3    1    3    3    0  502 -0.12181487729E+03 -0.13810684742E+04 -0.33548770994E+03  0.14264434824E+04  0.10100000352E+00 0.  1.
</event>
<event>
 5   0  0.1388269E-05  0.2747197E+04  0.7818609E-02  0.8319852E-01
        2   -1    0    0  501    0  0.00000000000E+00  0.00000000000E+00  0.18260411235E+04  0.18260411235E+04  0.25500000920E-02 0.  1.
       -2   -1    0    0    0  501  0.00000000000E+00  0.00000000000E+00 -0.10332585075E+04  0.10332585075E+04  0.25500000920E-02 0. -1.
    10030    2    1    2    0    0  0.00000000000E+00  0.00000000000E+00  0.79278261604E+03  0.28592996310E+04  0.27471967719E+04 0.  0.
        1    1    3    3  502    0  0.25117587917E+03  0.22797926666E+03 -0.98897957110E+03  0.10455354898E+04  0.50400001928E-02 0. -1.
       -1    1    3    3    0  502 -0.25117587917E+03 -0.22797926666E+03  0.17817621871E+04  0.18137641412E+04  0.50400001928E-02 0.  1.
</event>
<event>
 5   0  0.5217999E-06  0.2820400E+04  0.7818609E-02  0.8296963E-01
        1   -1    0    0  501    0  0.00000000000E+00  0.00000000000E+00  0.22605061064E+04  0.22605061064E+04  0.50400001928E-02 0.  1.
       -1   -1    0    0    0  501  0.00000000000E+00  0.00000000000E+00 -0.87974280909E+03  0.87974280911E+03  0.50400001928E-02 0. -1.
    10030    2    1    2    0    0  0.00000000000E+00  0.00000000000E+00  0.13807632973E+04  0.31402489155E+04  0.28203999660E+04 0.  0.
        1    1    3    3  502    0 -0.40830152949E+03  0.86236035240E+03  0.18465494101E+04  0.20784898943E+04  0.50400001928E-02 0.  1.
       -1    1    3    3    0  502  0.40830152949E+03 -0.86236035240E+03 -0.46578611281E+03  0.10617590213E+04  0.50400001928E-02 0. -1.
</event>
<event>
 5   0  0.1330962E-05  0.2800275E+04  0.7818609E-02  0.8303183E-01
       -2   -1    0    0    0  501  0.00000000000E+00  0.00000000000E+00  0.12016702760E+04  0.12016702760E+04  0.25500000920E-02 0. -1.
        2   -1    0    0  501    0  0.00000000000E+00  0.00000000000E+00 -0.16313829187E+04  0.16313829187E+04  0.25500000920E-02 0.  1.
    10030    2    1    2    0    0  0.00000000000E+00  0.00000000000E+00 -0.42971264265E+03  0.28330531947E+04  0.28002745310E+04 0.  0.
        4    1    3    3  502    0 -0.41348255764E+03  0.34212385380E+03  0.10934812359E+04  0.12180802038E+04  0.12699999809E+01 0. -1.
       -4    1    3    3    0  502  0.41348255764E+03 -0.34212385380E+03 -0.15231938785E+04  0.16149729909E+04  0.12699999809E+01 0.  1.
</event>
<event>
 5   0  0.1283052E-05  0.2772711E+04  0.7818609E-02  0.8311791E-01
       -2   -1    0    0    0  501  0.00000000000E+00  0.00000000000E+00  0.15365745133E+04  0.15365745133E+04  0.25500000920E-02 0. -1.
        2   -1    0    0  501    0  0.00000000000E+00  0.00000000000E+00 -0.12508220263E+04  0.12508220263E+04  0.25500000920E-02 0.  1.
    10030    2    1    2    0    0  0.00000000000E+00  0.00000000000E+00  0.28575248693E+03  0.27873965396E+04  0.27727107648E+04 0.  0.
        5    1    3    3  502    0  0.20810182146E+03 -0.13607769793E+04  0.30787600511E+03  0.14106133702E+04  0.46999998093E+01 0. -1.
       -5    1    3    3    0  502 -0.20810182146E+03  0.13607769793E+04 -0.22123518176E+02  0.13767831694E+04  0.46999998093E+01 0.  1.
</event>
<event>
 5   0  0.5107453E-06  0.2817290E+04  0.7818609E-02  0.8297921E-01
        1   -1    0    0  501    0  0.00000000000E+00  0.00000000000E+00  0.14916628011E+04  0.14916628011E+04  0.50400001928E-02 0. -1.
       -1   -1    0    0    0  501  0.00000000000E+00  0.00000000000E+00 -0.13302475686E+04  0.13302475686E+04  0.50400001928E-02 0.  1.
    10030    2    1    2    0    0  0.00000000000E+00  0.00000000000E+00  0.16141523252E+03  0.28219103697E+04  0.28172900556E+04 0.  0.
        2    1    3    3  502    0 -0.48429998779E+03 -0.12265024592E+04 -0.41550977967E+03  0.13825712053E+04  0.25500000920E-02 0.  1.
       -2    1    3    3    0  502  0.48429998779E+03  0.12265024592E+04  0.57692501219E+03  0.14393391644E+04  0.25500000920E-02 0. -1.
</event>
<event>
 5   0  0.5217999E-06  0.2788312E+04  0.7818609E-02  0.8306906E-01
       -1   -1    0    0    0  501  0.00000000000E+00  0.00000000000E+00  0.11132974141E+04  0.11132974141E+04  0.50400001928E-02 0. -1.
        1   -1    0    0  501    0  0.00000000000E+00  0.00000000000E+00 -0.17458680683E+04  0.17458680683E+04  0.50400001928E-02 0.  1.
    10030    2    1    2    0    0  0.00000000000E+00  0.00000000000E+00 -0.63257065420E+03  0.28591654824E+04  0.27883116080E+04 0.  0.
        1    1    3    3  502    0  0.81834819559E+03 -0.46314833567E+03 -0.13717467625E+04  0.16630963083E+04  0.50400001928E-02 0.  1.
       -1    1    3    3    0  502 -0.81834819559E+03  0.46314833567E+03  0.73917610834E+03  0.11960691741E+04  0.50400001928E-02 0. -1.
</event>
<event>
 5   0  0.1302063E-05  0.2775568E+04  0.7818609E-02  0.8310894E-01
        2   -1    0    0  501    0  0.00000000000E+00  0.00000000000E+00  0.17168363848E+04  0.17168363848E+04  0.25500000920E-02 0. -1.
       -2   -1    0    0    0  501  0.00000000000E+00  0.00000000000E+00 -0.11217986667E+04  0.11217986667E+04  0.25500000920E-02 0.  1.
    10030    2    1    2    0    0  0.00000000000E+00  0.00000000000E+00  0.59503771815E+03  0.28386350515E+04  0.27755682426E+04 0.  0.
        2    1    3    3  502    0 -0.37131391035E+03  0.12168376259E+04  0.86453221982E+03  0.15381754734E+04  0.25500000920E-02 0. -1.
       -2    1    3    3    0  502  0.37131391035E+03 -0.12168376259E+04 -0.26949450167E+03  0.13004595781E+04  0.25500000920E-02 0.  1.
</event>
<event>
 5   0  0.4764214E-06  0.2849735E+04  0.7818609E-02  0.8287992E-01
       -1   -1    0    0    0  501  0.00000000000E+00  0.00000000000E+00  0.16309439052E+04  0.16309439052E+04  0.50400001928E-02 0. -1.
        1   -1    0    0  501    0  0.00000000000E+00  0.00000000000E+00 -0.12448295622E+04  0.12448295622E+04  0.50400001928E-02 0.  1.
    10030    2    1    2    0    0  0.00000000000E+00  0.00000000000E+00  0.38611434298E+03  0.28757734674E+04  0.28497348560E+04 0.  0.
        3    1    3    3  502    0 -0.58425747262E+03 -0.10416380367E+04  0.97725520886E+03  0.15431767064E+04  0.10100000352E+00 0. -1.
       -3    1    3    3    0  502  0.58425747262E+03  0.10416380367E+04 -0.59114086588E+03  0.13325967609E+04  0.10100000352E+00 0.  1.
</event>
<event>
 5   0  0.4764214E-06  0.2767560E+04  0.7818609E-02  0.8313411E-01
        1   -1    0    0  501    0  0.00000000000E+00  0.00000000000E+00  0.15752111486E+04  0.15752111486E+04  0.50400001928E-02 0. -1.
       -1   -1    0    0    0  501  0.00000000000E+00  0.00000000000E+00 -0.12156125342E+04  0.12156125342E+04  0.50400001928E-02 0.  1.
    10030    2    1    2    0    0  0.00000000000E+00  0.00000000000E+00  0.35959861440E+03  0.27908236828E+04  0.27675595143E+04 0.  0.
        3    1    3    3  502    0  0.20813641050E+03 -0.29538144330E+03 -0.11671969226E+04  0.12218509028E+04  0.10100000352E+00 0.  1.
       -3    1    3    3    0  502 -0.20813641050E+03  0.29538144330E+03  0.15267955370E+04  0.15689727800E+04  0.10100000352E+00 0. -1.
</event>
<event>
 5   0  0.1302063E-05  0.2800130E+04  0.7818609E-02  0.8303228E-01
       -2   -1    0    0    0  501  0.00000000000E+00  0.00000000000E+00  0.13470627418E+04  0.13470627418E+04  0.25500000920E-02 0.  1.
        2   -1    0    0  501    0  0.00000000000E+00  0.00000000000E+00 -0.14551527095E+04  0.14551527095E+04  0.25500000920E-02 0. -1.
    10030    2    1    2    0    0  0.00000000000E+00  0.00000000000E+00 -0.10808996775E+03  0.28022154513E+04  0.28001299959E+04 0.  0.
        2    1    3    3  502    0  0.99804719831E+02  0.90227444656E+03  0.10126390231E+04  0.13599624811E+04  0.25500000920E-02 0.  1.
       -2    1    3    3    0  502 -0.99804719831E+02 -0.90227444656E+03 -0.11207289908E+04  0.14422529701E+04  0.25500000920E-02 0. -1.
</event>
<event>
 5   0  0.5023691E-06  0.2799256E+04  0.7818609E-02  0.8303499E-01
        1   -1    0    0  501    0  0.00000000000E+00  0.00000000000E+00  0.16787887011E+04  0.16787887011E+04  0.50400001928E-02 0. -1.
       -1   -1    0    0    0  501  0.00000000000E+00  0.00000000000E+00 -0.11668880069E+04  0.11668880069E+04  0.50400001928E-02 0.  1.
    10030    2    1    2    0    0  0.00000000000E+00  0.00000000000E+00  0.51190069426E+03  0.28456767080E+04  0.27992559022E+04 0.  0.
        5    1    3    3  502    0 -0.11985867301E+04  0.47801856475E+03  0.80699513094E+03  0.15219642338E+04  0.46999998093E+01 0. -1.
       -5    1    3    3    0  502  0.11985867301E+04 -0.47801856475E+03 -0.29509443668E+03  0.13237124742E+04  0.46999998093E+01 0.  1.
</event>
<event>
 5   0  0.1350863E-05  0.2838944E+04  0.7818609E-02  0.8291279E-01
        2   -1    0    0  501    0  0.00000000000E+00  0.00000000000E+00  0.15607025838E+04  0.15607025838E+04  0.25500000920E-02 0. -1.
       -2   -1    0    0    0  501  0.00000000000E+00  0.00000000000E+00 -0.12910219104E+04  0.12910219104E+04  0.25500000920E-02 0.  1.
    10030    2    1    2    0    0  0.00000000000E+00  0.00000000000E+00  0.26968067339E+03  0.28517244942E+04  0.28389443329E+04 0.  0.
        3    1    3    3  502    0 -0.98871587183E+03  0.10135438372E+04  0.34034016482E+02  0.14163292377E+04  0.10100000352E+00 0. -1.
       -3    1    3    3    0  502  0.98871587183E+03 -0.10135438372E+04  0.23564665691E+03  0.14353952565E+04  0.10100000352E+00 0.  1.
</event>
<event>
 5   0  0.1350863E-05  0.2751748E+04  0.7818609E-02  0.8318407E-01
        2   -1    0    0  501    0  0.00000000000E+00  0.00000000000E+00  0.14932508139E+04  0.14932508139E+04  0.25500000920E-02 0.  1.
       -2   -1    0    0    0  501  0.00000000000E+00  0.00000000000E+00 -0.12677239280E+04  0.12677239280E+04  0.25500000920E-02 0. -1.
    10030    2    1    2    0    0  0.00000000000E+00  0.00000000000E+00  0.22552688591E+03  0.27609747418E+04  0.27517483803E+04 0.  0.
        3    1    3    3  502    0  0.82383381724E+03  0.76869090674E+03 -0.67946733463E+03  0.13157749570E+04  0.10100000352E+00 0. -1.
       -3    1    3    3    0  502 -0.82383381724E+03 -0.76869090674E+03  0.90499422054E+03  0.14451997848E+04  0.10100000352E+00 0.  1.
</event>
<event>
 5   0  0.1302063E-05  0.2780860E+04  0.7818609E-02  0.8309235E-01
       -2   -1    0    0    0  501  0.00000000000E+00  0.00000000000E+00  0.27369575044E+04  0.27369575044E+04  0.25500000920E-02 0. -1.
        2   -1    0    0  501    0  0.00000000000E+00  0.00000000000E+00 -0.70636642656E+03  0.70636642657E+03  0.25500000920E-02 0.  1.
    10030    2    1    2    0    0  0.00000000000E+00  0.00000000000E+00  0.20305910778E+04  0.34433239309E+04  0.27808595017E+04 0.  0.
        2    1    3    3  502    0 -0.11774263221E+04 -0.64521703924E+03  0.56772099841E+03  0.14577190757E+04  0.25500000920E-02 0.  1.
       -2    1    3    3    0  502  0.11774263221E+04  0.64521703924E+03  0.14628700794E+04  0.19856048552E+04  0.25500000920E-02 0. -1.
</event>
<event>
 5   0  0.5281919E-06  0.2739644E+04  0.7818609E-02  0.8322255E-01
        1   -1    0    0  501    0  0.00000000000E+00  0.00000000000E+00  0.22685145407E+04  0.22685145408E+04  0.50400001928E-02 0. -1.
       -1   -1    0    0    0  501  0.00000000000E+00  0.00000000000E+00 -0.82715459715E+03  0.82715459716E+03  0.50400001928E-02 0.  1.
    10030    2    1    2    0    0  0.00000000000E+00  0.00000000000E+00  0.14413599436E+04  0.30956691379E+04  0.27396439412E+04 0.  0.
        4    1    3    3  502    0 -0.47498571902E+03  0.98403074272E+03 -0.21280263900E+03  0.11132001222E+04  0.12699999809E+01 0.  1.
       -4    1    3    3    0  502  0.47498571902E+03 -0.98403074272E+03  0.16541625826E+04  0.19824690158E+04  0.12699999809E+01 0. -1.
</event>
<event>
 5   0  0.1388269E-05  0.3010217E+04  0.7818609E-02  0.8240819E-01
       -2   -1    0    0    0  501  0.00000000000E+00  0.00000000000E+00  0.95802547142E+03  0.95802547143E+03  0.25500000920E-02 0. -1.
        2   -1    0    0  501    0  0.00000000000E+00  0.00000000000E+00 -0.23646051733E+04  0.23646051733E+04  0.25500000920E-02 0.  1.
    10030    2    1    2    0    0  0.00000000000E+00  0.00000000000E+00 -0.14065797018E+04  0.33226306447E+04  0.30102172585E+04 0.  0.
        1    1    3    3  502    0 -0.91899090422E+03 -0.84033678331E+03  0.22981066730E+03  0.12663029394E+04  0.50400001928E-02 0. -1.
       -1    1    3    3    0  502  0.91899090422E+03  0.84033678331E+03 -0.16363903691E+04  0.20563277053E+04  0.50400001928E-02 0.  1.
</event>
<event>
 5   0  0.1302063E-05  0.2752429E+04  0.7818609E-02  0.8318191E-01
       -2   -1    0    0    0  501  0.00000000000E+00  0.00000000000E+00  0.72761886802E+03  0.72761886802E+03  0.25500000920E-02 0. -1.
        2   -1    0    0  501    0  0.00000000000E+00  0.00000000000E+00 -0.26029645280E+04  0.26029645280E+04  0.25500000920E-02 0.  1.
    10030    2    1    2    0    0  0.00000000000E+00  0.00000000000E+00 -0.18753456600E+04  0.33305833961E+04  0.27524288208E+04 0.  0.
        2    1    3    3  502    0 -0.10899418455E+04  0.66053935727E+02  0.75907595991E+02  0.10945767731E+04  0.25500000920E-02 0. -1.
       -2    1    3    3    0  502  0.10899418455E+04 -0.66053935727E+02 -0.19512532560E+04  0.22360066230E+04  0.25500000920E-02 0.  1.
</event>
<event>
 5   0  0.1388269E-05  0.2797334E+04  0.7818609E-02  0.8304096E-01
        2   -1    0    0  501    0  0.00000000000E+00  0.00000000000E+00  0.21534741903E+04  0.21534741903E+04  0.25500000920E-02 0. -1.
       -2   -1    0    0    0  501  0.00000000000E+00  0.00000000000E+00 -0.90842502374E+03  0.90842502374E+03  0.25500000920E-02 0.  1.
    10030    2    1    2    0    0  0.00000000000E+00  0.00000000000E+00  0.12450491666E+04  0.30618992141E+04  0.27973343329E+04 0.  0.
        1    1    3    3  502    0  0.54994463718E+03  0.67544182361E+03  0.18203790480E+04  0.20180288996E+04  0.50400001928E-02 0. -1.
       -1    1    3    3    0  502 -0.54994463718E+03 -0.67544182361E+03 -0.57532988141E+03  0.10438703145E+04  0.50400001928E-02 0.  1.
</event>
<event>
 5   0  0.1350863E-05  0.3048966E+04  0.7818609E-02  0.8229885E-01
       -2   -1    0    0    0  501  0.00000000000E+00  0.00000000000E+00  0.21837440884E+04  0.21837440884E+04  0.25500000920E-02 0. -1.
        2   -1    0    0  501    0  0.00000000000E+00  0.00000000000E+00 -0.10642491638E+04  0.10642491638E+04  0.25500000920E-02 0.  1.
    10030    2    1    2    0    0  0.00000000000E+00  0.00000000000E+00  0.11194949246E+04  0.32479932522E+04  0.30489656082E+04 0.  0.
        3    1    3    3  502    0 -0.14911972436E+04 -0.26729195665E+03  0.37854510918E+03  0.15615411039E+04  0.10100000352E+00 0.  1.
       -3    1    3    3    0  502  0.14911972436E+04  0.26729195665E+03  0.74094981541E+03  0.16864521483E+04  0.10100000352E+00 0. -1.
</event>
<event>
 5   0  0.5107453E-06  0.2790126E+04  0.7818609E-02  0.8306340E-01
       -1   -1    0    0    0  501  0.00000000000E+00  0.00000000000E+00  0.11154350099E+04  0.11154350099E+04  0.50400001928E-02 0.  1.
        1   -1    0    0  501    0  0.00000000000E+00  0.00000000000E+00 -0.17447905703E+04  0.17447905703E+04  0.50400001928E-02 0. -1.
    10030    2    1    2    0    0  0.00000000000E+00  0.00000000000E+00 -0.62935556039E+03  0.28602255803E+04  0.27901257944E+04 0.  0.
        2    1    3    3  502    0  0.42309821692E+03 -0.30569660679E+03 -0.16409120218E+04  0.17219334424E+04  0.25500000920E-02 0. -1.
       -2    1    3    3    0  502 -0.42309821692E+03  0.30569660679E+03  0.10115564614E+04  0.11382921379E+04  0.25500000920E-02 0.  1.
</event>
<event>
 5   0  0.1388269E-05  0.2819828E+04  0.7818609E-02  0.8297139E-01
        2   -1    0    0  501    0  0.00000000000E+00  0.00000000000E+00  0.15450428516E+04  0.15450428516E+04  0.25500000920E-02 0. -1.
       -2   -1    0    0    0  501  0.00000000000E+00  0.00000000000E+00 -0.12866036718E+04  0.12866036718E+04  0.25500000920E-02 0.  1.
    10030    2    1    2    0    0  0.00000000000E+00  0.00000000000E+00  0.25843917987E+03  0.28316465234E+04  0.28198282259E+04 0.  0.
        1    1    3    3  502    0  0.70174080450E+03  0.99486339291E+03  0.84330080601E+03  0.14809961434E+04  0.50400001928E-02 0. -1.
       -1    1    3    3    0  502 -0.70174080450E+03 -0.99486339291E+03 -0.58486162615E+03  0.13506503800E+04  0.50400001928E-02 0.  1.
</event>
<event>
 5   0  0.1330962E-05  0.2444233E+04  0.7818609E-02  0.8423127E-01
        2   -1    0    0  501    0  0.00000000000E+00  0.00000000000E+00  0.12505415537E+04  0.12505415537E+04  0.25500000920E-02 0. -1.
       -2   -1    0    0    0  501  0.00000000000E+00  0.00000000000E+00 -0.11943374754E+04  0.11943374754E+04  0.25500000920E-02 0.  1.
    10030    2    1    2    0    0  0.00000000000E+00  0.00000000000E+00  0.56204078291E+02  0.24448790292E+04  0.24442329203E+04 0.  0.
        4    1    3    3  502    0  0.49905590401E+03  0.46270038429E+03  0.10434657288E+04  0.12457811931E+04  0.12699999809E+01 0. -1.
       -4    1    3    3    0  502 -0.49905590401E+03 -0.46270038429E+03 -0.98726165054E+03  0.11990978361E+04  0.12699999809E+01 0.  1.
</event>
<event>
 5   0  0.5217999E-06  0.2761263E+04  0.7818609E-02  0.8315396E-01
       -1   -1    0    0    0  501  0.00000000000E+00  0.00000000000E+00  0.90027671755E+03  0.90027671757E+03  0.50400001928E-02 0. -1.
        1   -1    0    0  501    0  0.00000000000E+00  0.00000000000E+00 -0.21172865021E+04  0.21172865021E+04  0.50400001928E-02 0.  1.
    10030    2    1    2    0    0  0.00000000000E+00  0.00000000000E+00 -0.12170097846E+04  0.30175632197E+04  0.27612632922E+04 0.  0.
        1    1    3    3  502    0  0.30417981344E+03  0.54863652707E+03 -0.19525472398E+04  0.20508457088E+04  0.50400001928E-02 0.  1.
       -1    1    3    3    0  502 -0.30417981344E+03 -0.54863652707E+03  0.73553745523E+03  0.96671751087E+03  0.50400001928E-02 0. -1.
</event>
<event>
 5   0  0.5107453E-06  0.2821701E+04  0.7818609E-02  0.8296563E-01
        1   -1    0    0  501    0  0.00000000000E+00  0.00000000000E+00  0.12291086362E+04  0.12291086363E+04  0.50400001928E-02 0.  1.
       -1   -1    0    0    0  501  0.00000000000E+00  0.00000000000E+00 -0.16194652794E+04  0.16194652794E+04  0.50400001928E-02 0. -1.
    10030    2    1    2    0    0  0.00000000000E+00  0.00000000000E+00 -0.39035664317E+03  0.28485739157E+04  0.28217007361E+04 0.  0.
        2    1    3    3  502    0 -0.10311590867E+04 -0.96154445369E+03 -0.14328877599E+03  0.14171762318E+04  0.25500000920E-02 0.  1.
       -2    1    3    3    0  502  0.10311590867E+04  0.96154445369E+03 -0.24706786718E+03  0.14313976839E+04  0.25500000920E-02 0. -1.
</event>
<event>
 5   0  0.5023691E-06  0.2808323E+04  0.7818609E-02  0.8300689E-01
        1   -1    0    0  501    0  0.00000000000E+00  0.00000000000E+00  0.14921160913E+04  0.14921160913E+04  0.50400001928E-02 0. -1.
       -1   -1    0    0    0  501  0.00000000000E+00  0.00000000000E+00 -0.13213913308E+04  0.13213913308E+04  0.50400001928E-02 0.  1.
    10030    2    1    2    0    0  0.00000000000E+00  0.00000000000E+00  0.17072476051E+03  0.28135074220E+04  0.28083228215E+04 0.  0.
        5    1    3    3  502    0  0.10700804868E+04  0.84855650079E+03  0.41234936380E+03  0.14265954125E+04  0.46999998093E+01 0.  1.
       -5    1    3    3    0  502 -0.10700804868E+04 -0.84855650079E+03 -0.24162460330E+03  0.13869120095E+04  0.46999998093E+01 0. -1.
</event>
<event>
 5   0  0.4447500E-06  0.2876695E+04  0.7818609E-02  0.8279845E-01
        3   -1    0    0  501    0  0.00000000000E+00  0.00000000000E+00  0.32249079976E+04  0.32249079991E+04  0.10100000352E+00 0. -1.
       -3   -1    0    0    0  501  0.00000000000E+00  0.00000000000E+00 -0.64152025013E+03  0.64152025808E+03  0.10100000352E+00 0.  1.
    10030    2    1    2    0    0  0.00000000000E+00  0.00000000000E+00  0.25833877474E+04  0.38664282572E+04  0.28766951897E+04 0.  0.
        1    1    3    3  502    0  0.30200202651E+03 -0.13317966282E+03 -0.58993192982E+03  0.67598944404E+03  0.50400001928E-02 0.  1.
       -1    1    3    3    0  502 -0.30200202651E+03  0.13317966282E+03  0.31733196773E+04  0.31904388132E+04  0.50400001928E-02 0. -1.
</event>
<event>
 5   0  0.4764214E-06  0.2771916E+04  0.7818609E-02  0.8312041E-01
       -1   -1    0    0    0  501  0.00000000000E+00  0.00000000000E+00  0.12442303483E+04  0.12442303483E+04  0.50400001928E-02 0.  1.
        1   -1    0    0  501    0  0.00000000000E+00  0.00000000000E+00 -0.15438298785E+04  0.15438298785E+04  0.50400001928E-02 0. -1.
    10030    2    1    2    0    0  0.00000000000E+00  0.00000000000E+00 -0.29959953020E+03  0.27880602268E+04  0.27719162956E+04 0.  0.
        3    1    3    3  502    0 -0.64873256214E+03 -0.74336715135E+03 -0.11288295573E+04  0.14992347510E+04  0.10100000352E+00 0. -1.
       -3    1    3    3    0  502  0.64873256214E+03  0.74336715135E+03  0.82923002714E+03  0.12888254758E+04  0.10100000352E+00 0.  1.
</event>
<event>
 5   0  0.1330962E-05  0.2825287E+04  0.7818609E-02  0.8295460E-01
        2   -1    0    0  501    0  0.00000000000E+00  0.00000000000E+00  0.13220457396E+04  0.13220457396E+04  0.25500000920E-02 0. -1.
       -2   -1    0    0    0  501  0.00000000000E+00  0.00000000000E+00 -0.15094500691E+04  0.15094500691E+04  0.25500000920E-02 0.  1.
    10030    2    1    2    0    0  0.00000000000E+00  0.00000000000E+00 -0.18740432954E+03  0.28314958087E+04  0.28252872654E+04 0.  0.
        4    1    3    3  502    0 -0.60176464955E+03  0.70837550617E+03 -0.11598273394E+04  0.14863100690E+04  0.12699999809E+01 0.  1.
       -4    1    3    3    0  502  0.60176464955E+03 -0.70837550617E+03  0.97242300985E+03  0.13451857397E+04  0.12699999809E+01 0. -1.
</event>
<event>
 5   0  0.5217999E-06  0.2807541E+04  0.7818609E-02  0.8300931E-01
       -1   -1    0    0    0  501  0.00000000000E+00  0.00000000000E+00  0.10805262146E+04  0.10805262146E+04  0.50400001928E-02 0.  1.
        1   -1    0    0  501    0  0.00000000000E+00  0.00000000000E+00 -0.18237145601E+04  0.18237145601E+04  0.50400001928E-02 0. -1.
    10030    2    1    2    0    0  0.00000000000E+00  0.00000000000E+00 -0.74318834549E+03  0.29042407747E+04  0.28075408386E+04 0.  0.
        1    1    3    3  502    0 -0.89139927142E+03  0.94751125631E+03 -0.91720878811E+03  0.15917418770E+04  0.50400001928E-02 0.  1.
       -1    1    3    3    0  502  0.89139927142E+03 -0.94751125631E+03  0.17402044262E+03  0.13124988977E+04  0.50400001928E-02 0. -1.
</event>
<event>
 5   0  0.1283052E-05  0.2439276E+04  0.7818609E-02  0.8424944E-01
       -2   -1    0    0    0  501  0.00000000000E+00  0.00000000000E+00  0.69116375013E+03  0.69116375013E+03  0.25500000920E-02 0.  1.
        2   -1    0    0  501    0  0.00000000000E+00  0.00000000000E+00 -0.21521911811E+04  0.21521911811E+04  0.25500000920E-02 0. -1.
    10030    2    1    2    0    0  0.00000000000E+00  0.00000000000E+00 -0.14610274309E+04  0.28433549312E+04  0.24392757349E+04 0.  0.
        5    1    3    3  502    0  0.17181808607E+03  0.51444723526E+03 -0.20038646112E+04  0.20759751642E+04  0.46999998093E+01 0. -1.
       -5    1    3    3    0  502 -0.17181808607E+03 -0.51444723526E+03  0.54283718021E+03  0.76737976699E+03  0.46999998093E+01 0.  1.
</event>
<event>
 5   0  0.1283052E-05  0.2892559E+04  0.7818609E-02  0.8275095E-01
       -2   -1    0    0    0  501  0.00000000000E+00  0.00000000000E+00  0.26293879355E+04  0.26293879355E+04  0.25500000920E-02 0.  1.
        2   -1    0    0  501    0  0.00000000000E+00  0.00000000000E+00 -0.79551786946E+03  0.79551786947E+03  0.25500000920E-02 0. -1.
    10030    2    1    2    0    0  0.00000000000E+00  0.00000000000E+00  0.18338700661E+04  0.34249058050E+04  0.28925594815E+04 0.  0.
        5    1    3    3  502    0 -0.13848268280E+04  0.27115888074E+03  0.54170362704E+03  0.15115347802E+04  0.46999998093E+01 0. -1.
       -5    1    3    3    0  502  0.13848268280E+04 -0.27115888074E+03  0.12921664390E+04  0.19133710248E+04  0.46999998093E+01 0.  1.
</event>
<event>
 5   0  0.1283052E-05  0.2801006E+04  0.7818609E-02  0.8302956E-01
        2   -1    0    0  501    0  0.00000000000E+00  0.00000000000E+00  0.64100169564E+03  0.64100169565E+03  0.25500000920E-02 0. -1.
       -2   -1    0    0    0  501  0.00000000000E+00  0.00000000000E+00 -0.30599120143E+04  0.30599120143E+04  0.25500000920E-02 0.  1.
    10030    2    1    2    0    0  0.00000000000E+00  0.00000000000E+00 -0.24189103186E+04  0.37009137099E+04  0.28010060976E+04 0.  0.
        5    1    3    3  502    0 -0.74198873566E+03 -0.11876800088E+04 -0.11883306782E+04  0.18366499334E+04  0.46999998093E+01 0. -1.
       -5    1    3    3    0  502  0.74198873566E+03  0.11876800088E+04 -0.12305796404E+04  0.18642637765E+04  0.46999998093E+01 0.  1.
</event>
<event>
 5   0  0.1302063E-05  0.2780926E+04  0.7818609E-02  0.8309215E-01
        2   -1    0    0  501    0  0.00000000000E+00  0.00000000000E+00  0.19811923002E+04  0.19811923002E+04  0.25500000920E-02 0.  1.
       -2   -1    0    0    0  501  0.00000000000E+00  0.00000000000E+00 -0.97587082709E+03  0.97587082709E+03  0.25500000920E-02 0. -1.
    10030    2    1    2    0    0  0.00000000000E+00  0.00000000000E+00  0.10053214731E+04  0.29570631273E+04  0.27809262979E+04 0.  0.
        2    1    3    3  502    0  0.54698806976E+03 -0.12679177103E+04  0.67600920550E+03  0.15374653539E+04  0.25500000920E-02 0. -1.
       -2    1    3    3    0  502 -0.54698806976E+03  0.12679177103E+04  0.32931226759E+03  0.14195977734E+04  0.25500000920E-02 0.  1.
</event>
<event>
 5   0  0.5281919E-06  0.2786555E+04  0.7818609E-02  0.8307455E-01
       -1   -1    0    0    0  501  0.00000000000E+00  0.00000000000E+00  0.10177822752E+04  0.10177822752E+04  0.50400001928E-02 0.  1.
        1   -1    0    0  501    0  0.00000000000E+00  0.00000000000E+00 -0.19073054781E+04  0.19073054781E+04  0.50400001928E-02 0. -1.
    10030    2    1    2    0    0  0.00000000000E+00  0.00000000000E+00 -0.88952320293E+03  0.29250877533E+04  0.27865546533E+04 0.  0.
        4    1    3    3  502    0  0.12445817763E+04 -0.84650077186E+02 -0.10961522962E+04  0.16606326815E+04  0.12699999809E+01 0. -1.
       -4    1    3    3    0  502 -0.12445817763E+04  0.84650077186E+02  0.20662909329E+03  0.12644550718E+04  0.12699999809E+01 0.  1.
</event>
<event>
 5   0  0.1388269E-05  0.2888262E+04  0.7818609E-02  0.8276378E-01
        2   -1    0    0  501    0  0.00000000000E+00  0.00000000000E+00  0.21094119319E+04  0.21094119319E+04  0.25500000920E-02 0. -1.
       -2   -1    0    0    0  501  0.00000000000E+00  0.00000000000E+00 -0.98867109222E+03  0.98867109222E+03  0.25500000920E-02 0.  1.
    10030    2    1    2    0    0  0.00000000000E+00  0.00000000000E+00  0.11207408397E+04  0.30980830241E+04  0.28882621755E+04 0.  0.
        1    1    3    3  502    0 -0.11558893585E+04  0.11791317589E+03 -0.35956405043E+03  0.12162524542E+04  0.50400001928E-02 0.  1.
       -1    1    3    3    0  502  0.11558893585E+04 -0.11791317589E+03  0.14803048901E+04  0.18818305699E+04  0.50400001928E-02 0. -1.
</event>
<event>
 5   0  0.1283052E-05  0.2157170E+04  0.7818609E-02  0.8536469E-01
       -2   -1    0    0    0  501  0.00000000000E+00  0.00000000000E+00  0.60068994098E+03  0.60068994098E+03  0.25500000920E-02 0. -1.
        2   -1    0    0  501    0  0.00000000000E+00  0.00000000000E+00 -0.19366830683E+04  0.19366830683E+04  0.25500000920E-02 0.  1.
    10030    2    1    2    0    0  0.00000000000E+00  0.00000000000E+00 -0.13359931274E+04  0.25373730093E+04  0.21571704040E+04 0.  0.
        5    1    3    3  502    0 -0.17282796399E+03 -0.89618155750E+03 -0.13440215290E+04  0.16246312965E+04  0.46999998093E+01 0.  1.
       -5    1    3    3    0  502  0.17282796399E+03  0.89618155750E+03  0.80284016059E+01  0.91274171285E+03  0.46999998093E+01 0. -1.
</event>
<event>
 5   0  0.1330962E-05  0.2755272E+04  0.7818609E-02  0.8317291E-01
        2   -1    0    0  501    0  0.00000000000E+00  0.00000000000E+00  0.15182143237E+04  0.15182143237E+04  0.25500000920E-02 0.  1.
       -2   -1    0    0    0  501  0.00000000000E+00  0.00000000000E+00 -0.12500742656E+04  0.12500742656E+04  0.25500000920E-02 0. -1.
    10030    2    1    2    0    0  0.00000000000E+00  0.00000000000E+00  0.26814005808E+03  0.27682885893E+04  0.27552717875E+04 0.  0.
        4    1    3    3  502    0 -0.36409519421E+03  0.93463468402E+03  0.10828680498E+04  0.14760461135E+04  0.12699999809E+01 0.  1.
       -4    1    3    3    0  502  0.36409519421E+03 -0.93463468402E+03 -0.81472799168E+03  0.12922424758E+04  0.12699999809E+01 0. -1.
</event>
<event>
 5   0  0.1350863E-05  0.2801543E+04  0.7818609E-02  0.8302790E-01
       -2   -1    0    0    0  501  0.00000000000E+00  0.00000000000E+00  0.98480090460E+03  0.98480090460E+03  0.25500000920E-02 0.  1.
        2   -1    0    0  501    0  0.00000000000E+00  0.00000000000E+00 -0.19924438836E+04  0.19924438836E+04  0.25500000920E-02 0. -1.
    10030    2    1    2    0    0  0.00000000000E+00  0.00000000000E+00 -0.10076429790E+04  0.29772447882E+04  0.28015428171E+04 0.  0.
        3    1    3    3  502    0  0.97351201610E+03  0.99975102564E+03 -0.63368509828E+03  0.15325744917E+04  0.10100000352E+00 0. -1.
       -3    1    3    3    0  502 -0.97351201610E+03 -0.99975102564E+03 -0.37395788074E+03  0.14446702965E+04  0.10100000352E+00 0.  1.
</event>
<event>
 5   0  0.1283052E-05  0.2944459E+04  0.7818609E-02  0.8259771E-01
        2   -1    0    0  501    0  0.00000000000E+00  0.00000000000E+00  0.12043252114E+04  0.12043252114E+04  0.25500000920E-02 0.  1.
       -2   -1    0    0    0  501  0.00000000000E+00  0.00000000000E+00 -0.17997301303E+04  0.17997301303E+04  0.25500000920E-02 0. -1.
    10030    2    1    2    0    0  0.00000000000E+00  0.00000000000E+00 -0.59540491886E+03  0.30040553417E+04  0.29444594544E+04 0.  0.
        5    1    3    3  502    0 -0.12049852543E+04  0.38455226294E+03 -0.10663220409E+04  0.16543683662E+04  0.46999998093E+01 0. -1.
       -5    1    3    3    0  502  0.12049852543E+04 -0.38455226294E+03  0.47091712203E+03  0.13496869755E+04  0.46999998093E+01 0.  1.
</event>
<event>
 5   0  0.5281919E-06  0.2860721E+04  0.7818609E-02  0.8284661E-01
        1   -1    0    0  501    0  0.00000000000E+00  0.00000000000E+00  0.10889407645E+04  0.10889407646E+04  0.50400001928E-02 0. -1.
       -1   -1    0    0    0  501  0.00000000000E+00  0.00000000000E+00 -0.18788264570E+04  0.18788264571E+04  0.50400001928E-02 0.  1.
    10030    2    1    2    0    0  0.00000000000E+00  0.00000000000E+00 -0.78988569249E+03  0.29677672216E+04  0.28607206914E+04 0.  0.
        4    1    3    3  502    0 -0.84331697311E+03  0.10861448270E+04 -0.80342139834E+03  0.15926021658E+04  0.12699999809E+01 0. -1.
       -4    1    3    3    0  502  0.84331697311E+03 -0.10861448270E+04  0.13535705846E+02  0.13751650558E+04  0.12699999809E+01 0.  1.
</event>
<event>
 5   0  0.4764214E-06  0.2395822E+04  0.7818609E-02  0.8441069E-01
        1   -1    0    0  501    0  0.00000000000E+00  0.00000000000E+00  0.21451780765E+04  0.21451780765E+04  0.50400001928E-02 0. -1.
       -1   -1    0    0    0  501  0.00000000000E+00  0.00000000000E+00 -0.66893798409E+03  0.66893798411E+03  0.50400001928E-02 0.  1.
    10030    2    1    2    0    0  0.00000000000E+00  0.00000000000E+00  0.14762400924E+04  0.28141160606E+04  0.23958222789E+04 0.  0.
        3    1    3    3  502    0 -0.10512197226E+04  0.35874430829E+03  0.12650277263E+04  0.16834653375E+04  0.10100000352E+00 0. -1.
       -3    1    3    3    0  502  0.10512197226E+04 -0.35874430829E+03  0.21121236603E+03  0.11306507231E+04  0.10100000352E+00 0.  1.
</event>
<event>
 5   0  0.5023691E-06  0.2773886E+04  0.7818609E-02  0.8311422E-01
       -1   -1    0    0    0  501  0.00000000000E+00  0.00000000000E+00  0.15773322430E+04  0.15773322430E+04  0.50400001928E-02 0. -1.
        1   -1    0    0  501    0  0.00000000000E+00  0.00000000000E+00 -0.12195341645E+04  0.12195341645E+04  0.50400001928E-02 0.  1.
    10030    2    1    2    0    0  0.00000000000E+00  0.00000000000E+00  0.35779807849E+03  0.27968664075E+04  0.27738857649E+04 0.  0.
        5    1    3    3  502    0  0.97037227803E+02  0.88368585762E+03 -0.89447266931E+03  0.12611186957E+04  0.46999998093E+01 0.  1.
       -5    1    3    3    0  502 -0.97037227803E+02 -0.88368585762E+03  0.12522707478E+04  0.15357477118E+04  0.46999998093E+01 0. -1.
</event>
<event>
 5   0  0.1388269E-05  0.2282570E+04  0.7818609E-02  0.8484825E-01
       -2   -1    0    0    0  501  0.00000000000E+00  0.00000000000E+00  0.41678679012E+03  0.41678679012E+03  0.25500000920E-02 0. -1.
        2   -1    0    0  501    0  0.00000000000E+00  0.00000000000E+00 -0.31251745424E+04  0.31251745424E+04  0.25500000920E-02 0.  1.
    10030    2    1    2    0    0  0.00000000000E+00  0.00000000000E+00 -0.27083877523E+04  0.35419613325E+04  0.22825700130E+04 0.  0.
        1    1    3    3  502    0 -0.53013141952E+03  0.56299991066E+03 -0.51724947983E+02  0.77503786464E+03  0.50400001928E-02 0. -1.
       -1    1    3    3    0  502  0.53013141952E+03 -0.56299991066E+03 -0.26566628043E+04  0.27669234679E+04  0.50400001928E-02 0.  1.
</event>
<event>
 5   0  0.1283052E-05  0.2795034E+04  0.7818609E-02  0.8304812E-01
        2   -1    0    0  501    0  0.00000000000E+00  0.00000000000E+00  0.10404448552E+04  0.10404448552E+04  0.25500000920E-02 0. -1.
       -2   -1    0    0    0  501  0.00000000000E+00  0.00000000000E+00 -0.18771333755E+04  0.18771333755E+04  0.25500000920E-02 0.  1.
    10030    2    1    2    0    0  0.00000000000E+00  0.00000000000E+00 -0.83668852027E+03  0.29175782307E+04  0.27950339984E+04 0.  0.
        5    1    3    3  502    0 -0.96557229686E+02  0.13705396502E+04 -0.68514675601E+03  0.15353014032E+04  0.46999998093E+01 0.  1.
       -5    1    3    3    0  502  0.96557229686E+02 -0.13705396502E+04 -0.15154176426E+03  0.13822768275E+04  0.46999998093E+01 0. -1.
</event>
<event>
 5   0  0.5023691E-06  0.2791906E+04  0.7818609E-02  0.8305785E-01
        1   -1    0    0  501    0  0.00000000000E+00  0.00000000000E+00  0.13052693303E+04  0.13052693303E+04  0.50400001928E-02 0.  1.
       -1   -1    0    0    0  501  0.00000000000E+00  0.00000000000E+00 -0.14929373622E+04  0.14929373622E+04  0.50400001928E-02 0. -1.
    10030    2    1    2    0    0  0.00000000000E+00  0.00000000000E+00 -0.18766803186E+03  0.27982066925E+04  0.27919064103E+04 0.  0.
        5    1    3    3  502    0  0.19133423799E+02 -0.37395966603E+03  0.12539873887E+04  0.13087086692E+04  0.46999998093E+01 0.  1.
       -5    1    3    3    0  502 -0.19133423799E+02  0.37395966603E+03 -0.14416554206E+04  0.14894980233E+04  0.46999998093E+01 0. -1.
</event>
<event>
 5   0  0.5217999E-06  0.2787507E+04  0.7818609E-02  0.8307158E-01
       -1   -1    0    0    0  501  0.00000000000E+00  0.00000000000E+00  0.98560809731E+03  0.98560809732E+03  0.50400001928E-02 0. -1.
        1   -1    0    0  501    0  0.00000000000E+00  0.00000000000E+00 -0.19709133797E+04  0.19709133797E+04  0.50400001928E-02 0.  1.
    10030    2    1    2    0    0  0.00000000000E+00  0.00000000000E+00 -0.98530528243E+03  0.29565214771E+04  0.27875065461E+04 0.  0.
        1    1    3    3  502    0 -0.12437963411E+03 -0.50442553357E+03  0.87906727203E+03  0.10211144309E+04  0.50400001928E-02 0. -1.
       -1    1    3    3    0  502  0.12437963411E+03  0.50442553357E+03 -0.18643725545E+04  0.19354070461E+04  0.50400001928E-02 0.  1.
</event>
<event>
 5   0  0.1302063E-05  0.2933645E+04  0.7818609E-02  0.8262937E-01
       -2   -1    0    0    0  501  0.00000000000E+00  0.00000000000E+00  0.94962282713E+03  0.94962282713E+03  0.25500000920E-02 0.  1.
        2   -1    0    0  501    0  0.00000000000E+00  0.00000000000E+00 -0.22657084089E+04  0.22657084089E+04  0.25500000920E-02 0. -1.
    10030    2    1    2    0    0  0.00000000000E+00  0.00000000000E+00 -0.13160855818E+04  0.32153312360E+04  0.29336451215E+04 0.  0.
        2    1    3    3  502    0  0.11938368878E+04 -0.64851107738E+02  0.27332604059E+03  0.12264417252E+04  0.25500000920E-02 0.  1.
       -2    1    3    3    0  502 -0.11938368878E+04  0.64851107738E+02 -0.15894116223E+04  0.19888895108E+04  0.25500000920E-02 0. -1.
</event>
<event>
 5   0  0.5217999E-06  0.2870915E+04  0.7818609E-02  0.8281584E-01
       -1   -1    0    0    0  501  0.00000000000E+00  0.00000000000E+00  0.24332936415E+04  0.24332936415E+04  0.50400001928E-02 0. -1.
        1   -1    0    0  501    0  0.00000000000E+00  0.00000000000E+00 -0.84681059253E+03  0.84681059255E+03  0.50400001928E-02 0.  1.
    10030    2    1    2    0    0  0.00000000000E+00  0.00000000000E+00  0.15864830490E+04  0.32801042340E+04  0.28709154152E+04 0.  0.
        1    1    3    3  502    0  0.10277275228E+04 -0.10018586631E+04  0.82109179103E+03  0.16535224133E+04  0.50400001928E-02 0.  1.
       -1    1    3    3    0  502 -0.10277275228E+04  0.10018586631E+04  0.76539125792E+03  0.16265818208E+04  0.50400001928E-02 0. -1.
</event>
<event>
 5   0  0.1330962E-05  0.2768752E+04  0.7818609E-02  0.8313036E-01
       -2   -1    0    0    0  501  0.00000000000E+00  0.00000000000E+00  0.86998207651E+03  0.86998207652E+03  0.25500000920E-02 0.  1.
        2   -1    0    0  501    0  0.00000000000E+00  0.00000000000E+00 -0.22029147870E+04  0.22029147871E+04  0.25500000920E-02 0. -1.
    10030    2    1    2    0    0  0.00000000000E+00  0.00000000000E+00 -0.13329327105E+04  0.30728968636E+04  0.27687516182E+04 0.  0.
        4    1    3    3  502    0 -0.40517227587E+03 -0.71117836563E+03 -0.19056047137E+04  0.20739503800E+04  0.12699999809E+01 0. -1.
       -4    1    3    3    0  502  0.40517227587E+03  0.71117836563E+03  0.57267200319E+03  0.99894648356E+03  0.12699999809E+01 0.  1.
</event>
<event>
 5   0  0.1388269E-05  0.2808816E+04  0.7818609E-02  0.8300536E-01
        2   -1    0    0  501    0  0.00000000000E+00  0.00000000000E+00  0.12872052613E+04  0.12872052613E+04  0.25500000920E-02 0.  1.
       -2   -1    0    0    0  501  0.00000000000E+00  0.00000000000E+00 -0.15322827290E+04  0.15322827290E+04  0.25500000920E-02 0. -1.
    10030    2    1    2    0    0  0.00000000000E+00  0.00000000000E+00 -0.24507746768E+03  0.28194879904E+04  0.28088163989E+04 0.  0.
        1    1    3    3  502    0 -0.36571006519E+03  0.54413508737E+03  0.11241685226E+04  0.13013768525E+04  0.50400001928E-02 0.  1.
       -1    1    3    3    0  502  0.36571006519E+03 -0.54413508737E+03 -0.13692459902E+04  0.15181111379E+04  0.50400001928E-02 0. -1.
</event>
<event>
 5   0  0.4447500E-06  0.2158127E+04  0.7818609E-02  0.8536062E-01
       -4   -1    0    0    0  501  0.00000000000E+00  0.00000000000E+00  0.17877095321E+04  0.17877099832E+04  0.12699999809E+01 0.  1.
        4   -1    0    0  501    0  0.00000000000E+00  0.00000000000E+00 -0.65132252376E+03  0.65132376193E+03  0.12699999809E+01 0. -1.
    10030    2    1    2    0    0  0.00000000000E+00  0.00000000000E+00  0.11363870084E+04  0.24390337452E+04  0.21581265434E+04 0.  0.
        3    1    3    3  502    0  0.17501204928E+03 -0.20402552586E+03  0.17492657417E+04  0.17697983721E+04  0.10100000352E+00 0.  1.
       -3    1    3    3    0  502 -0.17501204928E+03  0.20402552586E+03 -0.61287873333E+03  0.66923537307E+03  0.10100000352E+00 0. -1.
</event>
<event>
 5   0  0.5217999E-06  0.2713574E+04  0.7818609E-02  0.8330614E-01
        1   -1    0    0  501    0  0.00000000000E+00  0.00000000000E+00  0.18654824545E+04  0.18654824545E+04  0.50400001928E-02 0. -1.
       -1   -1    0    0    0  501  0.00000000000E+00  0.00000000000E+00 -0.98680712153E+03  0.98680712154E+03  0.50400001928E-02 0.  1.
    10030    2    1    2    0    0  0.00000000000E+00  0.00000000000E+00  0.87867533297E+03  0.28522895760E+04  0.27135743006E+04 0.  0.
        1    1    3    3  502    0 -0.35263634410E+02  0.10290455123E+03 -0.98221619990E+03  0.98822139926E+03  0.50400001928E-02 0.  1.
       -1    1    3    3    0  502  0.35263634410E+02 -0.10290455123E+03  0.18608915329E+04  0.18640681768E+04  0.50400001928E-02 0. -1.
</event>
<event>
 5   0  0.4447500E-06  0.2798935E+04  0.7818609E-02  0.8303599E-01
       -3   -1    0    0    0  501  0.00000000000E+00  0.00000000000E+00  0.12481536247E+04  0.12481536288E+04  0.10100000352E+00 0. -1.
        3   -1    0    0  501    0  0.00000000000E+00  0.00000000000E+00 -0.15691254221E+04  0.15691254254E+04  0.10100000352E+00 0.  1.
    10030    2    1    2    0    0  0.00000000000E+00  0.00000000000E+00 -0.32097179740E+03  0.28172790542E+04  0.27989352216E+04 0.  0.
        4    1    3    3  502    0  0.93647755401E+03  0.67512334977E+03 -0.95669878271E+03  0.14993518334E+04  0.12699999809E+01 0.  1.
       -4    1    3    3    0  502 -0.93647755401E+03 -0.67512334977E+03  0.63572698531E+03  0.13179272208E+04  0.12699999809E+01 0. -1.
</event>
<event>
 5   0  0.1330962E-05  0.2812580E+04  0.7818609E-02  0.8299373E-01
        2   -1    0    0  501    0  0.00000000000E+00  0.00000000000E+00  0.26787066314E+04  0.26787066314E+04  0.25500000920E-02 0. -1.
       -2   -1    0    0    0  501  0.00000000000E+00  0.00000000000E+00 -0.73828603049E+03  0.73828603050E+03  0.25500000920E-02 0.  1.
    10030    2    1    2    0    0  0.00000000000E+00  0.00000000000E+00  0.19404206009E+04  0.34169926619E+04  0.28125800865E+04 0.  0.
        4    1    3    3  502    0  0.13597827108E+04  0.35070477576E+03  0.10615072385E+04  0.17603414699E+04  0.12699999809E+01 0. -1.
       -4    1    3    3    0  502 -0.13597827108E+04 -0.35070477576E+03  0.87891336240E+03  0.16566511920E+04  0.12699999809E+01 0.  1.
</event>
<event>
 5   0  0.5281919E-06  0.2832929E+04  0.7818609E-02  0.8293117E-01
       -1   -1    0    0    0  501  0.00000000000E+00  0.00000000000E+00  0.16607719450E+04  0.16607719450E+04  0.50400001928E-02 0. -1.
        1   -1    0    0  501    0  0.00000000000E+00  0.00000000000E+00 -0.12080959579E+04  0.12080959579E+04  0.50400001928E-02 0.  1.
    10030    2    1    2    0    0  0.00000000000E+00  0.00000000000E+00  0.45267598711E+03  0.28688679029E+04  0.28329291370E+04 0.  0.
        4    1    3    3  502    0 -0.75817805644E+03 -0.72235952742E+03 -0.73956122984E+03  0.12820256151E+04  0.12699999809E+01 0.  1.
       -4    1    3    3    0  502  0.75817805644E+03  0.72235952742E+03  0.11922372169E+04  0.15868422878E+04  0.12699999809E+01 0. -1.
</event>
<event>
 5   0  0.1330962E-05  0.2802661E+04  0.7818609E-02  0.8302443E-01
        2   -1    0    0  501    0  0.00000000000E+00  0.00000000000E+00  0.22960167172E+04  0.22960167172E+04  0.25500000920E-02 0. -1.
       -2   -1    0    0    0  501  0.00000000000E+00  0.00000000000E+00 -0.85527535229E+03  0.85527535229E+03  0.25500000920E-02 0.  1.
    10030    2    1    2    0    0  0.00000000000E+00  0.00000000000E+00  0.14407413649E+04  0.31512920695E+04  0.28026605265E+04 0.  0.
        4    1    3    3  502    0 -0.49361198837E+03  0.31138090802E+03  0.21528642332E+04  0.22305687357E+04  0.12699999809E+01 0. -1.
       -4    1    3    3    0  502  0.49361198837E+03 -0.31138090802E+03 -0.71212286833E+03  0.92072333382E+03  0.12699999809E+01 0.  1.
</event>
<event>
 5   0  0.5107453E-06  0.2829612E+04  0.7818609E-02  0.8294133E-01
        1   -1    0    0  501    0  0.00000000000E+00  0.00000000000E+00  0.17490353447E+04  0.17490353447E+04  0.50400001928E-02 0. -1.
       -1   -1    0    0    0  501  0.00000000000E+00  0.00000000000E+00 -0.11444459511E+04  0.11444459512E+04  0.50400001928E-02 0.  1.
    10030    2    1    2    0    0  0.00000000000E+00  0.00000000000E+00  0.60458939354E+03  0.28934812958E+04  0.28296122834E+04 0.  0.
        2    1    3    3  502    0 -0.62606835830E+03 -0.22714136455E+03  0.15787171216E+04  0.17134475594E+04  0.25500000920E-02 0. -1.
       -2    1    3    3    0  502  0.62606835830E+03  0.22714136455E+03 -0.97412772802E+03  0.11800337365E+04  0.25500000920E-02 0.  1.
</event>
<event>
 5   0  0.1388269E-05  0.2006161E+04  0.7818609E-02  0.8603746E-01
        2   -1    0    0  501    0  0.00000000000E+00  0.00000000000E+00  0.91097273462E+03  0.91097273462E+03  0.25500000920E-02 0.  1.
       -2   -1    0    0    0  501  0.00000000000E+00  0.00000000000E+00 -0.11045013526E+04  0.11045013526E+04  0.25500000920E-02 0. -1.
    10030    2    1    2    0    0  0.00000000000E+00  0.00000000000E+00 -0.19352861800E+03  0.20154740872E+04  0.20061611277E+04 0.  0.
        1    1    3    3  502    0 -0.30082421196E+03  0.45783621937E+02  0.86348615621E+03  0.91553246176E+03  0.50400001928E-02 0.  1.
       -1    1    3    3    0  502  0.30082421196E+03 -0.45783621937E+02 -0.10570147742E+04  0.10999416255E+04  0.50400001928E-02 0. -1.
</event>
<event>
 5   0  0.4764214E-06  0.2792821E+04  0.7818609E-02  0.8305501E-01
       -1   -1    0    0    0  501  0.00000000000E+00  0.00000000000E+00  0.10467670758E+04  0.10467670758E+04  0.50400001928E-02 0. -1.
        1   -1    0    0  501    0  0.00000000000E+00  0.00000000000E+00 -0.18628421362E+04  0.18628421362E+04  0.50400001928E-02 0.  1.
    10030    2    1    2    0    0  0.00000000000E+00  0.00000000000E+00 -0.81607506041E+03  0.29096092120E+04  0.27928206641E+04 0.  0.
        3    1    3    3  502    0 -0.78916111541E+03  0.16852403022E+03  0.77926240749E+03  0.11217956698E+04  0.10100000352E+00 0. -1.
       -3    1    3    3    0  502  0.78916111541E+03 -0.16852403022E+03 -0.15953374679E+04  0.17878135422E+04  0.10100000352E+00 0.  1.
</event>
<event>
 5   0  0.5217999E-06  0.2787631E+04  0.7818609E-02  0.8307119E-01
        1   -1    0    0  501    0  0.00000000000E+00  0.00000000000E+00  0.26058560916E+04  0.26058560916E+04  0.50400001928E-02 0. -1.
       -1   -1    0    0    0  501  0.00000000000E+00  0.00000000000E+00 -0.74552167385E+03  0.74552167387E+03  0.50400001928E-02 0.  1.
    10030    2    1    2    0    0  0.00000000000E+00  0.00000000000E+00  0.18603344177E+04  0.33513777655E+04  0.27876313926E+04 0.  0.
        1    1    3    3  502    0 -0.19925703134E+03  0.10100239794E+03  0.25841934336E+04  0.25938312495E+04  0.50400001928E-02 0. -1.
       -1    1    3    3    0  502  0.19925703134E+03 -0.10100239794E+03 -0.72385901585E+03  0.75754651592E+03  0.50400001928E-02 0.  1.
</event>
<event>
 5   0  0.4764214E-06  0.2797210E+04  0.7818609E-02  0.8304135E-01
       -1   -1    0    0    0  501  0.00000000000E+00  0.00000000000E+00  0.12403639933E+04  0.12403639933E+04  0.50400001928E-02 0. -1.
        1   -1    0    0  501    0  0.00000000000E+00  0.00000000000E+00 -0.15770337912E+04  0.15770337912E+04  0.50400001928E-02 0.  1.
    10030    2    1    2    0    0  0.00000000000E+00  0.00000000000E+00 -0.33666979790E+03  0.28173977845E+04  0.27972099891E+04 0.  0.
        3    1    3    3  502    0 -0.18833397335E+03 -0.30720270868E+03  0.11928074222E+04  0.12460468476E+04  0.10100000352E+00 0. -1.
       -3    1    3    3    0  502  0.18833397335E+03  0.30720270868E+03 -0.15294772201E+04  0.15713509369E+04  0.10100000352E+00 0.  1.
</event>
<event>
 5   0  0.1350863E-05  0.2793548E+04  0.7818609E-02  0.8305274E-01
       -2   -1    0    0    0  501  0.00000000000E+00  0.00000000000E+00  0.12120154731E+04  0.12120154731E+04  0.25500000920E-02 0.  1.
        2   -1    0    0  501    0  0.00000000000E+00  0.00000000000E+00 -0.16096972664E+04  0.16096972664E+04  0.25500000920E-02 0. -1.
    10030    2    1    2    0    0  0.00000000000E+00  0.00000000000E+00 -0.39768179336E+03  0.28217127395E+04  0.27935482769E+04 0.  0.
        3    1    3    3  502    0  0.32704631797E+03  0.13572108295E+04 -0.15369741899E+03  0.14044940144E+04  0.10100000352E+00 0. -1.
       -3    1    3    3    0  502 -0.32704631797E+03 -0.13572108295E+04 -0.24398437436E+03  0.14172187251E+04  0.10100000352E+00 0.  1.
</event>
<event>
 5   0  0.1302063E-05  0.2814968E+04  0.7818609E-02  0.8298636E-01
        2   -1    0    0  501    0  0.00000000000E+00  0.00000000000E+00  0.18100578358E+04  0.18100578358E+04  0.25500000920E-02 0. -1.
       -2   -1    0    0    0  501  0.00000000000E+00  0.00000000000E+00 -0.10944463434E+04  0.10944463434E+04  0.25500000920E-02 0.  1.
    10030    2    1    2    0    0  0.00000000000E+00  0.00000000000E+00  0.71561149242E+03  0.29045041792E+04  0.28149679784E+04 0.  0.
        2    1    3    3  502    0  0.80124920218E+03 -0.46005169514E+03 -0.73773995648E+03  0.11823316327E+04  0.25500000920E-02 0.  1.
       -2    1    3    3    0  502 -0.80124920218E+03  0.46005169514E+03  0.14533514489E+04  0.17221725466E+04  0.25500000920E-02 0. -1.
</event>
<event>
 5   0  0.5281919E-06  0.2825744E+04  0.7818609E-02  0.8295320E-01
        1   -1    0    0  501    0  0.00000000000E+00  0.00000000000E+00  0.23380035920E+04  0.23380035920E+04  0.50400001928E-02 0.  1.
       -1   -1    0    0    0  501  0.00000000000E+00  0.00000000000E+00 -0.85380873947E+03  0.85380873949E+03  0.50400001928E-02 0. -1.
    10030    2    1    2    0    0  0.00000000000E+00  0.00000000000E+00  0.14841948525E+04  0.31918123315E+04  0.28257444327E+04 0.  0.
        4    1    3    3  502    0  0.26734109748E+03 -0.30147425367E+03  0.22717266456E+04  0.23071847680E+04  0.12699999809E+01 0.  1.
       -4    1    3    3    0  502 -0.26734109748E+03  0.30147425367E+03 -0.78753179314E+03  0.88462756352E+03  0.12699999809E+01 0. -1.
</event>
<event>
 5   0  0.1388269E-05  0.2810525E+04  0.7818609E-02  0.8300008E-01
        2   -1    0    0  501    0  0.00000000000E+00  0.00000000000E+00  0.21961365186E+04  0.21961365186E+04  0.25500000920E-02 0. -1.
       -2   -1    0    0    0  501  0.00000000000E+00  0.00000000000E+00 -0.89919872474E+03  0.89919872475E+03  0.25500000920E-02 0.  1.
    10030    2    1    2    0    0  0.00000000000E+00  0.00000000000E+00  0.12969377939E+04  0.30953352434E+04  0.28105253295E+04 0.  0.
        1    1    3    3  502    0  0.12638692986E+04 -0.49912660016E+03  0.25402698251E+03  0.13823974373E+04  0.50400001928E-02 0.  1.
       -1    1    3    3    0  502 -0.12638692986E+04  0.49912660016E+03  0.10429108114E+04  0.17129378060E+04  0.50400001928E-02 0. -1.
</event>
<event>
 5   0  0.1283052E-05  0.2839868E+04  0.7818609E-02  0.8290997E-01
        2   -1    0    0  501    0  0.00000000000E+00  0.00000000000E+00  0.13930346026E+04  0.13930346026E+04  0.25500000920E-02 0. -1.
       -2   -1    0    0    0  501  0.00000000000E+00  0.00000000000E+00 -0.14473525370E+04  0.14473525370E+04  0.25500000920E-02 0.  1.
    10030    2    1    2    0    0  0.00000000000E+00  0.00000000000E+00 -0.54317934469E+02  0.28403871396E+04  0.28398677196E+04 0.  0.
        5    1    3    3  502    0  0.12357748754E+04  0.48299469690E+03 -0.53298524741E+03  0.14298667015E+04  0.46999998093E+01 0.  1.
       -5    1    3    3    0  502 -0.12357748754E+04 -0.48299469690E+03  0.47866731294E+03  0.14105204382E+04  0.46999998093E+01 0. -1.
</event>
<event>
 5   0  0.5281919E-06  0.2741219E+04  0.7818609E-02  0.8321753E-01
       -1   -1    0    0    0  501  0.00000000000E+00  0.00000000000E+00  0.94901494523E+03  0.94901494525E+03  0.50400001928E-02 0.  1.
        1   -1    0    0  501    0  0.00000000000E+00  0.00000000000E+00 -0.19794952066E+04  0.19794952066E+04  0.50400001928E-02 0. -1.
    10030    2    1    2    0    0  0.00000000000E+00  0.00000000000E+00 -0.10304802614E+04  0.29285101518E+04  0.27412190975E+04 0.  0.
        4    1    3    3  502    0 -0.16342617294E+03 -0.97909567336E+03 -0.15249235771E+04  0.18195411455E+04  0.12699999809E+01 0. -1.
       -4    1    3    3    0  502  0.16342617294E+03  0.97909567336E+03  0.49444331570E+03  0.11089690063E+04  0.12699999809E+01 0.  1.
</event>
<event>
 5   0  0.1388269E-05  0.2807816E+04  0.7818609E-02  0.8300846E-01
        2   -1    0    0  501    0  0.00000000000E+00  0.00000000000E+00  0.12823851569E+04  0.12823851569E+04  0.25500000920E-02 0. -1.
       -2   -1    0    0    0  501  0.00000000000E+00  0.00000000000E+00 -0.15369464210E+04  0.15369464210E+04  0.25500000920E-02 0.  1.
    10030    2    1    2    0    0  0.00000000000E+00  0.00000000000E+00 -0.25456126404E+03  0.28193315779E+04  0.28078157185E+04 0.  0.
        1    1    3    3  502    0  0.11997449563E+04  0.60875618827E+03 -0.53015585412E+03  0.14460419380E+04  0.50400001928E-02 0. -1.
       -1    1    3    3    0  502 -0.11997449563E+04 -0.60875618827E+03  0.27559459008E+03  0.13732896399E+04  0.50400001928E-02 0.  1.
</event>
<event>
 5   0  0.5217999E-06  0.2673378E+04  0.7818609E-02  0.8343695E-01
       -1   -1    0    0    0  501  0.00000000000E+00  0.00000000000E+00  0.11719264959E+04  0.11719264959E+04  0.50400001928E-02 0.  1.
        1   -1    0    0  501    0  0.00000000000E+00  0.00000000000E+00 -0.15246154116E+04  0.15246154116E+04  0.50400001928E-02 0. -1.
    10030    2    1    2    0    0  0.00000000000E+00  0.00000000000E+00 -0.35268891577E+03  0.26965419075E+04  0.26733777862E+04 0.  0.
        1    1    3    3  502    0  0.35910466546E+03 -0.15899124700E+03  0.11124207676E+04  0.11797094310E+04  0.50400001928E-02 0.  1.
       -1    1    3    3    0  502 -0.35910466546E+03  0.15899124700E+03 -0.14651096834E+04  0.15168324765E+04  0.50400001928E-02 0. -1.
</event>
<event>
 5   0  0.1388269E-05  0.2800849E+04  0.7818609E-02  0.8303005E-01
        2   -1    0    0  501    0  0.00000000000E+00  0.00000000000E+00  0.13477475723E+04  0.13477475723E+04  0.25500000920E-02 0.  1.
       -2   -1    0    0    0  501  0.00000000000E+00  0.00000000000E+00 -0.14551601029E+04  0.14551601029E+04  0.25500000920E-02 0. -1.
    10030    2    1    2    0    0  0.00000000000E+00  0.00000000000E+00 -0.10741253067E+03  0.28029076752E+04  0.28008487971E+04 0.  0.
        1    1    3    3  502    0 -0.16323233351E+03 -0.11428906832E+04  0.73955832338E+03  0.13710544928E+04  0.50400001928E-02 0.  1.
       -1    1    3    3    0  502  0.16323233351E+03  0.11428906832E+04 -0.84697085405E+03  0.14318531824E+04  0.50400001928E-02 0. -1.
</event>
<event>
 5   0  0.5281919E-06  0.2808441E+04  0.7818609E-02  0.8300652E-01
       -1   -1    0    0    0  501  0.00000000000E+00  0.00000000000E+00  0.12689419689E+04  0.12689419689E+04  0.50400001928E-02 0.  1.
        1   -1    0    0  501    0  0.00000000000E+00  0.00000000000E+00 -0.15539210623E+04  0.15539210623E+04  0.50400001928E-02 0. -1.
    10030    2    1    2    0    0  0.00000000000E+00  0.00000000000E+00 -0.28497909343E+03  0.28228630312E+04  0.28084413131E+04 0.  0.
        4    1    3    3  502    0 -0.12947325378E+04  0.35125735061E+03  0.27451432012E+03  0.13693333399E+04  0.12699999809E+01 0.  1.
       -4    1    3    3    0  502  0.12947325378E+04 -0.35125735061E+03 -0.55949341355E+03  0.14535296913E+04  0.12699999809E+01 0. -1.
</event>
<event>
 5   0  0.1302063E-05  0.2688957E+04  0.7818609E-02  0.8338597E-01
        2   -1    0    0  501    0  0.00000000000E+00  0.00000000000E+00  0.14788128181E+04  0.14788128181E+04  0.25500000920E-02 0.  1.
       -2   -1    0    0    0  501  0.00000000000E+00  0.00000000000E+00 -0.12223467336E+04  0.12223467336E+04  0.25500000920E-02 0. -1.
    10030    2    1    2    0    0  0.00000000000E+00  0.00000000000E+00  0.25646608444E+03  0.27011595517E+04  0.26889566882E+04 0.  0.
        2    1    3    3  502    0 -0.63342847463E+03 -0.10095370904E+04  0.75333126525E+03  0.14099307659E+04  0.25500000920E-02 0.  1.
       -2    1    3    3    0  502  0.63342847463E+03  0.10095370904E+04 -0.49686518080E+03  0.12912287858E+04  0.25500000920E-02 0. -1.
</event>
<event>
 5   0  0.1302063E-05  0.2820368E+04  0.7818609E-02  0.8296973E-01
        2   -1    0    0  501    0  0.00000000000E+00  0.00000000000E+00  0.17207717506E+04  0.17207717506E+04  0.25500000920E-02 0. -1.
       -2   -1    0    0    0  501  0.00000000000E+00  0.00000000000E+00 -0.11556554316E+04  0.11556554316E+04  0.25500000920E-02 0.  1.
    10030    2    1    2    0    0  0.00000000000E+00  0.00000000000E+00  0.56511631895E+03  0.28764271822E+04  0.28203682172E+04 0.  0.
        2    1    3    3  502    0 -0.32658160398E+03 -0.80629951615E+03 -0.84938746112E+03  0.12158262676E+04  0.25500000920E-02 0.  1.
       -2    1    3    3    0  502  0.32658160398E+03  0.80629951615E+03  0.14145037801E+04  0.16606009146E+04  0.25500000920E-02 0. -1.
</event>
<event>
 5   0  0.5281919E-06  0.2777515E+04  0.7818609E-02  0.8310283E-01
       -1   -1    0    0    0  501  0.00000000000E+00  0.00000000000E+00  0.12682467490E+04  0.12682467490E+04  0.50400001928E-02 0.  1.
        1   -1    0    0  501    0  0.00000000000E+00  0.00000000000E+00 -0.15207189093E+04  0.15207189093E+04  0.50400001928E-02 0. -1.
    10030    2    1    2    0    0  0.00000000000E+00  0.00000000000E+00 -0.25247216036E+03  0.27889656583E+04  0.27775145817E+04 0.  0.
        4    1    3    3  502    0 -0.32621356829E+03  0.43462585714E+03  0.11570510082E+04  0.12783127850E+04  0.12699999809E+01 0.  1.
       -4    1    3    3    0  502  0.32621356829E+03 -0.43462585714E+03 -0.14095231686E+04  0.15106528733E+04  0.12699999809E+01 0. -1.
</event>
<event>
 5   0  0.5023691E-06  0.2808576E+04  0.7818609E-02  0.8300611E-01
        1   -1    0    0  501    0  0.00000000000E+00  0.00000000000E+00  0.17884540267E+04  0.17884540267E+04  0.50400001928E-02 0.  1.
       -1   -1    0    0    0  501  0.00000000000E+00  0.00000000000E+00 -0.11026425386E+04  0.11026425386E+04  0.50400001928E-02 0. -1.
    10030    2    1    2    0    0  0.00000000000E+00  0.00000000000E+00  0.68581148807E+03  0.28910965653E+04  0.28085764994E+04 0.  0.
        5    1    3    3  502    0  0.77194711570E+03 -0.10907971391E+04 -0.10135631910E+03  0.13401626549E+04  0.46999998093E+01 0. -1.
       -5    1    3    3    0  502 -0.77194711570E+03  0.10907971391E+04  0.78716780716E+03  0.15509339105E+04  0.46999998093E+01 0.  1.
</event>
<event>
 5   0  0.5107453E-06  0.2800526E+04  0.7818609E-02  0.8303105E-01
       -1   -1    0    0    0  501  0.00000000000E+00  0.00000000000E+00  0.16179518106E+04  0.16179518106E+04  0.50400001928E-02 0. -1.
        1   -1    0    0  501    0  0.00000000000E+00  0.00000000000E+00 -0.12118633748E+04  0.12118633748E+04  0.50400001928E-02 0.  1.
    10030    2    1    2    0    0  0.00000000000E+00  0.00000000000E+00  0.40608843577E+03  0.28298151855E+04  0.28005260517E+04 0.  0.
        2    1    3    3  502    0 -0.61894456803E+03 -0.69429085010E+03 -0.85461396895E+03  0.12631299216E+04  0.25500000920E-02 0.  1.
       -2    1    3    3    0  502  0.61894456803E+03  0.69429085010E+03  0.12607024047E+04  0.15666852639E+04  0.25500000920E-02 0. -1.
</event>
<event>
 5   0  0.1350863E-05  0.2829359E+04  0.7818609E-02  0.8294211E-01
       -2   -1    0    0    0  501  0.00000000000E+00  0.00000000000E+00  0.83808633499E+03  0.83808633499E+03  0.25500000920E-02 0.  1.
        2   -1    0    0  501    0  0.00000000000E+00  0.00000000000E+00 -0.23879615643E+04  0.23879615644E+04  0.25500000920E-02 0. -1.
    10030    2    1    2    0    0  0.00000000000E+00  0.00000000000E+00 -0.15498752294E+04  0.32260478993E+04  0.28293589066E+04 0.  0.
        3    1    3    3  502    0  0.68031111540E+03  0.88906331823E+03 -0.17611065533E+04  0.20868045189E+04  0.10100000352E+00 0. -1.
       -3    1    3    3    0  502 -0.68031111540E+03 -0.88906331823E+03  0.21123132396E+03  0.11392433805E+04  0.10100000352E+00 0.  1.
</event>
<event>
 5   0  0.5107453E-06  0.2791321E+04  0.7818609E-02  0.8305968E-01
        1   -1    0    0  501    0  0.00000000000E+00  0.00000000000E+00  0.16054824625E+04  0.16054824626E+04  0.50400001928E-02 0. -1.
       -1   -1    0    0    0  501  0.00000000000E+00  0.00000000000E+00 -0.12132603213E+04  0.12132603213E+04  0.50400001928E-02 0.  1.
    10030    2    1    2    0    0  0.00000000000E+00  0.00000000000E+00  0.39222214126E+03  0.28187427838E+04  0.27913209549E+04 0.  0.
        2    1    3    3  502    0 -0.46784445728E+02 -0.66645103498E+03  0.14335152528E+04  0.15815535863E+04  0.25500000920E-02 0. -1.
       -2    1    3    3    0  502  0.46784445728E+02  0.66645103498E+03 -0.10412931115E+04  0.12371891975E+04  0.25500000920E-02 0.  1.
</event>
<event>
 5   0  0.5217999E-06  0.2877041E+04  0.7818609E-02  0.8279741E-01
        1   -1    0    0  501    0  0.00000000000E+00  0.00000000000E+00  0.18671513979E+04  0.18671513979E+04  0.50400001928E-02 0.  1.
       -1   -1    0    0    0  501  0.00000000000E+00  0.00000000000E+00 -0.11082879050E+04  0.11082879050E+04  0.50400001928E-02 0. -1.
    10030    2    1    2    0    0  0.00000000000E+00  0.00000000000E+00  0.75886349292E+03  0.29754393029E+04  0.28770410571E+04 0.  0.
        1    1    3    3  502    0  0.66682712341E+03 -0.10333951077E+04  0.11511270454E+04  0.16845347535E+04  0.50400001928E-02 0.  1.
       -1    1    3    3    0  502 -0.66682712341E+03  0.10333951077E+04 -0.39226355245E+03  0.12909045494E+04  0.50400001928E-02 0. -1.
</event>
<event>
 5   0  0.1388269E-05  0.2755480E+04  0.7818609E-02  0.8317225E-01
       -2   -1    0    0    0  501  0.00000000000E+00  0.00000000000E+00  0.97122984377E+03  0.97122984377E+03  0.25500000920E-02 0.  1.
        2   -1    0    0  501    0  0.00000000000E+00  0.00000000000E+00 -0.19543962587E+04  0.19543962587E+04  0.25500000920E-02 0. -1.
    10030    2    1    2    0    0  0.00000000000E+00  0.00000000000E+00 -0.98316641496E+03  0.29256261025E+04  0.27554803378E+04 0.  0.
        1    1    3    3  502    0 -0.11360727141E+03 -0.99437660450E+03 -0.14968722935E+04  0.18006438034E+04  0.50400001928E-02 0. -1.
       -1    1    3    3    0  502  0.11360727141E+03  0.99437660450E+03  0.51370587850E+03  0.11249822991E+04  0.50400001928E-02 0.  1.
</event>
<event>
 5   0  0.5023691E-06  0.2784081E+04  0.7818609E-02  0.8308228E-01
       -1   -1    0    0    0  501  0.00000000000E+00  0.00000000000E+00  0.20350436352E+04  0.20350436352E+04  0.50400001928E-02 0. -1.
        1   -1    0    0  501    0  0.00000000000E+00  0.00000000000E+00 -0.95220436936E+03  0.95220436937E+03  0.50400001928E-02 0.  1.
    10030    2    1    2    0    0  0.00000000000E+00  0.00000000000E+00  0.10828392658E+04  0.29872480046E+04  0.27840814940E+04 0.  0.
        5    1    3    3  502    0  0.45283734411E+03  0.82987046172E+03 -0.55491061540E+03  0.10962182833E+04  0.46999998093E+01 0.  1.
       -5    1    3    3    0  502 -0.45283734411E+03 -0.82987046172E+03  0.16377498812E+04  0.18910297213E+04  0.46999998093E+01 0. -1.
</event>
<event>
 5   0  0.5023691E-06  0.2784289E+04  0.7818609E-02  0.8308163E-01
        1   -1    0    0  501    0  0.00000000000E+00  0.00000000000E+00  0.93115660338E+03  0.93115660339E+03  0.50400001928E-02 0. -1.
       -1   -1    0    0    0  501  0.00000000000E+00  0.00000000000E+00 -0.20813540465E+04  0.20813540465E+04  0.50400001928E-02 0.  1.
    10030    2    1    2    0    0  0.00000000000E+00  0.00000000000E+00 -0.11501974431E+04  0.30125106499E+04  0.27842891835E+04 0.  0.
        5    1    3    3  502    0 -0.87048903641E+03  0.38012320656E+02  0.59964525080E+03  0.10577299352E+04  0.46999998093E+01 0. -1.
       -5    1    3    3    0  502  0.87048903641E+03 -0.38012320656E+02 -0.17498426939E+04  0.19547807147E+04  0.46999998093E+01 0.  1.
</event>
<event>
 5   0  0.1302063E-05  0.2809887E+04  0.7818609E-02  0.8300206E-01
        2   -1    0    0  501    0  0.00000000000E+00  0.00000000000E+00  0.11443166932E+04  0.11443166932E+04  0.25500000920E-02 0.  1.
       -2   -1    0    0    0  501  0.00000000000E+00  0.00000000000E+00 -0.17249294262E+04  0.17249294262E+04  0.25500000920E-02 0. -1.
    10030    2    1    2    0    0  0.00000000000E+00  0.00000000000E+00 -0.58061273304E+03  0.28692461194E+04  0.28098865009E+04 0.  0.
        2    1    3    3  502    0  0.23977354477E+03  0.10890428553E+04  0.58235845360E+03  0.12580330130E+04  0.25500000920E-02 0.  1.
       -2    1    3    3    0  502 -0.23977354477E+03 -0.10890428553E+04 -0.11629711866E+04  0.16112131064E+04  0.25500000920E-02 0. -1.
</event>
<event>
 5   0  0.1302063E-05  0.2787424E+04  0.7818609E-02  0.8307183E-01
        2   -1    0    0  501    0  0.00000000000E+00  0.00000000000E+00  0.81989600668E+03  0.81989600669E+03  0.25500000920E-02 0.  1.
       -2   -1    0    0    0  501  0.00000000000E+00  0.00000000000E+00 -0.23691221271E+04  0.23691221271E+04  0.25500000920E-02 0. -1.
    10030    2    1    2    0    0  0.00000000000E+00  0.00000000000E+00 -0.15492261205E+04  0.31890181338E+04  0.27874244538E+04 0.  0.
        2    1    3    3  502    0 -0.11810221559E+04  0.14511907980E+03  0.55578249694E+02  0.11912018393E+04  0.25500000920E-02 0.  1.
       -2    1    3    3    0  502  0.11810221559E+04 -0.14511907980E+03 -0.16048043701E+04  0.19978162945E+04  0.25500000920E-02 0. -1.
</event>
<event>
 5   0  0.4764214E-06  0.2831024E+04  0.7818609E-02  0.8293701E-01
       -1   -1    0    0    0  501  0.00000000000E+00  0.00000000000E+00  0.15076454712E+04  0.15076454712E+04  0.50400001928E-02 0.  1.
        1   -1    0    0  501    0  0.00000000000E+00  0.00000000000E+00 -0.13290092179E+04  0.13290092179E+04  0.50400001928E-02 0. -1.
    10030    2    1    2    0    0  0.00000000000E+00  0.00000000000E+00  0.17863625330E+03  0.28366546891E+04  0.28310243577E+04 0.  0.
        3    1    3    3  502    0 -0.12200609696E+04 -0.64737782461E+03 -0.22118185828E+03  0.13987738352E+04  0.10100000352E+00 0. -1.
       -3    1    3    3    0  502  0.12200609696E+04  0.64737782461E+03  0.39981811158E+03  0.14378808539E+04  0.10100000352E+00 0.  1.
</event>
<event>
 5   0  0.1283052E-05  0.2788284E+04  0.7818609E-02  0.8306915E-01
        2   -1    0    0  501    0  0.00000000000E+00  0.00000000000E+00  0.12447395837E+04  0.12447395837E+04  0.25500000920E-02 0.  1.
       -2   -1    0    0    0  501  0.00000000000E+00  0.00000000000E+00 -0.15614768366E+04  0.15614768366E+04  0.25500000920E-02 0. -1.
    10030    2    1    2    0    0  0.00000000000E+00  0.00000000000E+00 -0.31673725294E+03  0.28062164203E+04  0.27882840799E+04 0.  0.
        5    1    3    3  502    0 -0.11141564942E+04 -0.34943060667E+03 -0.92495190513E+03  0.14896323571E+04  0.46999998093E+01 0. -1.
       -5    1    3    3    0  502  0.11141564942E+04  0.34943060667E+03  0.60821465219E+03  0.13165840632E+04  0.46999998093E+01 0.  1.
</event>
<event>
 5   0  0.5281919E-06  0.2773263E+04  0.7818609E-02  0.8311618E-01
        1   -1    0    0  501    0  0.00000000000E+00  0.00000000000E+00  0.14644968434E+04  0.14644968434E+04  0.50400001928E-02 0. -1.
       -1   -1    0    0    0  501  0.00000000000E+00  0.00000000000E+00 -0.13129057150E+04  0.13129057150E+04  0.50400001928E-02 0.  1.
    10030    2    1    2    0    0  0.00000000000E+00  0.00000000000E+00  0.15159112839E+03  0.27774025584E+04  0.27732625374E+04 0.  0.
        4    1    3    3  502    0 -0.22085594557E+03  0.13382145700E+04 -0.21299072219E+03  0.13729392720E+04  0.12699999809E+01 0.  1.
       -4    1    3    3    0  502  0.22085594557E+03 -0.13382145700E+04  0.36458185058E+03  0.14044632864E+04  0.12699999809E+01 0. -1.
</event>
<event>
 5   0  0.1302063E-05  0.2400364E+04  0.7818609E-02  0.8439367E-01
       -2   -1    0    0    0  501  0.00000000000E+00  0.00000000000E+00  0.13267350641E+04  0.13267350641E+04  0.25500000920E-02 0.  1.
        2   -1    0    0  501    0  0.00000000000E+00  0.00000000000E+00 -0.10857008704E+04  0.10857008704E+04  0.25500000920E-02 0. -1.
    10030    2    1    2    0    0  0.00000000000E+00  0.00000000000E+00  0.24103419374E+03  0.24124359345E+04  0.24003644839E+04 0.  0.
        2    1    3    3  502    0  0.55921019269E+03 -0.82866290532E+03 -0.54693050133E+03  0.11395311420E+04  0.25500000920E-02 0. -1.
       -2    1    3    3    0  502 -0.55921019269E+03  0.82866290532E+03  0.78796469507E+03  0.12729047926E+04  0.25500000920E-02 0.  1.
</event>
<event>
 5   0  0.5023691E-06  0.2692136E+04  0.7818609E-02  0.8337561E-01
       -1   -1    0    0    0  501  0.00000000000E+00  0.00000000000E+00  0.98099719486E+03  0.98099719487E+03  0.50400001928E-02 0. -1.
        1   -1    0    0  501    0  0.00000000000E+00  0.00000000000E+00 -0.18469965928E+04  0.18469965928E+04  0.50400001928E-02 0.  1.
    10030    2    1    2    0    0  0.00000000000E+00  0.00000000000E+00 -0.86599939796E+03  0.28279937877E+04  0.26921355661E+04 0.  0.
        5    1    3    3  502    0 -0.79970983587E+03  0.10041411679E+04 -0.75405811569E+01  0.12837111268E+04  0.46999998093E+01 0. -1.
       -5    1    3    3    0  502  0.79970983587E+03 -0.10041411679E+04 -0.85845881681E+03  0.15442826609E+04  0.46999998093E+01 0.  1.
</event>
<event>
 5   0  0.5023691E-06  0.2774165E+04  0.7818609E-02  0.8311334E-01
        1   -1    0    0  501    0  0.00000000000E+00  0.00000000000E+00  0.10974713029E+04  0.10974713029E+04  0.50400001928E-02 0.  1.
       -1   -1    0    0    0  501  0.00000000000E+00  0.00000000000E+00 -0.17531194331E+04  0.17531194331E+04  0.50400001928E-02 0. -1.
    10030    2    1    2    0    0  0.00000000000E+00  0.00000000000E+00 -0.65564813020E+03  0.28505907361E+04  0.27741652932E+04 0.  0.
        5    1    3    3  502    0 -0.92572755614E+03 -0.58456082722E+03 -0.12029274648E+04  0.16265729139E+04  0.46999998093E+01 0. -1.
       -5    1    3    3    0  502  0.92572755614E+03  0.58456082722E+03  0.54727933456E+03  0.12240178221E+04  0.46999998093E+01 0.  1.
</event>
<event>
 5   0  0.5107453E-06  0.2771690E+04  0.7818609E-02  0.8312112E-01
       -1   -1    0    0    0  501  0.00000000000E+00  0.00000000000E+00  0.86127252218E+03  0.86127252219E+03  0.50400001928E-02 0. -1.
        1   -1    0    0  501    0  0.00000000000E+00  0.00000000000E+00 -0.22299166650E+04  0.22299166650E+04  0.50400001928E-02 0.  1.
    10030    2    1    2    0    0  0.00000000000E+00  0.00000000000E+00 -0.13686441428E+04  0.30911891872E+04  0.27716897015E+04 0.  0.
        2    1    3    3  502    0  0.26169467229E+03 -0.11939187368E+04 -0.14127921384E+04  0.18681294596E+04  0.25500000920E-02 0.  1.
       -2    1    3    3    0  502 -0.26169467229E+03  0.11939187368E+04  0.44147995584E+02  0.12230597276E+04  0.25500000920E-02 0. -1.
</event>
<event>
 5   0  0.5023691E-06  0.2831748E+04  0.7818609E-02  0.8293479E-01
       -1   -1    0    0    0  501  0.00000000000E+00  0.00000000000E+00  0.96740969751E+03  0.96740969752E+03  0.50400001928E-02 0. -1.
        1   -1    0    0  501    0  0.00000000000E+00  0.00000000000E+00 -0.20722340352E+04  0.20722340353E+04  0.50400001928E-02 0.  1.
    10030    2    1    2    0    0  0.00000000000E+00  0.00000000000E+00 -0.11048243377E+04  0.30396437328E+04  0.28317480829E+04 0.  0.
        5    1    3    3  502    0 -0.49170942259E+03 -0.58169176623E+03  0.72875098442E+03  0.10541553749E+04  0.46999998093E+01 0. -1.
       -5    1    3    3    0  502  0.49170942259E+03  0.58169176623E+03 -0.18335753222E+04  0.19854883579E+04  0.46999998093E+01 0.  1.
</event>
<event>
 5   0  0.1302063E-05  0.2423353E+04  0.7818609E-02  0.8430812E-01
       -2   -1    0    0    0  501  0.00000000000E+00  0.00000000000E+00  0.73279005192E+03  0.73279005192E+03  0.25500000920E-02 0.  1.
        2   -1    0    0  501    0  0.00000000000E+00  0.00000000000E+00 -0.20035213760E+04  0.20035213760E+04  0.25500000920E-02 0. -1.
    10030    2    1    2    0    0  0.00000000000E+00  0.00000000000E+00 -0.12707313241E+04  0.27363114279E+04  0.24233534890E+04 0.  0.
        2    1    3    3  502    0 -0.44974739197E+03  0.95956869771E+01 -0.19057366608E+04  0.19581105725E+04  0.25500000920E-02 0. -1.
       -2    1    3    3    0  502  0.44974739197E+03 -0.95956869771E+01  0.63500533669E+03  0.77820085545E+03  0.25500000920E-02 0.  1.
</event>
<event>
 5   0  0.1302063E-05  0.2782425E+04  0.7818609E-02  0.8308746E-01
       -2   -1    0    0    0  501  0.00000000000E+00  0.00000000000E+00  0.14118838448E+04  0.14118838448E+04  0.25500000920E-02 0. -1.
        2   -1    0    0  501    0  0.00000000000E+00  0.00000000000E+00 -0.13708433136E+04  0.13708433136E+04  0.25500000920E-02 0.  1.
    10030    2    1    2    0    0  0.00000000000E+00  0.00000000000E+00  0.41040531201E+02  0.27827271583E+04  0.27824245026E+04 0.  0.
        2    1    3    3  502    0  0.69831530173E+02  0.11108581443E+04 -0.81418975512E+03  0.13790530145E+04  0.25500000920E-02 0.  1.
       -2    1    3    3    0  502 -0.69831530173E+02 -0.11108581443E+04  0.85523028632E+03  0.14036741438E+04  0.25500000920E-02 0. -1.
</event>
<event>
 5   0  0.5281919E-06  0.2831649E+04  0.7818609E-02  0.8293509E-01
       -1   -1    0    0    0  501  0.00000000000E+00  0.00000000000E+00  0.10629527394E+04  0.10629527394E+04  0.50400001928E-02 0. -1.
        1   -1    0    0  501    0  0.00000000000E+00  0.00000000000E+00 -0.18858404438E+04  0.18858404438E+04  0.50400001928E-02 0.  1.
    10030    2    1    2    0    0  0.00000000000E+00  0.00000000000E+00 -0.82288770444E+03  0.29487931832E+04  0.28316491773E+04 0.  0.
        4    1    3    3  502    0 -0.42134648972E+03  0.10192500538E+04 -0.13359513589E+04  0.17323888660E+04  0.12699999809E+01 0.  1.
       -4    1    3    3    0  502  0.42134648972E+03 -0.10192500538E+04  0.51306365450E+03  0.12164043173E+04  0.12699999809E+01 0. -1.
</event>
<event>
 5   0  0.1330962E-05  0.2834052E+04  0.7818609E-02  0.8292774E-01
        2   -1    0    0  501    0  0.00000000000E+00  0.00000000000E+00  0.20713016844E+04  0.20713016844E+04  0.25500000920E-02 0.  1.
       -2   -1    0    0    0  501  0.00000000000E+00  0.00000000000E+00 -0.96942044498E+03  0.96942044498E+03  0.25500000920E-02 0. -1.
    10030    2    1    2    0    0  0.00000000000E+00  0.00000000000E+00  0.11018812394E+04  0.30407221294E+04  0.28340516584E+04 0.  0.
        4    1    3    3  502    0 -0.19317870789E+03  0.14037745646E+04  0.55921996964E+03  0.15233612929E+04  0.12699999809E+01 0. -1.
       -4    1    3    3    0  502  0.19317870789E+03 -0.14037745646E+04  0.54266126980E+03  0.15173608365E+04  0.12699999809E+01 0.  1.
</event>
<event>
 5   0  0.4447500E-06  0.2804041E+04  0.7818609E-02  0.8302015E-01
        3   -1    0    0  501    0  0.00000000000E+00  0.00000000000E+00  0.18202779301E+04  0.18202779329E+04  0.10100000352E+00 0.  1.
       -3   -1    0    0    0  501  0.00000000000E+00  0.00000000000E+00 -0.10798688673E+04  0.10798688720E+04  0.10100000352E+00 0. -1.
    10030    2    1    2    0    0  0.00000000000E+00  0.00000000000E+00  0.74040906283E+03  0.29001468049E+04  0.28040409964E+04 0.  0.
        4    1    3    3  502    0  0.74618538699E+01  0.11862902888E+04  0.11430221875E+04  0.16473741720E+04  0.12699999809E+01 0.  1.
       -4    1    3    3    0  502 -0.74618538699E+01 -0.11862902888E+04 -0.40261312470E+03  0.12527726329E+04  0.12699999809E+01 0. -1.
</event>
<event>
 5   0  0.5023691E-06  0.2147225E+04  0.7818609E-02  0.8540721E-01
       -1   -1    0    0    0  501  0.00000000000E+00  0.00000000000E+00  0.71949687566E+03  0.71949687568E+03  0.50400001928E-02 0. -1.
        1   -1    0    0  501    0  0.00000000000E+00  0.00000000000E+00 -0.16020134535E+04  0.16020134536E+04  0.50400001928E-02 0.  1.
    10030    2    1    2    0    0  0.00000000000E+00  0.00000000000E+00 -0.88251657789E+03  0.23215103292E+04  0.21472248831E+04 0.  0.
        5    1    3    3  502    0  0.76197008324E+03  0.95605991139E+02 -0.12524098876E+04  0.14691124973E+04  0.46999998093E+01 0.  1.
       -5    1    3    3    0  502 -0.76197008324E+03 -0.95605991139E+02  0.36989330969E+03  0.85239783191E+03  0.46999998093E+01 0. -1.
</event>
<event>
 5   0  0.4764214E-06  0.2450036E+04  0.7818609E-02  0.8421005E-01
       -1   -1    0    0    0  501  0.00000000000E+00  0.00000000000E+00  0.75944029986E+03  0.75944029987E+03  0.50400001928E-02 0. -1.
        1   -1    0    0  501    0  0.00000000000E+00  0.00000000000E+00 -0.19760190477E+04  0.19760190477E+04  0.50400001928E-02 0.  1.
    10030    2    1    2    0    0  0.00000000000E+00  0.00000000000E+00 -0.12165787479E+04  0.27354593476E+04  0.24500355084E+04 0.  0.
        3    1    3    3  502    0 -0.10305622924E+04  0.63002483761E+03 -0.38035270098E+03  0.12663562381E+04  0.10100000352E+00 0.  1.
       -3    1    3    3    0  502  0.10305622924E+04 -0.63002483761E+03 -0.83622604687E+03  0.14691031095E+04  0.10100000352E+00 0. -1.
</event>
<event>
 5   0  0.1302063E-05  0.2807974E+04  0.7818609E-02  0.8300797E-01
        2   -1    0    0  501    0  0.00000000000E+00  0.00000000000E+00  0.19549135159E+04  0.19549135159E+04  0.25500000920E-02 0. -1.
       -2   -1    0    0    0  501  0.00000000000E+00  0.00000000000E+00 -0.10083207382E+04  0.10083207382E+04  0.25500000920E-02 0.  1.
    10030    2    1    2    0    0  0.00000000000E+00  0.00000000000E+00  0.94659277766E+03  0.29632342541E+04  0.28079742445E+04 0.  0.
        2    1    3    3  502    0 -0.36006139060E+03 -0.12543066359E+04 -0.73270267197E+02  0.13070186968E+04  0.25500000920E-02 0. -1.
       -2    1    3    3    0  502  0.36006139060E+03  0.12543066359E+04  0.10198630449E+04  0.16562155573E+04  0.25500000920E-02 0.  1.
</event>
<event>
 5   0  0.5217999E-06  0.2831224E+04  0.7818609E-02  0.8293640E-01
        1   -1    0    0  501    0  0.00000000000E+00  0.00000000000E+00  0.13639978957E+04  0.13639978957E+04  0.50400001928E-02 0.  1.
       -1   -1    0    0    0  501  0.00000000000E+00  0.00000000000E+00 -0.14691792371E+04  0.14691792371E+04  0.50400001928E-02 0. -1.
    10030    2    1    2    0    0  0.00000000000E+00  0.00000000000E+00 -0.10518134143E+03  0.28331771328E+04  0.28312240376E+04 0.  0.
        1    1    3    3  502    0  0.37778478689E+03 -0.40118749755E+03  0.12522584763E+04  0.13681462074E+04  0.50400001928E-02 0.  1.
       -1    1    3    3    0  502 -0.37778478689E+03  0.40118749755E+03 -0.13574398178E+04  0.14650309254E+04  0.50400001928E-02 0. -1.
</event>
<event>
 5   0  0.1302063E-05  0.2806897E+04  0.7818609E-02  0.8301130E-01
        2   -1    0    0  501    0  0.00000000000E+00  0.00000000000E+00  0.11942010041E+04  0.11942010041E+04  0.25500000920E-02 0.  1.
       -2   -1    0    0    0  501  0.00000000000E+00  0.00000000000E+00 -0.16493604486E+04  0.16493604486E+04  0.25500000920E-02 0. -1.
    10030    2    1    2    0    0  0.00000000000E+00  0.00000000000E+00 -0.45515944456E+03  0.28435614527E+04  0.28068971508E+04 0.  0.
        2    1    3    3  502    0 -0.22612175625E+03  0.94077017264E+03 -0.12574651394E+04  0.15866310671E+04  0.25500000920E-02 0. -1.
       -2    1    3    3    0  502  0.22612175625E+03 -0.94077017264E+03  0.80230569479E+03  0.12569303856E+04  0.25500000920E-02 0.  1.
</event>
<event>
 5   0  0.1302063E-05  0.2850049E+04  0.7818609E-02  0.8287896E-01
        2   -1    0    0  501    0  0.00000000000E+00  0.00000000000E+00  0.16385666555E+04  0.16385666555E+04  0.25500000920E-02 0.  1.
       -2   -1    0    0    0  501  0.00000000000E+00  0.00000000000E+00 -0.12393118632E+04  0.12393118632E+04  0.25500000920E-02 0. -1.
    10030    2    1    2    0    0  0.00000000000E+00  0.00000000000E+00  0.39925479235E+03  0.28778785187E+04  0.28500491889E+04 0.  0.
        2    1    3    3  502    0 -0.54140453406E+03  0.32075803883E+03 -0.10914071755E+04  0.12598310251E+04  0.25500000920E-02 0. -1.
       -2    1    3    3    0  502  0.54140453406E+03 -0.32075803883E+03  0.14906619679E+04  0.16180474936E+04  0.25500000920E-02 0.  1.
</event>
<event>
 5   0  0.4764214E-06  0.2867791E+04  0.7818609E-02  0.8282525E-01
        1   -1    0    0  501    0  0.00000000000E+00  0.00000000000E+00  0.83466182996E+03  0.83466182997E+03  0.50400001928E-02 0. -1.
       -1   -1    0    0    0  501  0.00000000000E+00  0.00000000000E+00 -0.24633410692E+04  0.24633410692E+04  0.50400001928E-02 0.  1.
    10030    2    1    2    0    0  0.00000000000E+00  0.00000000000E+00 -0.16286792393E+04  0.32980028992E+04  0.28677913206E+04 0.  0.
        3    1    3    3  502    0  0.44279377838E+03 -0.20979252376E+03 -0.23640791864E+04  0.24143217770E+04  0.10100000352E+00 0.  1.
       -3    1    3    3    0  502 -0.44279377838E+03  0.20979252376E+03  0.73539994715E+03  0.88368112216E+03  0.10100000352E+00 0. -1.
</event>
<event>
 5   0  0.5217999E-06  0.2805518E+04  0.7818609E-02  0.8301557E-01
       -1   -1    0    0    0  501  0.00000000000E+00  0.00000000000E+00  0.12568707936E+04  0.12568707936E+04  0.50400001928E-02 0. -1.
        1   -1    0    0  501    0  0.00000000000E+00  0.00000000000E+00 -0.15655809326E+04  0.15655809326E+04  0.50400001928E-02 0.  1.
    10030    2    1    2    0    0  0.00000000000E+00  0.00000000000E+00 -0.30871013897E+03  0.28224517262E+04  0.28055180978E+04 0.  0.
        1    1    3    3  502    0  0.47356352287E+03 -0.46320591504E+03  0.10895995153E+04  0.12751663553E+04  0.50400001928E-02 0. -1.
       -1    1    3    3    0  502 -0.47356352287E+03  0.46320591504E+03 -0.13983096543E+04  0.15472853709E+04  0.50400001928E-02 0.  1.
</event>
<event>
 5   0  0.4764214E-06  0.2741842E+04  0.7818609E-02  0.8321555E-01
        1   -1    0    0  501    0  0.00000000000E+00  0.00000000000E+00  0.14898308319E+04  0.14898308319E+04  0.50400001928E-02 0.  1.
       -1   -1    0    0    0  501  0.00000000000E+00  0.00000000000E+00 -0.12615022491E+04  0.12615022491E+04  0.50400001928E-02 0. -1.
    10030    2    1    2    0    0  0.00000000000E+00  0.00000000000E+00  0.22832858278E+03  0.27513330811E+04  0.27418424063E+04 0.  0.
        3    1    3    3  502    0  0.64522683115E+03 -0.15669168199E+03 -0.10893850915E+04  0.12757859674E+04  0.10100000352E+00 0. -1.
       -3    1    3    3    0  502 -0.64522683115E+03  0.15669168199E+03  0.13177136743E+04  0.14755471136E+04  0.10100000352E+00 0.  1.
</event>
<event>
 5   0  0.4447500E-06  0.2514180E+04  0.7818609E-02  0.8397951E-01
       -3   -1    0    0    0  501  0.00000000000E+00  0.00000000000E+00  0.76497515827E+03  0.76497516493E+03  0.10100000352E+00 0. -1.
        3   -1    0    0  501    0  0.00000000000E+00  0.00000000000E+00 -0.20657856065E+04  0.20657856090E+04  0.10100000352E+00 0.  1.
    10030    2    1    2    0    0  0.00000000000E+00  0.00000000000E+00 -0.13008104482E+04  0.28307607739E+04  0.25141795355E+04 0.  0.
        2    1    3    3  502    0  0.24774040778E+03 -0.17333333504E+03 -0.20242354699E+04  0.20466922076E+04  0.25500000920E-02 0.  1.
       -2    1    3    3    0  502 -0.24774040778E+03  0.17333333504E+03  0.72342502171E+03  0.78406856635E+03  0.25500000920E-02 0. -1.
</event>
<event>
 5   0  0.5281919E-06  0.2807315E+04  0.7818609E-02  0.8301001E-01
        1   -1    0    0  501    0  0.00000000000E+00  0.00000000000E+00  0.16466120926E+04  0.16466120927E+04  0.50400001928E-02 0. -1.
       -1   -1    0    0    0  501  0.00000000000E+00  0.00000000000E+00 -0.11965507438E+04  0.11965507438E+04  0.50400001928E-02 0.  1.
    10030    2    1    2    0    0  0.00000000000E+00  0.00000000000E+00  0.45006134884E+03  0.28431628365E+04  0.28073153896E+04 0.  0.
        4    1    3    3  502    0 -0.24249173649E+03  0.95800849654E+03 -0.78452852120E+03  0.12617722200E+04  0.12699999809E+01 0.  1.
       -4    1    3    3    0  502  0.24249173649E+03 -0.95800849654E+03  0.12345898700E+04  0.15813906165E+04  0.12699999809E+01 0. -1.
</event>
<event>
 5   0  0.5281919E-06  0.2813375E+04  0.7818609E-02  0.8299128E-01
       -1   -1    0    0    0  501  0.00000000000E+00  0.00000000000E+00  0.12908893770E+04  0.12908893770E+04  0.50400001928E-02 0. -1.
        1   -1    0    0  501    0  0.00000000000E+00  0.00000000000E+00 -0.15328736578E+04  0.15328736578E+04  0.50400001928E-02 0.  1.
    10030    2    1    2    0    0  0.00000000000E+00  0.00000000000E+00 -0.24198428079E+03  0.28237630348E+04  0.28133754255E+04 0.  0.
        4    1    3    3  502    0 -0.39419382508E+03  0.39796334984E+03 -0.14161071728E+04  0.15228672750E+04  0.12699999809E+01 0.  1.
       -4    1    3    3    0  502  0.39419382508E+03 -0.39796334984E+03  0.11741228920E+04  0.13008957598E+04  0.12699999809E+01 0. -1.
</event>
<event>
 5   0  0.1388269E-05  0.2727311E+04  0.7818609E-02  0.8326198E-01
       -2   -1    0    0    0  501  0.00000000000E+00  0.00000000000E+00  0.17580774937E+04  0.17580774937E+04  0.25500000920E-02 0.  1.
        2   -1    0    0  501    0  0.00000000000E+00  0.00000000000E+00 -0.10577213506E+04  0.10577213506E+04  0.25500000920E-02 0. -1.
    10030    2    1    2    0    0  0.00000000000E+00  0.00000000000E+00  0.70035614307E+03  0.28157988443E+04  0.27273108376E+04 0.  0.
        1    1    3    3  502    0 -0.41730194613E+03 -0.19221309972E+02  0.16903880084E+04  0.17412415088E+04  0.50400001928E-02 0.  1.
       -1    1    3    3    0  502  0.41730194613E+03  0.19221309972E+02 -0.99003186532E+03  0.10745573355E+04  0.50400001928E-02 0. -1.
</event>
<event>
 5   0  0.1350863E-05  0.2586459E+04  0.7818609E-02  0.8372815E-01
       -2   -1    0    0    0  501  0.00000000000E+00  0.00000000000E+00  0.14521961660E+04  0.14521961660E+04  0.25500000920E-02 0.  1.
        2   -1    0    0  501    0  0.00000000000E+00  0.00000000000E+00 -0.11516645970E+04  0.11516645970E+04  0.25500000920E-02 0. -1.
    10030    2    1    2    0    0  0.00000000000E+00  0.00000000000E+00  0.30053156894E+03  0.26038607630E+04  0.25864592881E+04 0.  0.
        3    1    3    3  502    0  0.19032717883E+03  0.11524997928E+04 -0.40841169610E+03  0.12374491227E+04  0.10100000352E+00 0. -1.
       -3    1    3    3    0  502 -0.19032717883E+03 -0.11524997928E+04  0.70894326504E+03  0.13664116403E+04  0.10100000352E+00 0.  1.
</event>
<event>
 5   0  0.5023691E-06  0.2749560E+04  0.7818609E-02  0.8319101E-01
       -1   -1    0    0    0  501  0.00000000000E+00  0.00000000000E+00  0.11774381625E+04  0.11774381625E+04  0.50400001928E-02 0. -1.
        1   -1    0    0  501    0  0.00000000000E+00  0.00000000000E+00 -0.16051967173E+04  0.16051967173E+04  0.50400001928E-02 0.  1.
    10030    2    1    2    0    0  0.00000000000E+00  0.00000000000E+00 -0.42775855480E+03  0.27826348797E+04  0.27495598726E+04 0.  0.
        5    1    3    3  502    0  0.64029482616E+03 -0.24332397794E+03 -0.14201967572E+04  0.15767577309E+04  0.46999998093E+01 0.  1.
       -5    1    3    3    0  502 -0.64029482616E+03  0.24332397794E+03  0.99243820240E+03  0.12058771489E+04  0.46999998093E+01 0. -1.
</event>
<event>
 5   0  0.1302063E-05  0.2801323E+04  0.7818609E-02  0.8302858E-01
       -2   -1    0    0    0  501  0.00000000000E+00  0.00000000000E+00  0.99122320700E+03  0.99122320700E+03  0.25500000920E-02 0.  1.
        2   -1    0    0  501    0  0.00000000000E+00  0.00000000000E+00 -0.19792244778E+04  0.19792244778E+04  0.25500000920E-02 0. -1.
    10030    2    1    2    0    0  0.00000000000E+00  0.00000000000E+00 -0.98800127081E+03  0.29704476848E+04  0.28013234260E+04 0.  0.
        2    1    3    3  502    0 -0.56115731439E+03  0.94099803617E+03 -0.14193110472E+04  0.17929915460E+04  0.25500000920E-02 0. -1.
       -2    1    3    3    0  502  0.56115731439E+03 -0.94099803617E+03  0.43130977635E+03  0.11774561388E+04  0.25500000920E-02 0.  1.
</event>
<event>
 5   0  0.1330962E-05  0.2805952E+04  0.7818609E-02  0.8301423E-01
       -2   -1    0    0    0  501  0.00000000000E+00  0.00000000000E+00  0.74522786966E+03  0.74522786967E+03  0.25500000920E-02 0.  1.
        2   -1    0    0  501    0  0.00000000000E+00  0.00000000000E+00 -0.26412620152E+04  0.26412620152E+04  0.25500000920E-02 0. -1.
    10030    2    1    2    0    0  0.00000000000E+00  0.00000000000E+00 -0.18960341455E+04  0.33864898849E+04  0.28059522910E+04 0.  0.
        4    1    3    3  502    0  0.74297407689E+03  0.48699203773E+03  0.36254464176E+03  0.95948525466E+03  0.12699999809E+01 0.  1.
       -4    1    3    3    0  502 -0.74297407689E+03 -0.48699203773E+03 -0.22585787873E+04  0.24270046302E+04  0.12699999809E+01 0. -1.
</event>
<event>
 5   0  0.5281919E-06  0.2743971E+04  0.7818609E-02  0.8320877E-01
       -1   -1    0    0    0  501  0.00000000000E+00  0.00000000000E+00  0.92237103529E+03  0.92237103530E+03  0.50400001928E-02 0.  1.
        1   -1    0    0  501    0  0.00000000000E+00  0.00000000000E+00 -0.20407670534E+04  0.20407670534E+04  0.50400001928E-02 0. -1.
    10030    2    1    2    0    0  0.00000000000E+00  0.00000000000E+00 -0.11183960181E+04  0.29631380887E+04  0.27439711513E+04 0.  0.
        4    1    3    3  502    0 -0.10462666136E+04 -0.16670040971E+03  0.38213837186E+03  0.11262744787E+04  0.12699999809E+01 0.  1.
       -4    1    3    3    0  502  0.10462666136E+04  0.16670040971E+03 -0.15005343899E+04  0.18368636099E+04  0.12699999809E+01 0. -1.
</event>
<event>
 5   0  0.1283052E-05  0.2963186E+04  0.7818609E-02  0.8254322E-01
       -2   -1    0    0    0  501  0.00000000000E+00  0.00000000000E+00  0.20579746346E+04  0.20579746346E+04  0.25500000920E-02 0. -1.
        2   -1    0    0  501    0  0.00000000000E+00  0.00000000000E+00 -0.10666395232E+04  0.10666395232E+04  0.25500000920E-02 0.  1.
    10030    2    1    2    0    0  0.00000000000E+00  0.00000000000E+00  0.99133511137E+03  0.31246141578E+04  0.29631855042E+04 0.  0.
        5    1    3    3  502    0 -0.86198080917E+03 -0.30280451836E+03 -0.73423252529E+03  0.11721010976E+04  0.46999998093E+01 0. -1.
       -5    1    3    3    0  502  0.86198080917E+03  0.30280451836E+03  0.17255676367E+04  0.19525130602E+04  0.46999998093E+01 0.  1.
</event>
<event>
 5   0  0.1350863E-05  0.2756344E+04  0.7818609E-02  0.8316951E-01
        2   -1    0    0  501    0  0.00000000000E+00  0.00000000000E+00  0.17836389035E+04  0.17836389035E+04  0.25500000920E-02 0. -1.
       -2   -1    0    0    0  501  0.00000000000E+00  0.00000000000E+00 -0.10648785154E+04  0.10648785154E+04  0.25500000920E-02 0.  1.
    10030    2    1    2    0    0  0.00000000000E+00  0.00000000000E+00  0.71876038814E+03  0.28485174188E+04  0.27563444977E+04 0.  0.
        3    1    3    3  502    0 -0.10983442987E+04 -0.67629026063E+03 -0.14226966582E+03  0.12976784591E+04  0.10100000352E+00 0.  1.
       -3    1    3    3    0  502  0.10983442987E+04  0.67629026063E+03  0.86103005396E+03  0.15508389598E+04  0.10100000352E+00 0. -1.
</event>
<event>
 5   0  0.5281919E-06  0.2817910E+04  0.7818609E-02  0.8297730E-01
       -1   -1    0    0    0  501  0.00000000000E+00  0.00000000000E+00  0.74063813105E+03  0.74063813107E+03  0.50400001928E-02 0.  1.
        1   -1    0    0  501    0  0.00000000000E+00  0.00000000000E+00 -0.26803289459E+04  0.26803289459E+04  0.50400001928E-02 0. -1.
    10030    2    1    2    0    0  0.00000000000E+00  0.00000000000E+00 -0.19396908149E+04  0.34209670770E+04  0.28179097368E+04 0.  0.
        4    1    3    3  502    0 -0.40580647579E+03 -0.89028211843E+03 -0.22006557490E+04  0.24083538952E+04  0.12699999809E+01 0. -1.
       -4    1    3    3    0  502  0.40580647579E+03  0.89028211843E+03  0.26096493409E+03  0.10126131818E+04  0.12699999809E+01 0.  1.
</event>
<event>
 5   0  0.4764214E-06  0.2520906E+04  0.7818609E-02  0.8395575E-01
       -1   -1    0    0    0  501  0.00000000000E+00  0.00000000000E+00  0.11623304100E+04  0.11623304100E+04  0.50400001928E-02 0. -1.
        1   -1    0    0  501    0  0.00000000000E+00  0.00000000000E+00 -0.13668588856E+04  0.13668588856E+04  0.50400001928E-02 0.  1.
    10030    2    1    2    0    0  0.00000000000E+00  0.00000000000E+00 -0.20452847562E+03  0.25291892956E+04  0.25209059078E+04 0.  0.
        3    1    3    3  502    0 -0.44112972346E+03  0.10977999411E+04  0.33388421822E+03  0.12293245401E+04  0.10100000352E+00 0.  1.
       -3    1    3    3    0  502  0.44112972346E+03 -0.10977999411E+04 -0.53841269384E+03  0.12998647555E+04  0.10100000352E+00 0. -1.
</event>
<event>
 5   0  0.1330962E-05  0.2794961E+04  0.7818609E-02  0.8304835E-01
        2   -1    0    0  501    0  0.00000000000E+00  0.00000000000E+00  0.18577251846E+04  0.18577251846E+04  0.25500000920E-02 0.  1.
       -2   -1    0    0    0  501  0.00000000000E+00  0.00000000000E+00 -0.10512595862E+04  0.10512595862E+04  0.25500000920E-02 0. -1.
    10030    2    1    2    0    0  0.00000000000E+00  0.00000000000E+00  0.80646559838E+03  0.29089847708E+04  0.27949607574E+04 0.  0.
        4    1    3    3  502    0 -0.10963455907E+04 -0.82454867386E+03  0.12571734374E+03  0.13775560363E+04  0.12699999809E+01 0. -1.
       -4    1    3    3    0  502  0.10963455907E+04  0.82454867386E+03  0.68074825465E+03  0.15314287345E+04  0.12699999809E+01 0.  1.
</event>
<event>
 5   0  0.1350863E-05  0.2804856E+04  0.7818609E-02  0.8301762E-01
        2   -1    0    0  501    0  0.00000000000E+00  0.00000000000E+00  0.16003206672E+04  0.16003206672E+04  0.25500000920E-02 0. -1.
       -2   -1    0    0    0  501  0.00000000000E+00  0.00000000000E+00 -0.12290067060E+04  0.12290067060E+04  0.25500000920E-02 0.  1.
    10030    2    1    2    0    0  0.00000000000E+00  0.00000000000E+00  0.37131396125E+03  0.28293273732E+04  0.28048563826E+04 0.  0.
        3    1    3    3  502    0 -0.31047754326E+03 -0.13518344033E+04  0.39471440512E+03  0.14420998685E+04  0.10100000352E+00 0.  1.
       -3    1    3    3    0  502  0.31047754326E+03  0.13518344033E+04 -0.23400443862E+02  0.13872275047E+04  0.10100000352E+00 0. -1.
</event>
<event>
 5   0  0.1302063E-05  0.2795037E+04  0.7818609E-02  0.8304811E-01
       -2   -1    0    0    0  501  0.00000000000E+00  0.00000000000E+00  0.16999510225E+04  0.16999510225E+04  0.25500000920E-02 0.  1.
        2   -1    0    0  501    0  0.00000000000E+00  0.00000000000E+00 -0.11488907240E+04  0.11488907241E+04  0.25500000920E-02 0. -1.
    10030    2    1    2    0    0  0.00000000000E+00  0.00000000000E+00  0.55106029850E+03  0.28488417466E+04  0.27950370024E+04 0.  0.
        2    1    3    3  502    0  0.69234109036E+03  0.25536656099E+03  0.14851828056E+04  0.16584077400E+04  0.25500000920E-02 0.  1.
       -2    1    3    3    0  502 -0.69234109036E+03 -0.25536656099E+03 -0.93412250711E+03  0.11904340066E+04  0.25500000920E-02 0. -1.
</event>
<event>
 5   0  0.1302063E-05  0.2761927E+04  0.7818609E-02  0.8315187E-01
       -2   -1    0    0    0  501  0.00000000000E+00  0.00000000000E+00  0.65627691058E+03  0.65627691058E+03  0.25500000920E-02 0.  1.
        2   -1    0    0  501    0  0.00000000000E+00  0.00000000000E+00 -0.29058782541E+04  0.29058782541E+04  0.25500000920E-02 0. -1.
    10030    2    1    2    0    0  0.00000000000E+00  0.00000000000E+00 -0.22496013435E+04  0.35621551647E+04  0.27619274452E+04 0.  0.
        2    1    3    3  502    0 -0.28221321819E+03  0.11799933233E+03 -0.28616352969E+04  0.28779375802E+04  0.25500000920E-02 0. -1.
       -2    1    3    3    0  502  0.28221321819E+03 -0.11799933233E+03  0.61203395334E+03  0.68421758454E+03  0.25500000920E-02 0.  1.
</event>
<event>
 5   0  0.1330962E-05  0.2854010E+04  0.7818609E-02  0.8286694E-01
       -2   -1    0    0    0  501  0.00000000000E+00  0.00000000000E+00  0.12365565664E+04  0.12365565664E+04  0.25500000920E-02 0. -1.
        2   -1    0    0  501    0  0.00000000000E+00  0.00000000000E+00 -0.16467855535E+04  0.16467855535E+04  0.25500000920E-02 0.  1.
    10030    2    1    2    0    0  0.00000000000E+00  0.00000000000E+00 -0.41022898714E+03  0.28833421199E+04  0.28540101539E+04 0.  0.
        4    1    3    3  502    0  0.14240899115E+04  0.84497091505E+02 -0.17055706430E+03  0.14367543839E+04  0.12699999809E+01 0. -1.
       -4    1    3    3    0  502 -0.14240899115E+04 -0.84497091505E+02 -0.23967192284E+03  0.14465877360E+04  0.12699999809E+01 0.  1.
</event>
<event>
 5   0  0.1283052E-05  0.2860587E+04  0.7818609E-02  0.8284701E-01
       -2   -1    0    0    0  501  0.00000000000E+00  0.00000000000E+00  0.10423336232E+04  0.10423336232E+04  0.25500000920E-02 0. -1.
        2   -1    0    0  501    0  0.00000000000E+00  0.00000000000E+00 -0.19626533243E+04  0.19626533243E+04  0.25500000920E-02 0.  1.
    10030    2    1    2    0    0  0.00000000000E+00  0.00000000000E+00 -0.92031970105E+03  0.30049869475E+04  0.28605870380E+04 0.  0.
        5    1    3    3  502    0  0.11903121878E+04 -0.46386623619E+03 -0.11358249411E+04  0.17094254522E+04  0.46999998093E+01 0. -1.
       -5    1    3    3    0  502 -0.11903121878E+04  0.46386623619E+03  0.21550524007E+03  0.12955614953E+04  0.46999998093E+01 0.  1.
</event>
<event>
 5   0  0.1283052E-05  0.2537597E+04  0.7818609E-02  0.8389713E-01
       -2   -1    0    0    0  501  0.00000000000E+00  0.00000000000E+00  0.88018808205E+03  0.88018808205E+03  0.25500000920E-02 0. -1.
        2   -1    0    0  501    0  0.00000000000E+00  0.00000000000E+00 -0.18289831425E+04  0.18289831425E+04  0.25500000920E-02 0.  1.
    10030    2    1    2    0    0  0.00000000000E+00  0.00000000000E+00 -0.94879506050E+03  0.27091712246E+04  0.25375966301E+04 0.  0.
        5    1    3    3  502    0 -0.31633760717E+02  0.30680956789E+03 -0.17883400180E+04  0.18147492708E+04  0.46999998093E+01 0.  1.
       -5    1    3    3    0  502  0.31633760717E+02 -0.30680956789E+03  0.83954495752E+03  0.89442195381E+03  0.46999998093E+01 0. -1.
</event>
<event>
 5   0  0.1350863E-05  0.2739265E+04  0.7818609E-02  0.8322376E-01
        2   -1    0    0  501    0  0.00000000000E+00  0.00000000000E+00  0.15700833307E+04  0.15700833307E+04  0.25500000920E-02 0. -1.
       -2   -1    0    0    0  501  0.00000000000E+00  0.00000000000E+00 -0.11947732835E+04  0.11947732835E+04  0.25500000920E-02 0.  1.
    10030    2    1    2    0    0  0.00000000000E+00  0.00000000000E+00  0.37531004723E+03  0.27648566142E+04  0.27392653149E+04 0.  0.
        3    1    3    3  502    0  0.50779048119E+03 -0.23272710812E+03 -0.10745802170E+04  0.12110886559E+04  0.10100000352E+00 0.  1.
       -3    1    3    3    0  502 -0.50779048119E+03  0.23272710812E+03  0.14498902642E+04  0.15537679582E+04  0.10100000352E+00 0. -1.
</event>
<event>
 5   0  0.5217999E-06  0.2791389E+04  0.7818609E-02  0.8305947E-01
        1   -1    0    0  501    0  0.00000000000E+00  0.00000000000E+00  0.18230157966E+04  0.18230157966E+04  0.50400001928E-02 0. -1.
       -1   -1    0    0    0  501  0.00000000000E+00  0.00000000000E+00 -0.10685391380E+04  0.10685391380E+04  0.50400001928E-02 0.  1.
    10030    2    1    2    0    0  0.00000000000E+00  0.00000000000E+00  0.75447665859E+03  0.28915549346E+04  0.27913894231E+04 0.  0.
        1    1    3    3  502    0  0.65924584595E+03 -0.11465799547E+03  0.16460213656E+04  0.17768336662E+04  0.50400001928E-02 0. -1.
       -1    1    3    3    0  502 -0.65924584595E+03  0.11465799547E+03 -0.89154470705E+03  0.11147212683E+04  0.50400001928E-02 0.  1.
</event>
<event>
 5   0  0.5217999E-06  0.2342516E+04  0.7818609E-02  0.8461344E-01
        1   -1    0    0  501    0  0.00000000000E+00  0.00000000000E+00  0.10557723919E+04  0.10557723919E+04  0.50400001928E-02 0. -1.
       -1   -1    0    0    0  501  0.00000000000E+00  0.00000000000E+00 -0.12993760298E+04  0.12993760298E+04  0.50400001928E-02 0.  1.
    10030    2    1    2    0    0  0.00000000000E+00  0.00000000000E+00 -0.24360363785E+03  0.23551484217E+04  0.23425160311E+04 0.  0.
        1    1    3    3  502    0  0.64055023228E+03  0.20839865870E+02 -0.11074489300E+04  0.12795241430E+04  0.50400001928E-02 0.  1.
       -1    1    3    3    0  502 -0.64055023228E+03 -0.20839865870E+02  0.86384529213E+03  0.10756242787E+04  0.50400001928E-02 0. -1.
</event>
<event>
 5   0  0.1302063E-05  0.2797130E+04  0.7818609E-02  0.8304160E-01
       -2   -1    0    0    0  501  0.00000000000E+00  0.00000000000E+00  0.94202202648E+03  0.94202202649E+03  0.25500000920E-02 0. -1.
        2   -1    0    0  501    0  0.00000000000E+00  0.00000000000E+00 -0.20763680987E+04  0.20763680987E+04  0.25500000920E-02 0.  1.
    10030    2    1    2    0    0  0.00000000000E+00  0.00000000000E+00 -0.11343460722E+04  0.30183901252E+04  0.27971303038E+04 0.  0.
        2    1    3    3  502    0 -0.24710985352E+03 -0.69630431537E+03 -0.18485732175E+04  0.19907601362E+04  0.25500000920E-02 0.  1.
       -2    1    3    3    0  502  0.24710985352E+03  0.69630431537E+03  0.71422714527E+03  0.10276299890E+04  0.25500000920E-02 0. -1.
</event>
<event>
 5   0  0.1330962E-05  0.2648592E+04  0.7818609E-02  0.8351880E-01
       -2   -1    0    0    0  501  0.00000000000E+00  0.00000000000E+00  0.16554952022E+04  0.16554952022E+04  0.25500000920E-02 0. -1.
        2   -1    0    0  501    0  0.00000000000E+00  0.00000000000E+00 -0.10593568637E+04  0.10593568637E+04  0.25500000920E-02 0.  1.
    10030    2    1    2    0    0  0.00000000000E+00  0.00000000000E+00  0.59613833845E+03  0.27148520659E+04  0.26485922339E+04 0.  0.
        4    1    3    3  502    0  0.77457891953E+02  0.56246071629E+03 -0.92827138638E+03  0.10881411499E+04  0.12699999809E+01 0.  1.
       -4    1    3    3    0  502 -0.77457891953E+02 -0.56246071629E+03  0.15244097248E+04  0.16267109161E+04  0.12699999809E+01 0. -1.
</event>
<event>
 5   0  0.5023691E-06  0.2754024E+04  0.7818609E-02  0.8317686E-01
        1   -1    0    0  501    0  0.00000000000E+00  0.00000000000E+00  0.27672759268E+04  0.27672759268E+04  0.50400001928E-02 0. -1.
       -1   -1    0    0    0  501  0.00000000000E+00  0.00000000000E+00 -0.68520901142E+03  0.68520901144E+03  0.50400001928E-02 0.  1.
    10030    2    1    2    0    0  0.00000000000E+00  0.00000000000E+00  0.20820669154E+04  0.34524849383E+04  0.27540242571E+04 0.  0.
        5    1    3    3  502    0 -0.11206232080E+03 -0.35763303909E+03 -0.62003232050E+03  0.72451468091E+03  0.46999998093E+01 0.  1.
       -5    1    3    3    0  502  0.11206232080E+03  0.35763303909E+03  0.27020992359E+04  0.27279702574E+04  0.46999998093E+01 0. -1.
</event>
<event>
 5   0  0.1330962E-05  0.2825863E+04  0.7818609E-02  0.8295284E-01
        2   -1    0    0  501    0  0.00000000000E+00  0.00000000000E+00  0.26365373546E+04  0.26365373546E+04  0.25500000920E-02 0. -1.
       -2   -1    0    0    0  501  0.00000000000E+00  0.00000000000E+00 -0.75719571110E+03  0.75719571110E+03  0.25500000920E-02 0.  1.
    10030    2    1    2    0    0  0.00000000000E+00  0.00000000000E+00  0.18793416435E+04  0.33937330657E+04  0.28258625423E+04 0.  0.
        4    1    3    3  502    0 -0.80870689970E+03  0.39951055885E+03  0.22457650970E+04  0.24201400827E+04  0.12699999809E+01 0. -1.
       -4    1    3    3    0  502  0.80870689970E+03 -0.39951055885E+03 -0.36642345352E+03  0.97359298295E+03  0.12699999809E+01 0.  1.
</event>
<event>
 5   0  0.5023691E-06  0.2807043E+04  0.7818609E-02  0.8301085E-01
       -1   -1    0    0    0  501  0.00000000000E+00  0.00000000000E+00  0.16202628111E+04  0.16202628112E+04  0.50400001928E-02 0.  1.
        1   -1    0    0  501    0  0.00000000000E+00  0.00000000000E+00 -0.12157735787E+04  0.12157735787E+04  0.50400001928E-02 0. -1.
    10030    2    1    2    0    0  0.00000000000E+00  0.00000000000E+00  0.40448923248E+03  0.28360363898E+04  0.28070430822E+04 0.  0.
        5    1    3    3  502    0  0.50105252020E+03  0.35464879790E+03 -0.10729412852E+04  0.12361450115E+04  0.46999998093E+01 0. -1.
       -5    1    3    3    0  502 -0.50105252020E+03 -0.35464879790E+03  0.14774305177E+04  0.15998913783E+04  0.46999998093E+01 0.  1.
</event>
<event>
 5   0  0.5281919E-06  0.2796532E+04  0.7818609E-02  0.8304346E-01
       -1   -1    0    0    0  501  0.00000000000E+00  0.00000000000E+00  0.11285636589E+04  0.11285636589E+04  0.50400001928E-02 0. -1.
        1   -1    0    0  501    0  0.00000000000E+00  0.00000000000E+00 -0.17324217758E+04  0.17324217758E+04  0.50400001928E-02 0.  1.
    10030    2    1    2    0    0  0.00000000000E+00  0.00000000000E+00 -0.60385811695E+03  0.28609854347E+04  0.27965323227E+04 0.  0.
        4    1    3    3  502    0 -0.12023988991E+04 -0.30824540104E+03  0.35662141765E+03  0.12914947883E+04  0.12699999809E+01 0. -1.
       -4    1    3    3    0  502  0.12023988991E+04  0.30824540104E+03 -0.96047953461E+03  0.15694906464E+04  0.12699999809E+01 0.  1.
</event>
<event>
 5   0  0.5217999E-06  0.2777377E+04  0.7818609E-02  0.8310327E-01
        1   -1    0    0  501    0  0.00000000000E+00  0.00000000000E+00  0.19047193722E+04  0.19047193722E+04  0.50400001928E-02 0. -1.
       -1   -1    0    0    0  501  0.00000000000E+00  0.00000000000E+00 -0.10124615440E+04  0.10124615440E+04  0.50400001928E-02 0.  1.
    10030    2    1    2    0    0  0.00000000000E+00  0.00000000000E+00  0.89225782819E+03  0.29171809163E+04  0.27773765439E+04 0.  0.
        1    1    3    3  502    0 -0.80514112953E+03 -0.11284880389E+04  0.36004213709E+03  0.14322596947E+04  0.50400001928E-02 0. -1.
       -1    1    3    3    0  502  0.80514112953E+03  0.11284880389E+04  0.53221569111E+03  0.14849212216E+04  0.50400001928E-02 0.  1.
</event>
<event>
 5   0  0.5217999E-06  0.2779439E+04  0.7818609E-02  0.8309680E-01
        1   -1    0    0  501    0  0.00000000000E+00  0.00000000000E+00  0.11307601012E+04  0.11307601012E+04  0.50400001928E-02 0.  1.
       -1   -1    0    0    0  501  0.00000000000E+00  0.00000000000E+00 -0.17079835401E+04  0.17079835401E+04  0.50400001928E-02 0. -1.
    10030    2    1    2    0    0  0.00000000000E+00  0.00000000000E+00 -0.57722343897E+03  0.28387436413E+04  0.27794385337E+04 0.  0.
        1    1    3    3  502    0 -0.13414368145E+04  0.33970471382E+03 -0.41967605510E+03  0.14460221336E+04  0.50400001928E-02 0. -1.
       -1    1    3    3    0  502  0.13414368145E+04 -0.33970471382E+03 -0.15754738387E+03  0.13927215077E+04  0.50400001928E-02 0.  1.
</event>
<event>
 5   0  0.5217999E-06  0.2721533E+04  0.7818609E-02  0.8328052E-01
        1   -1    0    0  501    0  0.00000000000E+00  0.00000000000E+00  0.20803831473E+04  0.20803831474E+04  0.50400001928E-02 0. -1.
       -1   -1    0    0    0  501  0.00000000000E+00  0.00000000000E+00 -0.89006952235E+03  0.89006952237E+03  0.50400001928E-02 0.  1.
    10030    2    1    2    0    0  0.00000000000E+00  0.00000000000E+00  0.11903136250E+04  0.29704526697E+04  0.27215331226E+04 0.  0.
        1    1    3    3  502    0  0.49843543880E+03  0.40172140729E+03 -0.71544786278E+03  0.96004355115E+03  0.50400001928E-02 0.  1.
       -1    1    3    3    0  502 -0.49843543880E+03 -0.40172140729E+03  0.19057614878E+04  0.20104091186E+04  0.50400001928E-02 0. -1.
</event>
<event>
 5   0  0.5107453E-06  0.2626946E+04  0.7818609E-02  0.8359106E-01
       -1   -1    0    0    0  501  0.00000000000E+00  0.00000000000E+00  0.10829124481E+04  0.10829124481E+04  0.50400001928E-02 0. -1.
        1   -1    0    0  501    0  0.00000000000E+00  0.00000000000E+00 -0.15931211451E+04  0.15931211451E+04  0.50400001928E-02 0.  1.
    10030    2    1    2    0    0  0.00000000000E+00  0.00000000000E+00 -0.51020869697E+03  0.26760335932E+04  0.26269455414E+04 0.  0.
        2    1    3    3  502    0  0.11253557043E+04 -0.36363807369E+03  0.32702175018E+03  0.12270294760E+04  0.25500000920E-02 0. -1.
       -2    1    3    3    0  502 -0.11253557043E+04  0.36363807369E+03 -0.83723044715E+03  0.14490041172E+04  0.25500000920E-02 0.  1.
</event>
<event>
 5   0  0.5023691E-06  0.2792795E+04  0.7818609E-02  0.8305509E-01
        1   -1    0    0  501    0  0.00000000000E+00  0.00000000000E+00  0.15213957534E+04  0.15213957535E+04  0.50400001928E-02 0.  1.
       -1   -1    0    0    0  501  0.00000000000E+00  0.00000000000E+00 -0.12816688866E+04  0.12816688866E+04  0.50400001928E-02 0. -1.
    10030    2    1    2    0    0  0.00000000000E+00  0.00000000000E+00  0.23972686683E+03  0.28030646401E+04  0.27927947303E+04 0.  0.
        5    1    3    3  502    0 -0.76659385652E+03 -0.10870511613E+04  0.54634614812E+03  0.14380064575E+04  0.46999998093E+01 0. -1.
       -5    1    3    3    0  502  0.76659385652E+03  0.10870511613E+04 -0.30661928129E+03  0.13650581826E+04  0.46999998093E+01 0.  1.
</event>
<event>
 5   0  0.1350863E-05  0.2784081E+04  0.7818609E-02  0.8308228E-01
        2   -1    0    0  501    0  0.00000000000E+00  0.00000000000E+00  0.19126525114E+04  0.19126525114E+04  0.25500000920E-02 0.  1.
       -2   -1    0    0    0  501  0.00000000000E+00  0.00000000000E+00 -0.10131361540E+04  0.10131361540E+04  0.25500000920E-02 0. -1.
    10030    2    1    2    0    0  0.00000000000E+00  0.00000000000E+00  0.89951635737E+03  0.29257886654E+04  0.27840814710E+04 0.  0.
        3    1    3    3  502    0 -0.45811156445E+03 -0.93671557658E+03 -0.51939365168E+03  0.11649343554E+04  0.10100000352E+00 0. -1.
       -3    1    3    3    0  502  0.45811156445E+03  0.93671557658E+03  0.14189100090E+04  0.17608543099E+04  0.10100000352E+00 0.  1.
</event>
<event>
 5   0  0.4764214E-06  0.2739525E+04  0.7818609E-02  0.8322293E-01
       -1   -1    0    0    0  501  0.00000000000E+00  0.00000000000E+00  0.65886225758E+03  0.65886225760E+03  0.50400001928E-02 0.  1.
        1   -1    0    0  501    0  0.00000000000E+00  0.00000000000E+00 -0.28477104528E+04  0.28477104528E+04  0.50400001928E-02 0. -1.
    10030    2    1    2    0    0  0.00000000000E+00  0.00000000000E+00 -0.21888481952E+04  0.35065727104E+04  0.27395247310E+04 0.  0.
        3    1    3    3  502    0  0.37039953206E+03  0.11611952571E+03 -0.27758349061E+04  0.28028448038E+04  0.10100000352E+00 0. -1.
       -3    1    3    3    0  502 -0.37039953206E+03 -0.11611952571E+03  0.58698671091E+03  0.70372790665E+03  0.10100000352E+00 0.  1.
</event>
<event>
 5   0  0.5107453E-06  0.2690422E+04  0.7818609E-02  0.8338119E-01
        1   -1    0    0  501    0  0.00000000000E+00  0.00000000000E+00  0.12258102016E+04  0.12258102016E+04  0.50400001928E-02 0.  1.
       -1   -1    0    0    0  501  0.00000000000E+00  0.00000000000E+00 -0.14762423695E+04  0.14762423695E+04  0.50400001928E-02 0. -1.
    10030    2    1    2    0    0  0.00000000000E+00  0.00000000000E+00 -0.25043216790E+03  0.27020525710E+04  0.26904222393E+04 0.  0.
        2    1    3    3  502    0 -0.53707631512E+03 -0.92878059882E+03  0.68977727821E+03  0.12754909104E+04  0.25500000920E-02 0.  1.
       -2    1    3    3    0  502  0.53707631512E+03  0.92878059882E+03 -0.94020944611E+03  0.14265616606E+04  0.25500000920E-02 0. -1.
</event>
<event>
 5   0  0.1283052E-05  0.2803248E+04  0.7818609E-02  0.8302261E-01
        2   -1    0    0  501    0  0.00000000000E+00  0.00000000000E+00  0.20402143171E+04  0.20402143171E+04  0.25500000920E-02 0. -1.
       -2   -1    0    0    0  501  0.00000000000E+00  0.00000000000E+00 -0.96291324883E+03  0.96291324883E+03  0.25500000920E-02 0.  1.
    10030    2    1    2    0    0  0.00000000000E+00  0.00000000000E+00  0.10773010683E+04  0.30031275660E+04  0.28032476854E+04 0.  0.
        5    1    3    3  502    0  0.92588102217E+03 -0.57868998439E+03 -0.40287152660E+03  0.11638149862E+04  0.46999998093E+01 0.  1.
       -5    1    3    3    0  502 -0.92588102217E+03  0.57868998439E+03  0.14801725949E+04  0.18393125797E+04  0.46999998093E+01 0. -1.
</event>
<event>
 5   0  0.1350863E-05  0.2828450E+04  0.7818609E-02  0.8294490E-01
       -2   -1    0    0    0  501  0.00000000000E+00  0.00000000000E+00  0.12162942048E+04  0.12162942048E+04  0.25500000920E-02 0.  1.
        2   -1    0    0  501    0  0.00000000000E+00  0.00000000000E+00 -0.16443655913E+04  0.16443655913E+04  0.25500000920E-02 0. -1.
    10030    2    1    2    0    0  0.00000000000E+00  0.00000000000E+00 -0.42807138649E+03  0.28606597961E+04  0.28284499920E+04 0.  0.
        3    1    3    3  502    0 -0.80092485352E+03 -0.11455203401E+04 -0.43174230984E+03  0.14629076878E+04  0.10100000352E+00 0. -1.
       -3    1    3    3    0  502  0.80092485352E+03  0.11455203401E+04  0.36709233511E+01  0.13977521084E+04  0.10100000352E+00 0.  1.
</event>
<event>
 5   0  0.5217999E-06  0.2763145E+04  0.7818609E-02  0.8314802E-01
        1   -1    0    0  501    0  0.00000000000E+00  0.00000000000E+00  0.22946197592E+04  0.22946197592E+04  0.50400001928E-02 0. -1.
       -1   -1    0    0    0  501  0.00000000000E+00  0.00000000000E+00 -0.83183419937E+03  0.83183419939E+03  0.50400001928E-02 0.  1.
    10030    2    1    2    0    0  0.00000000000E+00  0.00000000000E+00  0.14627855598E+04  0.31264539586E+04  0.27631454470E+04 0.  0.
        1    1    3    3  502    0 -0.11070724859E+04  0.61657359056E+03  0.10859276696E+03  0.12718352372E+04  0.50400001928E-02 0. -1.
       -1    1    3    3    0  502  0.11070724859E+04 -0.61657359056E+03  0.13541927929E+04  0.18546187214E+04  0.50400001928E-02 0.  1.
</event>
<event>
 5   0  0.1330962E-05  0.2718050E+04  0.7818609E-02  0.8329172E-01
        2   -1    0    0  501    0  0.00000000000E+00  0.00000000000E+00  0.22715362777E+04  0.22715362777E+04  0.25500000920E-02 0.  1.
       -2   -1    0    0    0  501  0.00000000000E+00  0.00000000000E+00 -0.81308358065E+03  0.81308358065E+03  0.25500000920E-02 0. -1.
    10030    2    1    2    0    0  0.00000000000E+00  0.00000000000E+00  0.14584526971E+04  0.30846198584E+04  0.27180499262E+04 0.  0.
        4    1    3    3  502    0 -0.10542203507E+04  0.58001632598E+02  0.17003171138E+04  0.20014556297E+04  0.12699999809E+01 0.  1.
       -4    1    3    3    0  502  0.10542203507E+04 -0.58001632598E+02 -0.24186441672E+03  0.10831642287E+04  0.12699999809E+01 0. -1.
</event>
<event>
 5   0  0.1388269E-05  0.2778747E+04  0.7818609E-02  0.8309897E-01
        2   -1    0    0  501    0  0.00000000000E+00  0.00000000000E+00  0.88509966659E+03  0.88509966660E+03  0.25500000920E-02 0.  1.
       -2   -1    0    0    0  501  0.00000000000E+00  0.00000000000E+00 -0.21809510182E+04  0.21809510182E+04  0.25500000920E-02 0. -1.
    10030    2    1    2    0    0  0.00000000000E+00  0.00000000000E+00 -0.12958513516E+04  0.30660506848E+04  0.27787472135E+04 0.  0.
        1    1    3    3  502    0  0.74740501822E+03 -0.23314763765E+03 -0.19143725197E+04  0.20682829174E+04  0.50400001928E-02 0. -1.
       -1    1    3    3    0  502 -0.74740501822E+03  0.23314763765E+03  0.61852116811E+03  0.99776776738E+03  0.50400001928E-02 0.  1.
</event>
<event>
 5   0  0.1350863E-05  0.2803587E+04  0.7818609E-02  0.8302156E-01
        2   -1    0    0  501    0  0.00000000000E+00  0.00000000000E+00  0.24167169918E+04  0.24167169918E+04  0.25500000920E-02 0. -1.
       -2   -1    0    0    0  501  0.00000000000E+00  0.00000000000E+00 -0.81309659461E+03  0.81309659461E+03  0.25500000920E-02 0.  1.
    10030    2    1    2    0    0  0.00000000000E+00  0.00000000000E+00  0.16036203972E+04  0.32298135864E+04  0.28035865288E+04 0.  0.
        3    1    3    3  502    0  0.11306820436E+04  0.15618170503E+03  0.17392744495E+04  0.20803630042E+04  0.10100000352E+00 0. -1.
       -3    1    3    3    0  502 -0.11306820436E+04 -0.15618170503E+03 -0.13565405231E+03  0.11494505821E+04  0.10100000352E+00 0.  1.
</event>
<event>
 5   0  0.5023691E-06  0.2769132E+04  0.7818609E-02  0.8312916E-01
       -1   -1    0    0    0  501  0.00000000000E+00  0.00000000000E+00  0.13807270257E+04  0.13807270257E+04  0.50400001928E-02 0.  1.
        1   -1    0    0  501    0  0.00000000000E+00  0.00000000000E+00 -0.13884158938E+04  0.13884158938E+04  0.50400001928E-02 0. -1.
    10030    2    1    2    0    0  0.00000000000E+00  0.00000000000E+00 -0.76888681269E+01  0.27691429195E+04  0.27691322449E+04 0.  0.
        5    1    3    3  502    0  0.19619333153E+03  0.81889252540E+03  0.10952159731E+04  0.13815197825E+04  0.46999998093E+01 0.  1.
       -5    1    3    3    0  502 -0.19619333153E+03 -0.81889252540E+03 -0.11029048413E+04  0.13876231370E+04  0.46999998093E+01 0. -1.
</event>
<event>
 5   0  0.5107453E-06  0.2806693E+04  0.7818609E-02  0.8301193E-01
        1   -1    0    0  501    0  0.00000000000E+00  0.00000000000E+00  0.30897169261E+04  0.30897169261E+04  0.50400001928E-02 0.  1.
       -1   -1    0    0    0  501  0.00000000000E+00  0.00000000000E+00 -0.63739864673E+03  0.63739864675E+03  0.50400001928E-02 0. -1.
    10030    2    1    2    0    0  0.00000000000E+00  0.00000000000E+00  0.24523182794E+04  0.37271155729E+04  0.28066929918E+04 0.  0.
        2    1    3    3  502    0  0.58042497519E+03 -0.10764095864E+04  0.31206795838E+03  0.12621161437E+04  0.25500000920E-02 0. -1.
       -2    1    3    3    0  502 -0.58042497519E+03  0.10764095864E+04  0.21402503210E+04  0.24649994292E+04  0.25500000920E-02 0.  1.
</event>
<event>
 5   0  0.4764214E-06  0.2796444E+04  0.7818609E-02  0.8304373E-01
       -1   -1    0    0    0  501  0.00000000000E+00  0.00000000000E+00  0.10244332444E+04  0.10244332444E+04  0.50400001928E-02 0.  1.
        1   -1    0    0  501    0  0.00000000000E+00  0.00000000000E+00 -0.19083969082E+04  0.19083969082E+04  0.50400001928E-02 0. -1.
    10030    2    1    2    0    0  0.00000000000E+00  0.00000000000E+00 -0.88396366380E+03  0.29328301526E+04  0.27964443397E+04 0.  0.
        3    1    3    3  502    0 -0.91118237585E+03  0.48900840975E+03  0.54500191636E+03  0.11689352616E+04  0.10100000352E+00 0.  1.
       -3    1    3    3    0  502  0.91118237585E+03 -0.48900840975E+03 -0.14289655802E+04  0.17638948910E+04  0.10100000352E+00 0. -1.
</event>
<event>
 5   0  0.1302063E-05  0.2810374E+04  0.7818609E-02  0.8300055E-01
       -2   -1    0    0    0  501  0.00000000000E+00  0.00000000000E+00  0.10743942524E+04  0.10743942524E+04  0.25500000920E-02 0.  1.
        2   -1    0    0  501    0  0.00000000000E+00  0.00000000000E+00 -0.18378268741E+04  0.18378268741E+04  0.25500000920E-02 0. -1.
    10030    2    1    2    0    0  0.00000000000E+00  0.00000000000E+00 -0.76343262165E+03  0.29122211265E+04  0.28103740893E+04 0.  0.
        2    1    3    3  502    0 -0.94350405789E+03  0.52529057580E+03 -0.13134222919E+04  0.17003553197E+04  0.25500000920E-02 0.  1.
       -2    1    3    3    0  502  0.94350405789E+03 -0.52529057580E+03  0.54998967025E+03  0.12118658068E+04  0.25500000920E-02 0. -1.
</event>
<event>
 5   0  0.1330962E-05  0.2800845E+04  0.7818609E-02  0.8303006E-01
        2   -1    0    0  501    0  0.00000000000E+00  0.00000000000E+00  0.21566550252E+04  0.21566550252E+04  0.25500000920E-02 0.  1.
       -2   -1    0    0    0  501  0.00000000000E+00  0.00000000000E+00 -0.90936324205E+03  0.90936324205E+03  0.25500000920E-02 0. -1.
    10030    2    1    2    0    0  0.00000000000E+00  0.00000000000E+00  0.12472917832E+04  0.30660182673E+04  0.28008447338E+04 0.  0.
        4    1    3    3  502    0 -0.13205905986E+02  0.10969605396E+04  0.15765075863E+04  0.19206443200E+04  0.12699999809E+01 0.  1.
       -4    1    3    3    0  502  0.13205905986E+02 -0.10969605396E+04 -0.32921580307E+03  0.11453739473E+04  0.12699999809E+01 0. -1.
</event>
<event>
 5   0  0.5107453E-06  0.2802029E+04  0.7818609E-02  0.8302639E-01
        1   -1    0    0  501    0  0.00000000000E+00  0.00000000000E+00  0.91238655874E+03  0.91238655875E+03  0.50400001928E-02 0.  1.
       -1   -1    0    0    0  501  0.00000000000E+00  0.00000000000E+00 -0.21513272711E+04  0.21513272711E+04  0.50400001928E-02 0. -1.
    10030    2    1    2    0    0  0.00000000000E+00  0.00000000000E+00 -0.12389407123E+04  0.30637138298E+04  0.28020293258E+04 0.  0.
        2    1    3    3  502    0  0.13482728144E+04  0.51383250947E+02 -0.20692380076E+03  0.13650264759E+04  0.25500000920E-02 0.  1.
       -2    1    3    3    0  502 -0.13482728144E+04 -0.51383250947E+02 -0.10320169116E+04  0.16986873539E+04  0.25500000920E-02 0. -1.
</event>
<event>
 5   0  0.5023691E-06  0.2188410E+04  0.7818609E-02  0.8523268E-01
        1   -1    0    0  501    0  0.00000000000E+00  0.00000000000E+00  0.18762363038E+04  0.18762363038E+04  0.50400001928E-02 0. -1.
       -1   -1    0    0    0  501  0.00000000000E+00  0.00000000000E+00 -0.63813090929E+03  0.63813090931E+03  0.50400001928E-02 0.  1.
    10030    2    1    2    0    0  0.00000000000E+00  0.00000000000E+00  0.12381053945E+04  0.25143672131E+04  0.21884098141E+04 0.  0.
        5    1    3    3  502    0  0.92678481898E+03  0.54899023537E+02 -0.46264377580E+02  0.92957328173E+03  0.46999998093E+01 0.  1.
       -5    1    3    3    0  502 -0.92678481898E+03 -0.54899023537E+02  0.12843697721E+04  0.15847939314E+04  0.46999998093E+01 0. -1.
</event>
<event>
 5   0  0.5107453E-06  0.2819030E+04  0.7818609E-02  0.8297385E-01
        1   -1    0    0  501    0  0.00000000000E+00  0.00000000000E+00  0.14677961364E+04  0.14677961364E+04  0.50400001928E-02 0. -1.
       -1   -1    0    0    0  501  0.00000000000E+00  0.00000000000E+00 -0.13535481455E+04  0.13535481455E+04  0.50400001928E-02 0.  1.
    10030    2    1    2    0    0  0.00000000000E+00  0.00000000000E+00  0.11424799094E+03  0.28213442819E+04  0.28190301442E+04 0.  0.
        2    1    3    3  502    0  0.32727444750E+02  0.13659327270E+04  0.40365877455E+03  0.14247047787E+04  0.25500000920E-02 0. -1.
       -2    1    3    3    0  502 -0.32727444750E+02 -0.13659327270E+04 -0.28941078361E+03  0.13966395032E+04  0.25500000920E-02 0.  1.
</event>
<event>
 5   0  0.4447500E-06  0.2829448E+04  0.7818609E-02  0.8294184E-01
        3   -1    0    0  501    0  0.00000000000E+00  0.00000000000E+00  0.12290333689E+04  0.12290333731E+04  0.10100000352E+00 0.  1.
       -3   -1    0    0    0  501  0.00000000000E+00  0.00000000000E+00 -0.16284696391E+04  0.16284696422E+04  0.10100000352E+00 0. -1.
    10030    2    1    2    0    0  0.00000000000E+00  0.00000000000E+00 -0.39943627017E+03  0.28575030153E+04  0.28294476755E+04 0.  0.
        5    1    3    3  502    0 -0.15455508536E+03  0.13655795015E+04 -0.53879535632E+03  0.14761494421E+04  0.46999998093E+01 0. -1.
       -5    1    3    3    0  502  0.15455508536E+03 -0.13655795015E+04  0.13935908616E+03  0.13813535732E+04  0.46999998093E+01 0.  1.
</event>
<event>
 5   0  0.1302063E-05  0.2817769E+04  0.7818609E-02  0.8297773E-01
       -2   -1    0    0    0  501  0.00000000000E+00  0.00000000000E+00  0.84450229147E+03  0.84450229148E+03  0.25500000920E-02 0.  1.
        2   -1    0    0  501    0  0.00000000000E+00  0.00000000000E+00 -0.23504439689E+04  0.23504439689E+04  0.25500000920E-02 0. -1.
    10030    2    1    2    0    0  0.00000000000E+00  0.00000000000E+00 -0.15059416775E+04  0.31949462604E+04  0.28177688463E+04 0.  0.
        2    1    3    3  502    0  0.77185348912E+03 -0.54879902281E+03  0.42973315494E+03  0.10400042118E+04  0.25500000920E-02 0.  1.
       -2    1    3    3    0  502 -0.77185348912E+03  0.54879902281E+03 -0.19356748324E+04  0.21549420486E+04  0.25500000920E-02 0. -1.
</event>
<event>
 5   0  0.1350863E-05  0.2819053E+04  0.7818609E-02  0.8297378E-01
       -2   -1    0    0    0  501  0.00000000000E+00  0.00000000000E+00  0.24679565953E+04  0.24679565953E+04  0.25500000920E-02 0.  1.
        2   -1    0    0  501    0  0.00000000000E+00  0.00000000000E+00 -0.80502413560E+03  0.80502413561E+03  0.25500000920E-02 0. -1.
    10030    2    1    2    0    0  0.00000000000E+00  0.00000000000E+00  0.16629324597E+04  0.32729807309E+04  0.28190527663E+04 0.  0.
        3    1    3    3  502    0 -0.62675320440E+03 -0.41066194425E+03  0.22175633486E+04  0.23407370692E+04  0.10100000352E+00 0.  1.
       -3    1    3    3    0  502  0.62675320440E+03  0.41066194425E+03 -0.55463088893E+03  0.93224366173E+03  0.10100000352E+00 0. -1.
</event>
<event>
 5   0  0.1302063E-05  0.2796157E+04  0.7818609E-02  0.8304462E-01
       -2   -1    0    0    0  501  0.00000000000E+00  0.00000000000E+00  0.12983849018E+04  0.12983849018E+04  0.25500000920E-02 0.  1.
        2   -1    0    0  501    0  0.00000000000E+00  0.00000000000E+00 -0.15054268191E+04  0.15054268191E+04  0.25500000920E-02 0. -1.
    10030    2    1    2    0    0  0.00000000000E+00  0.00000000000E+00 -0.20704191727E+03  0.28038117210E+04  0.27961569718E+04 0.  0.
        2    1    3    3  502    0  0.58074404647E+03 -0.60570100604E+03  0.10177917188E+04  0.13191047491E+04  0.25500000920E-02 0.  1.
       -2    1    3    3    0  502 -0.58074404647E+03  0.60570100604E+03 -0.12248336361E+04  0.14847069719E+04  0.25500000920E-02 0. -1.
</event>
<event>
 5   0  0.4764214E-06  0.2527999E+04  0.7818609E-02  0.8393078E-01
       -1   -1    0    0    0  501  0.00000000000E+00  0.00000000000E+00  0.18660445265E+04  0.18660445265E+04  0.50400001928E-02 0.  1.
        1   -1    0    0  501    0  0.00000000000E+00  0.00000000000E+00 -0.85619325527E+03  0.85619325528E+03  0.50400001928E-02 0. -1.
    10030    2    1    2    0    0  0.00000000000E+00  0.00000000000E+00  0.10098512712E+04  0.27222377818E+04  0.25279990013E+04 0.  0.
        3    1    3    3  502    0 -0.48196590037E+03 -0.58239939851E+03 -0.58593241429E+03  0.95645020405E+03  0.10100000352E+00 0. -1.
       -3    1    3    3    0  502  0.48196590037E+03  0.58239939851E+03  0.15957836855E+04  0.17657875777E+04  0.10100000352E+00 0.  1.
</event>
<event>
 5   0  0.5023691E-06  0.2841695E+04  0.7818609E-02  0.8290440E-01
        1   -1    0    0  501    0  0.00000000000E+00  0.00000000000E+00  0.16732442218E+04  0.16732442218E+04  0.50400001928E-02 0.  1.
       -1   -1    0    0    0  501  0.00000000000E+00  0.00000000000E+00 -0.12065225778E+04  0.12065225778E+04  0.50400001928E-02 0. -1.
    10030    2    1    2    0    0  0.00000000000E+00  0.00000000000E+00  0.46672164405E+03  0.28797667996E+04  0.28416945169E+04 0.  0.
        5    1    3    3  502    0 -0.58051687582E+03  0.12524192455E+04 -0.10764568351E+03  0.13846167314E+04  0.46999998093E+01 0. -1.
       -5    1    3    3    0  502  0.58051687582E+03 -0.12524192455E+04  0.57436732757E+03  0.14951500683E+04  0.46999998093E+01 0.  1.
</event>
<event>
 5   0  0.1283052E-05  0.2794863E+04  0.7818609E-02  0.8304865E-01
       -2   -1    0    0    0  501  0.00000000000E+00  0.00000000000E+00  0.79480426463E+03  0.79480426464E+03  0.25500000920E-02 0.  1.
        2   -1    0    0  501    0  0.00000000000E+00  0.00000000000E+00 -0.24569763395E+04  0.24569763395E+04  0.25500000920E-02 0. -1.
    10030    2    1    2    0    0  0.00000000000E+00  0.00000000000E+00 -0.16621720748E+04  0.32517806041E+04  0.27948633403E+04 0.  0.
        5    1    3    3  502    0  0.77115799563E+01 -0.64605610138E+03 -0.22727487997E+04  0.23628070491E+04  0.46999998093E+01 0. -1.
       -5    1    3    3    0  502 -0.77115799563E+01  0.64605610138E+03  0.61057672487E+03  0.88897355503E+03  0.46999998093E+01 0.  1.
</event>
<event>
 5   0  0.5023691E-06  0.2017686E+04  0.7818609E-02  0.8598396E-01
        1   -1    0    0  501    0  0.00000000000E+00  0.00000000000E+00  0.96546728633E+03  0.96546728635E+03  0.50400001928E-02 0.  1.
       -1   -1    0    0    0  501  0.00000000000E+00  0.00000000000E+00 -0.10541679061E+04  0.10541679061E+04  0.50400001928E-02 0. -1.
    10030    2    1    2    0    0  0.00000000000E+00  0.00000000000E+00 -0.88700619775E+02  0.20196351925E+04  0.20176864253E+04 0.  0.
        5    1    3    3  502    0 -0.87673321430E+03  0.17980757811E+03  0.42166421738E+03  0.98935064381E+03  0.46999998093E+01 0.  1.
       -5    1    3    3    0  502  0.87673321430E+03 -0.17980757811E+03 -0.51036483715E+03  0.10302845487E+04  0.46999998093E+01 0. -1.
</event>
<event>
 5   0  0.5107453E-06  0.2775015E+04  0.7818609E-02  0.8311067E-01
        1   -1    0    0  501    0  0.00000000000E+00  0.00000000000E+00  0.13596486192E+04  0.13596486192E+04  0.50400001928E-02 0. -1.
       -1   -1    0    0    0  501  0.00000000000E+00  0.00000000000E+00 -0.14159370645E+04  0.14159370645E+04  0.50400001928E-02 0.  1.
    10030    2    1    2    0    0  0.00000000000E+00  0.00000000000E+00 -0.56288445338E+02  0.27755856837E+04  0.27750148645E+04 0.  0.
        2    1    3    3  502    0 -0.59834936816E+03  0.93506743526E+03 -0.86066380070E+03  0.14046762092E+04  0.25500000920E-02 0.  1.
       -2    1    3    3    0  502  0.59834936816E+03 -0.93506743526E+03  0.80437535536E+03  0.13709094745E+04  0.25500000920E-02 0. -1.
</event>
<event>
 5   0  0.1283052E-05  0.2786589E+04  0.7818609E-02  0.8307444E-01
       -2   -1    0    0    0  501  0.00000000000E+00  0.00000000000E+00  0.85074596108E+03  0.85074596108E+03  0.25500000920E-02 0. -1.
        2   -1    0    0  501    0  0.00000000000E+00  0.00000000000E+00 -0.22818443347E+04  0.22818443347E+04  0.25500000920E-02 0.  1.
    10030    2    1    2    0    0  0.00000000000E+00  0.00000000000E+00 -0.14310983736E+04  0.31325902958E+04  0.27865892066E+04 0.  0.
        5    1    3    3  502    0 -0.44563473892E+03  0.46836982896E+03 -0.21030125882E+04  0.22001465072E+04  0.46999998093E+01 0.  1.
       -5    1    3    3    0  502  0.44563473892E+03 -0.46836982896E+03  0.67191421452E+03  0.93244378859E+03  0.46999998093E+01 0. -1.
</event>
<event>
 5   0  0.5217999E-06  0.2793423E+04  0.7818609E-02  0.8305313E-01
       -1   -1    0    0    0  501  0.00000000000E+00  0.00000000000E+00  0.14328356547E+04  0.14328356547E+04  0.50400001928E-02 0. -1.
        1   -1    0    0  501    0  0.00000000000E+00  0.00000000000E+00 -0.13614979688E+04  0.13614979688E+04  0.50400001928E-02 0.  1.
    10030    2    1    2    0    0  0.00000000000E+00  0.00000000000E+00  0.71337685936E+02  0.27943336235E+04  0.27934228706E+04 0.  0.
        1    1    3    3  502    0 -0.11593972813E+04 -0.62280774330E+03 -0.43214942366E+03  0.13852236879E+04  0.50400001928E-02 0.  1.
       -1    1    3    3    0  502  0.11593972813E+04  0.62280774330E+03  0.50348710960E+03  0.14091099356E+04  0.50400001928E-02 0. -1.
</event>
<event>
 5   0  0.1350863E-05  0.2780175E+04  0.7818609E-02  0.8309450E-01
       -2   -1    0    0    0  501  0.00000000000E+00  0.00000000000E+00  0.15611134900E+04  0.15611134900E+04  0.25500000920E-02 0. -1.
        2   -1    0    0  501    0  0.00000000000E+00  0.00000000000E+00 -0.12377980920E+04  0.12377980920E+04  0.25500000920E-02 0.  1.
    10030    2    1    2    0    0  0.00000000000E+00  0.00000000000E+00  0.32331539795E+03  0.27989115820E+04  0.27801750299E+04 0.  0.
        3    1    3    3  502    0  0.22179299892E+03  0.25793784080E+03  0.15185612962E+04  0.15561980866E+04  0.10100000352E+00 0. -1.
       -3    1    3    3    0  502 -0.22179299892E+03 -0.25793784080E+03 -0.11952458983E+04  0.12427134954E+04  0.10100000352E+00 0.  1.
</event>
<event>
 5   0  0.1388269E-05  0.2769977E+04  0.7818609E-02  0.8312650E-01
       -2   -1    0    0    0  501  0.00000000000E+00  0.00000000000E+00  0.11821361060E+04  0.11821361060E+04  0.25500000920E-02 0.  1.
        2   -1    0    0  501    0  0.00000000000E+00  0.00000000000E+00 -0.16226501354E+04  0.16226501354E+04  0.25500000920E-02 0. -1.
    10030    2    1    2    0    0  0.00000000000E+00  0.00000000000E+00 -0.44051402935E+03  0.28047862414E+04  0.27699771208E+04 0.  0.
        1    1    3    3  502    0  0.15793336835E+02 -0.79460125894E+03 -0.13687738893E+04  0.15827768479E+04  0.50400001928E-02 0.  1.
       -1    1    3    3    0  502 -0.15793336835E+02  0.79460125894E+03  0.92825985993E+03  0.12220093935E+04  0.50400001928E-02 0. -1.
</event>
<event>
 5   0  0.1350863E-05  0.2855124E+04  0.7818609E-02  0.8286356E-01
       -2   -1    0    0    0  501  0.00000000000E+00  0.00000000000E+00  0.13680728679E+04  0.13680728680E+04  0.25500000920E-02 0.  1.
        2   -1    0    0  501    0  0.00000000000E+00  0.00000000000E+00 -0.14896374874E+04  0.14896374874E+04  0.25500000920E-02 0. -1.
    10030    2    1    2    0    0  0.00000000000E+00  0.00000000000E+00 -0.12156461942E+03  0.28577103553E+04  0.28551235557E+04 0.  0.
        3    1    3    3  502    0  0.15962612549E+03  0.29569254406E+03 -0.14494895609E+04  0.14879296280E+04  0.10100000352E+00 0. -1.
       -3    1    3    3    0  502 -0.15962612549E+03 -0.29569254406E+03  0.13279249415E+04  0.13697807273E+04  0.10100000352E+00 0.  1.
</event>
<event>
 5   0  0.5107453E-06  0.2788181E+04  0.7818609E-02  0.8306947E-01
       -1   -1    0    0    0  501  0.00000000000E+00  0.00000000000E+00  0.12602534188E+04  0.12602534188E+04  0.50400001928E-02 0.  1.
        1   -1    0    0  501    0  0.00000000000E+00  0.00000000000E+00 -0.15421404412E+04  0.15421404412E+04  0.50400001928E-02 0. -1.
    10030    2    1    2    0    0  0.00000000000E+00  0.00000000000E+00 -0.28188702241E+03  0.28023938600E+04  0.27881805991E+04 0.  0.
        2    1    3    3  502    0 -0.12850473861E+04  0.53953440772E+03 -0.17341301256E+03  0.14044629702E+04  0.25500000920E-02 0.  1.
       -2    1    3    3    0  502  0.12850473861E+04 -0.53953440772E+03 -0.10847400985E+03  0.13979308898E+04  0.25500000920E-02 0. -1.
</event>
<event>
 5   0  0.1330962E-05  0.2376648E+04  0.7818609E-02  0.8448298E-01
       -2   -1    0    0    0  501  0.00000000000E+00  0.00000000000E+00  0.61978920858E+03  0.61978920859E+03  0.25500000920E-02 0. -1.
        2   -1    0    0  501    0  0.00000000000E+00  0.00000000000E+00 -0.22783775985E+04  0.22783775985E+04  0.25500000920E-02 0.  1.
    10030    2    1    2    0    0  0.00000000000E+00  0.00000000000E+00 -0.16585883899E+04  0.28981668071E+04  0.23766479324E+04 0.  0.
        4    1    3    3  502    0 -0.90425544086E+02  0.20343919138E+02 -0.22739622642E+04  0.22758507522E+04  0.12699999809E+01 0.  1.
       -4    1    3    3    0  502  0.90425544086E+02 -0.20343919138E+02  0.61537387434E+03  0.62231605490E+03  0.12699999809E+01 0. -1.
</event>
<event>
 5   0  0.5023691E-06  0.2807031E+04  0.7818609E-02  0.8301089E-01
       -1   -1    0    0    0  501  0.00000000000E+00  0.00000000000E+00  0.14260771749E+04  0.14260771749E+04  0.50400001928E-02 0.  1.
        1   -1    0    0  501    0  0.00000000000E+00  0.00000000000E+00 -0.13813106632E+04  0.13813106632E+04  0.50400001928E-02 0. -1.
    10030    2    1    2    0    0  0.00000000000E+00  0.00000000000E+00  0.44766511678E+02  0.28073878381E+04  0.28070308928E+04 0.  0.
        5    1    3    3  502    0  0.65816858942E+03 -0.34638238410E+03  0.12127727648E+04  0.14226758300E+04  0.46999998093E+01 0.  1.
       -5    1    3    3    0  502 -0.65816858942E+03  0.34638238410E+03 -0.11680062531E+04  0.13847120081E+04  0.46999998093E+01 0. -1.
</event>
<event>
 5   0  0.5107453E-06  0.2499764E+04  0.7818609E-02  0.8403069E-01
        1   -1    0    0  501    0  0.00000000000E+00  0.00000000000E+00  0.87138339686E+03  0.87138339688E+03  0.50400001928E-02 0.  1.
       -1   -1    0    0    0  501  0.00000000000E+00  0.00000000000E+00 -0.17927877961E+04  0.17927877961E+04  0.50400001928E-02 0. -1.
    10030    2    1    2    0    0  0.00000000000E+00  0.00000000000E+00 -0.92140439919E+03  0.26641711929E+04  0.24997644046E+04 0.  0.
        2    1    3    3  502    0  0.88160216282E+03  0.25302798202E+03 -0.13656397911E+04  0.16450585315E+04  0.25500000920E-02 0. -1.
       -2    1    3    3    0  502 -0.88160216282E+03 -0.25302798202E+03  0.44423539191E+03  0.10191126614E+04  0.25500000920E-02 0.  1.
</event>
<event>
 5   0  0.4447500E-06  0.2703048E+04  0.7818609E-02  0.8334017E-01
       -3   -1    0    0    0  501  0.00000000000E+00  0.00000000000E+00  0.17106684004E+04  0.17106684034E+04  0.10100000352E+00 0. -1.
        3   -1    0    0  501    0  0.00000000000E+00  0.00000000000E+00 -0.10677796569E+04  0.10677796617E+04  0.10100000352E+00 0.  1.
    10030    2    1    2    0    0  0.00000000000E+00  0.00000000000E+00  0.64288874344E+03  0.27784480651E+04  0.27030478564E+04 0.  0.
        3    1    3    3  502    0 -0.68580706552E+02 -0.14710354388E+02  0.17087963099E+04  0.17102352314E+04  0.10100000352E+00 0. -1.
       -3    1    3    3    0  502  0.68580706552E+02  0.14710354388E+02 -0.10659075664E+04  0.10682128337E+04  0.10100000352E+00 0.  1.
</event>
<event>
 5   0  0.5107453E-06  0.2809688E+04  0.7818609E-02  0.8300267E-01
       -1   -1    0    0    0  501  0.00000000000E+00  0.00000000000E+00  0.98557317112E+03  0.98557317113E+03  0.50400001928E-02 0. -1.
        1   -1    0    0  501    0  0.00000000000E+00  0.00000000000E+00 -0.20024754146E+04  0.20024754146E+04  0.50400001928E-02 0.  1.
    10030    2    1    2    0    0  0.00000000000E+00  0.00000000000E+00 -0.10169022435E+04  0.29880485858E+04  0.28096875588E+04 0.  0.
        2    1    3    3  502    0  0.20752802023E+03 -0.80926457488E+03  0.69267445800E+03  0.10852533972E+04  0.25500000920E-02 0. -1.
       -2    1    3    3    0  502 -0.20752802023E+03  0.80926457488E+03 -0.17095767015E+04  0.19027951886E+04  0.25500000920E-02 0.  1.
</event>
<event>
 5   0  0.4764214E-06  0.2782904E+04  0.7818609E-02  0.8308596E-01
        1   -1    0    0  501    0  0.00000000000E+00  0.00000000000E+00  0.19469900993E+04  0.19469900993E+04  0.50400001928E-02 0. -1.
       -1   -1    0    0    0  501  0.00000000000E+00  0.00000000000E+00 -0.99442641182E+03  0.99442641184E+03  0.50400001928E-02 0.  1.
    10030    2    1    2    0    0  0.00000000000E+00  0.00000000000E+00  0.95256368745E+03  0.29414165111E+04  0.27829037916E+04 0.  0.
        3    1    3    3  502    0 -0.43283460832E+03 -0.11691971843E+04 -0.17678784173E+03  0.12592147573E+04  0.10100000352E+00 0.  1.
       -3    1    3    3    0  502  0.43283460832E+03  0.11691971843E+04  0.11293515292E+04  0.16822017538E+04  0.10100000352E+00 0. -1.
</event>
<event>
 5   0  0.5023691E-06  0.2809829E+04  0.7818609E-02  0.8300223E-01
        1   -1    0    0  501    0  0.00000000000E+00  0.00000000000E+00  0.16121783695E+04  0.16121783695E+04  0.50400001928E-02 0.  1.
       -1   -1    0    0    0  501  0.00000000000E+00  0.00000000000E+00 -0.12242965378E+04  0.12242965378E+04  0.50400001928E-02 0. -1.
    10030    2    1    2    0    0  0.00000000000E+00  0.00000000000E+00  0.38788183168E+03  0.28364749073E+04  0.28098287464E+04 0.  0.
        5    1    3    3  502    0  0.43007555792E+03 -0.46380798215E+01  0.15440754660E+04  0.16028654442E+04  0.46999998093E+01 0.  1.
       -5    1    3    3    0  502 -0.43007555792E+03  0.46380798215E+01 -0.11561936344E+04  0.12336094631E+04  0.46999998093E+01 0. -1.
</event>
<event>
 5   0  0.1283052E-05  0.2726325E+04  0.7818609E-02  0.8326514E-01
        2   -1    0    0  501    0  0.00000000000E+00  0.00000000000E+00  0.25283645232E+04  0.25283645232E+04  0.25500000920E-02 0.  1.
       -2   -1    0    0    0  501  0.00000000000E+00  0.00000000000E+00 -0.73494620338E+03  0.73494620338E+03  0.25500000920E-02 0. -1.
    10030    2    1    2    0    0  0.00000000000E+00  0.00000000000E+00  0.17934183199E+04  0.32633107266E+04  0.27263249308E+04 0.  0.
        5    1    3    3  502    0  0.54811341373E+03  0.96928724275E+03 -0.44444810404E+02  0.11144251902E+04  0.46999998093E+01 0. -1.
       -5    1    3    3    0  502 -0.54811341373E+03 -0.96928724275E+03  0.18378631303E+04  0.21488855365E+04  0.46999998093E+01 0.  1.
</event>
<event>
 5   0  0.5217999E-06  0.2755955E+04  0.7818609E-02  0.8317074E-01
        1   -1    0    0  501    0  0.00000000000E+00  0.00000000000E+00  0.19453140387E+04  0.19453140387E+04  0.50400001928E-02 0. -1.
       -1   -1    0    0    0  501  0.00000000000E+00  0.00000000000E+00 -0.97610070860E+03  0.97610070862E+03  0.50400001928E-02 0.  1.
    10030    2    1    2    0    0  0.00000000000E+00  0.00000000000E+00  0.96921333014E+03  0.29214147474E+04  0.27559553057E+04 0.  0.
        1    1    3    3  502    0 -0.12396280605E+04 -0.33759668098E+03 -0.43471798477E+02  0.12855111997E+04  0.50400001928E-02 0.  1.
       -1    1    3    3    0  502  0.12396280605E+04  0.33759668098E+03  0.10126851286E+04  0.16359035476E+04  0.50400001928E-02 0. -1.
</event>
<event>
 5   0  0.5023691E-06  0.3108124E+04  0.7818609E-02  0.8213512E-01
        1   -1    0    0  501    0  0.00000000000E+00  0.00000000000E+00  0.87911443315E+03  0.87911443317E+03  0.50400001928E-02 0.  1.
       -1   -1    0    0    0  501  0.00000000000E+00  0.00000000000E+00 -0.27472068003E+04  0.27472068003E+04  0.50400001928E-02 0. -1.
    10030    2    1    2    0    0  0.00000000000E+00  0.00000000000E+00 -0.18680923671E+04  0.36263212334E+04  0.31081242890E+04 0.  0.
        5    1    3    3  502    0  0.12205376982E+04 -0.85351904910E+03 -0.14517349212E+04  0.20798469683E+04  0.46999998093E+01 0. -1.
       -5    1    3    3    0  502 -0.12205376982E+04  0.85351904910E+03 -0.41635744589E+03  0.15464742651E+04  0.46999998093E+01 0.  1.
</event>
<event>
 5   0  0.5281919E-06  0.2818805E+04  0.7818609E-02  0.8297454E-01
       -1   -1    0    0    0  501  0.00000000000E+00  0.00000000000E+00  0.10128087821E+04  0.10128087821E+04  0.50400001928E-02 0. -1.
        1   -1    0    0  501    0  0.00000000000E+00  0.00000000000E+00 -0.19612932213E+04  0.19612932213E+04  0.50400001928E-02 0.  1.
    10030    2    1    2    0    0  0.00000000000E+00  0.00000000000E+00 -0.94848443921E+03  0.29741020033E+04  0.28188047103E+04 0.  0.
        4    1    3    3  502    0 -0.92499363117E+03  0.71177859254E+03 -0.13078136181E+04  0.17528890595E+04  0.12699999809E+01 0. -1.
       -4    1    3    3    0  502  0.92499363117E+03 -0.71177859254E+03  0.35932917884E+03  0.12212129438E+04  0.12699999809E+01 0.  1.
</event>
<event>
 5   0  0.5107453E-06  0.2639556E+04  0.7818609E-02  0.8354888E-01
        1   -1    0    0  501    0  0.00000000000E+00  0.00000000000E+00  0.18897476426E+04  0.18897476426E+04  0.50400001928E-02 0.  1.
       -1   -1    0    0    0  501  0.00000000000E+00  0.00000000000E+00 -0.92171761257E+03  0.92171761259E+03  0.50400001928E-02 0. -1.
    10030    2    1    2    0    0  0.00000000000E+00  0.00000000000E+00  0.96803003006E+03  0.28114652552E+04  0.26395557850E+04 0.  0.
        2    1    3    3  502    0 -0.37275209558E+03  0.49865449347E+03 -0.75548177479E+03  0.97895512699E+03  0.25500000920E-02 0. -1.
       -2    1    3    3    0  502  0.37275209558E+03 -0.49865449347E+03  0.17235118048E+04  0.18325101282E+04  0.25500000920E-02 0.  1.
</event>
<event>
 5   0  0.1302063E-05  0.2712950E+04  0.7818609E-02  0.8330815E-01
       -2   -1    0    0    0  501  0.00000000000E+00  0.00000000000E+00  0.96593125843E+03  0.96593125843E+03  0.25500000920E-02 0. -1.
        2   -1    0    0  501    0  0.00000000000E+00  0.00000000000E+00 -0.19049229533E+04  0.19049229533E+04  0.25500000920E-02 0.  1.
    10030    2    1    2    0    0  0.00000000000E+00  0.00000000000E+00 -0.93899169483E+03  0.28708542117E+04  0.27129501473E+04 0.  0.
        2    1    3    3  502    0  0.49045532945E+03  0.10127301775E+03 -0.18035135894E+04  0.18717542364E+04  0.25500000920E-02 0.  1.
       -2    1    3    3    0  502 -0.49045532945E+03 -0.10127301775E+03  0.86452189460E+03  0.99909997526E+03  0.25500000920E-02 0. -1.
</event>
<event>
 5   0  0.1350863E-05  0.2405555E+04  0.7818609E-02  0.8437427E-01
        2   -1    0    0  501    0  0.00000000000E+00  0.00000000000E+00  0.96260534658E+03  0.96260534658E+03  0.25500000920E-02 0. -1.
       -2   -1    0    0    0  501  0.00000000000E+00  0.00000000000E+00 -0.15028727935E+04  0.15028727935E+04  0.25500000920E-02 0.  1.
    10030    2    1    2    0    0  0.00000000000E+00  0.00000000000E+00 -0.54026744694E+03  0.24654781401E+04  0.24055547271E+04 0.  0.
        3    1    3    3  502    0  0.74575008322E+02  0.10315721419E+04 -0.89940774776E+03  0.13706337303E+04  0.10100000352E+00 0.  1.
       -3    1    3    3    0  502 -0.74575008322E+02 -0.10315721419E+04  0.35914030082E+03  0.10948444098E+04  0.10100000352E+00 0. -1.
</event>
<event>
 5   0  0.1330962E-05  0.2785644E+04  0.7818609E-02  0.8307739E-01
       -2   -1    0    0    0  501  0.00000000000E+00  0.00000000000E+00  0.11010199472E+04  0.11010199472E+04  0.25500000920E-02 0.  1.
        2   -1    0    0  501    0  0.00000000000E+00  0.00000000000E+00 -0.17619603856E+04  0.17619603856E+04  0.25500000920E-02 0. -1.
    10030    2    1    2    0    0  0.00000000000E+00  0.00000000000E+00 -0.66094043847E+03  0.28629803328E+04  0.27856442922E+04 0.  0.
        4    1    3    3  502    0  0.99357255084E+03 -0.97065485277E+03 -0.22468226139E+03  0.14070682245E+04  0.12699999809E+01 0.  1.
       -4    1    3    3    0  502 -0.99357255084E+03  0.97065485277E+03 -0.43625817708E+03  0.14559121083E+04  0.12699999809E+01 0. -1.
</event>
<event>
 5   0  0.5023691E-06  0.2735685E+04  0.7818609E-02  0.8323519E-01
        1   -1    0    0  501    0  0.00000000000E+00  0.00000000000E+00  0.23230400788E+04  0.23230400788E+04  0.50400001928E-02 0. -1.
       -1   -1    0    0    0  501  0.00000000000E+00  0.00000000000E+00 -0.80540691570E+03  0.80540691571E+03  0.50400001928E-02 0.  1.
    10030    2    1    2    0    0  0.00000000000E+00  0.00000000000E+00  0.15176331631E+04  0.31284469945E+04  0.27356845907E+04 0.  0.
        5    1    3    3  502    0  0.47957318675E+03 -0.41610533385E+03  0.21443008481E+04  0.22363323338E+04  0.46999998093E+01 0. -1.
       -5    1    3    3    0  502 -0.47957318675E+03  0.41610533385E+03 -0.62666768501E+03  0.89211466064E+03  0.46999998093E+01 0.  1.
</event>
<event>
 5   0  0.1388269E-05  0.2762586E+04  0.7818609E-02  0.8314979E-01
       -2   -1    0    0    0  501  0.00000000000E+00  0.00000000000E+00  0.81979766648E+03  0.81979766648E+03  0.25500000920E-02 0. -1.
        2   -1    0    0  501    0  0.00000000000E+00  0.00000000000E+00 -0.23273674658E+04  0.23273674658E+04  0.25500000920E-02 0.  1.
    10030    2    1    2    0    0  0.00000000000E+00  0.00000000000E+00 -0.15075697993E+04  0.31471651322E+04  0.27625860475E+04 0.  0.
        1    1    3    3  502    0  0.33500124069E+03 -0.12931900653E+04 -0.11539769045E+04  0.17652844169E+04  0.50400001928E-02 0.  1.
       -1    1    3    3    0  502 -0.33500124069E+03  0.12931900653E+04 -0.35359289476E+03  0.13818807154E+04  0.50400001928E-02 0. -1.
</event>
<event>
 5   0  0.1283052E-05  0.2772546E+04  0.7818609E-02  0.8311843E-01
        2   -1    0    0  501    0  0.00000000000E+00  0.00000000000E+00  0.11432744861E+04  0.11432744861E+04  0.25500000920E-02 0.  1.
       -2   -1    0    0    0  501  0.00000000000E+00  0.00000000000E+00 -0.16809193947E+04  0.16809193947E+04  0.25500000920E-02 0. -1.
    10030    2    1    2    0    0  0.00000000000E+00  0.00000000000E+00 -0.53764490864E+03  0.28241938808E+04  0.27725455864E+04 0.  0.
        5    1    3    3  502    0  0.60301621429E+03  0.35091070593E+02 -0.15398121194E+04  0.16540566469E+04  0.46999998093E+01 0. -1.
       -5    1    3    3    0  502 -0.60301621429E+03 -0.35091070593E+02  0.10021672108E+04  0.11701372340E+04  0.46999998093E+01 0.  1.
</event>
<event>
 5   0  0.5281919E-06  0.2805880E+04  0.7818609E-02  0.8301445E-01
       -1   -1    0    0    0  501  0.00000000000E+00  0.00000000000E+00  0.11696330059E+04  0.11696330059E+04  0.50400001928E-02 0.  1.
        1   -1    0    0  501    0  0.00000000000E+00  0.00000000000E+00 -0.16827852448E+04  0.16827852448E+04  0.50400001928E-02 0. -1.
    10030    2    1    2    0    0  0.00000000000E+00  0.00000000000E+00 -0.51315223897E+03  0.28524182507E+04  0.28058803710E+04 0.  0.
        4    1    3    3  502    0 -0.13600683174E+04 -0.27951822715E+03 -0.52438990268E+02  0.13894846987E+04  0.12699999809E+01 0.  1.
       -4    1    3    3    0  502  0.13600683174E+04  0.27951822715E+03 -0.46071324870E+03  0.14629335520E+04  0.12699999809E+01 0. -1.
</event>
<event>
 5   0  0.5107453E-06  0.2770130E+04  0.7818609E-02  0.8312602E-01
       -1   -1    0    0    0  501  0.00000000000E+00  0.00000000000E+00  0.11075588878E+04  0.11075588878E+04  0.50400001928E-02 0. -1.
        1   -1    0    0  501    0  0.00000000000E+00  0.00000000000E+00 -0.17321024150E+04  0.17321024151E+04  0.50400001928E-02 0.  1.
    10030    2    1    2    0    0  0.00000000000E+00  0.00000000000E+00 -0.62454352722E+03  0.28396613029E+04  0.27701302673E+04 0.  0.
        2    1    3    3  502    0  0.10755877255E+04 -0.79089954895E+02  0.57859950270E+03  0.12238960580E+04  0.25500000920E-02 0. -1.
       -2    1    3    3    0  502 -0.10755877255E+04  0.79089954895E+02 -0.12031430299E+04  0.16157652449E+04  0.25500000920E-02 0.  1.
</event>
<event>
 5   0  0.5107453E-06  0.2758578E+04  0.7818609E-02  0.8316245E-01
        1   -1    0    0  501    0  0.00000000000E+00  0.00000000000E+00  0.18702138962E+04  0.18702138962E+04  0.50400001928E-02 0. -1.
       -1   -1    0    0    0  501  0.00000000000E+00  0.00000000000E+00 -0.10172301684E+04  0.10172301684E+04  0.50400001928E-02 0.  1.
    10030    2    1    2    0    0  0.00000000000E+00  0.00000000000E+00  0.85298372785E+03  0.28874440646E+04  0.27585778920E+04 0.  0.
        2    1    3    3  502    0 -0.43657479790E+03 -0.98577673032E+03  0.13269614229E+04  0.17097309537E+04  0.25500000920E-02 0. -1.
       -2    1    3    3    0  502  0.43657479790E+03  0.98577673032E+03 -0.47397769502E+03  0.11777131109E+04  0.25500000920E-02 0.  1.
</event>
<event>
 5   0  0.4764214E-06  0.2821232E+04  0.7818609E-02  0.8296707E-01
        1   -1    0    0  501    0  0.00000000000E+00  0.00000000000E+00  0.10960634561E+04  0.10960634561E+04  0.50400001928E-02 0.  1.
       -1   -1    0    0    0  501  0.00000000000E+00  0.00000000000E+00 -0.18154394895E+04  0.18154394895E+04  0.50400001928E-02 0. -1.
    10030    2    1    2    0    0  0.00000000000E+00  0.00000000000E+00 -0.71937603339E+03  0.29115029457E+04  0.28212315618E+04 0.  0.
        3    1    3    3  502    0  0.84659636033E+03  0.31451937311E+03  0.75858413759E+03  0.11794480647E+04  0.10100000352E+00 0.  1.
       -3    1    3    3    0  502 -0.84659636033E+03 -0.31451937311E+03 -0.14779601710E+04  0.17320548809E+04  0.10100000352E+00 0. -1.
</event>
<event>
 5   0  0.5107453E-06  0.2789447E+04  0.7818609E-02  0.8306552E-01
        1   -1    0    0  501    0  0.00000000000E+00  0.00000000000E+00  0.10835020989E+04  0.10835020989E+04  0.50400001928E-02 0.  1.
       -1   -1    0    0    0  501  0.00000000000E+00  0.00000000000E+00 -0.17953386424E+04  0.17953386424E+04  0.50400001928E-02 0. -1.
    10030    2    1    2    0    0  0.00000000000E+00  0.00000000000E+00 -0.71183654352E+03  0.28788407413E+04  0.27894466743E+04 0.  0.
        2    1    3    3  502    0 -0.36880582567E+03 -0.12216383104E+04 -0.93683830055E+03  0.15830615591E+04  0.25500000920E-02 0. -1.
       -2    1    3    3    0  502  0.36880582567E+03  0.12216383104E+04  0.22500175703E+03  0.12957791822E+04  0.25500000920E-02 0.  1.
</event>
<event>
 5   0  0.1302063E-05  0.2739649E+04  0.7818609E-02  0.8322254E-01
       -2   -1    0    0    0  501  0.00000000000E+00  0.00000000000E+00  0.96147607377E+03  0.96147607377E+03  0.25500000920E-02 0.  1.
        2   -1    0    0  501    0  0.00000000000E+00  0.00000000000E+00 -0.19516023602E+04  0.19516023602E+04  0.25500000920E-02 0. -1.
    10030    2    1    2    0    0  0.00000000000E+00  0.00000000000E+00 -0.99012628638E+03  0.29130784339E+04  0.27396488642E+04 0.  0.
        2    1    3    3  502    0 -0.50153103342E+03  0.86231800767E+03 -0.14932629846E+04  0.17958173808E+04  0.25500000920E-02 0. -1.
       -2    1    3    3    0  502  0.50153103342E+03 -0.86231800767E+03  0.50313669821E+03  0.11172610532E+04  0.25500000920E-02 0.  1.
</event>
<event>
 5   0  0.1302063E-05  0.2819166E+04  0.7818609E-02  0.8297343E-01
        2   -1    0    0  501    0  0.00000000000E+00  0.00000000000E+00  0.16873500729E+04  0.16873500729E+04  0.25500000920E-02 0. -1.
       -2   -1    0    0    0  501  0.00000000000E+00  0.00000000000E+00 -0.11775415818E+04  0.11775415818E+04  0.25500000920E-02 0.  1.
    10030    2    1    2    0    0  0.00000000000E+00  0.00000000000E+00  0.50980849116E+03  0.28648916547E+04  0.28191664540E+04 0.  0.
        2    1    3    3  502    0  0.10996176351E+04  0.18831882315E+03 -0.62063936777E+03  0.12766425293E+04  0.25500000920E-02 0.  1.
       -2    1    3    3    0  502 -0.10996176351E+04 -0.18831882315E+03  0.11304478589E+04  0.15882491254E+04  0.25500000920E-02 0. -1.
</event>
<event>
 5   0  0.1350863E-05  0.2852135E+04  0.7818609E-02  0.8287263E-01
       -2   -1    0    0    0  501  0.00000000000E+00  0.00000000000E+00  0.16206559025E+04  0.16206559025E+04  0.25500000920E-02 0. -1.
        2   -1    0    0  501    0  0.00000000000E+00  0.00000000000E+00 -0.12548429404E+04  0.12548429404E+04  0.25500000920E-02 0.  1.
    10030    2    1    2    0    0  0.00000000000E+00  0.00000000000E+00  0.36581296211E+03  0.28754988430E+04  0.28521350727E+04 0.  0.
        3    1    3    3  502    0 -0.13087909128E+04 -0.50945164323E+03 -0.66494093629E+02  0.14060213743E+04  0.10100000352E+00 0. -1.
       -3    1    3    3    0  502  0.13087909128E+04  0.50945164323E+03  0.43230705574E+03  0.14694774687E+04  0.10100000352E+00 0.  1.
</event>
<event>
 5   0  0.5217999E-06  0.2806878E+04  0.7818609E-02  0.8301136E-01
        1   -1    0    0  501    0  0.00000000000E+00  0.00000000000E+00  0.16804248453E+04  0.16804248453E+04  0.50400001928E-02 0. -1.
       -1   -1    0    0    0  501  0.00000000000E+00  0.00000000000E+00 -0.11721087782E+04  0.11721087783E+04  0.50400001928E-02 0.  1.
    10030    2    1    2    0    0  0.00000000000E+00  0.00000000000E+00  0.50831606702E+03  0.28525336235E+04  0.28068777760E+04 0.  0.
        1    1    3    3  502    0 -0.23832777526E+03 -0.74089216513E+03  0.14410238483E+04  0.16377640429E+04  0.50400001928E-02 0. -1.
       -1    1    3    3    0  502  0.23832777526E+03  0.74089216513E+03 -0.93270778127E+03  0.12147695806E+04  0.50400001928E-02 0.  1.
</event>
<event>
 5   0  0.5107453E-06  0.2715794E+04  0.7818609E-02  0.8329899E-01
       -1   -1    0    0    0  501  0.00000000000E+00  0.00000000000E+00  0.12554711719E+04  0.12554711719E+04  0.50400001928E-02 0. -1.
        1   -1    0    0  501    0  0.00000000000E+00  0.00000000000E+00 -0.14686788464E+04  0.14686788464E+04  0.50400001928E-02 0.  1.
    10030    2    1    2    0    0  0.00000000000E+00  0.00000000000E+00 -0.21320767449E+03  0.27241500184E+04  0.27157937717E+04 0.  0.
        2    1    3    3  502    0  0.52452392324E+03 -0.84069926936E+03 -0.10378911141E+04  0.14349629167E+04  0.25500000920E-02 0.  1.
       -2    1    3    3    0  502 -0.52452392324E+03  0.84069926936E+03  0.82468343962E+03  0.12891871017E+04  0.25500000920E-02 0. -1.
</event>
<event>
 5   0  0.5107453E-06  0.2806052E+04  0.7818609E-02  0.8301392E-01
        1   -1    0    0  501    0  0.00000000000E+00  0.00000000000E+00  0.24195377867E+04  0.24195377867E+04  0.50400001928E-02 0. -1.
       -1   -1    0    0    0  501  0.00000000000E+00  0.00000000000E+00 -0.81357796971E+03  0.81357796973E+03  0.50400001928E-02 0.  1.
    10030    2    1    2    0    0  0.00000000000E+00  0.00000000000E+00  0.16059598170E+04  0.32331157564E+04  0.28060524872E+04 0.  0.
        2    1    3    3  502    0  0.12379675236E+04  0.57489112389E+03  0.42888188177E+03  0.14307351475E+04  0.25500000920E-02 0. -1.
       -2    1    3    3    0  502 -0.12379675236E+04 -0.57489112389E+03  0.11770779352E+04  0.18023806089E+04  0.25500000920E-02 0.  1.
</event>
<event>
 5   0  0.1350863E-05  0.2730005E+04  0.7818609E-02  0.8325335E-01
        2   -1    0    0  501    0  0.00000000000E+00  0.00000000000E+00  0.18749981978E+04  0.18749981978E+04  0.25500000920E-02 0. -1.
       -2   -1    0    0    0  501  0.00000000000E+00  0.00000000000E+00 -0.99372469618E+03  0.99372469618E+03  0.25500000920E-02 0.  1.
    10030    2    1    2    0    0  0.00000000000E+00  0.00000000000E+00  0.88127350166E+03  0.28687228940E+04  0.27300051388E+04 0.  0.
        3    1    3    3  502    0 -0.10655818982E+04  0.37102406348E+03  0.12478550916E+04  0.16823394359E+04  0.10100000352E+00 0. -1.
       -3    1    3    3    0  502  0.10655818982E+04 -0.37102406348E+03 -0.36658158996E+03  0.11863834582E+04  0.10100000352E+00 0.  1.
</event>
<event>
 5   0  0.1302063E-05  0.2807040E+04  0.7818609E-02  0.8301086E-01
       -2   -1    0    0    0  501  0.00000000000E+00  0.00000000000E+00  0.90010257098E+03  0.90010257098E+03  0.25500000920E-02 0. -1.
        2   -1    0    0  501    0  0.00000000000E+00  0.00000000000E+00 -0.21884937931E+04  0.21884937931E+04  0.25500000920E-02 0.  1.
    10030    2    1    2    0    0  0.00000000000E+00  0.00000000000E+00 -0.12883912222E+04  0.30885963641E+04  0.28070403558E+04 0.  0.
        2    1    3    3  502    0 -0.12978904550E+04  0.10574558039E+03 -0.68066007294E+02  0.13039688425E+04  0.25500000920E-02 0.  1.
       -2    1    3    3    0  502  0.12978904550E+04 -0.10574558039E+03 -0.12203252149E+04  0.17846275216E+04  0.25500000920E-02 0. -1.
</event>
<event>
 5   0  0.1302063E-05  0.2699798E+04  0.7818609E-02  0.8335070E-01
       -2   -1    0    0    0  501  0.00000000000E+00  0.00000000000E+00  0.92502562789E+03  0.92502562789E+03  0.25500000920E-02 0.  1.
        2   -1    0    0  501    0  0.00000000000E+00  0.00000000000E+00 -0.19699215091E+04  0.19699215091E+04  0.25500000920E-02 0. -1.
    10030    2    1    2    0    0  0.00000000000E+00  0.00000000000E+00 -0.10448958812E+04  0.28949471370E+04  0.26997984227E+04 0.  0.
        2    1    3    3  502    0  0.61278061715E+03 -0.38504695432E+03  0.69942119994E+03  0.10064547962E+04  0.25500000920E-02 0.  1.
       -2    1    3    3    0  502 -0.61278061715E+03  0.38504695432E+03 -0.17443170812E+04  0.18884923408E+04  0.25500000920E-02 0. -1.
</event>
<event>
 5   0  0.5281919E-06  0.2920007E+04  0.7818609E-02  0.8266949E-01
        1   -1    0    0  501    0  0.00000000000E+00  0.00000000000E+00  0.13001947032E+04  0.13001947032E+04  0.50400001928E-02 0. -1.
       -1   -1    0    0    0  501  0.00000000000E+00  0.00000000000E+00 -0.16394550775E+04  0.16394550775E+04  0.50400001928E-02 0.  1.
    10030    2    1    2    0    0  0.00000000000E+00  0.00000000000E+00 -0.33926037427E+03  0.29396497806E+04  0.29200074026E+04 0.  0.
        4    1    3    3  502    0 -0.58704335348E+03 -0.11865531042E+04 -0.78946742677E+03  0.15413593348E+04  0.12699999809E+01 0.  1.
       -4    1    3    3    0  502  0.58704335348E+03  0.11865531042E+04  0.45020705250E+03  0.13982904459E+04  0.12699999809E+01 0. -1.
</event>
<event>
 5   0  0.4447500E-06  0.2420233E+04  0.7818609E-02  0.8431967E-01
        3   -1    0    0  501    0  0.00000000000E+00  0.00000000000E+00  0.18082562609E+04  0.18082562638E+04  0.10100000352E+00 0.  1.
       -3   -1    0    0    0  501  0.00000000000E+00  0.00000000000E+00 -0.80983100005E+03  0.80983100635E+03  0.10100000352E+00 0. -1.
    10030    2    1    2    0    0  0.00000000000E+00  0.00000000000E+00  0.99842526089E+03  0.26180872701E+04  0.24202330368E+04 0.  0.
        2    1    3    3  502    0 -0.25326144765E+03  0.11832909775E+04  0.49062039560E+03  0.13057669283E+04  0.25500000920E-02 0. -1.
       -2    1    3    3    0  502  0.25326144765E+03 -0.11832909775E+04  0.50780486529E+03  0.13123203418E+04  0.25500000920E-02 0.  1.
</event>
<event>
 5   0  0.1388269E-05  0.2142399E+04  0.7818609E-02  0.8542793E-01
        2   -1    0    0  501    0  0.00000000000E+00  0.00000000000E+00  0.19330155329E+04  0.19330155329E+04  0.25500000920E-02 0. -1.
       -2   -1    0    0    0  501  0.00000000000E+00  0.00000000000E+00 -0.59361577272E+03  0.59361577272E+03  0.25500000920E-02 0.  1.
    10030    2    1    2    0    0  0.00000000000E+00  0.00000000000E+00  0.13393997602E+04  0.25266313056E+04  0.21423991311E+04 0.  0.
        1    1    3    3  502    0  0.40702715723E+03  0.63404839290E+03  0.15676932259E+04  0.17393534781E+04  0.50400001928E-02 0. -1.
       -1    1    3    3    0  502 -0.40702715723E+03 -0.63404839290E+03 -0.22829346567E+03  0.78727782755E+03  0.50400001928E-02 0.  1.
</event>
<event>
 5   0  0.1350863E-05  0.2520663E+04  0.7818609E-02  0.8395661E-01
       -2   -1    0    0    0  501  0.00000000000E+00  0.00000000000E+00  0.75329254572E+03  0.75329254573E+03  0.25500000920E-02 0. -1.
        2   -1    0    0  501    0  0.00000000000E+00  0.00000000000E+00 -0.21086576672E+04  0.21086576672E+04  0.25500000920E-02 0.  1.
    10030    2    1    2    0    0  0.00000000000E+00  0.00000000000E+00 -0.13553651215E+04  0.28619502130E+04  0.25206634858E+04 0.  0.
        3    1    3    3  502    0 -0.11674525053E+03 -0.34859379860E+03 -0.20464296154E+04  0.20791876469E+04  0.10100000352E+00 0.  1.
       -3    1    3    3    0  502  0.11674525053E+03  0.34859379860E+03  0.69106449389E+03  0.78276256608E+03  0.10100000352E+00 0. -1.
</event>
<event>
 5   0  0.5107453E-06  0.2774449E+04  0.7818609E-02  0.8311245E-01
       -1   -1    0    0    0  501  0.00000000000E+00  0.00000000000E+00  0.92946280536E+03  0.92946280538E+03  0.50400001928E-02 0. -1.
        1   -1    0    0  501    0  0.00000000000E+00  0.00000000000E+00 -0.20704343054E+04  0.20704343054E+04  0.50400001928E-02 0.  1.
    10030    2    1    2    0    0  0.00000000000E+00  0.00000000000E+00 -0.11409715000E+04  0.29998971108E+04  0.27744489023E+04 0.  0.
        2    1    3    3  502    0 -0.34692333187E+03  0.55277319619E+03  0.75310818132E+03  0.99653697242E+03  0.25500000920E-02 0. -1.
       -2    1    3    3    0  502  0.34692333187E+03 -0.55277319619E+03 -0.18940796814E+04  0.20033601384E+04  0.25500000920E-02 0.  1.
</event>
<event>
 5   0  0.1350863E-05  0.2258957E+04  0.7818609E-02  0.8494282E-01
        2   -1    0    0  501    0  0.00000000000E+00  0.00000000000E+00  0.17079419866E+04  0.17079419866E+04  0.25500000920E-02 0.  1.
       -2   -1    0    0    0  501  0.00000000000E+00  0.00000000000E+00 -0.74693518573E+03  0.74693518573E+03  0.25500000920E-02 0. -1.
    10030    2    1    2    0    0  0.00000000000E+00  0.00000000000E+00  0.96100680082E+03  0.24548771723E+04  0.22589572505E+04 0.  0.
        3    1    3    3  502    0  0.80323184461E+03  0.77177761923E+03  0.27748582873E+03  0.11479636253E+04  0.10100000352E+00 0.  1.
       -3    1    3    3    0  502 -0.80323184461E+03 -0.77177761923E+03  0.68352097209E+03  0.13069135470E+04  0.10100000352E+00 0. -1.
</event>
<event>
 5   0  0.1302063E-05  0.2638826E+04  0.7818609E-02  0.8355131E-01
        2   -1    0    0  501    0  0.00000000000E+00  0.00000000000E+00  0.96917879337E+03  0.96917879338E+03  0.25500000920E-02 0. -1.
       -2   -1    0    0    0  501  0.00000000000E+00  0.00000000000E+00 -0.17962122165E+04  0.17962122165E+04  0.25500000920E-02 0.  1.
    10030    2    1    2    0    0  0.00000000000E+00  0.00000000000E+00 -0.82703342311E+03  0.27653910099E+04  0.26388260940E+04 0.  0.
        2    1    3    3  502    0 -0.48542734195E+03 -0.34664814513E+02  0.87168429505E+03  0.99833604759E+03  0.25500000920E-02 0. -1.
       -2    1    3    3    0  502  0.48542734195E+03  0.34664814513E+02 -0.16987177182E+04  0.17670549623E+04  0.25500000920E-02 0.  1.
</event>
<event>
 5   0  0.1283052E-05  0.2785609E+04  0.7818609E-02  0.8307750E-01
       -2   -1    0    0    0  501  0.00000000000E+00  0.00000000000E+00  0.10049609445E+04  0.10049609445E+04  0.25500000920E-02 0. -1.
        2   -1    0    0  501    0  0.00000000000E+00  0.00000000000E+00 -0.19303280456E+04  0.19303280456E+04  0.25500000920E-02 0.  1.
    10030    2    1    2    0    0  0.00000000000E+00  0.00000000000E+00 -0.92536710102E+03  0.29352889901E+04  0.27856089431E+04 0.  0.
        5    1    3    3  502    0 -0.13583473610E+04 -0.29355164503E+03 -0.56041460136E+03  0.14984547831E+04  0.46999998093E+01 0.  1.
       -5    1    3    3    0  502  0.13583473610E+04  0.29355164503E+03 -0.36495249966E+03  0.14368342070E+04  0.46999998093E+01 0. -1.
</event>
<event>
 5   0  0.5023691E-06  0.2805776E+04  0.7818609E-02  0.8301477E-01
        1   -1    0    0  501    0  0.00000000000E+00  0.00000000000E+00  0.21232658066E+04  0.21232658066E+04  0.50400001928E-02 0. -1.
       -1   -1    0    0    0  501  0.00000000000E+00  0.00000000000E+00 -0.92691895989E+03  0.92691895991E+03  0.50400001928E-02 0.  1.
    10030    2    1    2    0    0  0.00000000000E+00  0.00000000000E+00  0.11963468467E+04  0.30501847665E+04  0.28057764224E+04 0.  0.
        5    1    3    3  502    0 -0.79651612371E+03 -0.76778212639E+03 -0.33960910475E+03  0.11572742816E+04  0.46999998093E+01 0.  1.
       -5    1    3    3    0  502  0.79651612371E+03  0.76778212639E+03  0.15359559515E+04  0.18929104849E+04  0.46999998093E+01 0. -1.
</event>
<event>
 5   0  0.5023691E-06  0.2828423E+04  0.7818609E-02  0.8294498E-01
        1   -1    0    0  501    0  0.00000000000E+00  0.00000000000E+00  0.13581682592E+04  0.13581682592E+04  0.50400001928E-02 0. -1.
       -1   -1    0    0    0  501  0.00000000000E+00  0.00000000000E+00 -0.14725672462E+04  0.14725672462E+04  0.50400001928E-02 0.  1.
    10030    2    1    2    0    0  0.00000000000E+00  0.00000000000E+00 -0.11439898698E+03  0.28307355053E+04  0.28284229480E+04 0.  0.
        5    1    3    3  502    0  0.24744085336E+03  0.88259848284E+03 -0.11350038357E+04  0.14589252396E+04  0.46999998093E+01 0.  1.
       -5    1    3    3    0  502 -0.24744085336E+03 -0.88259848284E+03  0.10206048487E+04  0.13718102657E+04  0.46999998093E+01 0. -1.
</event>
<event>
 5   0  0.1388269E-05  0.2741340E+04  0.7818609E-02  0.8321715E-01
       -2   -1    0    0    0  501  0.00000000000E+00  0.00000000000E+00  0.12083628786E+04  0.12083628786E+04  0.25500000920E-02 0. -1.
        2   -1    0    0  501    0  0.00000000000E+00  0.00000000000E+00 -0.15547778523E+04  0.15547778523E+04  0.25500000920E-02 0.  1.
    10030    2    1    2    0    0  0.00000000000E+00  0.00000000000E+00 -0.34641497369E+03  0.27631407308E+04  0.27413397025E+04 0.  0.
        1    1    3    3  502    0  0.58957145852E+03 -0.54068108900E+03  0.94866029374E+03  0.12409217935E+04  0.50400001928E-02 0. -1.
       -1    1    3    3    0  502 -0.58957145852E+03  0.54068108900E+03 -0.12950752674E+04  0.15222189373E+04  0.50400001928E-02 0.  1.
</event>
<event>
 5   0  0.5281919E-06  0.2828121E+04  0.7818609E-02  0.8294591E-01
        1   -1    0    0  501    0  0.00000000000E+00  0.00000000000E+00  0.75963728995E+03  0.75963728997E+03  0.50400001928E-02 0. -1.
       -1   -1    0    0    0  501  0.00000000000E+00  0.00000000000E+00 -0.26322660459E+04  0.26322660460E+04  0.50400001928E-02 0.  1.
    10030    2    1    2    0    0  0.00000000000E+00  0.00000000000E+00 -0.18726287560E+04  0.33919033359E+04  0.28281212461E+04 0.  0.
        4    1    3    3  502    0  0.89047010243E+03 -0.66948254209E+02 -0.22513096395E+04  0.24219446273E+04  0.12699999809E+01 0.  1.
       -4    1    3    3    0  502 -0.89047010243E+03  0.66948254209E+02  0.37868088345E+03  0.96995870863E+03  0.12699999809E+01 0. -1.
</event>
<event>
 5   0  0.1302063E-05  0.2769011E+04  0.7818609E-02  0.8312954E-01
        2   -1    0    0  501    0  0.00000000000E+00  0.00000000000E+00  0.20079525957E+04  0.20079525957E+04  0.25500000920E-02 0. -1.
       -2   -1    0    0    0  501  0.00000000000E+00  0.00000000000E+00 -0.95463202377E+03  0.95463202377E+03  0.25500000920E-02 0.  1.
    10030    2    1    2    0    0  0.00000000000E+00  0.00000000000E+00  0.10533205720E+04  0.29625846195E+04  0.27690112676E+04 0.  0.
        2    1    3    3  502    0  0.85428847787E+03  0.89725344152E+03  0.11879141666E+04  0.17163952368E+04  0.25500000920E-02 0. -1.
       -2    1    3    3    0  502 -0.85428847787E+03 -0.89725344152E+03 -0.13459359466E+03  0.12461893827E+04  0.25500000920E-02 0.  1.
</event>
<event>
 5   0  0.5217999E-06  0.2868017E+04  0.7818609E-02  0.8282457E-01
        1   -1    0    0  501    0  0.00000000000E+00  0.00000000000E+00  0.14538581198E+04  0.14538581198E+04  0.50400001928E-02 0.  1.
       -1   -1    0    0    0  501  0.00000000000E+00  0.00000000000E+00 -0.14144302894E+04  0.14144302894E+04  0.50400001928E-02 0. -1.
    10030    2    1    2    0    0  0.00000000000E+00  0.00000000000E+00  0.39427830378E+02  0.28682884093E+04  0.28680174067E+04 0.  0.
        1    1    3    3  502    0  0.45860731811E+03 -0.24880183308E+02  0.13783124718E+04  0.14528196604E+04  0.50400001928E-02 0.  1.
       -1    1    3    3    0  502 -0.45860731811E+03  0.24880183308E+02 -0.13388846415E+04  0.14154687488E+04  0.50400001928E-02 0. -1.
</event>
<event>
 5   0  0.1330962E-05  0.2804985E+04  0.7818609E-02  0.8301722E-01
        2   -1    0    0  501    0  0.00000000000E+00  0.00000000000E+00  0.22191806843E+04  0.22191806843E+04  0.25500000920E-02 0.  1.
       -2   -1    0    0    0  501  0.00000000000E+00  0.00000000000E+00 -0.88635628769E+03  0.88635628769E+03  0.25500000920E-02 0. -1.
    10030    2    1    2    0    0  0.00000000000E+00  0.00000000000E+00  0.13328243966E+04  0.31055369720E+04  0.28049846723E+04 0.  0.
        4    1    3    3  502    0 -0.53085607945E+03 -0.26392140508E+03 -0.74080923805E+03  0.94882170361E+03  0.12699999809E+01 0. -1.
       -4    1    3    3    0  502  0.53085607945E+03  0.26392140508E+03  0.20736336346E+04  0.21567152684E+04  0.12699999809E+01 0.  1.
</event>
<event>
 5   0  0.5281919E-06  0.2817394E+04  0.7818609E-02  0.8297888E-01
       -1   -1    0    0    0  501  0.00000000000E+00  0.00000000000E+00  0.94889706071E+03  0.94889706072E+03  0.50400001928E-02 0.  1.
        1   -1    0    0  501    0  0.00000000000E+00  0.00000000000E+00 -0.20912987363E+04  0.20912987363E+04  0.50400001928E-02 0. -1.
    10030    2    1    2    0    0  0.00000000000E+00  0.00000000000E+00 -0.11424016756E+04  0.30401957970E+04  0.28173939902E+04 0.  0.
        4    1    3    3  502    0 -0.28930881899E+01  0.18847280901E+03 -0.20776282782E+04  0.20861618454E+04  0.12699999809E+01 0. -1.
       -4    1    3    3    0  502  0.28930881899E+01 -0.18847280901E+03  0.93522660264E+03  0.95403395164E+03  0.12699999809E+01 0.  1.
</event>
<event>
 5   0  0.1283052E-05  0.2201065E+04  0.7818609E-02  0.8517985E-01
        2   -1    0    0  501    0  0.00000000000E+00  0.00000000000E+00  0.20161334260E+04  0.20161334260E+04  0.25500000920E-02 0. -1.
       -2   -1    0    0    0  501  0.00000000000E+00  0.00000000000E+00 -0.60073993362E+03  0.60073993363E+03  0.25500000920E-02 0.  1.
    10030    2    1    2    0    0  0.00000000000E+00  0.00000000000E+00  0.14153934924E+04  0.26168733596E+04  0.22010650699E+04 0.  0.
        5    1    3    3  502    0 -0.17228119556E+03  0.60735868677E+03 -0.36402997905E+03  0.72876971698E+03  0.46999998093E+01 0.  1.
       -5    1    3    3    0  502  0.17228119556E+03 -0.60735868677E+03  0.17794234714E+04  0.18881036426E+04  0.46999998093E+01 0. -1.
</event>
<event>
 5   0  0.5281919E-06  0.2779648E+04  0.7818609E-02  0.8309615E-01
       -1   -1    0    0    0  501  0.00000000000E+00  0.00000000000E+00  0.21958745334E+04  0.21958745334E+04  0.50400001928E-02 0.  1.
        1   -1    0    0  501    0  0.00000000000E+00  0.00000000000E+00 -0.87965443827E+03  0.87965443828E+03  0.50400001928E-02 0. -1.
    10030    2    1    2    0    0  0.00000000000E+00  0.00000000000E+00  0.13162200951E+04  0.30755289717E+04  0.27796480203E+04 0.  0.
        4    1    3    3  502    0  0.81945530045E+03  0.68687619797E+03  0.16404836399E+04  0.19581864279E+04  0.12699999809E+01 0.  1.
       -4    1    3    3    0  502 -0.81945530045E+03 -0.68687619797E+03 -0.32426354476E+03  0.11173425438E+04  0.12699999809E+01 0. -1.
</event>
<event>
 5   0  0.5023691E-06  0.2253721E+04  0.7818609E-02  0.8496395E-01
        1   -1    0    0  501    0  0.00000000000E+00  0.00000000000E+00  0.10972125096E+04  0.10972125096E+04  0.50400001928E-02 0.  1.
       -1   -1    0    0    0  501  0.00000000000E+00  0.00000000000E+00 -0.11573094808E+04  0.11573094808E+04  0.50400001928E-02 0. -1.
    10030    2    1    2    0    0  0.00000000000E+00  0.00000000000E+00 -0.60096971227E+02  0.22545219904E+04  0.22537208699E+04 0.  0.
        5    1    3    3  502    0  0.37987747079E+03  0.94752266886E+03  0.44728593290E+03  0.11145370773E+04  0.46999998093E+01 0.  1.
       -5    1    3    3    0  502 -0.37987747079E+03 -0.94752266886E+03 -0.50738290412E+03  0.11399849132E+04  0.46999998093E+01 0. -1.
</event>
<event>
 5   0  0.1388269E-05  0.2856081E+04  0.7818609E-02  0.8286066E-01
       -2   -1    0    0    0  501  0.00000000000E+00  0.00000000000E+00  0.91051935850E+03  0.91051935851E+03  0.25500000920E-02 0. -1.
        2   -1    0    0  501    0  0.00000000000E+00  0.00000000000E+00 -0.22397101671E+04  0.22397101671E+04  0.25500000920E-02 0.  1.
    10030    2    1    2    0    0  0.00000000000E+00  0.00000000000E+00 -0.13291908086E+04  0.31502295256E+04  0.28560808564E+04 0.  0.
        1    1    3    3  502    0 -0.26699044724E+03 -0.45457158942E+02 -0.22111236148E+04  0.22276485118E+04  0.50400001928E-02 0.  1.
       -1    1    3    3    0  502  0.26699044724E+03  0.45457158942E+02  0.88193280624E+03  0.92258101377E+03  0.50400001928E-02 0. -1.
</event>
<event>
 5   0  0.4764214E-06  0.2822612E+04  0.7818609E-02  0.8296282E-01
       -1   -1    0    0    0  501  0.00000000000E+00  0.00000000000E+00  0.12691612719E+04  0.12691612719E+04  0.50400001928E-02 0. -1.
        1   -1    0    0  501    0  0.00000000000E+00  0.00000000000E+00 -0.15693712647E+04  0.15693712648E+04  0.50400001928E-02 0.  1.
    10030    2    1    2    0    0  0.00000000000E+00  0.00000000000E+00 -0.30020999281E+03  0.28385325367E+04  0.28226124286E+04 0.  0.
        3    1    3    3  502    0  0.10497791523E+04  0.90260571941E+03  0.12539612888E+03  0.13901286102E+04  0.10100000352E+00 0. -1.
       -3    1    3    3    0  502 -0.10497791523E+04 -0.90260571941E+03 -0.42560612168E+03  0.14484039265E+04  0.10100000352E+00 0.  1.
</event>
<event>
 5   0  0.1388269E-05  0.2806649E+04  0.7818609E-02  0.8301207E-01
        2   -1    0    0  501    0  0.00000000000E+00  0.00000000000E+00  0.20642206253E+04  0.20642206253E+04  0.25500000920E-02 0. -1.
       -2   -1    0    0    0  501  0.00000000000E+00  0.00000000000E+00 -0.95402585053E+03  0.95402585054E+03  0.25500000920E-02 0.  1.
    10030    2    1    2    0    0  0.00000000000E+00  0.00000000000E+00  0.11101947748E+04  0.30182464758E+04  0.28066491322E+04 0.  0.
        1    1    3    3  502    0 -0.21145069913E+03 -0.82811491435E+02  0.20443303944E+04  0.20569044467E+04  0.50400001928E-02 0. -1.
       -1    1    3    3    0  502  0.21145069913E+03  0.82811491435E+02 -0.93413561960E+03  0.96134202920E+03  0.50400001928E-02 0.  1.
</event>
<event>
 5   0  0.4764214E-06  0.2802130E+04  0.7818609E-02  0.8302607E-01
       -1   -1    0    0    0  501  0.00000000000E+00  0.00000000000E+00  0.18199172779E+04  0.18199172779E+04  0.50400001928E-02 0.  1.
        1   -1    0    0  501    0  0.00000000000E+00  0.00000000000E+00 -0.10786113200E+04  0.10786113200E+04  0.50400001928E-02 0. -1.
    10030    2    1    2    0    0  0.00000000000E+00  0.00000000000E+00  0.74130595793E+03  0.28985285979E+04  0.28021301736E+04 0.  0.
        3    1    3    3  502    0 -0.11984792511E+04 -0.20410805398E+03 -0.34970282181E+03  0.12650314964E+04  0.10100000352E+00 0. -1.
       -3    1    3    3    0  502  0.11984792511E+04  0.20410805398E+03  0.10910087797E+04  0.16334971015E+04  0.10100000352E+00 0.  1.
</event>
<event>
 5   0  0.5023691E-06  0.2826214E+04  0.7818609E-02  0.8295176E-01
        1   -1    0    0  501    0  0.00000000000E+00  0.00000000000E+00  0.21163226233E+04  0.21163226233E+04  0.50400001928E-02 0.  1.
       -1   -1    0    0    0  501  0.00000000000E+00  0.00000000000E+00 -0.94355715019E+03  0.94355715021E+03  0.50400001928E-02 0. -1.
    10030    2    1    2    0    0  0.00000000000E+00  0.00000000000E+00  0.11727654731E+04  0.30598797735E+04  0.28262139646E+04 0.  0.
        5    1    3    3  502    0 -0.12836459790E+04 -0.16890649012E+03  0.11993858708E+04  0.17648866703E+04  0.46999998093E+01 0.  1.
       -5    1    3    3    0  502  0.12836459790E+04  0.16890649012E+03 -0.26620397627E+02  0.12949931033E+04  0.46999998093E+01 0. -1.
</event>
<event>
 5   0  0.1330962E-05  0.2891901E+04  0.7818609E-02  0.8275291E-01
        2   -1    0    0  501    0  0.00000000000E+00  0.00000000000E+00  0.27787780494E+04  0.27787780494E+04  0.25500000920E-02 0.  1.
       -2   -1    0    0    0  501  0.00000000000E+00  0.00000000000E+00 -0.75240747924E+03  0.75240747925E+03  0.25500000920E-02 0. -1.
    10030    2    1    2    0    0  0.00000000000E+00  0.00000000000E+00  0.20263705702E+04  0.35311855287E+04  0.28919013728E+04 0.  0.
        4    1    3    3  502    0  0.11697424555E+04 -0.67590216157E+03  0.38385861769E+03  0.14044537000E+04  0.12699999809E+01 0. -1.
       -4    1    3    3    0  502 -0.11697424555E+04  0.67590216157E+03  0.16425119525E+04  0.21267318287E+04  0.12699999809E+01 0.  1.
</event>
<event>
 5   0  0.1302063E-05  0.2699551E+04  0.7818609E-02  0.8335151E-01
       -2   -1    0    0    0  501  0.00000000000E+00  0.00000000000E+00  0.85217459628E+03  0.85217459628E+03  0.25500000920E-02 0.  1.
        2   -1    0    0  501    0  0.00000000000E+00  0.00000000000E+00 -0.21379350911E+04  0.21379350911E+04  0.25500000920E-02 0. -1.
    10030    2    1    2    0    0  0.00000000000E+00  0.00000000000E+00 -0.12857604948E+04  0.29901096874E+04  0.26995510539E+04 0.  0.
        2    1    3    3  502    0 -0.73485608382E+03 -0.11295076085E+04 -0.55642054994E+03  0.14578767884E+04  0.25500000920E-02 0.  1.
       -2    1    3    3    0  502  0.73485608382E+03  0.11295076085E+04 -0.72933994491E+03  0.15322328990E+04  0.25500000920E-02 0. -1.
</event>
<event>
 5   0  0.5281919E-06  0.2797904E+04  0.7818609E-02  0.8303919E-01
        1   -1    0    0  501    0  0.00000000000E+00  0.00000000000E+00  0.20638982541E+04  0.20638982541E+04  0.50400001928E-02 0.  1.
       -1   -1    0    0    0  501  0.00000000000E+00  0.00000000000E+00 -0.94823808277E+03  0.94823808279E+03  0.50400001928E-02 0. -1.
    10030    2    1    2    0    0  0.00000000000E+00  0.00000000000E+00  0.11156601713E+04  0.30121363369E+04  0.27979041610E+04 0.  0.
        4    1    3    3  502    0 -0.47745338330E+03 -0.42410583765E+03  0.18978178591E+04  0.20023840126E+04  0.12699999809E+01 0.  1.
       -4    1    3    3    0  502  0.47745338330E+03  0.42410583765E+03 -0.78215768783E+03  0.10097523242E+04  0.12699999809E+01 0. -1.
</event>
<event>
 5   0  0.1283052E-05  0.2668156E+04  0.7818609E-02  0.8345412E-01
       -2   -1    0    0    0  501  0.00000000000E+00  0.00000000000E+00  0.86823625956E+03  0.86823625956E+03  0.25500000920E-02 0.  1.
        2   -1    0    0  501    0  0.00000000000E+00  0.00000000000E+00 -0.20498619501E+04  0.20498619501E+04  0.25500000920E-02 0. -1.
    10030    2    1    2    0    0  0.00000000000E+00  0.00000000000E+00 -0.11816256906E+04  0.29180982097E+04  0.26681562714E+04 0.  0.
        5    1    3    3  502    0  0.97686996029E+03  0.90495379104E+03 -0.67916465904E+03  0.14948254103E+04  0.46999998093E+01 0. -1.
       -5    1    3    3    0  502 -0.97686996029E+03 -0.90495379104E+03 -0.50246103153E+03  0.14232727994E+04  0.46999998093E+01 0.  1.
</event>
<event>
 5   0  0.5217999E-06  0.2810669E+04  0.7818609E-02  0.8299964E-01
        1   -1    0    0  501    0  0.00000000000E+00  0.00000000000E+00  0.13595280382E+04  0.13595280382E+04  0.50400001928E-02 0.  1.
       -1   -1    0    0    0  501  0.00000000000E+00  0.00000000000E+00 -0.14526839580E+04  0.14526839580E+04  0.50400001928E-02 0. -1.
    10030    2    1    2    0    0  0.00000000000E+00  0.00000000000E+00 -0.93155919809E+02  0.28122119963E+04  0.28106686547E+04 0.  0.
        1    1    3    3  502    0  0.86194829701E+03  0.85171109981E+03 -0.75872570240E+03  0.14296962460E+04  0.50400001928E-02 0. -1.
       -1    1    3    3    0  502 -0.86194829701E+03 -0.85171109981E+03  0.66556978259E+03  0.13825157503E+04  0.50400001928E-02 0.  1.
</event>
<event>
 5   0  0.1330962E-05  0.2649794E+04  0.7818609E-02  0.8351481E-01
        2   -1    0    0  501    0  0.00000000000E+00  0.00000000000E+00  0.22695018051E+04  0.22695018051E+04  0.25500000920E-02 0.  1.
       -2   -1    0    0    0  501  0.00000000000E+00  0.00000000000E+00 -0.77345245547E+03  0.77345245548E+03  0.25500000920E-02 0. -1.
    10030    2    1    2    0    0  0.00000000000E+00  0.00000000000E+00  0.14960493496E+04  0.30429542606E+04  0.26497937609E+04 0.  0.
        4    1    3    3  502    0  0.57592148400E+02 -0.11295603818E+04 -0.44375536295E+02  0.11318985435E+04  0.12699999809E+01 0. -1.
       -4    1    3    3    0  502 -0.57592148400E+02  0.11295603818E+04  0.15404248859E+04  0.19110557171E+04  0.12699999809E+01 0.  1.
</event>
<event>
 5   0  0.5107453E-06  0.2816625E+04  0.7818609E-02  0.8298125E-01
       -1   -1    0    0    0  501  0.00000000000E+00  0.00000000000E+00  0.15914147044E+04  0.15914147044E+04  0.50400001928E-02 0.  1.
        1   -1    0    0  501    0  0.00000000000E+00  0.00000000000E+00 -0.12462775202E+04  0.12462775203E+04  0.50400001928E-02 0. -1.
    10030    2    1    2    0    0  0.00000000000E+00  0.00000000000E+00  0.34513718415E+03  0.28376922247E+04  0.28166251944E+04 0.  0.
        2    1    3    3  502    0 -0.54963244457E+03 -0.11862666929E+04 -0.35481579313E+03  0.13547024536E+04  0.25500000920E-02 0. -1.
       -2    1    3    3    0  502  0.54963244457E+03  0.11862666929E+04  0.69995297728E+03  0.14829897711E+04  0.25500000920E-02 0.  1.
</event>
<event>
 5   0  0.5107453E-06  0.2817983E+04  0.7818609E-02  0.8297707E-01
       -1   -1    0    0    0  501  0.00000000000E+00  0.00000000000E+00  0.89147387199E+03  0.89147387201E+03  0.50400001928E-02 0. -1.
        1   -1    0    0  501    0  0.00000000000E+00  0.00000000000E+00 -0.22269386855E+04  0.22269386855E+04  0.50400001928E-02 0.  1.
    10030    2    1    2    0    0  0.00000000000E+00  0.00000000000E+00 -0.13354648135E+04  0.31184125575E+04  0.28179834298E+04 0.  0.
        2    1    3    3  502    0 -0.13841652162E+04 -0.14320208050E+03 -0.91228468841E+03  0.16639361569E+04  0.25500000920E-02 0.  1.
       -2    1    3    3    0  502  0.13841652162E+04  0.14320208050E+03 -0.42318012507E+03  0.14544764006E+04  0.25500000920E-02 0. -1.
</event>
<event>
 5   0  0.1302063E-05  0.2814402E+04  0.7818609E-02  0.8298811E-01
       -2   -1    0    0    0  501  0.00000000000E+00  0.00000000000E+00  0.11750543186E+04  0.11750543186E+04  0.25500000920E-02 0. -1.
        2   -1    0    0  501    0  0.00000000000E+00  0.00000000000E+00 -0.16852106498E+04  0.16852106498E+04  0.25500000920E-02 0.  1.
    10030    2    1    2    0    0  0.00000000000E+00  0.00000000000E+00 -0.51015633119E+03  0.28602649685E+04  0.28144015719E+04 0.  0.
        2    1    3    3  502    0  0.57010816360E+03 -0.32945684050E+03  0.10088316141E+04  0.12047017695E+04  0.25500000920E-02 0. -1.
       -2    1    3    3    0  502 -0.57010816360E+03  0.32945684050E+03 -0.15189879452E+04  0.16555631990E+04  0.25500000920E-02 0.  1.
</event>
<event>
 5   0  0.5023691E-06  0.2422586E+04  0.7818609E-02  0.8431096E-01
       -1   -1    0    0    0  501  0.00000000000E+00  0.00000000000E+00  0.99771120547E+03  0.99771120548E+03  0.50400001928E-02 0. -1.
        1   -1    0    0  501    0  0.00000000000E+00  0.00000000000E+00 -0.14705962281E+04  0.14705962281E+04  0.50400001928E-02 0.  1.
    10030    2    1    2    0    0  0.00000000000E+00  0.00000000000E+00 -0.47288502265E+03  0.24683074336E+04  0.24225856728E+04 0.  0.
        5    1    3    3  502    0  0.48288379762E+03  0.21073758271E+03  0.87483991352E+03  0.10212512203E+04  0.46999998093E+01 0. -1.
       -5    1    3    3    0  502 -0.48288379762E+03 -0.21073758271E+03 -0.13477249362E+04  0.14470562133E+04  0.46999998093E+01 0.  1.
</event>
<event>
 5   0  0.5217999E-06  0.2811043E+04  0.7818609E-02  0.8299848E-01
        1   -1    0    0  501    0  0.00000000000E+00  0.00000000000E+00  0.25600507836E+04  0.25600507836E+04  0.50400001928E-02 0. -1.
       -1   -1    0    0    0  501  0.00000000000E+00  0.00000000000E+00 -0.77166097221E+03  0.77166097223E+03  0.50400001928E-02 0.  1.
    10030    2    1    2    0    0  0.00000000000E+00  0.00000000000E+00  0.17883898113E+04  0.33317117558E+04  0.28110434195E+04 0.  0.
        1    1    3    3  502    0 -0.42551456489E+03 -0.92143442060E+01  0.24818373023E+04  0.25180675019E+04  0.50400001928E-02 0. -1.
       -1    1    3    3    0  502  0.42551456489E+03  0.92143442060E+01 -0.69344749098E+03  0.81364425386E+03  0.50400001928E-02 0.  1.
</event>
<event>
 5   0  0.5023691E-06  0.2895495E+04  0.7818609E-02  0.8274219E-01
        1   -1    0    0  501    0  0.00000000000E+00  0.00000000000E+00  0.19789551027E+04  0.19789551027E+04  0.50400001928E-02 0. -1.
       -1   -1    0    0    0  501  0.00000000000E+00  0.00000000000E+00 -0.10591309946E+04  0.10591309947E+04  0.50400001928E-02 0.  1.
    10030    2    1    2    0    0  0.00000000000E+00  0.00000000000E+00  0.91982410807E+03  0.30380860974E+04  0.28954949051E+04 0.  0.
        5    1    3    3  502    0  0.12468868947E+04  0.15791560888E+02  0.12316424160E+04  0.17526954763E+04  0.46999998093E+01 0. -1.
       -5    1    3    3    0  502 -0.12468868947E+04 -0.15791560888E+02 -0.31181830791E+03  0.12853906211E+04  0.46999998093E+01 0.  1.
</event>
<event>
 5   0  0.1302063E-05  0.2588594E+04  0.7818609E-02  0.8372086E-01
       -2   -1    0    0    0  501  0.00000000000E+00  0.00000000000E+00  0.81975055876E+03  0.81975055877E+03  0.25500000920E-02 0. -1.
        2   -1    0    0  501    0  0.00000000000E+00  0.00000000000E+00 -0.20435548238E+04  0.20435548238E+04  0.25500000920E-02 0.  1.
    10030    2    1    2    0    0  0.00000000000E+00  0.00000000000E+00 -0.12238042651E+04  0.28633053826E+04  0.25885943743E+04 0.  0.
        2    1    3    3  502    0 -0.11458262340E+04  0.21615923221E+03 -0.12332666572E+04  0.16972298666E+04  0.25500000920E-02 0.  1.
       -2    1    3    3    0  502  0.11458262340E+04 -0.21615923221E+03  0.94623921413E+01  0.11660755160E+04  0.25500000920E-02 0. -1.
</event>
<event>
 5   0  0.1302063E-05  0.3245121E+04  0.7818609E-02  0.8177001E-01
        2   -1    0    0  501    0  0.00000000000E+00  0.00000000000E+00  0.14289526635E+04  0.14289526635E+04  0.25500000920E-02 0. -1.
       -2   -1    0    0    0  501  0.00000000000E+00  0.00000000000E+00 -0.18424004116E+04  0.18424004116E+04  0.25500000920E-02 0.  1.
    10030    2    1    2    0    0  0.00000000000E+00  0.00000000000E+00 -0.41344774811E+03  0.32713530751E+04  0.32451212461E+04 0.  0.
        2    1    3    3  502    0 -0.30096626001E+03 -0.15485080475E+04 -0.58959008950E+03  0.16840648255E+04  0.25500000920E-02 0.  1.
       -2    1    3    3    0  502  0.30096626001E+03  0.15485080475E+04  0.17614234139E+03  0.15872882496E+04  0.25500000920E-02 0. -1.
</event>
<event>
 5   0  0.5217999E-06  0.2770643E+04  0.7818609E-02  0.8312441E-01
        1   -1    0    0  501    0  0.00000000000E+00  0.00000000000E+00  0.18555584274E+04  0.18555584274E+04  0.50400001928E-02 0. -1.
       -1   -1    0    0    0  501  0.00000000000E+00  0.00000000000E+00 -0.10342525041E+04  0.10342525041E+04  0.50400001928E-02 0.  1.
    10030    2    1    2    0    0  0.00000000000E+00  0.00000000000E+00  0.82130592330E+03  0.28898109315E+04  0.27706432105E+04 0.  0.
        1    1    3    3  502    0 -0.67584004652E+03 -0.55119699267E+03  0.15333019225E+04  0.17639707137E+04  0.50400001928E-02 0. -1.
       -1    1    3    3    0  502  0.67584004652E+03  0.55119699267E+03 -0.71199599915E+03  0.11258402178E+04  0.50400001928E-02 0.  1.
</event>
<event>
 5   0  0.1350863E-05  0.2819594E+04  0.7818609E-02  0.8297211E-01
       -2   -1    0    0    0  501  0.00000000000E+00  0.00000000000E+00  0.16015024406E+04  0.16015024406E+04  0.25500000920E-02 0.  1.
        2   -1    0    0  501    0  0.00000000000E+00  0.00000000000E+00 -0.12410394157E+04  0.12410394157E+04  0.25500000920E-02 0. -1.
    10030    2    1    2    0    0  0.00000000000E+00  0.00000000000E+00  0.36046302490E+03  0.28425418562E+04  0.28195940509E+04 0.  0.
        3    1    3    3  502    0 -0.66329932187E+03 -0.11809100328E+04 -0.21412104008E+03  0.13712630404E+04  0.10100000352E+00 0.  1.
       -3    1    3    3    0  502  0.66329932187E+03  0.11809100328E+04  0.57458406498E+03  0.14712788158E+04  0.10100000352E+00 0. -1.
</event>
<event>
 5   0  0.1350863E-05  0.2544289E+04  0.7818609E-02  0.8387375E-01
        2   -1    0    0  501    0  0.00000000000E+00  0.00000000000E+00  0.94713333675E+03  0.94713333676E+03  0.25500000920E-02 0. -1.
       -2   -1    0    0    0  501  0.00000000000E+00  0.00000000000E+00 -0.17086840947E+04  0.17086840947E+04  0.25500000920E-02 0.  1.
    10030    2    1    2    0    0  0.00000000000E+00  0.00000000000E+00 -0.76155075799E+03  0.26558174315E+04  0.25442890308E+04 0.  0.
        3    1    3    3  502    0 -0.43518726265E+02  0.42336349187E+03  0.87061718104E+03  0.96907420351E+03  0.10100000352E+00 0. -1.
       -3    1    3    3    0  502  0.43518726265E+02 -0.42336349187E+03 -0.16321679390E+04  0.16867432280E+04  0.10100000352E+00 0.  1.
</event>
<event>
 5   0  0.1330962E-05  0.2756741E+04  0.7818609E-02  0.8316826E-01
       -2   -1    0    0    0  501  0.00000000000E+00  0.00000000000E+00  0.15049351727E+04  0.15049351727E+04  0.25500000920E-02 0. -1.
        2   -1    0    0  501    0  0.00000000000E+00  0.00000000000E+00 -0.12624500830E+04  0.12624500830E+04  0.25500000920E-02 0.  1.
    10030    2    1    2    0    0  0.00000000000E+00  0.00000000000E+00  0.24248508972E+03  0.27673852557E+04  0.27567412165E+04 0.  0.
        4    1    3    3  502    0  0.88073280574E+03  0.10506688877E+04  0.26430079647E+03  0.13962277431E+04  0.12699999809E+01 0.  1.
       -4    1    3    3    0  502 -0.88073280574E+03 -0.10506688877E+04 -0.21815706760E+02  0.13711575127E+04  0.12699999809E+01 0. -1.
</event>
<event>
 5   0  0.5281919E-06  0.2786768E+04  0.7818609E-02  0.8307388E-01
       -1   -1    0    0    0  501  0.00000000000E+00  0.00000000000E+00  0.26021432399E+04  0.26021432399E+04  0.50400001928E-02 0.  1.
        1   -1    0    0  501    0  0.00000000000E+00  0.00000000000E+00 -0.74612302526E+03  0.74612302527E+03  0.50400001928E-02 0. -1.
    10030    2    1    2    0    0  0.00000000000E+00  0.00000000000E+00  0.18560202147E+04  0.33482662652E+04  0.27867680107E+04 0.  0.
        4    1    3    3  502    0  0.31144127399E+02 -0.13918092814E+04  0.99821584598E+03  0.17130497718E+04  0.12699999809E+01 0. -1.
       -4    1    3    3    0  502 -0.31144127399E+02  0.13918092814E+04  0.85780436870E+03  0.16352164934E+04  0.12699999809E+01 0.  1.
</event>
<event>
 5   0  0.5281919E-06  0.2700379E+04  0.7818609E-02  0.8334882E-01
        1   -1    0    0  501    0  0.00000000000E+00  0.00000000000E+00  0.19770611306E+04  0.19770611306E+04  0.50400001928E-02 0.  1.
       -1   -1    0    0    0  501  0.00000000000E+00  0.00000000000E+00 -0.92208144795E+03  0.92208144797E+03  0.50400001928E-02 0. -1.
    10030    2    1    2    0    0  0.00000000000E+00  0.00000000000E+00  0.10549796826E+04  0.28991425786E+04  0.27003787808E+04 0.  0.
        4    1    3    3  502    0 -0.10287956978E+04 -0.86754501808E+03  0.41010375951E+03  0.14068552351E+04  0.12699999809E+01 0. -1.
       -4    1    3    3    0  502  0.10287956978E+04  0.86754501808E+03  0.64487592312E+03  0.14922873434E+04  0.12699999809E+01 0.  1.
</event>
<event>
 5   0  0.1283052E-05  0.2799934E+04  0.7818609E-02  0.8303289E-01
       -2   -1    0    0    0  501  0.00000000000E+00  0.00000000000E+00  0.11084941138E+04  0.11084941138E+04  0.25500000920E-02 0. -1.
        2   -1    0    0  501    0  0.00000000000E+00  0.00000000000E+00 -0.17680815182E+04  0.17680815182E+04  0.25500000920E-02 0.  1.
    10030    2    1    2    0    0  0.00000000000E+00  0.00000000000E+00 -0.65958740434E+03  0.28765756320E+04  0.27999342533E+04 0.  0.
        5    1    3    3  502    0 -0.75382864022E+03  0.50683703337E+02 -0.15406382034E+04  0.17159296665E+04  0.46999998093E+01 0.  1.
       -5    1    3    3    0  502  0.75382864022E+03 -0.50683703337E+02  0.88105079909E+03  0.11606459655E+04  0.46999998093E+01 0. -1.
</event>
<event>
 5   0  0.5281919E-06  0.2803366E+04  0.7818609E-02  0.8302224E-01
       -1   -1    0    0    0  501  0.00000000000E+00  0.00000000000E+00  0.14028305451E+04  0.14028305451E+04  0.50400001928E-02 0. -1.
        1   -1    0    0  501    0  0.00000000000E+00  0.00000000000E+00 -0.14005361546E+04  0.14005361546E+04  0.50400001928E-02 0.  1.
    10030    2    1    2    0    0  0.00000000000E+00  0.00000000000E+00  0.22943905548E+01  0.28033666997E+04  0.28033657608E+04 0.  0.
        4    1    3    3  502    0 -0.12041829185E+04 -0.70161118783E+03 -0.14851421968E+03  0.14015608608E+04  0.12699999809E+01 0.  1.
       -4    1    3    3    0  502  0.12041829185E+04  0.70161118783E+03  0.15080861024E+03  0.14018058389E+04  0.12699999809E+01 0. -1.
</event>
<event>
 5   0  0.1350863E-05  0.2843956E+04  0.7818609E-02  0.8289750E-01
       -2   -1    0    0    0  501  0.00000000000E+00  0.00000000000E+00  0.13926977802E+04  0.13926977802E+04  0.25500000920E-02 0. -1.
        2   -1    0    0  501    0  0.00000000000E+00  0.00000000000E+00 -0.14518739067E+04  0.14518739067E+04  0.25500000920E-02 0.  1.
    10030    2    1    2    0    0  0.00000000000E+00  0.00000000000E+00 -0.59176126483E+02  0.28445716868E+04  0.28439560945E+04 0.  0.
        3    1    3    3  502    0 -0.58462478823E+03  0.51360740120E+02 -0.13250894410E+04  0.14492363871E+04  0.10100000352E+00 0.  1.
       -3    1    3    3    0  502  0.58462478823E+03 -0.51360740120E+02  0.12659133146E+04  0.13953352998E+04  0.10100000352E+00 0. -1.
</event>
<event>
 5   0  0.1283052E-05  0.2776388E+04  0.7818609E-02  0.8310637E-01
        2   -1    0    0  501    0  0.00000000000E+00  0.00000000000E+00  0.11647507788E+04  0.11647507788E+04  0.25500000920E-02 0.  1.
       -2   -1    0    0    0  501  0.00000000000E+00  0.00000000000E+00 -0.16545017278E+04  0.16545017278E+04  0.25500000920E-02 0. -1.
    10030    2    1    2    0    0  0.00000000000E+00  0.00000000000E+00 -0.48975094899E+03  0.28192525066E+04  0.27763877078E+04 0.  0.
        5    1    3    3  502    0  0.10807229026E+04 -0.85483760820E+03 -0.73899064163E+02  0.13799248133E+04  0.46999998093E+01 0.  1.
       -5    1    3    3    0  502 -0.10807229026E+04  0.85483760820E+03 -0.41585188483E+03  0.14393276933E+04  0.46999998093E+01 0. -1.
</event>
<event>
 5   0  0.5281919E-06  0.2797905E+04  0.7818609E-02  0.8303919E-01
        1   -1    0    0  501    0  0.00000000000E+00  0.00000000000E+00  0.25779027107E+04  0.25779027107E+04  0.50400001928E-02 0. -1.
       -1   -1    0    0    0  501  0.00000000000E+00  0.00000000000E+00 -0.75917076228E+03  0.75917076230E+03  0.50400001928E-02 0.  1.
    10030    2    1    2    0    0  0.00000000000E+00  0.00000000000E+00  0.18187319484E+04  0.33370734730E+04  0.27979051921E+04 0.  0.
        4    1    3    3  502    0  0.80493314961E+03 -0.29082056261E+03  0.22292174884E+04  0.23878664532E+04  0.12699999809E+01 0. -1.
       -4    1    3    3    0  502 -0.80493314961E+03  0.29082056261E+03 -0.41048553997E+03  0.94920701978E+03  0.12699999809E+01 0.  1.
</event>
<event>
 5   0  0.4764214E-06  0.2775578E+04  0.7818609E-02  0.8310891E-01
        1   -1    0    0  501    0  0.00000000000E+00  0.00000000000E+00  0.14483226118E+04  0.14483226118E+04  0.50400001928E-02 0.  1.
       -1   -1    0    0    0  501  0.00000000000E+00  0.00000000000E+00 -0.13297853637E+04  0.13297853637E+04  0.50400001928E-02 0. -1.
    10030    2    1    2    0    0  0.00000000000E+00  0.00000000000E+00  0.11853724809E+03  0.27781079755E+04  0.27755779298E+04 0.  0.
        3    1    3    3  502    0 -0.40147252253E+03 -0.19696288651E+03  0.13742331371E+04  0.14451613371E+04  0.10100000352E+00 0.  1.
       -3    1    3    3    0  502  0.40147252253E+03  0.19696288651E+03 -0.12556958890E+04  0.13329466384E+04  0.10100000352E+00 0. -1.
</event>
<event>
 5   0  0.5281919E-06  0.2842970E+04  0.7818609E-02  0.8290051E-01
        1   -1    0    0  501    0  0.00000000000E+00  0.00000000000E+00  0.21451476444E+04  0.21451476444E+04  0.50400001928E-02 0. -1.
       -1   -1    0    0    0  501  0.00000000000E+00  0.00000000000E+00 -0.94194874549E+03  0.94194874551E+03  0.50400001928E-02 0.  1.
    10030    2    1    2    0    0  0.00000000000E+00  0.00000000000E+00  0.12031988989E+04  0.30870963899E+04  0.28429696675E+04 0.  0.
        4    1    3    3  502    0  0.38090012143E+03 -0.58911978964E+02 -0.88412433961E+03  0.96448586541E+03  0.12699999809E+01 0.  1.
       -4    1    3    3    0  502 -0.38090012143E+03  0.58911978964E+02  0.20873232385E+04  0.21226105245E+04  0.12699999809E+01 0. -1.
</event>
<event>
 5   0  0.1283052E-05  0.2781466E+04  0.7818609E-02  0.8309045E-01
        2   -1    0    0  501    0  0.00000000000E+00  0.00000000000E+00  0.17870265663E+04  0.17870265663E+04  0.25500000920E-02 0. -1.
       -2   -1    0    0    0  501  0.00000000000E+00  0.00000000000E+00 -0.10823224356E+04  0.10823224356E+04  0.25500000920E-02 0.  1.
    10030    2    1    2    0    0  0.00000000000E+00  0.00000000000E+00  0.70470413067E+03  0.28693490019E+04  0.27814664807E+04 0.  0.
        5    1    3    3  502    0  0.21474595732E+03 -0.31780642481E+03 -0.10266719636E+04  0.10959900367E+04  0.46999998093E+01 0.  1.
       -5    1    3    3    0  502 -0.21474595732E+03  0.31780642481E+03  0.17313760942E+04  0.17733589652E+04  0.46999998093E+01 0. -1.
</event>
<event>
 5   0  0.5281919E-06  0.2810516E+04  0.7818609E-02  0.8300011E-01
       -1   -1    0    0    0  501  0.00000000000E+00  0.00000000000E+00  0.11247681515E+04  0.11247681515E+04  0.50400001928E-02 0.  1.
        1   -1    0    0  501    0  0.00000000000E+00  0.00000000000E+00 -0.17556958157E+04  0.17556958158E+04  0.50400001928E-02 0. -1.
    10030    2    1    2    0    0  0.00000000000E+00  0.00000000000E+00 -0.63092766427E+03  0.28804639672E+04  0.28105164915E+04 0.  0.
        4    1    3    3  502    0 -0.27277130537E+03  0.91504959201E+03 -0.13721570076E+04  0.16716866953E+04  0.12699999809E+01 0. -1.
       -4    1    3    3    0  502  0.27277130537E+03 -0.91504959201E+03  0.74122934332E+03  0.12087772719E+04  0.12699999809E+01 0.  1.
</event>
<event>
 5   0  0.5107453E-06  0.2802300E+04  0.7818609E-02  0.8302555E-01
        1   -1    0    0  501    0  0.00000000000E+00  0.00000000000E+00  0.25802825307E+04  0.25802825307E+04  0.50400001928E-02 0. -1.
       -1   -1    0    0    0  501  0.00000000000E+00  0.00000000000E+00 -0.76085529968E+03  0.76085529969E+03  0.50400001928E-02 0.  1.
    10030    2    1    2    0    0  0.00000000000E+00  0.00000000000E+00  0.18194272310E+04  0.33411378304E+04  0.28023002253E+04 0.  0.
        2    1    3    3  502    0 -0.51071948836E+03 -0.88003969848E+03 -0.23879533121E+03  0.10451447158E+04  0.25500000920E-02 0.  1.
       -2    1    3    3    0  502  0.51071948836E+03  0.88003969848E+03  0.20582225622E+04  0.22959931146E+04  0.25500000920E-02 0. -1.
</event>
<event>
 5   0  0.5023691E-06  0.2826844E+04  0.7818609E-02  0.8294983E-01
       -1   -1    0    0    0  501  0.00000000000E+00  0.00000000000E+00  0.13065579972E+04  0.13065579972E+04  0.50400001928E-02 0. -1.
        1   -1    0    0  501    0  0.00000000000E+00  0.00000000000E+00 -0.15290264448E+04  0.15290264448E+04  0.50400001928E-02 0.  1.
    10030    2    1    2    0    0  0.00000000000E+00  0.00000000000E+00 -0.22246844759E+03  0.28355844419E+04  0.28268439853E+04 0.  0.
        5    1    3    3  502    0 -0.25640188169E+03 -0.84115822551E+03 -0.12212045552E+04  0.15048759885E+04  0.46999998093E+01 0.  1.
       -5    1    3    3    0  502  0.25640188169E+03  0.84115822551E+03  0.99873610760E+03  0.13307084534E+04  0.46999998093E+01 0. -1.
</event>
<event>
 5   0  0.1302063E-05  0.2794707E+04  0.7818609E-02  0.8304913E-01
       -2   -1    0    0    0  501  0.00000000000E+00  0.00000000000E+00  0.12217148590E+04  0.12217148590E+04  0.25500000920E-02 0.  1.
        2   -1    0    0  501    0  0.00000000000E+00  0.00000000000E+00 -0.15982428599E+04  0.15982428599E+04  0.25500000920E-02 0. -1.
    10030    2    1    2    0    0  0.00000000000E+00  0.00000000000E+00 -0.37652800088E+03  0.28199577188E+04  0.27947071762E+04 0.  0.
        2    1    3    3  502    0 -0.13108906700E+04 -0.33028182718E+03 -0.54512110564E+03  0.14576273371E+04  0.25500000920E-02 0.  1.
       -2    1    3    3    0  502  0.13108906700E+04  0.33028182718E+03  0.16859310476E+03  0.13623303817E+04  0.25500000920E-02 0. -1.
</event>
<event>
 5   0  0.1330962E-05  0.2754491E+04  0.7818609E-02  0.8317538E-01
        2   -1    0    0  501    0  0.00000000000E+00  0.00000000000E+00  0.12945266978E+04  0.12945266978E+04  0.25500000920E-02 0.  1.
       -2   -1    0    0    0  501  0.00000000000E+00  0.00000000000E+00 -0.14652502829E+04  0.14652502829E+04  0.25500000920E-02 0. -1.
    10030    2    1    2    0    0  0.00000000000E+00  0.00000000000E+00 -0.17072358508E+03  0.27597769807E+04  0.27544913216E+04 0.  0.
        4    1    3    3  502    0 -0.38181316053E+03 -0.55449480028E+03 -0.12891490231E+04  0.14543564177E+04  0.12699999809E+01 0. -1.
       -4    1    3    3    0  502  0.38181316053E+03  0.55449480028E+03  0.11184254380E+04  0.13054205630E+04  0.12699999809E+01 0.  1.
</event>
<event>
 5   0  0.1350863E-05  0.2920244E+04  0.7818609E-02  0.8266880E-01
        2   -1    0    0  501    0  0.00000000000E+00  0.00000000000E+00  0.20807200945E+04  0.20807200945E+04  0.25500000920E-02 0. -1.
       -2   -1    0    0    0  501  0.00000000000E+00  0.00000000000E+00 -0.10246240836E+04  0.10246240836E+04  0.25500000920E-02 0.  1.
    10030    2    1    2    0    0  0.00000000000E+00  0.00000000000E+00  0.10560960109E+04  0.31053441782E+04  0.29202437708E+04 0.  0.
        3    1    3    3  502    0  0.10457666310E+04 -0.17996739023E+03  0.15945867375E+04  0.19153910779E+04  0.10100000352E+00 0. -1.
       -3    1    3    3    0  502 -0.10457666310E+04  0.17996739023E+03 -0.53849072655E+03  0.11899531002E+04  0.10100000352E+00 0.  1.
</event>
<event>
 5   0  0.5217999E-06  0.2786573E+04  0.7818609E-02  0.8307449E-01
        1   -1    0    0  501    0  0.00000000000E+00  0.00000000000E+00  0.12406033517E+04  0.12406033517E+04  0.50400001928E-02 0.  1.
       -1   -1    0    0    0  501  0.00000000000E+00  0.00000000000E+00 -0.15647609483E+04  0.15647609483E+04  0.50400001928E-02 0. -1.
    10030    2    1    2    0    0  0.00000000000E+00  0.00000000000E+00 -0.32415759655E+03  0.28053643000E+04  0.27865732914E+04 0.  0.
        1    1    3    3  502    0  0.48239298931E+03  0.12122176242E+04 -0.65432702890E+03  0.14595610385E+04  0.50400001928E-02 0. -1.
       -1    1    3    3    0  502 -0.48239298931E+03 -0.12122176242E+04  0.33016943235E+03  0.13458032614E+04  0.50400001928E-02 0.  1.
</event>
<event>
 5   0  0.4764214E-06  0.2830494E+04  0.7818609E-02  0.8293863E-01
       -1   -1    0    0    0  501  0.00000000000E+00  0.00000000000E+00  0.10682435223E+04  0.10682435224E+04  0.50400001928E-02 0. -1.
        1   -1    0    0  501    0  0.00000000000E+00  0.00000000000E+00 -0.18749694456E+04  0.18749694456E+04  0.50400001928E-02 0.  1.
    10030    2    1    2    0    0  0.00000000000E+00  0.00000000000E+00 -0.80672592322E+03  0.29432129679E+04  0.28304939250E+04 0.  0.
        3    1    3    3  502    0  0.12299765830E+04 -0.69827240790E+03 -0.45532503846E+03  0.14858491347E+04  0.10100000352E+00 0. -1.
       -3    1    3    3    0  502 -0.12299765830E+04  0.69827240790E+03 -0.35140088476E+03  0.14573638332E+04  0.10100000352E+00 0.  1.
</event>
<event>
 5   0  0.5023691E-06  0.2752638E+04  0.7818609E-02  0.8318125E-01
       -1   -1    0    0    0  501  0.00000000000E+00  0.00000000000E+00  0.12366139188E+04  0.12366139188E+04  0.50400001928E-02 0. -1.
        1   -1    0    0  501    0  0.00000000000E+00  0.00000000000E+00 -0.15318070973E+04  0.15318070973E+04  0.50400001928E-02 0.  1.
    10030    2    1    2    0    0  0.00000000000E+00  0.00000000000E+00 -0.29519317851E+03  0.27684210160E+04  0.27526379910E+04 0.  0.
        5    1    3    3  502    0  0.23284619104E+03 -0.44552901478E+03 -0.14361603708E+04  0.15216084096E+04  0.46999998093E+01 0.  1.
       -5    1    3    3    0  502 -0.23284619104E+03  0.44552901478E+03  0.11409671923E+04  0.12468126064E+04  0.46999998093E+01 0. -1.
</event>
<event>
 5   0  0.5023691E-06  0.2057493E+04  0.7818609E-02  0.8580203E-01
       -1   -1    0    0    0  501  0.00000000000E+00  0.00000000000E+00  0.12225731393E+04  0.12225731393E+04  0.50400001928E-02 0.  1.
        1   -1    0    0  501    0  0.00000000000E+00  0.00000000000E+00 -0.86564897776E+03  0.86564897778E+03  0.50400001928E-02 0. -1.
    10030    2    1    2    0    0  0.00000000000E+00  0.00000000000E+00  0.35692416155E+03  0.20882221171E+04  0.20574928319E+04 0.  0.
        5    1    3    3  502    0 -0.82739029340E+03 -0.59108499596E+03  0.33680801931E+03  0.10711759435E+04  0.46999998093E+01 0.  1.
       -5    1    3    3    0  502  0.82739029340E+03  0.59108499596E+03  0.20116142234E+02  0.10170461736E+04  0.46999998093E+01 0. -1.
</event>
<event>
 5   0  0.1302063E-05  0.2803259E+04  0.7818609E-02  0.8302257E-01
        2   -1    0    0  501    0  0.00000000000E+00  0.00000000000E+00  0.29355225458E+04  0.29355225458E+04  0.25500000920E-02 0.  1.
       -2   -1    0    0    0  501  0.00000000000E+00  0.00000000000E+00 -0.66923850497E+03  0.66923850498E+03  0.25500000920E-02 0. -1.
    10030    2    1    2    0    0  0.00000000000E+00  0.00000000000E+00  0.22662840408E+04  0.36047610508E+04  0.28032586180E+04 0.  0.
        2    1    3    3  502    0  0.46134494349E+03 -0.15320168850E+03 -0.55736587126E+03  0.73957192260E+03  0.25500000920E-02 0. -1.
       -2    1    3    3    0  502 -0.46134494349E+03  0.15320168850E+03  0.28236499121E+04  0.28651891282E+04  0.25500000920E-02 0.  1.
</event>
<event>
 5   0  0.1302063E-05  0.2777619E+04  0.7818609E-02  0.8310251E-01
       -2   -1    0    0    0  501  0.00000000000E+00  0.00000000000E+00  0.78166072708E+03  0.78166072708E+03  0.25500000920E-02 0.  1.
        2   -1    0    0  501    0  0.00000000000E+00  0.00000000000E+00 -0.24675567926E+04  0.24675567926E+04  0.25500000920E-02 0. -1.
    10030    2    1    2    0    0  0.00000000000E+00  0.00000000000E+00 -0.16858960655E+04  0.32492175197E+04  0.27776192948E+04 0.  0.
        2    1    3    3  502    0 -0.26107278464E+03  0.13573701631E+04 -0.10006716658E+04  0.17064455870E+04  0.25500000920E-02 0. -1.
       -2    1    3    3    0  502  0.26107278464E+03 -0.13573701631E+04 -0.68522439970E+03  0.15427719327E+04  0.25500000920E-02 0.  1.
</event>
<event>
 5   0  0.4764214E-06  0.2760093E+04  0.7818609E-02  0.8315766E-01
        1   -1    0    0  501    0  0.00000000000E+00  0.00000000000E+00  0.25106410914E+04  0.25106410914E+04  0.50400001928E-02 0.  1.
       -1   -1    0    0    0  501  0.00000000000E+00  0.00000000000E+00 -0.75858267820E+03  0.75858267821E+03  0.50400001928E-02 0. -1.
    10030    2    1    2    0    0  0.00000000000E+00  0.00000000000E+00  0.17520584132E+04  0.32692237696E+04  0.27600933630E+04 0.  0.
        3    1    3    3  502    0 -0.14052443449E+03  0.54367397801E+03  0.23692024439E+04  0.24348405987E+04  0.10100000352E+00 0.  1.
       -3    1    3    3    0  502  0.14052443449E+03 -0.54367397801E+03 -0.61714403067E+03  0.83438317088E+03  0.10100000352E+00 0. -1.
</event>
<event>
 5   0  0.5217999E-06  0.2795492E+04  0.7818609E-02  0.8304669E-01
        1   -1    0    0  501    0  0.00000000000E+00  0.00000000000E+00  0.14074832320E+04  0.14074832320E+04  0.50400001928E-02 0.  1.
       -1   -1    0    0    0  501  0.00000000000E+00  0.00000000000E+00 -0.13880761326E+04  0.13880761326E+04  0.50400001928E-02 0. -1.
    10030    2    1    2    0    0  0.00000000000E+00  0.00000000000E+00  0.19407099312E+02  0.27955593646E+04  0.27954920006E+04 0.  0.
        1    1    3    3  502    0  0.20396062387E+03  0.15382222847E+03  0.13839392212E+04  0.14073197867E+04  0.50400001928E-02 0.  1.
       -1    1    3    3    0  502 -0.20396062387E+03 -0.15382222847E+03 -0.13645321219E+04  0.13882395779E+04  0.50400001928E-02 0. -1.
</event>
<event>
 5   0  0.1388269E-05  0.2817882E+04  0.7818609E-02  0.8297738E-01
        2   -1    0    0  501    0  0.00000000000E+00  0.00000000000E+00  0.13441110799E+04  0.13441110799E+04  0.25500000920E-02 0. -1.
       -2   -1    0    0    0  501  0.00000000000E+00  0.00000000000E+00 -0.14768975344E+04  0.14768975345E+04  0.25500000920E-02 0.  1.
    10030    2    1    2    0    0  0.00000000000E+00  0.00000000000E+00 -0.13278645453E+03  0.28210086144E+04  0.28178817150E+04 0.  0.
        1    1    3    3  502    0  0.57490821648E+03 -0.70984647030E+03 -0.11402964330E+04  0.14610535322E+04  0.50400001928E-02 0.  1.
       -1    1    3    3    0  502 -0.57490821648E+03  0.70984647030E+03  0.10075099785E+04  0.13599550822E+04  0.50400001928E-02 0. -1.
</event>
<event>
 5   0  0.1283052E-05  0.2802174E+04  0.7818609E-02  0.8302594E-01
       -2   -1    0    0    0  501  0.00000000000E+00  0.00000000000E+00  0.93959848407E+03  0.93959848408E+03  0.25500000920E-02 0. -1.
        2   -1    0    0  501    0  0.00000000000E+00  0.00000000000E+00 -0.20892381813E+04  0.20892381813E+04  0.25500000920E-02 0.  1.
    10030    2    1    2    0    0  0.00000000000E+00  0.00000000000E+00 -0.11496396972E+04  0.30288366654E+04  0.28021741759E+04 0.  0.
        5    1    3    3  502    0  0.19528943827E+02  0.13319097627E+04 -0.10443011225E+04  0.16926168852E+04  0.46999998093E+01 0.  1.
       -5    1    3    3    0  502 -0.19528943827E+02 -0.13319097627E+04 -0.10533857476E+03  0.13362197802E+04  0.46999998093E+01 0. -1.
</event>
<event>
 5   0  0.5107453E-06  0.2806310E+04  0.7818609E-02  0.8301312E-01
        1   -1    0    0  501    0  0.00000000000E+00  0.00000000000E+00  0.16609437872E+04  0.16609437872E+04  0.50400001928E-02 0.  1.
       -1   -1    0    0    0  501  0.00000000000E+00  0.00000000000E+00 -0.11853766836E+04  0.11853766836E+04  0.50400001928E-02 0. -1.
    10030    2    1    2    0    0  0.00000000000E+00  0.00000000000E+00  0.47556710366E+03  0.28463204708E+04  0.28063100599E+04 0.  0.
        2    1    3    3  502    0  0.78977982157E+03 -0.11353792072E+04 -0.22462353166E+01  0.13830557314E+04  0.25500000920E-02 0.  1.
       -2    1    3    3    0  502 -0.78977982157E+03  0.11353792072E+04  0.47781333897E+03  0.14632647394E+04  0.25500000920E-02 0. -1.
</event>
<event>
 5   0  0.5107453E-06  0.2776329E+04  0.7818609E-02  0.8310655E-01
       -1   -1    0    0    0  501  0.00000000000E+00  0.00000000000E+00  0.96504484435E+03  0.96504484437E+03  0.50400001928E-02 0. -1.
        1   -1    0    0  501    0  0.00000000000E+00  0.00000000000E+00 -0.19967996322E+04  0.19967996322E+04  0.50400001928E-02 0.  1.
    10030    2    1    2    0    0  0.00000000000E+00  0.00000000000E+00 -0.10317547878E+04  0.29618444765E+04  0.27763293683E+04 0.  0.
        2    1    3    3  502    0  0.10092029717E+03 -0.14035726791E+02  0.96105014970E+03  0.96643639121E+03  0.25500000920E-02 0. -1.
       -2    1    3    3    0  502 -0.10092029717E+03  0.14035726791E+02 -0.19928049375E+04  0.19954080853E+04  0.25500000920E-02 0.  1.
</event>
<event>
 5   0  0.4764214E-06  0.2493381E+04  0.7818609E-02  0.8405347E-01
        1   -1    0    0  501    0  0.00000000000E+00  0.00000000000E+00  0.10289261378E+04  0.10289261378E+04  0.50400001928E-02 0.  1.
       -1   -1    0    0    0  501  0.00000000000E+00  0.00000000000E+00 -0.15105435374E+04  0.15105435374E+04  0.50400001928E-02 0. -1.
    10030    2    1    2    0    0  0.00000000000E+00  0.00000000000E+00 -0.48161739959E+03  0.25394696752E+04  0.24933814213E+04 0.  0.
        3    1    3    3  502    0 -0.56541996311E+03  0.10296401038E+04  0.18449748851E+03  0.11890743507E+04  0.10100000352E+00 0.  1.
       -3    1    3    3    0  502  0.56541996311E+03 -0.10296401038E+04 -0.66611488810E+03  0.13503953245E+04  0.10100000352E+00 0. -1.
</event>
<event>
 5   0  0.1350863E-05  0.2793754E+04  0.7818609E-02  0.8305210E-01
        2   -1    0    0  501    0  0.00000000000E+00  0.00000000000E+00  0.13575369787E+04  0.13575369787E+04  0.25500000920E-02 0.  1.
       -2   -1    0    0    0  501  0.00000000000E+00  0.00000000000E+00 -0.14373566879E+04  0.14373566879E+04  0.25500000920E-02 0. -1.
    10030    2    1    2    0    0  0.00000000000E+00  0.00000000000E+00 -0.79819709210E+02  0.27948936666E+04  0.27937536437E+04 0.  0.
        3    1    3    3  502    0  0.42901392602E+03 -0.88727295135E+03  0.95042268344E+03  0.13691638055E+04  0.10100000352E+00 0.  1.
       -3    1    3    3    0  502 -0.42901392602E+03  0.88727295135E+03 -0.10302423927E+04  0.14257298611E+04  0.10100000352E+00 0. -1.
</event>
<event>
 5   0  0.5023691E-06  0.2724458E+04  0.7818609E-02  0.8327113E-01
        1   -1    0    0  501    0  0.00000000000E+00  0.00000000000E+00  0.96155414246E+03  0.96155414248E+03  0.50400001928E-02 0. -1.
       -1   -1    0    0    0  501  0.00000000000E+00  0.00000000000E+00 -0.19298631797E+04  0.19298631797E+04  0.50400001928E-02 0.  1.
    10030    2    1    2    0    0  0.00000000000E+00  0.00000000000E+00 -0.96830903721E+03  0.28914173222E+04  0.27244580634E+04 0.  0.
        5    1    3    3  502    0 -0.10683768186E+04  0.40767834004E+03  0.30149156357E+03  0.11826030223E+04  0.46999998093E+01 0. -1.
       -5    1    3    3    0  502  0.10683768186E+04 -0.40767834004E+03 -0.12698006008E+04  0.17088142998E+04  0.46999998093E+01 0.  1.
</event>
<event>
 5   0  0.5107453E-06  0.2805637E+04  0.7818609E-02  0.8301520E-01
       -1   -1    0    0    0  501  0.00000000000E+00  0.00000000000E+00  0.15774444026E+04  0.15774444026E+04  0.50400001928E-02 0. -1.
        1   -1    0    0  501    0  0.00000000000E+00  0.00000000000E+00 -0.12475243431E+04  0.12475243431E+04  0.50400001928E-02 0.  1.
    10030    2    1    2    0    0  0.00000000000E+00  0.00000000000E+00  0.32992005949E+03  0.28249687457E+04  0.28056373908E+04 0.  0.
        2    1    3    3  502    0 -0.13293517554E+04 -0.43835597319E+03  0.25816262470E+03  0.14233692387E+04  0.25500000920E-02 0.  1.
       -2    1    3    3    0  502  0.13293517554E+04  0.43835597319E+03  0.71757434786E+02  0.14015995071E+04  0.25500000920E-02 0. -1.
</event>
<event>
 5   0  0.1350863E-05  0.2768205E+04  0.7818609E-02  0.8313208E-01
        2   -1    0    0  501    0  0.00000000000E+00  0.00000000000E+00  0.15208215234E+04  0.15208215234E+04  0.25500000920E-02 0.  1.
       -2   -1    0    0    0  501  0.00000000000E+00  0.00000000000E+00 -0.12596740573E+04  0.12596740573E+04  0.25500000920E-02 0. -1.
    10030    2    1    2    0    0  0.00000000000E+00  0.00000000000E+00  0.26114746608E+03  0.27804955807E+04  0.27682047748E+04 0.  0.
        3    1    3    3  502    0 -0.35380881850E+03  0.68182648508E+03 -0.10259164079E+04  0.12816288550E+04  0.10100000352E+00 0. -1.
       -3    1    3    3    0  502  0.35380881850E+03 -0.68182648508E+03  0.12870638739E+04  0.14988667258E+04  0.10100000352E+00 0.  1.
</event>
<event>
 5   0  0.1283052E-05  0.2784845E+04  0.7818609E-02  0.8307989E-01
        2   -1    0    0  501    0  0.00000000000E+00  0.00000000000E+00  0.95664432749E+03  0.95664432749E+03  0.25500000920E-02 0.  1.
       -2   -1    0    0    0  501  0.00000000000E+00  0.00000000000E+00 -0.20267102669E+04  0.20267102669E+04  0.25500000920E-02 0. -1.
    10030    2    1    2    0    0  0.00000000000E+00  0.00000000000E+00 -0.10700659394E+04  0.29833545944E+04  0.27848453316E+04 0.  0.
        5    1    3    3  502    0  0.80063080659E+03  0.11059693465E+03  0.67962195066E+03  0.10560063713E+04  0.46999998093E+01 0.  1.
       -5    1    3    3    0  502 -0.80063080659E+03 -0.11059693465E+03 -0.17496878901E+04  0.19273482231E+04  0.46999998093E+01 0. -1.
</event>
<event>
 5   0  0.1283052E-05  0.2807813E+04  0.7818609E-02  0.8300847E-01
        2   -1    0    0  501    0  0.00000000000E+00  0.00000000000E+00  0.11772136404E+04  0.11772136404E+04  0.25500000920E-02 0.  1.
       -2   -1    0    0    0  501  0.00000000000E+00  0.00000000000E+00 -0.16742529150E+04  0.16742529150E+04  0.25500000920E-02 0. -1.
    10030    2    1    2    0    0  0.00000000000E+00  0.00000000000E+00 -0.49703927461E+03  0.28514665554E+04  0.28078129346E+04 0.  0.
        5    1    3    3  502    0 -0.13579949452E+04  0.10115015912E+03  0.98181769867E+02  0.13652997385E+04  0.46999998093E+01 0.  1.
       -5    1    3    3    0  502  0.13579949452E+04 -0.10115015912E+03 -0.59522104448E+03  0.14861668169E+04  0.46999998093E+01 0. -1.
</event>
<event>
 5   0  0.1283052E-05  0.2779521E+04  0.7818609E-02  0.8309655E-01
        2   -1    0    0  501    0  0.00000000000E+00  0.00000000000E+00  0.14617260975E+04  0.14617260975E+04  0.25500000920E-02 0. -1.
       -2   -1    0    0    0  501  0.00000000000E+00  0.00000000000E+00 -0.13213379251E+04  0.13213379251E+04  0.25500000920E-02 0.  1.
    10030    2    1    2    0    0  0.00000000000E+00  0.00000000000E+00  0.14038817241E+03  0.27830640226E+04  0.27795209147E+04 0.  0.
        5    1    3    3  502    0  0.31775491341E+03  0.45174315584E+03 -0.12067244515E+04  0.13271194580E+04  0.46999998093E+01 0.  1.
       -5    1    3    3    0  502 -0.31775491341E+03 -0.45174315584E+03  0.13471126239E+04  0.14559445647E+04  0.46999998093E+01 0. -1.
</event>
<event>
 5   0  0.1302063E-05  0.2817595E+04  0.7818609E-02  0.8297827E-01
        2   -1    0    0  501    0  0.00000000000E+00  0.00000000000E+00  0.16780330781E+04  0.16780330781E+04  0.25500000920E-02 0. -1.
       -2   -1    0    0    0  501  0.00000000000E+00  0.00000000000E+00 -0.11827597703E+04  0.11827597703E+04  0.25500000920E-02 0.  1.
    10030    2    1    2    0    0  0.00000000000E+00  0.00000000000E+00  0.49527330787E+03  0.28607928484E+04  0.28175947316E+04 0.  0.
        2    1    3    3  502    0  0.12221828255E+04 -0.50513088396E+03  0.74069691011E+03  0.15157572304E+04  0.25500000920E-02 0. -1.
       -2    1    3    3    0  502 -0.12221828255E+04  0.50513088396E+03 -0.24542360224E+03  0.13450356179E+04  0.25500000920E-02 0.  1.
</event>
<event>
 5   0  0.1330962E-05  0.2799769E+04  0.7818609E-02  0.8303340E-01
       -2   -1    0    0    0  501  0.00000000000E+00  0.00000000000E+00  0.13240140891E+04  0.13240140891E+04  0.25500000920E-02 0. -1.
        2   -1    0    0  501    0  0.00000000000E+00  0.00000000000E+00 -0.14801022722E+04  0.14801022722E+04  0.25500000920E-02 0.  1.
    10030    2    1    2    0    0  0.00000000000E+00  0.00000000000E+00 -0.15608818308E+03  0.28041163613E+04  0.27997687489E+04 0.  0.
        4    1    3    3  502    0  0.29948142527E+03 -0.10162376191E+04  0.83838859935E+03  0.13510459204E+04  0.12699999809E+01 0. -1.
       -4    1    3    3    0  502 -0.29948142527E+03  0.10162376191E+04 -0.99447678243E+03  0.14530704409E+04  0.12699999809E+01 0.  1.
</event>
<event>
 5   0  0.1350863E-05  0.2153120E+04  0.7818609E-02  0.8538198E-01
        2   -1    0    0  501    0  0.00000000000E+00  0.00000000000E+00  0.10740093891E+04  0.10740093891E+04  0.25500000920E-02 0. -1.
       -2   -1    0    0    0  501  0.00000000000E+00  0.00000000000E+00 -0.10791163909E+04  0.10791163909E+04  0.25500000920E-02 0.  1.
    10030    2    1    2    0    0  0.00000000000E+00  0.00000000000E+00 -0.51070018132E+01  0.21531257801E+04  0.21531197234E+04 0.  0.
        3    1    3    3  502    0  0.10793492780E+02 -0.79426410965E+03 -0.72919792620E+03  0.10782864189E+04  0.10100000352E+00 0.  1.
       -3    1    3    3    0  502 -0.10793492780E+02  0.79426410965E+03  0.72409092439E+03  0.10748393612E+04  0.10100000352E+00 0. -1.
</event>
<event>
 5   0  0.1283052E-05  0.2800321E+04  0.7818609E-02  0.8303169E-01
        2   -1    0    0  501    0  0.00000000000E+00  0.00000000000E+00  0.24530723201E+04  0.24530723201E+04  0.25500000920E-02 0.  1.
       -2   -1    0    0    0  501  0.00000000000E+00  0.00000000000E+00 -0.79918117064E+03  0.79918117064E+03  0.25500000920E-02 0. -1.
    10030    2    1    2    0    0  0.00000000000E+00  0.00000000000E+00  0.16538911495E+04  0.32522534907E+04  0.28003208448E+04 0.  0.
        5    1    3    3  502    0  0.10044646252E+03 -0.12075498361E+04  0.16417065179E+04  0.20404628101E+04  0.46999998093E+01 0.  1.
       -5    1    3    3    0  502 -0.10044646252E+03  0.12075498361E+04  0.12184631537E+02  0.12117906806E+04  0.46999998093E+01 0. -1.
</event>
<event>
 5   0  0.1330962E-05  0.2838880E+04  0.7818609E-02  0.8291298E-01
       -2   -1    0    0    0  501  0.00000000000E+00  0.00000000000E+00  0.92744106814E+03  0.92744106814E+03  0.25500000920E-02 0. -1.
        2   -1    0    0  501    0  0.00000000000E+00  0.00000000000E+00 -0.21724390925E+04  0.21724390925E+04  0.25500000920E-02 0.  1.
    10030    2    1    2    0    0  0.00000000000E+00  0.00000000000E+00 -0.12449980244E+04  0.30998801607E+04  0.28388795201E+04 0.  0.
        4    1    3    3  502    0  0.61359036928E+03 -0.70883246832E+03  0.54125837455E+03  0.10825427707E+04  0.12699999809E+01 0. -1.
       -4    1    3    3    0  502 -0.61359036928E+03  0.70883246832E+03 -0.17862563989E+04  0.20173373900E+04  0.12699999809E+01 0.  1.
</event>
<event>
 5   0  0.4447500E-06  0.2902835E+04  0.7818609E-02  0.8272035E-01
       -3   -1    0    0    0  501  0.00000000000E+00  0.00000000000E+00  0.13986671527E+04  0.13986671564E+04  0.10100000352E+00 0.  1.
        3   -1    0    0  501    0  0.00000000000E+00  0.00000000000E+00 -0.15061570950E+04  0.15061570984E+04  0.10100000352E+00 0. -1.
    10030    2    1    2    0    0  0.00000000000E+00  0.00000000000E+00 -0.10748994228E+03  0.29048242547E+04  0.29028347978E+04 0.  0.
        3    1    3    3  502    0  0.56125254578E+03  0.13334333709E+04 -0.17028714700E+03  0.14567246471E+04  0.10100000352E+00 0. -1.
       -3    1    3    3    0  502 -0.56125254578E+03 -0.13334333709E+04  0.62797204713E+02  0.14480996077E+04  0.10100000352E+00 0.  1.
</event>
<event>
 5   0  0.1388269E-05  0.2837710E+04  0.7818609E-02  0.8291656E-01
       -2   -1    0    0    0  501  0.00000000000E+00  0.00000000000E+00  0.12993843032E+04  0.12993843032E+04  0.25500000920E-02 0.  1.
        2   -1    0    0  501    0  0.00000000000E+00  0.00000000000E+00 -0.15493102204E+04  0.15493102204E+04  0.25500000920E-02 0. -1.
    10030    2    1    2    0    0  0.00000000000E+00  0.00000000000E+00 -0.24992591725E+03  0.28486945236E+04  0.28377099084E+04 0.  0.
        1    1    3    3  502    0  0.10484500932E+04 -0.77664979059E+03 -0.68454054654E+03  0.14734409574E+04  0.50400001928E-02 0. -1.
       -1    1    3    3    0  502 -0.10484500932E+04  0.77664979059E+03  0.43461462929E+03  0.13752535661E+04  0.50400001928E-02 0.  1.
</event>
<event>
 5   0  0.5107453E-06  0.2671552E+04  0.7818609E-02  0.8344295E-01
        1   -1    0    0  501    0  0.00000000000E+00  0.00000000000E+00  0.20629103022E+04  0.20629103022E+04  0.50400001928E-02 0. -1.
       -1   -1    0    0    0  501  0.00000000000E+00  0.00000000000E+00 -0.86494212194E+03  0.86494212196E+03  0.50400001928E-02 0.  1.
    10030    2    1    2    0    0  0.00000000000E+00  0.00000000000E+00  0.11979681802E+04  0.29278524241E+04  0.26715523683E+04 0.  0.
        2    1    3    3  502    0 -0.11837657272E+03 -0.23443206284E+03  0.20343376915E+04  0.20512194539E+04  0.25500000920E-02 0. -1.
       -2    1    3    3    0  502  0.11837657272E+03  0.23443206284E+03 -0.83636951128E+03  0.87663297021E+03  0.25500000920E-02 0.  1.
</event>
<event>
 5   0  0.1350863E-05  0.2771727E+04  0.7818609E-02  0.8312100E-01
        2   -1    0    0  501    0  0.00000000000E+00  0.00000000000E+00  0.18661915414E+04  0.18661915414E+04  0.25500000920E-02 0. -1.
       -2   -1    0    0    0  501  0.00000000000E+00  0.00000000000E+00 -0.10291644515E+04  0.10291644515E+04  0.25500000920E-02 0.  1.
    10030    2    1    2    0    0  0.00000000000E+00  0.00000000000E+00  0.83702708990E+03  0.28953559928E+04  0.27717272550E+04 0.  0.
        3    1    3    3  502    0  0.69951769019E+02  0.32645060360E+03  0.18235556328E+04  0.18538657995E+04  0.10100000352E+00 0. -1.
       -3    1    3    3    0  502 -0.69951769019E+02 -0.32645060360E+03 -0.98652854289E+03  0.10414901933E+04  0.10100000352E+00 0.  1.
</event>
<event>
 5   0  0.5281919E-06  0.2841056E+04  0.7818609E-02  0.8290634E-01
       -1   -1    0    0    0  501  0.00000000000E+00  0.00000000000E+00  0.14574471766E+04  0.14574471766E+04  0.50400001928E-02 0.  1.
        1   -1    0    0  501    0  0.00000000000E+00  0.00000000000E+00 -0.13845443989E+04  0.13845443990E+04  0.50400001928E-02 0. -1.
    10030    2    1    2    0    0  0.00000000000E+00  0.00000000000E+00  0.72902777648E+02  0.28419915755E+04  0.28410563705E+04 0.  0.
        4    1    3    3  502    0 -0.13937772443E+03  0.88774189788E+03  0.11369893820E+04  0.14492267922E+04  0.12699999809E+01 0.  1.
       -4    1    3    3    0  502  0.13937772443E+03 -0.88774189788E+03 -0.10640866044E+04  0.13927647834E+04  0.12699999809E+01 0. -1.
</event>
<event>
 5   0  0.5217999E-06  0.2751371E+04  0.7818609E-02  0.8318527E-01
       -1   -1    0    0    0  501  0.00000000000E+00  0.00000000000E+00  0.15068621794E+04  0.15068621794E+04  0.50400001928E-02 0. -1.
        1   -1    0    0  501    0  0.00000000000E+00  0.00000000000E+00 -0.12559277353E+04  0.12559277353E+04  0.50400001928E-02 0.  1.
    10030    2    1    2    0    0  0.00000000000E+00  0.00000000000E+00  0.25093444414E+03  0.27627899147E+04  0.27513705707E+04 0.  0.
        1    1    3    3  502    0 -0.17114702149E+03 -0.28205743976E+03  0.14665484737E+04  0.15032006280E+04  0.50400001928E-02 0. -1.
       -1    1    3    3    0  502  0.17114702149E+03  0.28205743976E+03 -0.12156140295E+04  0.12595892867E+04  0.50400001928E-02 0.  1.
</event>
<event>
 5   0  0.5023691E-06  0.2721841E+04  0.7818609E-02  0.8327953E-01
       -1   -1    0    0    0  501  0.00000000000E+00  0.00000000000E+00  0.11126894525E+04  0.11126894525E+04  0.50400001928E-02 0.  1.
        1   -1    0    0  501    0  0.00000000000E+00  0.00000000000E+00 -0.16645300798E+04  0.16645300798E+04  0.50400001928E-02 0. -1.
    10030    2    1    2    0    0  0.00000000000E+00  0.00000000000E+00 -0.55184062734E+03  0.27772195323E+04  0.27218413350E+04 0.  0.
        5    1    3    3  502    0 -0.65173197732E+03 -0.24221596340E+03  0.91777961063E+03  0.11514185368E+04  0.46999998093E+01 0.  1.
       -5    1    3    3    0  502  0.65173197732E+03  0.24221596340E+03 -0.14696202380E+04  0.16258009955E+04  0.46999998093E+01 0. -1.
</event>
<event>
 5   0  0.1330962E-05  0.2768673E+04  0.7818609E-02  0.8313061E-01
        2   -1    0    0  501    0  0.00000000000E+00  0.00000000000E+00  0.19352388111E+04  0.19352388111E+04  0.25500000920E-02 0. -1.
       -2   -1    0    0    0  501  0.00000000000E+00  0.00000000000E+00 -0.99025890096E+03  0.99025890096E+03  0.25500000920E-02 0.  1.
    10030    2    1    2    0    0  0.00000000000E+00  0.00000000000E+00  0.94497991012E+03  0.29254977120E+04  0.27686729371E+04 0.  0.
        4    1    3    3  502    0 -0.67770142607E+03  0.82666833969E+03 -0.45695082726E+03  0.11625254570E+04  0.12699999809E+01 0.  1.
       -4    1    3    3    0  502  0.67770142607E+03 -0.82666833969E+03  0.14019307374E+04  0.17629722550E+04  0.12699999809E+01 0. -1.
</event>
<event>
 5   0  0.5107453E-06  0.2803250E+04  0.7818609E-02  0.8302260E-01
        1   -1    0    0  501    0  0.00000000000E+00  0.00000000000E+00  0.17999832979E+04  0.17999832979E+04  0.50400001928E-02 0. -1.
       -1   -1    0    0    0  501  0.00000000000E+00  0.00000000000E+00 -0.10914279449E+04  0.10914279449E+04  0.50400001928E-02 0.  1.
    10030    2    1    2    0    0  0.00000000000E+00  0.00000000000E+00  0.70855535300E+03  0.28914112429E+04  0.28032495942E+04 0.  0.
        2    1    3    3  502    0 -0.75675358241E+03  0.11192676426E+04 -0.30435168889E+02  0.13514297392E+04  0.25500000920E-02 0. -1.
       -2    1    3    3    0  502  0.75675358241E+03 -0.11192676426E+04  0.73899052189E+03  0.15399815037E+04  0.25500000920E-02 0.  1.
</event>
<event>
 5   0  0.1302063E-05  0.2763554E+04  0.7818609E-02  0.8314674E-01
        2   -1    0    0  501    0  0.00000000000E+00  0.00000000000E+00  0.23840993423E+04  0.23840993423E+04  0.25500000920E-02 0.  1.
       -2   -1    0    0    0  501  0.00000000000E+00  0.00000000000E+00 -0.80085062697E+03  0.80085062698E+03  0.25500000920E-02 0. -1.
    10030    2    1    2    0    0  0.00000000000E+00  0.00000000000E+00  0.15832487154E+04  0.31849499693E+04  0.27635538374E+04 0.  0.
        2    1    3    3  502    0 -0.31501103385E+03 -0.10136295983E+04  0.18111850424E+04  0.20993018296E+04  0.25500000920E-02 0.  1.
       -2    1    3    3    0  502  0.31501103385E+03  0.10136295983E+04 -0.22793632709E+03  0.10856481397E+04  0.25500000920E-02 0. -1.
</event>
<event>
 5   0  0.1388269E-05  0.2754105E+04  0.7818609E-02  0.8317660E-01
        2   -1    0    0  501    0  0.00000000000E+00  0.00000000000E+00  0.13425260224E+04  0.13425260224E+04  0.25500000920E-02 0. -1.
       -2   -1    0    0    0  501  0.00000000000E+00  0.00000000000E+00 -0.14124670470E+04  0.14124670470E+04  0.25500000920E-02 0.  1.
    10030    2    1    2    0    0  0.00000000000E+00  0.00000000000E+00 -0.69941024553E+02  0.27549930694E+04  0.27541051297E+04 0.  0.
        1    1    3    3  502    0  0.28317896873E+03  0.40790680467E+03  0.12498483042E+04  0.13448788322E+04  0.50400001928E-02 0. -1.
       -1    1    3    3    0  502 -0.28317896873E+03 -0.40790680467E+03 -0.13197893288E+04  0.14101142372E+04  0.50400001928E-02 0.  1.
</event>
<event>
 5   0  0.1283052E-05  0.2692016E+04  0.7818609E-02  0.8337600E-01
       -2   -1    0    0    0  501  0.00000000000E+00  0.00000000000E+00  0.10164873434E+04  0.10164873434E+04  0.25500000920E-02 0.  1.
        2   -1    0    0  501    0  0.00000000000E+00  0.00000000000E+00 -0.17823507213E+04  0.17823507213E+04  0.25500000920E-02 0. -1.
    10030    2    1    2    0    0  0.00000000000E+00  0.00000000000E+00 -0.76586337786E+03  0.27988380647E+04  0.26920155643E+04 0.  0.
        5    1    3    3  502    0 -0.11708873377E+04  0.19272713002E+03  0.27756786983E+03  0.12186824511E+04  0.46999998093E+01 0.  1.
       -5    1    3    3    0  502  0.11708873377E+04 -0.19272713002E+03 -0.10434312477E+04  0.15801556135E+04  0.46999998093E+01 0. -1.
</event>
<event>
 5   0  0.5107453E-06  0.2814477E+04  0.7818609E-02  0.8298788E-01
       -1   -1    0    0    0  501  0.00000000000E+00  0.00000000000E+00  0.12209012871E+04  0.12209012871E+04  0.50400001928E-02 0. -1.
        1   -1    0    0  501    0  0.00000000000E+00  0.00000000000E+00 -0.16220149890E+04  0.16220149890E+04  0.50400001928E-02 0.  1.
    10030    2    1    2    0    0  0.00000000000E+00  0.00000000000E+00 -0.40111370190E+03  0.28429162760E+04  0.28144769942E+04 0.  0.
        2    1    3    3  502    0  0.89487218013E+03  0.52776455400E+03  0.75823868084E+03  0.12861794355E+04  0.25500000920E-02 0. -1.
       -2    1    3    3    0  502 -0.89487218013E+03 -0.52776455400E+03 -0.11593523827E+04  0.15567368405E+04  0.25500000920E-02 0.  1.
</event>
<event>
 5   0  0.5281919E-06  0.2794479E+04  0.7818609E-02  0.8304984E-01
       -1   -1    0    0    0  501  0.00000000000E+00  0.00000000000E+00  0.11234603009E+04  0.11234603009E+04  0.50400001928E-02 0.  1.
        1   -1    0    0  501    0  0.00000000000E+00  0.00000000000E+00 -0.17377371691E+04  0.17377371691E+04  0.50400001928E-02 0. -1.
    10030    2    1    2    0    0  0.00000000000E+00  0.00000000000E+00 -0.61427686815E+03  0.28611974700E+04  0.27944793597E+04 0.  0.
        4    1    3    3  502    0 -0.55368700074E+03 -0.97903768931E+03 -0.11559011530E+04  0.16128214967E+04  0.12699999809E+01 0. -1.
       -4    1    3    3    0  502  0.55368700074E+03  0.97903768931E+03  0.54162428484E+03  0.12483759733E+04  0.12699999809E+01 0.  1.
</event>
<event>
 5   0  0.1330962E-05  0.2752086E+04  0.7818609E-02  0.8318300E-01
       -2   -1    0    0    0  501  0.00000000000E+00  0.00000000000E+00  0.15415609154E+04  0.15415609154E+04  0.25500000920E-02 0.  1.
        2   -1    0    0  501    0  0.00000000000E+00  0.00000000000E+00 -0.12282965442E+04  0.12282965442E+04  0.25500000920E-02 0. -1.
    10030    2    1    2    0    0  0.00000000000E+00  0.00000000000E+00  0.31326437118E+03  0.27698574596E+04  0.27520857146E+04 0.  0.
        4    1    3    3  502    0 -0.17914615634E+03 -0.29172280156E+03  0.14980165206E+04  0.15366361467E+04  0.12699999809E+01 0.  1.
       -4    1    3    3    0  502  0.17914615634E+03  0.29172280156E+03 -0.11847521494E+04  0.12332213130E+04  0.12699999809E+01 0. -1.
</event>
<event>
 5   0  0.1350863E-05  0.2863816E+04  0.7818609E-02  0.8283725E-01
       -2   -1    0    0    0  501  0.00000000000E+00  0.00000000000E+00  0.10168267213E+04  0.10168267213E+04  0.25500000920E-02 0. -1.
        2   -1    0    0  501    0  0.00000000000E+00  0.00000000000E+00 -0.20164304733E+04  0.20164304733E+04  0.25500000920E-02 0.  1.
    10030    2    1    2    0    0  0.00000000000E+00  0.00000000000E+00 -0.99960375195E+03  0.30332571946E+04  0.28638159068E+04 0.  0.
        3    1    3    3  502    0  0.47878105983E+03  0.16045579865E+03  0.91939515831E+03  0.10489350952E+04  0.10100000352E+00 0. -1.
       -3    1    3    3    0  502 -0.47878105983E+03 -0.16045579865E+03 -0.19189989103E+04  0.19843220995E+04  0.10100000352E+00 0.  1.
</event>
<event>
 5   0  0.5217999E-06  0.2537660E+04  0.7818609E-02  0.8389691E-01
        1   -1    0    0  501    0  0.00000000000E+00  0.00000000000E+00  0.19718576397E+04  0.19718576397E+04  0.50400001928E-02 0. -1.
       -1   -1    0    0    0  501  0.00000000000E+00  0.00000000000E+00 -0.81645316677E+03  0.81645316679E+03  0.50400001928E-02 0.  1.
    10030    2    1    2    0    0  0.00000000000E+00  0.00000000000E+00  0.11554044729E+04  0.27883108065E+04  0.25376598782E+04 0.  0.
        1    1    3    3  502    0  0.88822055497E+03  0.57484482127E+02  0.15712800792E+04  0.18058685742E+04  0.50400001928E-02 0. -1.
       -1    1    3    3    0  502 -0.88822055497E+03 -0.57484482127E+02 -0.41587560625E+03  0.98244223232E+03  0.50400001928E-02 0.  1.
</event>
<event>
 5   0  0.4764214E-06  0.2782854E+04  0.7818609E-02  0.8308611E-01
       -1   -1    0    0    0  501  0.00000000000E+00  0.00000000000E+00  0.14079064922E+04  0.14079064922E+04  0.50400001928E-02 0.  1.
        1   -1    0    0  501    0  0.00000000000E+00  0.00000000000E+00 -0.13751406778E+04  0.13751406778E+04  0.50400001928E-02 0. -1.
    10030    2    1    2    0    0  0.00000000000E+00  0.00000000000E+00  0.32765814356E+02  0.27830471700E+04  0.27828542815E+04 0.  0.
        3    1    3    3  502    0  0.11401777787E+04 -0.12928720177E+03 -0.77065889044E+03  0.13822574591E+04  0.10100000352E+00 0. -1.
       -3    1    3    3    0  502 -0.11401777787E+04  0.12928720177E+03  0.80342470479E+03  0.14007897109E+04  0.10100000352E+00 0.  1.
</event>
<event>
 5   0  0.5107453E-06  0.2810670E+04  0.7818609E-02  0.8299964E-01
       -1   -1    0    0    0  501  0.00000000000E+00  0.00000000000E+00  0.11490280547E+04  0.11490280547E+04  0.50400001928E-02 0. -1.
        1   -1    0    0  501    0  0.00000000000E+00  0.00000000000E+00 -0.17188144257E+04  0.17188144257E+04  0.50400001928E-02 0.  1.
    10030    2    1    2    0    0  0.00000000000E+00  0.00000000000E+00 -0.56978637102E+03  0.28678424803E+04  0.28106696682E+04 0.  0.
        2    1    3    3  502    0  0.43367439576E+03  0.29586371154E+03 -0.16150039917E+04  0.16981892446E+04  0.25500000920E-02 0.  1.
       -2    1    3    3    0  502 -0.43367439576E+03 -0.29586371154E+03  0.10452176207E+04  0.11696532357E+04  0.25500000920E-02 0. -1.
</event>
<event>
 5   0  0.5107453E-06  0.2831313E+04  0.7818609E-02  0.8293612E-01
        1   -1    0    0  501    0  0.00000000000E+00  0.00000000000E+00  0.19889710933E+04  0.19889710933E+04  0.50400001928E-02 0. -1.
       -1   -1    0    0    0  501  0.00000000000E+00  0.00000000000E+00 -0.10075977947E+04  0.10075977947E+04  0.50400001928E-02 0.  1.
    10030    2    1    2    0    0  0.00000000000E+00  0.00000000000E+00  0.98137329863E+03  0.29965688880E+04  0.28313126901E+04 0.  0.
        2    1    3    3  502    0 -0.66213961542E+03  0.50585811167E+03 -0.72055990716E+03  0.11016024143E+04  0.25500000920E-02 0.  1.
       -2    1    3    3    0  502  0.66213961542E+03 -0.50585811167E+03  0.17019332058E+04  0.18949664737E+04  0.25500000920E-02 0. -1.
</event>
<event>
 5   0  0.1283052E-05  0.2955746E+04  0.7818609E-02  0.8256482E-01
        2   -1    0    0  501    0  0.00000000000E+00  0.00000000000E+00  0.16249969481E+04  0.16249969481E+04  0.25500000920E-02 0.  1.
       -2   -1    0    0    0  501  0.00000000000E+00  0.00000000000E+00 -0.13440695331E+04  0.13440695331E+04  0.25500000920E-02 0. -1.
    10030    2    1    2    0    0  0.00000000000E+00  0.00000000000E+00  0.28092741500E+03  0.29690664813E+04  0.29557461930E+04 0.  0.
        5    1    3    3  502    0 -0.13565542866E+04  0.57647210270E+03  0.24831226838E+03  0.14947376660E+04  0.46999998093E+01 0.  1.
       -5    1    3    3    0  502  0.13565542866E+04 -0.57647210270E+03  0.32615146620E+02  0.14743288152E+04  0.46999998093E+01 0. -1.
</event>
<event>
 5   0  0.5023691E-06  0.2796165E+04  0.7818609E-02  0.8304460E-01
        1   -1    0    0  501    0  0.00000000000E+00  0.00000000000E+00  0.18925150258E+04  0.18925150258E+04  0.50400001928E-02 0. -1.
       -1   -1    0    0    0  501  0.00000000000E+00  0.00000000000E+00 -0.10328240614E+04  0.10328240615E+04  0.50400001928E-02 0.  1.
    10030    2    1    2    0    0  0.00000000000E+00  0.00000000000E+00  0.85969096438E+03  0.29253390873E+04  0.27961652708E+04 0.  0.
        5    1    3    3  502    0  0.26538367229E+03  0.94887390460E+03  0.14675454780E+04  0.17676260917E+04  0.46999998093E+01 0. -1.
       -5    1    3    3    0  502 -0.26538367229E+03 -0.94887390460E+03 -0.60785451358E+03  0.11577129955E+04  0.46999998093E+01 0.  1.
</event>
<event>
 5   0  0.4764214E-06  0.2772034E+04  0.7818609E-02  0.8312003E-01
       -1   -1    0    0    0  501  0.00000000000E+00  0.00000000000E+00  0.14434595788E+04  0.14434595788E+04  0.50400001928E-02 0.  1.
        1   -1    0    0  501    0  0.00000000000E+00  0.00000000000E+00 -0.13308607358E+04  0.13308607358E+04  0.50400001928E-02 0. -1.
    10030    2    1    2    0    0  0.00000000000E+00  0.00000000000E+00  0.11259884299E+03  0.27743203147E+04  0.27720343989E+04 0.  0.
        3    1    3    3  502    0  0.99363715386E+03 -0.55106536208E+03  0.85071455256E+03  0.14194023696E+04  0.10100000352E+00 0.  1.
       -3    1    3    3    0  502 -0.99363715386E+03  0.55106536208E+03 -0.73811570957E+03  0.13549179450E+04  0.10100000352E+00 0. -1.
</event>
<event>
 5   0  0.5023691E-06  0.2816549E+04  0.7818609E-02  0.8298149E-01
       -1   -1    0    0    0  501  0.00000000000E+00  0.00000000000E+00  0.12618782662E+04  0.12618782662E+04  0.50400001928E-02 0.  1.
        1   -1    0    0  501    0  0.00000000000E+00  0.00000000000E+00 -0.15716553421E+04  0.15716553421E+04  0.50400001928E-02 0. -1.
    10030    2    1    2    0    0  0.00000000000E+00  0.00000000000E+00 -0.30977707591E+03  0.28335336083E+04  0.28165494622E+04 0.  0.
        5    1    3    3  502    0 -0.16915199894E+03 -0.39181637913E+03 -0.15050256274E+04  0.15643710247E+04  0.46999998093E+01 0. -1.
       -5    1    3    3    0  502  0.16915199894E+03  0.39181637913E+03  0.11952485515E+04  0.12691625836E+04  0.46999998093E+01 0.  1.
</event>
<event>
 5   0  0.5217999E-06  0.2823487E+04  0.7818609E-02  0.8296014E-01
        1   -1    0    0  501    0  0.00000000000E+00  0.00000000000E+00  0.17529169125E+04  0.17529169125E+04  0.50400001928E-02 0.  1.
       -1   -1    0    0    0  501  0.00000000000E+00  0.00000000000E+00 -0.11369729899E+04  0.11369729899E+04  0.50400001928E-02 0. -1.
    10030    2    1    2    0    0  0.00000000000E+00  0.00000000000E+00  0.61594392263E+03  0.28898899024E+04  0.28234866269E+04 0.  0.
        1    1    3    3  502    0  0.14254033204E+03 -0.10536482548E+04  0.12585370490E+04  0.16475460220E+04  0.50400001928E-02 0.  1.
       -1    1    3    3    0  502 -0.14254033204E+03  0.10536482548E+04 -0.64259312632E+03  0.12423438804E+04  0.50400001928E-02 0. -1.
</event>
<event>
 5   0  0.1302063E-05  0.2861757E+04  0.7818609E-02  0.8284348E-01
        2   -1    0    0  501    0  0.00000000000E+00  0.00000000000E+00  0.19043376073E+04  0.19043376073E+04  0.25500000920E-02 0. -1.
       -2   -1    0    0    0  501  0.00000000000E+00  0.00000000000E+00 -0.10751317111E+04  0.10751317111E+04  0.25500000920E-02 0.  1.
    10030    2    1    2    0    0  0.00000000000E+00  0.00000000000E+00  0.82920589615E+03  0.29794693184E+04  0.28617573274E+04 0.  0.
        2    1    3    3  502    0 -0.33009138959E+02  0.11293144836E+04 -0.49956435280E+03  0.12353158903E+04  0.25500000920E-02 0.  1.
       -2    1    3    3    0  502  0.33009138959E+02 -0.11293144836E+04  0.13287702490E+04  0.17441534281E+04  0.25500000920E-02 0. -1.
</event>
<event>
 5   0  0.1388269E-05  0.2809872E+04  0.7818609E-02  0.8300210E-01
        2   -1    0    0  501    0  0.00000000000E+00  0.00000000000E+00  0.19939847838E+04  0.19939847838E+04  0.25500000920E-02 0. -1.
       -2   -1    0    0    0  501  0.00000000000E+00  0.00000000000E+00 -0.98989951988E+03  0.98989951988E+03  0.25500000920E-02 0.  1.
    10030    2    1    2    0    0  0.00000000000E+00  0.00000000000E+00  0.10040852639E+04  0.29838843037E+04  0.28098715844E+04 0.  0.
        1    1    3    3  502    0  0.67100039233E+03 -0.90947535409E+03  0.13882653096E+04  0.17901585170E+04  0.50400001928E-02 0. -1.
       -1    1    3    3    0  502 -0.67100039233E+03  0.90947535409E+03 -0.38418004569E+03  0.11937257867E+04  0.50400001928E-02 0.  1.
</event>
<event>
 5   0  0.5023691E-06  0.2674261E+04  0.7818609E-02  0.8343405E-01
       -1   -1    0    0    0  501  0.00000000000E+00  0.00000000000E+00  0.11402786862E+04  0.11402786862E+04  0.50400001928E-02 0.  1.
        1   -1    0    0  501    0  0.00000000000E+00  0.00000000000E+00 -0.15679660738E+04  0.15679660738E+04  0.50400001928E-02 0. -1.
    10030    2    1    2    0    0  0.00000000000E+00  0.00000000000E+00 -0.42768738756E+03  0.27082447600E+04  0.26742612398E+04 0.  0.
        5    1    3    3  502    0  0.54040403919E+03  0.58787866772E+03 -0.12999736181E+04  0.15256445691E+04  0.46999998093E+01 0. -1.
       -5    1    3    3    0  502 -0.54040403919E+03 -0.58787866772E+03  0.87228623052E+03  0.11826001909E+04  0.46999998093E+01 0.  1.
</event>
<event>
 5   0  0.5107453E-06  0.2788023E+04  0.7818609E-02  0.8306996E-01
        1   -1    0    0  501    0  0.00000000000E+00  0.00000000000E+00  0.12097663424E+04  0.12097663424E+04  0.50400001928E-02 0.  1.
       -1   -1    0    0    0  501  0.00000000000E+00  0.00000000000E+00 -0.16063171427E+04  0.16063171427E+04  0.50400001928E-02 0. -1.
    10030    2    1    2    0    0  0.00000000000E+00  0.00000000000E+00 -0.39655080024E+03  0.28160834851E+04  0.27880232528E+04 0.  0.
        2    1    3    3  502    0 -0.22569963191E+03  0.88295592481E+03  0.86719522600E+03  0.12580059813E+04  0.25500000920E-02 0.  1.
       -2    1    3    3    0  502  0.22569963191E+03 -0.88295592481E+03 -0.12637460262E+04  0.15580775038E+04  0.25500000920E-02 0. -1.
</event>
<event>
 5   0  0.4764214E-06  0.2805159E+04  0.7818609E-02  0.8301668E-01
       -1   -1    0    0    0  501  0.00000000000E+00  0.00000000000E+00  0.16080240626E+04  0.16080240626E+04  0.50400001928E-02 0.  1.
        1   -1    0    0  501    0  0.00000000000E+00  0.00000000000E+00 -0.12233832485E+04  0.12233832485E+04  0.50400001928E-02 0. -1.
    10030    2    1    2    0    0  0.00000000000E+00  0.00000000000E+00  0.38464081411E+03  0.28314073111E+04  0.28051593191E+04 0.  0.
        3    1    3    3  502    0  0.47267138618E+03 -0.75032370800E+03 -0.90450557868E+03  0.12667021190E+04  0.10100000352E+00 0. -1.
       -3    1    3    3    0  502 -0.47267138618E+03  0.75032370800E+03  0.12891463928E+04  0.15647051922E+04  0.10100000352E+00 0.  1.
</event>
<event>
 5   0  0.1302063E-05  0.2871581E+04  0.7818609E-02  0.8281383E-01
       -2   -1    0    0    0  501  0.00000000000E+00  0.00000000000E+00  0.10532524314E+04  0.10532524314E+04  0.25500000920E-02 0.  1.
        2   -1    0    0  501    0  0.00000000000E+00  0.00000000000E+00 -0.19572654144E+04  0.19572654144E+04  0.25500000920E-02 0. -1.
    10030    2    1    2    0    0  0.00000000000E+00  0.00000000000E+00 -0.90401298297E+03  0.30105178458E+04  0.28715811371E+04 0.  0.
        2    1    3    3  502    0  0.98078795897E+03 -0.65470688157E+03  0.40671382952E+03  0.12473981964E+04  0.25500000920E-02 0.  1.
       -2    1    3    3    0  502 -0.98078795897E+03  0.65470688157E+03 -0.13107268125E+04  0.17631196494E+04  0.25500000920E-02 0. -1.
</event>
<event>
 5   0  0.1388269E-05  0.2797652E+04  0.7818609E-02  0.8303998E-01
       -2   -1    0    0    0  501  0.00000000000E+00  0.00000000000E+00  0.10584658542E+04  0.10584658542E+04  0.25500000920E-02 0.  1.
        2   -1    0    0  501    0  0.00000000000E+00  0.00000000000E+00 -0.18486326391E+04  0.18486326391E+04  0.25500000920E-02 0. -1.
    10030    2    1    2    0    0  0.00000000000E+00  0.00000000000E+00 -0.79016678496E+03  0.29070984933E+04  0.27976522482E+04 0.  0.
        1    1    3    3  502    0 -0.12783757172E+04 -0.17499540830E+03 -0.95644586731E+03  0.16061309301E+04  0.50400001928E-02 0. -1.
       -1    1    3    3    0  502  0.12783757172E+04  0.17499540830E+03  0.16627908235E+03  0.13009675632E+04  0.50400001928E-02 0.  1.
</event>
<event>
 5   0  0.5217999E-06  0.2701549E+04  0.7818609E-02  0.8334503E-01
       -1   -1    0    0    0  501  0.00000000000E+00  0.00000000000E+00  0.10358753153E+04  0.10358753154E+04  0.50400001928E-02 0. -1.
        1   -1    0    0  501    0  0.00000000000E+00  0.00000000000E+00 -0.17614004976E+04  0.17614004976E+04  0.50400001928E-02 0.  1.
    10030    2    1    2    0    0  0.00000000000E+00  0.00000000000E+00 -0.72552518227E+03  0.27972758130E+04  0.27015486640E+04 0.  0.
        1    1    3    3  502    0 -0.10831952289E+04 -0.41781217233E+02 -0.11972568377E+04  0.16150794127E+04  0.50400001928E-02 0.  1.
       -1    1    3    3    0  502  0.10831952289E+04  0.41781217233E+02  0.47173165546E+03  0.11821964002E+04  0.50400001928E-02 0. -1.
</event>
<event>
 5   0  0.1302063E-05  0.2808347E+04  0.7818609E-02  0.8300682E-01
       -2   -1    0    0    0  501  0.00000000000E+00  0.00000000000E+00  0.99744199596E+03  0.99744199596E+03  0.25500000920E-02 0.  1.
        2   -1    0    0  501    0  0.00000000000E+00  0.00000000000E+00 -0.19767601757E+04  0.19767601757E+04  0.25500000920E-02 0. -1.
    10030    2    1    2    0    0  0.00000000000E+00  0.00000000000E+00 -0.97931817974E+03  0.29742021717E+04  0.28083472828E+04 0.  0.
        2    1    3    3  502    0 -0.79863022470E+03  0.11269010986E+04 -0.22176289528E+03  0.13988906689E+04  0.25500000920E-02 0.  1.
       -2    1    3    3    0  502  0.79863022470E+03 -0.11269010986E+04 -0.75755528447E+03  0.15753115028E+04  0.25500000920E-02 0. -1.
</event>
<event>
 5   0  0.5281919E-06  0.2802475E+04  0.7818609E-02  0.8302500E-01
        1   -1    0    0  501    0  0.00000000000E+00  0.00000000000E+00  0.13720449586E+04  0.13720449586E+04  0.50400001928E-02 0. -1.
       -1   -1    0    0    0  501  0.00000000000E+00  0.00000000000E+00 -0.14310515930E+04  0.14310515930E+04  0.50400001928E-02 0.  1.
    10030    2    1    2    0    0  0.00000000000E+00  0.00000000000E+00 -0.59006634422E+02  0.28030965517E+04  0.28024754228E+04 0.  0.
        4    1    3    3  502    0  0.63993180263E+03  0.97588320957E+03  0.74630043633E+03  0.13852172050E+04  0.12699999809E+01 0. -1.
       -4    1    3    3    0  502 -0.63993180263E+03 -0.97588320957E+03 -0.80530707075E+03  0.14178793467E+04  0.12699999809E+01 0.  1.
</event>
<event>
 5   0  0.4764214E-06  0.2911052E+04  0.7818609E-02  0.8269597E-01
        1   -1    0    0  501    0  0.00000000000E+00  0.00000000000E+00  0.22201031470E+04  0.22201031470E+04  0.50400001928E-02 0.  1.
       -1   -1    0    0    0  501  0.00000000000E+00  0.00000000000E+00 -0.95426044909E+03  0.95426044910E+03  0.50400001928E-02 0. -1.
    10030    2    1    2    0    0  0.00000000000E+00  0.00000000000E+00  0.12658426979E+04  0.31743635961E+04  0.29110524736E+04 0.  0.
        3    1    3    3  502    0 -0.91790341769E+03 -0.57527490062E+03  0.16930005915E+04  0.20099101742E+04  0.10100000352E+00 0.  1.
       -3    1    3    3    0  502  0.91790341769E+03  0.57527490062E+03 -0.42715789357E+03  0.11644534219E+04  0.10100000352E+00 0. -1.
</event>
<event>
 5   0  0.1283052E-05  0.2806233E+04  0.7818609E-02  0.8301336E-01
       -2   -1    0    0    0  501  0.00000000000E+00  0.00000000000E+00  0.89599059546E+03  0.89599059547E+03  0.25500000920E-02 0.  1.
        2   -1    0    0  501    0  0.00000000000E+00  0.00000000000E+00 -0.21972726177E+04  0.21972726177E+04  0.25500000920E-02 0. -1.
    10030    2    1    2    0    0  0.00000000000E+00  0.00000000000E+00 -0.13012820222E+04  0.30932632132E+04  0.28062327780E+04 0.  0.
        5    1    3    3  502    0  0.26907214365E+03 -0.74893395763E+03  0.62315756495E+03  0.10107667051E+04  0.46999998093E+01 0.  1.
       -5    1    3    3    0  502 -0.26907214365E+03  0.74893395763E+03 -0.19244395872E+04  0.20824965081E+04  0.46999998093E+01 0. -1.
</event>
<event>
 5   0  0.1302063E-05  0.2333986E+04  0.7818609E-02  0.8464640E-01
       -2   -1    0    0    0  501  0.00000000000E+00  0.00000000000E+00  0.72903302243E+03  0.72903302243E+03  0.25500000920E-02 0. -1.
        2   -1    0    0  501    0  0.00000000000E+00  0.00000000000E+00 -0.18680536829E+04  0.18680536829E+04  0.25500000920E-02 0.  1.
    10030    2    1    2    0    0  0.00000000000E+00  0.00000000000E+00 -0.11390206604E+04  0.25970867053E+04  0.23339861375E+04 0.  0.
        2    1    3    3  502    0 -0.96129471868E+03  0.32231894991E+03  0.73464011423E+02  0.10165500492E+04  0.25500000920E-02 0. -1.
       -2    1    3    3    0  502  0.96129471868E+03 -0.32231894991E+03 -0.12124846719E+04  0.15805366561E+04  0.25500000920E-02 0.  1.
</event>
<event>
 5   0  0.4447500E-06  0.2809244E+04  0.7818609E-02  0.8300404E-01
        3   -1    0    0  501    0  0.00000000000E+00  0.00000000000E+00  0.18772646847E+04  0.18772646874E+04  0.10100000352E+00 0.  1.
       -3   -1    0    0    0  501  0.00000000000E+00  0.00000000000E+00 -0.10509775312E+04  0.10509775361E+04  0.10100000352E+00 0. -1.
    10030    2    1    2    0    0  0.00000000000E+00  0.00000000000E+00  0.82628715353E+03  0.29282422235E+04  0.28092440370E+04 0.  0.
        4    1    3    3  502    0 -0.43392316400E+03  0.67834565900E+03  0.16127717850E+04  0.18026304637E+04  0.12699999809E+01 0.  1.
       -4    1    3    3    0  502  0.43392316400E+03 -0.67834565900E+03 -0.78648463147E+03  0.11256117598E+04  0.12699999809E+01 0. -1.
</event>
<event>
 5   0  0.5023691E-06  0.2755365E+04  0.7818609E-02  0.8317261E-01
        1   -1    0    0  501    0  0.00000000000E+00  0.00000000000E+00  0.16345420786E+04  0.16345420786E+04  0.50400001928E-02 0. -1.
       -1   -1    0    0    0  501  0.00000000000E+00  0.00000000000E+00 -0.11611870410E+04  0.11611870411E+04  0.50400001928E-02 0.  1.
    10030    2    1    2    0    0  0.00000000000E+00  0.00000000000E+00  0.47335503756E+03  0.27957291197E+04  0.27553650065E+04 0.  0.
        5    1    3    3  502    0 -0.12018525506E+04  0.67324205810E+03  0.25373351641E+03  0.14007523727E+04  0.46999998093E+01 0.  1.
       -5    1    3    3    0  502  0.12018525506E+04 -0.67324205810E+03  0.21962152115E+03  0.13949767470E+04  0.46999998093E+01 0. -1.
</event>
<event>
 5   0  0.5107453E-06  0.2834860E+04  0.7818609E-02  0.8292527E-01
       -1   -1    0    0    0  501  0.00000000000E+00  0.00000000000E+00  0.16951189733E+04  0.16951189733E+04  0.50400001928E-02 0. -1.
        1   -1    0    0  501    0  0.00000000000E+00  0.00000000000E+00 -0.11852309140E+04  0.11852309140E+04  0.50400001928E-02 0.  1.
    10030    2    1    2    0    0  0.00000000000E+00  0.00000000000E+00  0.50988805934E+03  0.28803498873E+04  0.28348597214E+04 0.  0.
        2    1    3    3  502    0  0.34118047762E+01 -0.24086561690E+03 -0.11642806627E+04  0.11889395894E+04  0.25500000920E-02 0.  1.
       -2    1    3    3    0  502 -0.34118047762E+01  0.24086561690E+03  0.16741687220E+04  0.16914102978E+04  0.25500000920E-02 0. -1.
</event>
<event>
 5   0  0.5217999E-06  0.2366413E+04  0.7818609E-02  0.8452186E-01
       -1   -1    0    0    0  501  0.00000000000E+00  0.00000000000E+00  0.12984966014E+04  0.12984966014E+04  0.50400001928E-02 0.  1.
        1   -1    0    0  501    0  0.00000000000E+00  0.00000000000E+00 -0.10781530135E+04  0.10781530135E+04  0.50400001928E-02 0. -1.
    10030    2    1    2    0    0  0.00000000000E+00  0.00000000000E+00  0.22034358788E+03  0.23766496149E+04  0.23664133399E+04 0.  0.
        1    1    3    3  502    0  0.83090041204E+03 -0.71615436524E+03  0.55560517007E+03  0.12296217608E+04  0.50400001928E-02 0.  1.
       -1    1    3    3    0  502 -0.83090041204E+03  0.71615436524E+03 -0.33526158218E+03  0.11470278541E+04  0.50400001928E-02 0. -1.
</event>
<event>
 5   0  0.1302063E-05  0.2886178E+04  0.7818609E-02  0.8277002E-01
        2   -1    0    0  501    0  0.00000000000E+00  0.00000000000E+00  0.23818661887E+04  0.23818661887E+04  0.25500000920E-02 0. -1.
       -2   -1    0    0    0  501  0.00000000000E+00  0.00000000000E+00 -0.87431691277E+03  0.87431691278E+03  0.25500000920E-02 0.  1.
    10030    2    1    2    0    0  0.00000000000E+00  0.00000000000E+00  0.15075492759E+04  0.32561831014E+04  0.28861780213E+04 0.  0.
        2    1    3    3  502    0  0.98122228851E+03  0.29507798918E+03  0.19002367050E+04  0.21588811302E+04  0.25500000920E-02 0. -1.
       -2    1    3    3    0  502 -0.98122228851E+03 -0.29507798918E+03 -0.39268742911E+03  0.10973019713E+04  0.25500000920E-02 0.  1.
</event>
<event>
 5   0  0.5217999E-06  0.2786577E+04  0.7818609E-02  0.8307448E-01
        1   -1    0    0  501    0  0.00000000000E+00  0.00000000000E+00  0.23686190242E+04  0.23686190242E+04  0.50400001928E-02 0.  1.
       -1   -1    0    0    0  501  0.00000000000E+00  0.00000000000E+00 -0.81957181518E+03  0.81957181519E+03  0.50400001928E-02 0. -1.
    10030    2    1    2    0    0  0.00000000000E+00  0.00000000000E+00  0.15490472090E+04  0.31881908394E+04  0.27865773940E+04 0.  0.
        1    1    3    3  502    0 -0.87331983335E+02  0.12547914407E+04  0.14601633646E+04  0.19272274091E+04  0.50400001928E-02 0.  1.
       -1    1    3    3    0  502  0.87331983335E+02 -0.12547914407E+04  0.88883844412E+02  0.12609634303E+04  0.50400001928E-02 0. -1.
</event>
<event>
 5   0  0.1283052E-05  0.2826851E+04  0.7818609E-02  0.8294980E-01
       -2   -1    0    0    0  501  0.00000000000E+00  0.00000000000E+00  0.68172870090E+03  0.68172870091E+03  0.25500000920E-02 0.  1.
        2   -1    0    0  501    0  0.00000000000E+00  0.00000000000E+00 -0.29304500280E+04  0.29304500280E+04  0.25500000920E-02 0. -1.
    10030    2    1    2    0    0  0.00000000000E+00  0.00000000000E+00 -0.22487213271E+04  0.36121787289E+04  0.28268511745E+04 0.  0.
        5    1    3    3  502    0  0.93355721551E+03 -0.10535612349E+04 -0.12871470908E+04  0.19074302277E+04  0.46999998093E+01 0.  1.
       -5    1    3    3    0  502 -0.93355721551E+03  0.10535612349E+04 -0.96157423638E+03  0.17047485012E+04  0.46999998093E+01 0. -1.
</event>
<event>
 5   0  0.4764214E-06  0.2393304E+04  0.7818609E-02  0.8442015E-01
       -1   -1    0    0    0  501  0.00000000000E+00  0.00000000000E+00  0.11584290012E+04  0.11584290012E+04  0.50400001928E-02 0.  1.
        1   -1    0    0  501    0  0.00000000000E+00  0.00000000000E+00 -0.12361361944E+04  0.12361361944E+04  0.50400001928E-02 0. -1.
    10030    2    1    2    0    0  0.00000000000E+00  0.00000000000E+00 -0.77707193190E+02  0.23945651956E+04  0.23933040066E+04 0.  0.
        3    1    3    3  502    0  0.72408345409E+03  0.10689781328E+03  0.90835116095E+03  0.11665443981E+04  0.10100000352E+00 0.  1.
       -3    1    3    3    0  502 -0.72408345409E+03 -0.10689781328E+03 -0.98605835414E+03  0.12280207974E+04  0.10100000352E+00 0. -1.
</event>
<event>
 5   0  0.4447500E-06  0.2800519E+04  0.7818609E-02  0.8303107E-01
        3   -1    0    0  501    0  0.00000000000E+00  0.00000000000E+00  0.10041900442E+04  0.10041900492E+04  0.10100000352E+00 0. -1.
       -3   -1    0    0    0  501  0.00000000000E+00  0.00000000000E+00 -0.19525454812E+04  0.19525454838E+04  0.10100000352E+00 0.  1.
    10030    2    1    2    0    0  0.00000000000E+00  0.00000000000E+00 -0.94835543703E+03  0.29567355331E+04  0.28005190550E+04 0.  0.
        2    1    3    3  502    0  0.59576454540E+03 -0.11042549464E+04  0.18211782557E+03  0.12678648519E+04  0.25500000920E-02 0.  1.
       -2    1    3    3    0  502 -0.59576454540E+03  0.11042549464E+04 -0.11304732626E+04  0.16888706812E+04  0.25500000920E-02 0. -1.
</event>
<event>
 5   0  0.5023691E-06  0.2795994E+04  0.7818609E-02  0.8304513E-01
        1   -1    0    0  501    0  0.00000000000E+00  0.00000000000E+00  0.12260165389E+04  0.12260165389E+04  0.50400001928E-02 0.  1.
       -1   -1    0    0    0  501  0.00000000000E+00  0.00000000000E+00 -0.15941016603E+04  0.15941016603E+04  0.50400001928E-02 0. -1.
    10030    2    1    2    0    0  0.00000000000E+00  0.00000000000E+00 -0.36808512137E+03  0.28201181992E+04  0.27959935623E+04 0.  0.
        5    1    3    3  502    0 -0.57071198711E+03 -0.92068081939E+03 -0.10754141031E+04  0.15264019545E+04  0.46999998093E+01 0. -1.
       -5    1    3    3    0  502  0.57071198711E+03  0.92068081939E+03  0.70732898173E+03  0.12937162447E+04  0.46999998093E+01 0.  1.
</event>
<event>
 5   0  0.1302063E-05  0.2784615E+04  0.7818609E-02  0.8308061E-01
       -2   -1    0    0    0  501  0.00000000000E+00  0.00000000000E+00  0.12625738128E+04  0.12625738128E+04  0.25500000920E-02 0. -1.
        2   -1    0    0  501    0  0.00000000000E+00  0.00000000000E+00 -0.15353722034E+04  0.15353722034E+04  0.25500000920E-02 0.  1.
    10030    2    1    2    0    0  0.00000000000E+00  0.00000000000E+00 -0.27279839059E+03  0.27979460161E+04  0.27846154038E+04 0.  0.
        2    1    3    3  502    0  0.58573861972E+03  0.12051050303E+04 -0.51656595623E+03  0.14360390844E+04  0.25500000920E-02 0.  1.
       -2    1    3    3    0  502 -0.58573861972E+03 -0.12051050303E+04  0.24376756564E+03  0.13619069318E+04  0.25500000920E-02 0. -1.
</event>
<event>
 5   0  0.4447500E-06  0.2819199E+04  0.7818609E-02  0.8297332E-01
       -3   -1    0    0    0  501  0.00000000000E+00  0.00000000000E+00  0.21911219335E+04  0.21911219358E+04  0.10100000352E+00 0.  1.
        3   -1    0    0  501    0  0.00000000000E+00  0.00000000000E+00 -0.90682822618E+03  0.90682823180E+03  0.10100000352E+00 0. -1.
    10030    2    1    2    0    0  0.00000000000E+00  0.00000000000E+00  0.12842937073E+04  0.30979501676E+04  0.28191993392E+04 0.  0.
        4    1    3    3  502    0 -0.74338013142E+03 -0.72587415190E+03 -0.40465128368E+03  0.11150119185E+04  0.12699999809E+01 0. -1.
       -4    1    3    3    0  502  0.74338013142E+03  0.72587415190E+03  0.16889449910E+04  0.19829382491E+04  0.12699999809E+01 0.  1.
</event>
<event>
 5   0  0.5217999E-06  0.2590716E+04  0.7818609E-02  0.8371361E-01
       -1   -1    0    0    0  501  0.00000000000E+00  0.00000000000E+00  0.12173466307E+04  0.12173466307E+04  0.50400001928E-02 0.  1.
        1   -1    0    0  501    0  0.00000000000E+00  0.00000000000E+00 -0.13783689558E+04  0.13783689558E+04  0.50400001928E-02 0. -1.
    10030    2    1    2    0    0  0.00000000000E+00  0.00000000000E+00 -0.16102232509E+03  0.25957155865E+04  0.25907163520E+04 0.  0.
        1    1    3    3  502    0 -0.10396592200E+04  0.72871875958E+03 -0.33797098506E+03  0.13138290265E+04  0.50400001928E-02 0. -1.
       -1    1    3    3    0  502  0.10396592200E+04 -0.72871875958E+03  0.17694865997E+03  0.12818865599E+04  0.50400001928E-02 0.  1.
</event>
<event>
 5   0  0.1302063E-05  0.2851187E+04  0.7818609E-02  0.8287551E-01
        2   -1    0    0  501    0  0.00000000000E+00  0.00000000000E+00  0.20431123957E+04  0.20431123957E+04  0.25500000920E-02 0.  1.
       -2   -1    0    0    0  501  0.00000000000E+00  0.00000000000E+00 -0.99471642123E+03  0.99471642124E+03  0.25500000920E-02 0. -1.
    10030    2    1    2    0    0  0.00000000000E+00  0.00000000000E+00  0.10483959745E+04  0.30378288169E+04  0.28511874371E+04 0.  0.
        2    1    3    3  502    0 -0.16807886965E+03 -0.89717425661E+03  0.16909362296E+04  0.19215716187E+04  0.25500000920E-02 0.  1.
       -2    1    3    3    0  502  0.16807886965E+03  0.89717425661E+03 -0.64254025514E+03  0.11162571982E+04  0.25500000920E-02 0. -1.
</event>
<event>
 5   0  0.5107453E-06  0.2791914E+04  0.7818609E-02  0.8305783E-01
       -1   -1    0    0    0  501  0.00000000000E+00  0.00000000000E+00  0.18725149857E+04  0.18725149857E+04  0.50400001928E-02 0.  1.
        1   -1    0    0  501    0  0.00000000000E+00  0.00000000000E+00 -0.10406835621E+04  0.10406835621E+04  0.50400001928E-02 0. -1.
    10030    2    1    2    0    0  0.00000000000E+00  0.00000000000E+00  0.83183142357E+03  0.29131985479E+04  0.27919137275E+04 0.  0.
        2    1    3    3  502    0  0.76755006633E+03  0.89395081140E+03 -0.36521324363E+03  0.12335565941E+04  0.25500000920E-02 0. -1.
       -2    1    3    3    0  502 -0.76755006633E+03 -0.89395081140E+03  0.11970446672E+04  0.16796419538E+04  0.25500000920E-02 0.  1.
</event>
<event>
 5   0  0.5107453E-06  0.2815122E+04  0.7818609E-02  0.8298589E-01
        1   -1    0    0  501    0  0.00000000000E+00  0.00000000000E+00  0.17906422077E+04  0.17906422077E+04  0.50400001928E-02 0.  1.
       -1   -1    0    0    0  501  0.00000000000E+00  0.00000000000E+00 -0.11064342468E+04  0.11064342468E+04  0.50400001928E-02 0. -1.
    10030    2    1    2    0    0  0.00000000000E+00  0.00000000000E+00  0.68420796091E+03  0.28970764545E+04  0.28151219244E+04 0.  0.
        2    1    3    3  502    0  0.12221304241E+03 -0.63426393522E+03 -0.94490410041E+03  0.11445831233E+04  0.25500000920E-02 0. -1.
       -2    1    3    3    0  502 -0.12221304241E+03  0.63426393522E+03  0.16291120613E+04  0.17524933311E+04  0.25500000920E-02 0.  1.
</event>
<event>
 5   0  0.5281919E-06  0.2835710E+04  0.7818609E-02  0.8292267E-01
       -1   -1    0    0    0  501  0.00000000000E+00  0.00000000000E+00  0.15676782835E+04  0.15676782835E+04  0.50400001928E-02 0. -1.
        1   -1    0    0  501    0  0.00000000000E+00  0.00000000000E+00 -0.12823507550E+04  0.12823507551E+04  0.50400001928E-02 0.  1.
    10030    2    1    2    0    0  0.00000000000E+00  0.00000000000E+00  0.28532752850E+03  0.28500290386E+04  0.28357104440E+04 0.  0.
        4    1    3    3  502    0 -0.12466454592E+04 -0.21580083025E+03  0.78590865492E+03  0.14894122754E+04  0.12699999809E+01 0. -1.
       -4    1    3    3    0  502  0.12466454592E+04  0.21580083025E+03 -0.50058112642E+03  0.13606167632E+04  0.12699999809E+01 0.  1.
</event>
<event>
 5   0  0.5281919E-06  0.2715840E+04  0.7818609E-02  0.8329884E-01
       -1   -1    0    0    0  501  0.00000000000E+00  0.00000000000E+00  0.10418673013E+04  0.10418673013E+04  0.50400001928E-02 0. -1.
        1   -1    0    0  501    0  0.00000000000E+00  0.00000000000E+00 -0.17698482646E+04  0.17698482646E+04  0.50400001928E-02 0.  1.
    10030    2    1    2    0    0  0.00000000000E+00  0.00000000000E+00 -0.72798096335E+03  0.28117155659E+04  0.27158402274E+04 0.  0.
        4    1    3    3  502    0 -0.13293213155E+04  0.15993344317E+03 -0.59841628748E+03  0.14665529422E+04  0.12699999809E+01 0.  1.
       -4    1    3    3    0  502  0.13293213155E+04 -0.15993344317E+03 -0.12956467587E+03  0.13451626237E+04  0.12699999809E+01 0. -1.
</event>
<event>
 5   0  0.5023691E-06  0.2782091E+04  0.7818609E-02  0.8308850E-01
       -1   -1    0    0    0  501  0.00000000000E+00  0.00000000000E+00  0.16877039194E+04  0.16877039194E+04  0.50400001928E-02 0.  1.
        1   -1    0    0  501    0  0.00000000000E+00  0.00000000000E+00 -0.11465322062E+04  0.11465322062E+04  0.50400001928E-02 0. -1.
    10030    2    1    2    0    0  0.00000000000E+00  0.00000000000E+00  0.54117171322E+03  0.28342361255E+04  0.27820905075E+04 0.  0.
        5    1    3    3  502    0 -0.27915998421E+03  0.58623269185E+03 -0.98266957040E+03  0.11778202921E+04  0.46999998093E+01 0. -1.
       -5    1    3    3    0  502  0.27915998421E+03 -0.58623269185E+03  0.15238412836E+04  0.16564158335E+04  0.46999998093E+01 0.  1.
</event>
<event>
 5   0  0.4764214E-06  0.2785252E+04  0.7818609E-02  0.8307862E-01
        1   -1    0    0  501    0  0.00000000000E+00  0.00000000000E+00  0.10166549761E+04  0.10166549761E+04  0.50400001928E-02 0.  1.
       -1   -1    0    0    0  501  0.00000000000E+00  0.00000000000E+00 -0.19076356098E+04  0.19076356098E+04  0.50400001928E-02 0. -1.
    10030    2    1    2    0    0  0.00000000000E+00  0.00000000000E+00 -0.89098063370E+03  0.29242905858E+04  0.27852520426E+04 0.  0.
        3    1    3    3  502    0  0.86557399545E+03  0.78503253675E+03  0.34989758344E+03  0.12198043919E+04  0.10100000352E+00 0. -1.
       -3    1    3    3    0  502 -0.86557399545E+03 -0.78503253675E+03 -0.12408782171E+04  0.17044861939E+04  0.10100000352E+00 0.  1.
</event>
<event>
 5   0  0.1283052E-05  0.2805367E+04  0.7818609E-02  0.8301604E-01
        2   -1    0    0  501    0  0.00000000000E+00  0.00000000000E+00  0.20780215655E+04  0.20780215655E+04  0.25500000920E-02 0. -1.
       -2   -1    0    0    0  501  0.00000000000E+00  0.00000000000E+00 -0.94682426963E+03  0.94682426963E+03  0.25500000920E-02 0.  1.
    10030    2    1    2    0    0  0.00000000000E+00  0.00000000000E+00  0.11311972959E+04  0.30248458351E+04  0.28053671781E+04 0.  0.
        5    1    3    3  502    0  0.72155767734E+03 -0.10470310463E+04 -0.72821957899E+02  0.12736736714E+04  0.46999998093E+01 0.  1.
       -5    1    3    3    0  502 -0.72155767734E+03  0.10470310463E+04  0.12040192538E+04  0.17511721637E+04  0.46999998093E+01 0. -1.
</event>
<event>
 5   0  0.5023691E-06  0.2832547E+04  0.7818609E-02  0.8293234E-01
        1   -1    0    0  501    0  0.00000000000E+00  0.00000000000E+00  0.25358960283E+04  0.25358960283E+04  0.50400001928E-02 0. -1.
       -1   -1    0    0    0  501  0.00000000000E+00  0.00000000000E+00 -0.79097510747E+03  0.79097510748E+03  0.50400001928E-02 0.  1.
    10030    2    1    2    0    0  0.00000000000E+00  0.00000000000E+00  0.17449209208E+04  0.33268711358E+04  0.28325470048E+04 0.  0.
        5    1    3    3  502    0 -0.12955941954E+03  0.23789054956E+03  0.25051772172E+04  0.25197842242E+04  0.46999998093E+01 0. -1.
       -5    1    3    3    0  502  0.12955941954E+03 -0.23789054956E+03 -0.76025629637E+03  0.80708691163E+03  0.46999998093E+01 0.  1.
</event>
<event>
 5   0  0.1388269E-05  0.2610176E+04  0.7818609E-02  0.8364753E-01
       -2   -1    0    0    0  501  0.00000000000E+00  0.00000000000E+00  0.10842028852E+04  0.10842028852E+04  0.25500000920E-02 0. -1.
        2   -1    0    0  501    0  0.00000000000E+00  0.00000000000E+00 -0.15709740299E+04  0.15709740299E+04  0.25500000920E-02 0.  1.
    10030    2    1    2    0    0  0.00000000000E+00  0.00000000000E+00 -0.48677114476E+03  0.26551769151E+04  0.26101759142E+04 0.  0.
        1    1    3    3  502    0 -0.66339573511E+02 -0.11873222454E+04 -0.79035417132E+03  0.14278637083E+04  0.50400001928E-02 0.  1.
       -1    1    3    3    0  502  0.66339573511E+02  0.11873222454E+04  0.30358302656E+03  0.12273132068E+04  0.50400001928E-02 0. -1.
</event>
<event>
 5   0  0.4764214E-06  0.2811826E+04  0.7818609E-02  0.8299606E-01
       -1   -1    0    0    0  501  0.00000000000E+00  0.00000000000E+00  0.18738620346E+04  0.18738620346E+04  0.50400001928E-02 0.  1.
        1   -1    0    0  501    0  0.00000000000E+00  0.00000000000E+00 -0.10548223094E+04  0.10548223094E+04  0.50400001928E-02 0. -1.
    10030    2    1    2    0    0  0.00000000000E+00  0.00000000000E+00  0.81903972523E+03  0.29286843440E+04  0.28118260819E+04 0.  0.
        3    1    3    3  502    0  0.76791672338E+03 -0.19637925440E+03  0.16189542150E+04  0.18025741777E+04  0.10100000352E+00 0.  1.
       -3    1    3    3    0  502 -0.76791672338E+03  0.19637925440E+03 -0.79991448973E+03  0.11261101663E+04  0.10100000352E+00 0. -1.
</event>
<event>
 5   0  0.5281919E-06  0.2788432E+04  0.7818609E-02  0.8306869E-01
        1   -1    0    0  501    0  0.00000000000E+00  0.00000000000E+00  0.22094544366E+04  0.22094544366E+04  0.50400001928E-02 0. -1.
       -1   -1    0    0    0  501  0.00000000000E+00  0.00000000000E+00 -0.87978202148E+03  0.87978202149E+03  0.50400001928E-02 0.  1.
    10030    2    1    2    0    0  0.00000000000E+00  0.00000000000E+00  0.13296724151E+04  0.30892364581E+04  0.27884320258E+04 0.  0.
        4    1    3    3  502    0  0.21088657931E+03  0.11973362754E+04 -0.91242884245E+02  0.12191858688E+04  0.12699999809E+01 0.  1.
       -4    1    3    3    0  502 -0.21088657931E+03 -0.11973362754E+04  0.14209152994E+04  0.18700505893E+04  0.12699999809E+01 0. -1.
</event>
<event>
 5   0  0.1388269E-05  0.2824257E+04  0.7818609E-02  0.8295777E-01
       -2   -1    0    0    0  501  0.00000000000E+00  0.00000000000E+00  0.61542719024E+03  0.61542719025E+03  0.25500000920E-02 0.  1.
        2   -1    0    0  501    0  0.00000000000E+00  0.00000000000E+00 -0.32401992626E+04  0.32401992626E+04  0.25500000920E-02 0. -1.
    10030    2    1    2    0    0  0.00000000000E+00  0.00000000000E+00 -0.26247720723E+04  0.38556264528E+04  0.28242568778E+04 0.  0.
        1    1    3    3  502    0 -0.92687096770E+03 -0.31546666710E+03  0.76815738673E+02  0.98209453036E+03  0.50400001928E-02 0.  1.
       -1    1    3    3    0  502  0.92687096770E+03  0.31546666710E+03 -0.27015878110E+04  0.28735319225E+04  0.50400001928E-02 0. -1.
</event>
<event>
 5   0  0.1350863E-05  0.2793275E+04  0.7818609E-02  0.8305359E-01
        2   -1    0    0  501    0  0.00000000000E+00  0.00000000000E+00  0.25052494407E+04  0.25052494407E+04  0.25500000920E-02 0. -1.
       -2   -1    0    0    0  501  0.00000000000E+00  0.00000000000E+00 -0.77860388977E+03  0.77860388978E+03  0.25500000920E-02 0.  1.
    10030    2    1    2    0    0  0.00000000000E+00  0.00000000000E+00  0.17266455509E+04  0.32838533304E+04  0.27932754675E+04 0.  0.
        3    1    3    3  502    0 -0.94497768501E+03 -0.10280550569E+04  0.83184481694E+03  0.16253755981E+04  0.10100000352E+00 0.  1.
       -3    1    3    3    0  502  0.94497768501E+03  0.10280550569E+04  0.89480073395E+03  0.16584777324E+04  0.10100000352E+00 0. -1.
</event>
<event>
 5   0  0.1388269E-05  0.2757168E+04  0.7818609E-02  0.8316691E-01
        2   -1    0    0  501    0  0.00000000000E+00  0.00000000000E+00  0.22536483085E+04  0.22536483085E+04  0.25500000920E-02 0.  1.
       -2   -1    0    0    0  501  0.00000000000E+00  0.00000000000E+00 -0.84329661523E+03  0.84329661523E+03  0.25500000920E-02 0. -1.
    10030    2    1    2    0    0  0.00000000000E+00  0.00000000000E+00  0.14103516933E+04  0.30969449237E+04  0.27571681055E+04 0.  0.
        1    1    3    3  502    0 -0.24261737372E+03 -0.93425023203E+02 -0.81551147612E+03  0.85594999427E+03  0.50400001928E-02 0. -1.
       -1    1    3    3    0  502  0.24261737372E+03  0.93425023203E+02  0.22258631694E+04  0.22409949295E+04  0.50400001928E-02 0.  1.
</event>
<event>
 5   0  0.1350863E-05  0.2810851E+04  0.7818609E-02  0.8299907E-01
        2   -1    0    0  501    0  0.00000000000E+00  0.00000000000E+00  0.14977285810E+04  0.14977285810E+04  0.25500000920E-02 0. -1.
       -2   -1    0    0    0  501  0.00000000000E+00  0.00000000000E+00 -0.13188111518E+04  0.13188111518E+04  0.25500000920E-02 0.  1.
    10030    2    1    2    0    0  0.00000000000E+00  0.00000000000E+00  0.17891742919E+03  0.28165397329E+04  0.28108512270E+04 0.  0.
        3    1    3    3  502    0 -0.55929089659E+03 -0.12636569692E+04  0.34607444248E+03  0.14245710838E+04  0.10100000352E+00 0.  1.
       -3    1    3    3    0  502  0.55929089659E+03  0.12636569692E+04 -0.16715701329E+03  0.13919686491E+04  0.10100000352E+00 0. -1.
</event>
<event>
 5   0  0.1302063E-05  0.2793393E+04  0.7818609E-02  0.8305322E-01
        2   -1    0    0  501    0  0.00000000000E+00  0.00000000000E+00  0.15373414812E+04  0.15373414812E+04  0.25500000920E-02 0. -1.
       -2   -1    0    0    0  501  0.00000000000E+00  0.00000000000E+00 -0.12689189505E+04  0.12689189505E+04  0.25500000920E-02 0.  1.
    10030    2    1    2    0    0  0.00000000000E+00  0.00000000000E+00  0.26842253071E+03  0.28062604317E+04  0.27933934480E+04 0.  0.
        2    1    3    3  502    0 -0.67498942502E+03 -0.18845768603E+03  0.13479297175E+04  0.15192239949E+04  0.25500000920E-02 0. -1.
       -2    1    3    3    0  502  0.67498942502E+03  0.18845768603E+03 -0.10795071868E+04  0.12870364368E+04  0.25500000920E-02 0.  1.
</event>
<event>
 5   0  0.1388269E-05  0.2803665E+04  0.7818609E-02  0.8302131E-01
       -2   -1    0    0    0  501  0.00000000000E+00  0.00000000000E+00  0.11439602029E+04  0.11439602029E+04  0.25500000920E-02 0. -1.
        2   -1    0    0  501    0  0.00000000000E+00  0.00000000000E+00 -0.17178345260E+04  0.17178345260E+04  0.25500000920E-02 0.  1.
    10030    2    1    2    0    0  0.00000000000E+00  0.00000000000E+00 -0.57387432307E+03  0.28617947289E+04  0.28036649821E+04 0.  0.
        1    1    3    3  502    0  0.36278583190E+03 -0.11430374352E+04  0.45405221456E+03  0.12823071206E+04  0.50400001928E-02 0. -1.
       -1    1    3    3    0  502 -0.36278583190E+03  0.11430374352E+04 -0.10279265376E+04  0.15794876083E+04  0.50400001928E-02 0.  1.
</event>
<event>
 5   0  0.5023691E-06  0.2835912E+04  0.7818609E-02  0.8292205E-01
       -1   -1    0    0    0  501  0.00000000000E+00  0.00000000000E+00  0.17679861848E+04  0.17679861848E+04  0.50400001928E-02 0. -1.
        1   -1    0    0  501    0  0.00000000000E+00  0.00000000000E+00 -0.11372253998E+04  0.11372253998E+04  0.50400001928E-02 0.  1.
    10030    2    1    2    0    0  0.00000000000E+00  0.00000000000E+00  0.63076078500E+03  0.29052115846E+04  0.28359117023E+04 0.  0.
        5    1    3    3  502    0  0.60088982970E+03 -0.96026243372E+03 -0.55834097689E+03  0.12629090488E+04  0.46999998093E+01 0.  1.
       -5    1    3    3    0  502 -0.60088982970E+03  0.96026243372E+03  0.11891017619E+04  0.16423025358E+04  0.46999998093E+01 0. -1.
</event>
<event>
 5   0  0.5023691E-06  0.2761884E+04  0.7818609E-02  0.8315201E-01
        1   -1    0    0  501    0  0.00000000000E+00  0.00000000000E+00  0.12029958083E+04  0.12029958083E+04  0.50400001928E-02 0.  1.
       -1   -1    0    0    0  501  0.00000000000E+00  0.00000000000E+00 -0.15852095512E+04  0.15852095512E+04  0.50400001928E-02 0. -1.
    10030    2    1    2    0    0  0.00000000000E+00  0.00000000000E+00 -0.38221374289E+03  0.27882053594E+04  0.27618837378E+04 0.  0.
        5    1    3    3  502    0 -0.77878738739E+03 -0.58941561442E+03  0.79444385733E+03  0.12590010698E+04  0.46999998093E+01 0.  1.
       -5    1    3    3    0  502  0.77878738739E+03  0.58941561442E+03 -0.11766576002E+04  0.15292042896E+04  0.46999998093E+01 0. -1.
</event>
<event>
 5   0  0.1302063E-05  0.2744893E+04  0.7818609E-02  0.8320584E-01
        2   -1    0    0  501    0  0.00000000000E+00  0.00000000000E+00  0.13129929021E+04  0.13129929021E+04  0.25500000920E-02 0.  1.
       -2   -1    0    0    0  501  0.00000000000E+00  0.00000000000E+00 -0.14345924126E+04  0.14345924126E+04  0.25500000920E-02 0. -1.
    10030    2    1    2    0    0  0.00000000000E+00  0.00000000000E+00 -0.12159951058E+03  0.27475853147E+04  0.27448931893E+04 0.  0.
        2    1    3    3  502    0 -0.68168728816E+03  0.11840628450E+04 -0.19095526289E+03  0.13795529320E+04  0.25500000920E-02 0. -1.
       -2    1    3    3    0  502  0.68168728816E+03 -0.11840628450E+04  0.69355752307E+02  0.13680323827E+04  0.25500000920E-02 0.  1.
</event>
<event>
 5   0  0.4764214E-06  0.2846063E+04  0.7818609E-02  0.8289109E-01
        1   -1    0    0  501    0  0.00000000000E+00  0.00000000000E+00  0.94924478908E+03  0.94924478909E+03  0.50400001928E-02 0. -1.
       -1   -1    0    0    0  501  0.00000000000E+00  0.00000000000E+00 -0.21332945726E+04  0.21332945726E+04  0.50400001928E-02 0.  1.
    10030    2    1    2    0    0  0.00000000000E+00  0.00000000000E+00 -0.11840497835E+04  0.30825393617E+04  0.28460630749E+04 0.  0.
        3    1    3    3  502    0 -0.36070500911E+03 -0.12750766004E+04 -0.11538655140E+04  0.17570811236E+04  0.10100000352E+00 0. -1.
       -3    1    3    3    0  502  0.36070500911E+03  0.12750766004E+04 -0.30184269525E+02  0.13254582380E+04  0.10100000352E+00 0.  1.
</event>
<event>
 5   0  0.5023691E-06  0.2785738E+04  0.7818609E-02  0.8307710E-01
       -1   -1    0    0    0  501  0.00000000000E+00  0.00000000000E+00  0.12704074657E+04  0.12704074657E+04  0.50400001928E-02 0. -1.
        1   -1    0    0  501    0  0.00000000000E+00  0.00000000000E+00 -0.15271351522E+04  0.15271351522E+04  0.50400001928E-02 0.  1.
    10030    2    1    2    0    0  0.00000000000E+00  0.00000000000E+00 -0.25672768654E+03  0.27975426179E+04  0.27857378904E+04 0.  0.
        5    1    3    3  502    0  0.78997153212E+03 -0.53597681554E+03 -0.11469279149E+04  0.14922439145E+04  0.46999998093E+01 0.  1.
       -5    1    3    3    0  502 -0.78997153212E+03  0.53597681554E+03  0.89020022840E+03  0.13052987034E+04  0.46999998093E+01 0. -1.
</event>
<event>
 5   0  0.1283052E-05  0.2805429E+04  0.7818609E-02  0.8301585E-01
       -2   -1    0    0    0  501  0.00000000000E+00  0.00000000000E+00  0.11276803267E+04  0.11276803267E+04  0.25500000920E-02 0.  1.
        2   -1    0    0  501    0  0.00000000000E+00  0.00000000000E+00 -0.17448276096E+04  0.17448276096E+04  0.25500000920E-02 0. -1.
    10030    2    1    2    0    0  0.00000000000E+00  0.00000000000E+00 -0.61714728291E+03  0.28725079364E+04  0.28054288577E+04 0.  0.
        5    1    3    3  502    0 -0.63493675304E+03  0.71855324524E+03  0.73968377525E+03  0.12110398936E+04  0.46999998093E+01 0.  1.
       -5    1    3    3    0  502  0.63493675304E+03 -0.71855324524E+03 -0.13568310582E+04  0.16614680427E+04  0.46999998093E+01 0. -1.
</event>
<event>
 5   0  0.1350863E-05  0.2878099E+04  0.7818609E-02  0.8279424E-01
       -2   -1    0    0    0  501  0.00000000000E+00  0.00000000000E+00  0.18310826708E+04  0.18310826708E+04  0.25500000920E-02 0. -1.
        2   -1    0    0  501    0  0.00000000000E+00  0.00000000000E+00 -0.11309504770E+04  0.11309504770E+04  0.25500000920E-02 0.  1.
    10030    2    1    2    0    0  0.00000000000E+00  0.00000000000E+00  0.70013219383E+03  0.29620331478E+04  0.28780992477E+04 0.  0.
        3    1    3    3  502    0  0.98906295140E+03 -0.72619940918E+03 -0.42369247522E+03  0.12981241957E+04  0.10100000352E+00 0.  1.
       -3    1    3    3    0  502 -0.98906295140E+03  0.72619940918E+03  0.11238246691E+04  0.16639089520E+04  0.10100000352E+00 0. -1.
</event>
<event>
 5   0  0.5023691E-06  0.3207909E+04  0.7818609E-02  0.8186732E-01
        1   -1    0    0  501    0  0.00000000000E+00  0.00000000000E+00  0.27990528953E+04  0.27990528953E+04  0.50400001928E-02 0. -1.
       -1   -1    0    0    0  501  0.00000000000E+00  0.00000000000E+00 -0.91912157842E+03  0.91912157843E+03  0.50400001928E-02 0.  1.
    10030    2    1    2    0    0  0.00000000000E+00  0.00000000000E+00  0.18799313169E+04  0.37181744738E+04  0.32079089234E+04 0.  0.
        5    1    3    3  502    0 -0.38866618441E+03 -0.11844896353E+04  0.21097433386E+04  0.24505338487E+04  0.46999998093E+01 0. -1.
       -5    1    3    3    0  502  0.38866618441E+03  0.11844896353E+04 -0.22981202167E+03  0.12676406251E+04  0.46999998093E+01 0.  1.
</event>
<event>
 5   0  0.1302063E-05  0.2775940E+04  0.7818609E-02  0.8310777E-01
        2   -1    0    0  501    0  0.00000000000E+00  0.00000000000E+00  0.19698116121E+04  0.19698116121E+04  0.25500000920E-02 0. -1.
       -2   -1    0    0    0  501  0.00000000000E+00  0.00000000000E+00 -0.97799229157E+03  0.97799229157E+03  0.25500000920E-02 0.  1.
    10030    2    1    2    0    0  0.00000000000E+00  0.00000000000E+00  0.99181932055E+03  0.29478039037E+04  0.27759398931E+04 0.  0.
        2    1    3    3  502    0 -0.11009186108E+04  0.11708756580E+03  0.13848316833E+04  0.17729890233E+04  0.25500000920E-02 0. -1.
       -2    1    3    3    0  502  0.11009186108E+04 -0.11708756580E+03 -0.39301236278E+03  0.11748148803E+04  0.25500000920E-02 0.  1.
</event>
<event>
 5   0  0.5217999E-06  0.2633595E+04  0.7818609E-02  0.8356878E-01
       -1   -1    0    0    0  501  0.00000000000E+00  0.00000000000E+00  0.13978949475E+04  0.13978949475E+04  0.50400001928E-02 0. -1.
        1   -1    0    0  501    0  0.00000000000E+00  0.00000000000E+00 -0.12404049472E+04  0.12404049472E+04  0.50400001928E-02 0.  1.
    10030    2    1    2    0    0  0.00000000000E+00  0.00000000000E+00  0.15749000030E+03  0.26382998947E+04  0.26335951159E+04 0.  0.
        1    1    3    3  502    0 -0.11718710749E+04  0.58415949097E+03  0.21839159254E+03  0.13274859754E+04  0.50400001928E-02 0.  1.
       -1    1    3    3    0  502  0.11718710749E+04 -0.58415949097E+03 -0.60901592238E+02  0.13108139193E+04  0.50400001928E-02 0. -1.
</event>
<event>
 5   0  0.1350863E-05  0.2847408E+04  0.7818609E-02  0.8288700E-01
       -2   -1    0    0    0  501  0.00000000000E+00  0.00000000000E+00  0.78838166398E+03  0.78838166399E+03  0.25500000920E-02 0.  1.
        2   -1    0    0  501    0  0.00000000000E+00  0.00000000000E+00 -0.25710040107E+04  0.25710040107E+04  0.25500000920E-02 0. -1.
    10030    2    1    2    0    0  0.00000000000E+00  0.00000000000E+00 -0.17826223467E+04  0.33593856747E+04  0.28474075367E+04 0.  0.
        3    1    3    3  502    0  0.10094688367E+04 -0.83628475336E+03 -0.23597978688E+03  0.13319481938E+04  0.10100000352E+00 0.  1.
       -3    1    3    3    0  502 -0.10094688367E+04  0.83628475336E+03 -0.15466425598E+04  0.20274374809E+04  0.10100000352E+00 0. -1.
</event>
<event>
 5   0  0.5107453E-06  0.2900472E+04  0.7818609E-02  0.8272737E-01
       -1   -1    0    0    0  501  0.00000000000E+00  0.00000000000E+00  0.13064437567E+04  0.13064437567E+04  0.50400001928E-02 0. -1.
        1   -1    0    0  501    0  0.00000000000E+00  0.00000000000E+00 -0.16098550553E+04  0.16098550553E+04  0.50400001928E-02 0.  1.
    10030    2    1    2    0    0  0.00000000000E+00  0.00000000000E+00 -0.30341129859E+03  0.29162988120E+04  0.29004724347E+04 0.  0.
        2    1    3    3  502    0  0.12919556731E+04 -0.17979812461E+03  0.48555728513E+03  0.13918486642E+04  0.25500000920E-02 0. -1.
       -2    1    3    3    0  502 -0.12919556731E+04  0.17979812461E+03 -0.78896858372E+03  0.15244501478E+04  0.25500000920E-02 0.  1.
</event>
<event>
 5   0  0.4764214E-06  0.2684024E+04  0.7818609E-02  0.8340207E-01
       -1   -1    0    0    0  501  0.00000000000E+00  0.00000000000E+00  0.10073094529E+04  0.10073094529E+04  0.50400001928E-02 0. -1.
        1   -1    0    0  501    0  0.00000000000E+00  0.00000000000E+00 -0.17879273512E+04  0.17879273512E+04  0.50400001928E-02 0.  1.
    10030    2    1    2    0    0  0.00000000000E+00  0.00000000000E+00 -0.78061789829E+03  0.27952368041E+04  0.26840239358E+04 0.  0.
        3    1    3    3  502    0 -0.65118777241E+03  0.45887207174E+03  0.73443472733E+03  0.10835144079E+04  0.10100000352E+00 0. -1.
       -3    1    3    3    0  502  0.65118777241E+03 -0.45887207174E+03 -0.15150526256E+04  0.17117223962E+04  0.10100000352E+00 0.  1.
</event>
<event>
 5   0  0.5023691E-06  0.2782366E+04  0.7818609E-02  0.8308764E-01
       -1   -1    0    0    0  501  0.00000000000E+00  0.00000000000E+00  0.21004838956E+04  0.21004838956E+04  0.50400001928E-02 0. -1.
        1   -1    0    0  501    0  0.00000000000E+00  0.00000000000E+00 -0.92140209335E+03  0.92140209336E+03  0.50400001928E-02 0.  1.
    10030    2    1    2    0    0  0.00000000000E+00  0.00000000000E+00  0.11790818023E+04  0.30218859890E+04  0.27823660856E+04 0.  0.
        5    1    3    3  502    0 -0.33930243662E+03  0.12806210359E+04  0.10506498958E+04  0.16908588571E+04  0.46999998093E+01 0.  1.
       -5    1    3    3    0  502  0.33930243662E+03 -0.12806210359E+04  0.12843190647E+03  0.13310271319E+04  0.46999998093E+01 0. -1.
</event>
<event>
 5   0  0.5107453E-06  0.2920544E+04  0.7818609E-02  0.8266791E-01
       -1   -1    0    0    0  501  0.00000000000E+00  0.00000000000E+00  0.13415112103E+04  0.13415112103E+04  0.50400001928E-02 0.  1.
        1   -1    0    0  501    0  0.00000000000E+00  0.00000000000E+00 -0.15895466360E+04  0.15895466360E+04  0.50400001928E-02 0. -1.
    10030    2    1    2    0    0  0.00000000000E+00  0.00000000000E+00 -0.24803542573E+03  0.29310578463E+04  0.29205442174E+04 0.  0.
        2    1    3    3  502    0  0.49341732572E+03  0.97373815769E+03 -0.10974413013E+04  0.15479031194E+04  0.25500000920E-02 0. -1.
       -2    1    3    3    0  502 -0.49341732572E+03 -0.97373815769E+03  0.84940587558E+03  0.13831547269E+04  0.25500000920E-02 0.  1.
</event>
<event>
 5   0  0.1330962E-05  0.2802250E+04  0.7818609E-02  0.8302570E-01
        2   -1    0    0  501    0  0.00000000000E+00  0.00000000000E+00  0.12393697566E+04  0.12393697566E+04  0.25500000920E-02 0.  1.
       -2   -1    0    0    0  501  0.00000000000E+00  0.00000000000E+00 -0.15839911412E+04  0.15839911412E+04  0.25500000920E-02 0. -1.
    10030    2    1    2    0    0  0.00000000000E+00  0.00000000000E+00 -0.34462138456E+03  0.28233608978E+04  0.28022496071E+04 0.  0.
        4    1    3    3  502    0  0.43865557126E+03 -0.32451295108E+03 -0.14725452155E+04  0.15703879744E+04  0.12699999809E+01 0. -1.
       -4    1    3    3    0  502 -0.43865557126E+03  0.32451295108E+03  0.11279238309E+04  0.12529729234E+04  0.12699999809E+01 0.  1.
</event>
<event>
 5   0  0.5281919E-06  0.2251097E+04  0.7818609E-02  0.8497456E-01
        1   -1    0    0  501    0  0.00000000000E+00  0.00000000000E+00  0.23471582218E+04  0.23471582218E+04  0.50400001928E-02 0.  1.
       -1   -1    0    0    0  501  0.00000000000E+00  0.00000000000E+00 -0.53974187523E+03  0.53974187525E+03  0.50400001928E-02 0. -1.
    10030    2    1    2    0    0  0.00000000000E+00  0.00000000000E+00  0.18074163465E+04  0.28869000970E+04  0.22510971371E+04 0.  0.
        4    1    3    3  502    0  0.86993763435E+03 -0.37766967536E+03  0.16810751089E+04  0.19301401519E+04  0.12699999809E+01 0.  1.
       -4    1    3    3    0  502 -0.86993763435E+03  0.37766967536E+03  0.12634123764E+03  0.95675994511E+03  0.12699999809E+01 0. -1.
</event>
<event>
 5   0  0.5023691E-06  0.2817799E+04  0.7818609E-02  0.8297764E-01
       -1   -1    0    0    0  501  0.00000000000E+00  0.00000000000E+00  0.11390082959E+04  0.11390082959E+04  0.50400001928E-02 0. -1.
        1   -1    0    0  501    0  0.00000000000E+00  0.00000000000E+00 -0.17427419023E+04  0.17427419023E+04  0.50400001928E-02 0.  1.
    10030    2    1    2    0    0  0.00000000000E+00  0.00000000000E+00 -0.60373360639E+03  0.28817501981E+04  0.28177987751E+04 0.  0.
        5    1    3    3  502    0  0.82719299270E+03 -0.12434302467E+03 -0.14612923311E+04  0.16837775393E+04  0.46999998093E+01 0.  1.
       -5    1    3    3    0  502 -0.82719299270E+03  0.12434302467E+03  0.85755872472E+03  0.11979726588E+04  0.46999998093E+01 0. -1.
</event>
<event>
 5   0  0.5107453E-06  0.2787539E+04  0.7818609E-02  0.8307148E-01
        1   -1    0    0  501    0  0.00000000000E+00  0.00000000000E+00  0.10832556633E+04  0.10832556633E+04  0.50400001928E-02 0. -1.
       -1   -1    0    0    0  501  0.00000000000E+00  0.00000000000E+00 -0.17932910990E+04  0.17932910990E+04  0.50400001928E-02 0.  1.
    10030    2    1    2    0    0  0.00000000000E+00  0.00000000000E+00 -0.71003543564E+03  0.28765467623E+04  0.27875385120E+04 0.  0.
        2    1    3    3  502    0 -0.10612527166E+04 -0.88132433017E+03 -0.14965873543E+03  0.13875833815E+04  0.25500000920E-02 0. -1.
       -2    1    3    3    0  502  0.10612527166E+04  0.88132433017E+03 -0.56037670021E+03  0.14889633809E+04  0.25500000920E-02 0.  1.
</event>
<event>
 5   0  0.1388269E-05  0.2798502E+04  0.7818609E-02  0.8303733E-01
        2   -1    0    0  501    0  0.00000000000E+00  0.00000000000E+00  0.18503098441E+04  0.18503098441E+04  0.25500000920E-02 0. -1.
       -2   -1    0    0    0  501  0.00000000000E+00  0.00000000000E+00 -0.10581492496E+04  0.10581492496E+04  0.25500000920E-02 0.  1.
    10030    2    1    2    0    0  0.00000000000E+00  0.00000000000E+00  0.79216059445E+03  0.29084590937E+04  0.27985024374E+04 0.  0.
        1    1    3    3  502    0 -0.10889465708E+04  0.62767533787E+03 -0.24299763774E+03  0.12801674952E+04  0.50400001928E-02 0.  1.
       -1    1    3    3    0  502  0.10889465708E+04 -0.62767533787E+03  0.10351582322E+04  0.16282915984E+04  0.50400001928E-02 0. -1.
</event>
<event>
 5   0  0.1350863E-05  0.2811430E+04  0.7818609E-02  0.8299729E-01
        2   -1    0    0  501    0  0.00000000000E+00  0.00000000000E+00  0.90779143983E+03  0.90779143984E+03  0.25500000920E-02 0.  1.
       -2   -1    0    0    0  501  0.00000000000E+00  0.00000000000E+00 -0.21767496100E+04  0.21767496100E+04  0.25500000920E-02 0. -1.
    10030    2    1    2    0    0  0.00000000000E+00  0.00000000000E+00 -0.12689581702E+04  0.30845410498E+04  0.28114300010E+04 0.  0.
        3    1    3    3  502    0  0.35487505681E+03 -0.55522037261E+03 -0.19968060096E+04  0.21027220973E+04  0.10100000352E+00 0. -1.
       -3    1    3    3    0  502 -0.35487505681E+03  0.55522037261E+03  0.72784783943E+03  0.98181895259E+03  0.10100000352E+00 0.  1.
</event>
<event>
 5   0  0.1350863E-05  0.2834544E+04  0.7818609E-02  0.8292623E-01
        2   -1    0    0  501    0  0.00000000000E+00  0.00000000000E+00  0.10375899107E+04  0.10375899107E+04  0.25500000920E-02 0.  1.
       -2   -1    0    0    0  501  0.00000000000E+00  0.00000000000E+00 -0.19358896216E+04  0.19358896216E+04  0.25500000920E-02 0. -1.
    10030    2    1    2    0    0  0.00000000000E+00  0.00000000000E+00 -0.89829971088E+03  0.29734795323E+04  0.28345437302E+04 0.  0.
        3    1    3    3  502    0  0.19244851624E+03 -0.22016535706E+03  0.10056002821E+04  0.10472541017E+04  0.10100000352E+00 0.  1.
       -3    1    3    3    0  502 -0.19244851624E+03  0.22016535706E+03 -0.19038999930E+04  0.19262254306E+04  0.10100000352E+00 0. -1.
</event>
<event>
 5   0  0.5281919E-06  0.2818718E+04  0.7818609E-02  0.8297481E-01
       -1   -1    0    0    0  501  0.00000000000E+00  0.00000000000E+00  0.95088470870E+03  0.95088470871E+03  0.50400001928E-02 0.  1.
        1   -1    0    0  501    0  0.00000000000E+00  0.00000000000E+00 -0.20888894157E+04  0.20888894157E+04  0.50400001928E-02 0. -1.
    10030    2    1    2    0    0  0.00000000000E+00  0.00000000000E+00 -0.11380047070E+04  0.30397741244E+04  0.28187181509E+04 0.  0.
        4    1    3    3  502    0  0.11153856774E+04 -0.49730918561E+03  0.18965189376E+03  0.12358685565E+04  0.12699999809E+01 0.  1.
       -4    1    3    3    0  502 -0.11153856774E+04  0.49730918561E+03 -0.13276566008E+04  0.18039055679E+04  0.12699999809E+01 0. -1.
</event>
<event>
 5   0  0.1388269E-05  0.2813855E+04  0.7818609E-02  0.8298980E-01
        2   -1    0    0  501    0  0.00000000000E+00  0.00000000000E+00  0.18214646532E+04  0.18214646532E+04  0.25500000920E-02 0. -1.
       -2   -1    0    0    0  501  0.00000000000E+00  0.00000000000E+00 -0.10867322210E+04  0.10867322211E+04  0.25500000920E-02 0.  1.
    10030    2    1    2    0    0  0.00000000000E+00  0.00000000000E+00  0.73473243215E+03  0.29081968743E+04  0.28138545294E+04 0.  0.
        1    1    3    3  502    0 -0.26305920228E+03 -0.56628889275E+03  0.16704152882E+04  0.17833032521E+04  0.50400001928E-02 0. -1.
       -1    1    3    3    0  502  0.26305920228E+03  0.56628889275E+03 -0.93568285606E+03  0.11248936221E+04  0.50400001928E-02 0.  1.
</event>
<event>
 5   0  0.5107453E-06  0.2814956E+04  0.7818609E-02  0.8298640E-01
        1   -1    0    0  501    0  0.00000000000E+00  0.00000000000E+00  0.15931432085E+04  0.15931432085E+04  0.50400001928E-02 0. -1.
       -1   -1    0    0    0  501  0.00000000000E+00  0.00000000000E+00 -0.12434506647E+04  0.12434506647E+04  0.50400001928E-02 0.  1.
    10030    2    1    2    0    0  0.00000000000E+00  0.00000000000E+00  0.34969254384E+03  0.28365938732E+04  0.28149564697E+04 0.  0.
        2    1    3    3  502    0 -0.12696796192E+04 -0.57871324748E+03 -0.10960924473E+02  0.13953908055E+04  0.25500000920E-02 0. -1.
       -2    1    3    3    0  502  0.12696796192E+04  0.57871324748E+03  0.36065346831E+03  0.14412030677E+04  0.25500000920E-02 0.  1.
</event>
<event>
 5   0  0.5217999E-06  0.2772897E+04  0.7818609E-02  0.8311732E-01
       -1   -1    0    0    0  501  0.00000000000E+00  0.00000000000E+00  0.11469985871E+04  0.11469985871E+04  0.50400001928E-02 0.  1.
        1   -1    0    0  501    0  0.00000000000E+00  0.00000000000E+00 -0.16758868003E+04  0.16758868003E+04  0.50400001928E-02 0. -1.
    10030    2    1    2    0    0  0.00000000000E+00  0.00000000000E+00 -0.52888821324E+03  0.28228853874E+04  0.27728972517E+04 0.  0.
        1    1    3    3  502    0 -0.10377985751E+03 -0.70249017729E+03 -0.14766993589E+04  0.16385675771E+04  0.50400001928E-02 0. -1.
       -1    1    3    3    0  502  0.10377985751E+03  0.70249017729E+03  0.94781114566E+03  0.11843178103E+04  0.50400001928E-02 0.  1.
</event>
<event>
 5   0  0.5023691E-06  0.2794860E+04  0.7818609E-02  0.8304866E-01
        1   -1    0    0  501    0  0.00000000000E+00  0.00000000000E+00  0.12089328692E+04  0.12089328692E+04  0.50400001928E-02 0. -1.
       -1   -1    0    0    0  501  0.00000000000E+00  0.00000000000E+00 -0.16153181354E+04  0.16153181355E+04  0.50400001928E-02 0.  1.
    10030    2    1    2    0    0  0.00000000000E+00  0.00000000000E+00 -0.40638526627E+03  0.28242510046E+04  0.27948604174E+04 0.  0.
        5    1    3    3  502    0  0.61203347130E+03  0.25140329847E+03 -0.14469897862E+04  0.15910971434E+04  0.46999998093E+01 0.  1.
       -5    1    3    3    0  502 -0.61203347130E+03 -0.25140329847E+03  0.10406045199E+04  0.12331538612E+04  0.46999998093E+01 0. -1.
</event>
<event>
 5   0  0.1302063E-05  0.2825717E+04  0.7818609E-02  0.8295329E-01
       -2   -1    0    0    0  501  0.00000000000E+00  0.00000000000E+00  0.16535213181E+04  0.16535213181E+04  0.25500000920E-02 0. -1.
        2   -1    0    0  501    0  0.00000000000E+00  0.00000000000E+00 -0.12072227539E+04  0.12072227539E+04  0.25500000920E-02 0.  1.
    10030    2    1    2    0    0  0.00000000000E+00  0.00000000000E+00  0.44629856413E+03  0.28607440720E+04  0.28257165882E+04 0.  0.
        2    1    3    3  502    0  0.11515947351E+03 -0.10659703691E+04 -0.70837275920E+03  0.12850472747E+04  0.25500000920E-02 0.  1.
       -2    1    3    3    0  502 -0.11515947351E+03  0.10659703691E+04  0.11546713233E+04  0.15756967973E+04  0.25500000920E-02 0. -1.
</event>
<event>
 5   0  0.1388269E-05  0.2804658E+04  0.7818609E-02  0.8301824E-01
       -2   -1    0    0    0  501  0.00000000000E+00  0.00000000000E+00  0.96698379763E+03  0.96698379763E+03  0.25500000920E-02 0. -1.
        2   -1    0    0  501    0  0.00000000000E+00  0.00000000000E+00 -0.20336709739E+04  0.20336709739E+04  0.25500000920E-02 0.  1.
    10030    2    1    2    0    0  0.00000000000E+00  0.00000000000E+00 -0.10666871763E+04  0.30006547715E+04  0.28046581834E+04 0.  0.
        1    1    3    3  502    0 -0.74440481770E+03 -0.11876207931E+04 -0.58053014669E+03  0.15171014903E+04  0.50400001928E-02 0.  1.
       -1    1    3    3    0  502  0.74440481770E+03  0.11876207931E+04 -0.48615702960E+03  0.14835532812E+04  0.50400001928E-02 0. -1.
</event>
<event>
 5   0  0.1283052E-05  0.2791408E+04  0.7818609E-02  0.8305941E-01
       -2   -1    0    0    0  501  0.00000000000E+00  0.00000000000E+00  0.87954922707E+03  0.87954922707E+03  0.25500000920E-02 0. -1.
        2   -1    0    0  501    0  0.00000000000E+00  0.00000000000E+00 -0.22147586843E+04  0.22147586843E+04  0.25500000920E-02 0.  1.
    10030    2    1    2    0    0  0.00000000000E+00  0.00000000000E+00 -0.13352094573E+04  0.30943079114E+04  0.27914077373E+04 0.  0.
        5    1    3    3  502    0 -0.41235520740E+03  0.92979689421E+03 -0.17270357445E+04  0.20043037780E+04  0.46999998093E+01 0.  1.
       -5    1    3    3    0  502  0.41235520740E+03 -0.92979689421E+03  0.39182628724E+03  0.10900041334E+04  0.46999998093E+01 0. -1.
</event>
<event>
 5   0  0.4447500E-06  0.2825836E+04  0.7818609E-02  0.8295292E-01
        3   -1    0    0  501    0  0.00000000000E+00  0.00000000000E+00  0.19257354622E+04  0.19257354648E+04  0.10100000352E+00 0. -1.
       -3   -1    0    0    0  501  0.00000000000E+00  0.00000000000E+00 -0.10366625404E+04  0.10366625454E+04  0.10100000352E+00 0.  1.
    10030    2    1    2    0    0  0.00000000000E+00  0.00000000000E+00  0.88907292175E+03  0.29623980102E+04  0.28258363913E+04 0.  0.
        3    1    3    3  502    0 -0.48496660747E+03 -0.12051643812E+04  0.10270172480E+04  0.16560127518E+04  0.10100000352E+00 0. -1.
       -3    1    3    3    0  502  0.48496660747E+03  0.12051643812E+04 -0.13794432626E+03  0.13063852584E+04  0.10100000352E+00 0.  1.
</event>
<event>
 5   0  0.5107453E-06  0.2839916E+04  0.7818609E-02  0.8290982E-01
       -1   -1    0    0    0  501  0.00000000000E+00  0.00000000000E+00  0.22078460561E+04  0.22078460561E+04  0.50400001928E-02 0. -1.
        1   -1    0    0  501    0  0.00000000000E+00  0.00000000000E+00 -0.91323407168E+03  0.91323407170E+03  0.50400001928E-02 0.  1.
    10030    2    1    2    0    0  0.00000000000E+00  0.00000000000E+00  0.12946119844E+04  0.31210801278E+04  0.28399156632E+04 0.  0.
        2    1    3    3  502    0 -0.17575601480E+03  0.78724399151E+01 -0.90120973063E+03  0.91822172193E+03  0.25500000920E-02 0.  1.
       -2    1    3    3    0  502  0.17575601480E+03 -0.78724399151E+01  0.21958217150E+04  0.22028584058E+04  0.25500000920E-02 0. -1.
</event>
<event>
 5   0  0.1330962E-05  0.2096647E+04  0.7818609E-02  0.8562722E-01
        2   -1    0    0  501    0  0.00000000000E+00  0.00000000000E+00  0.70011504768E+03  0.70011504768E+03  0.25500000920E-02 0.  1.
       -2   -1    0    0    0  501  0.00000000000E+00  0.00000000000E+00 -0.15697171142E+04  0.15697171142E+04  0.25500000920E-02 0. -1.
    10030    2    1    2    0    0  0.00000000000E+00  0.00000000000E+00 -0.86960206650E+03  0.22698321619E+04  0.20966473926E+04 0.  0.
        4    1    3    3  502    0  0.21744043894E+03  0.72165869714E+03  0.35402008635E+03  0.83270850487E+03  0.12699999809E+01 0.  1.
       -4    1    3    3    0  502 -0.21744043894E+03 -0.72165869714E+03 -0.12236221529E+04  0.14371236570E+04  0.12699999809E+01 0. -1.
</event>
<event>
 5   0  0.1388269E-05  0.2724006E+04  0.7818609E-02  0.8327258E-01
       -2   -1    0    0    0  501  0.00000000000E+00  0.00000000000E+00  0.89050186135E+03  0.89050186136E+03  0.25500000920E-02 0. -1.
        2   -1    0    0  501    0  0.00000000000E+00  0.00000000000E+00 -0.20831533193E+04  0.20831533193E+04  0.25500000920E-02 0.  1.
    10030    2    1    2    0    0  0.00000000000E+00  0.00000000000E+00 -0.11926514579E+04  0.29736551806E+04  0.27240058064E+04 0.  0.
        1    1    3    3  502    0 -0.54012354007E+03 -0.11665020371E+04 -0.10497324828E+03  0.12897595993E+04  0.50400001928E-02 0. -1.
       -1    1    3    3    0  502  0.54012354007E+03  0.11665020371E+04 -0.10876782096E+04  0.16838955813E+04  0.50400001928E-02 0.  1.
</event>
<event>
 5   0  0.5217999E-06  0.2620865E+04  0.7818609E-02  0.8361148E-01
        1   -1    0    0  501    0  0.00000000000E+00  0.00000000000E+00  0.12928905676E+04  0.12928905676E+04  0.50400001928E-02 0.  1.
       -1   -1    0    0    0  501  0.00000000000E+00  0.00000000000E+00 -0.13282122697E+04  0.13282122697E+04  0.50400001928E-02 0. -1.
    10030    2    1    2    0    0  0.00000000000E+00  0.00000000000E+00 -0.35321702160E+02  0.26211028373E+04  0.26208648307E+04 0.  0.
        1    1    3    3  502    0 -0.31930593235E+03 -0.60289473299E+03  0.11012771028E+04  0.12954727302E+04  0.50400001928E-02 0.  1.
       -1    1    3    3    0  502  0.31930593235E+03  0.60289473299E+03 -0.11365988049E+04  0.13256301071E+04  0.50400001928E-02 0. -1.
</event>
<event>
 5   0  0.5023691E-06  0.2775618E+04  0.7818609E-02  0.8310878E-01
        1   -1    0    0  501    0  0.00000000000E+00  0.00000000000E+00  0.16449548858E+04  0.16449548858E+04  0.50400001928E-02 0.  1.
       -1   -1    0    0    0  501  0.00000000000E+00  0.00000000000E+00 -0.11708609865E+04  0.11708609865E+04  0.50400001928E-02 0. -1.
    10030    2    1    2    0    0  0.00000000000E+00  0.00000000000E+00  0.47409389928E+03  0.28158158724E+04  0.27756177694E+04 0.  0.
        5    1    3    3  502    0  0.12737141230E+04 -0.33807071079E+03  0.67849486534E+03  0.14822337349E+04  0.46999998093E+01 0.  1.
       -5    1    3    3    0  502 -0.12737141230E+04  0.33807071079E+03 -0.20440096606E+03  0.13335821375E+04  0.46999998093E+01 0. -1.
</event>
<event>
 5   0  0.1283052E-05  0.2796126E+04  0.7818609E-02  0.8304472E-01
       -2   -1    0    0    0  501  0.00000000000E+00  0.00000000000E+00  0.10306036514E+04  0.10306036514E+04  0.25500000920E-02 0. -1.
        2   -1    0    0  501    0  0.00000000000E+00  0.00000000000E+00 -0.18965388119E+04  0.18965388119E+04  0.25500000920E-02 0.  1.
    10030    2    1    2    0    0  0.00000000000E+00  0.00000000000E+00 -0.86593516050E+03  0.29271424633E+04  0.27961257659E+04 0.  0.
        5    1    3    3  502    0  0.44357437826E+03  0.12915874624E+04 -0.74632818239E+03  0.15562725493E+04  0.46999998093E+01 0.  1.
       -5    1    3    3    0  502 -0.44357437826E+03 -0.12915874624E+04 -0.11960697811E+03  0.13708699140E+04  0.46999998093E+01 0. -1.
</event>
<event>
 5   0  0.1283052E-05  0.2027032E+04  0.7818609E-02  0.8594085E-01
       -2   -1    0    0    0  501  0.00000000000E+00  0.00000000000E+00  0.85455262727E+03  0.85455262727E+03  0.25500000920E-02 0. -1.
        2   -1    0    0  501    0  0.00000000000E+00  0.00000000000E+00 -0.12020499438E+04  0.12020499439E+04  0.25500000920E-02 0.  1.
    10030    2    1    2    0    0  0.00000000000E+00  0.00000000000E+00 -0.34749731658E+03  0.20566025711E+04  0.20270322520E+04 0.  0.
        5    1    3    3  502    0 -0.22240469593E+03 -0.39187442997E+03  0.74732929155E+03  0.87266979875E+03  0.46999998093E+01 0. -1.
       -5    1    3    3    0  502  0.22240469593E+03  0.39187442997E+03 -0.10948266081E+04  0.11839327724E+04  0.46999998093E+01 0.  1.
</event>
<event>
 5   0  0.1283052E-05  0.2667445E+04  0.7818609E-02  0.8345646E-01
        2   -1    0    0  501    0  0.00000000000E+00  0.00000000000E+00  0.21211461787E+04  0.21211461787E+04  0.25500000920E-02 0. -1.
       -2   -1    0    0    0  501  0.00000000000E+00  0.00000000000E+00 -0.83861058001E+03  0.83861058001E+03  0.25500000920E-02 0.  1.
    10030    2    1    2    0    0  0.00000000000E+00  0.00000000000E+00  0.12825355987E+04  0.29597567587E+04  0.26674449402E+04 0.  0.
        5    1    3    3  502    0 -0.13146806439E+04 -0.19238664515E+03  0.76969103202E+03  0.15355273333E+04  0.46999998093E+01 0.  1.
       -5    1    3    3    0  502  0.13146806439E+04  0.19238664515E+03  0.51284456670E+03  0.14242294254E+04  0.46999998093E+01 0. -1.
</event>
<event>
 5   0  0.1330962E-05  0.2746128E+04  0.7818609E-02  0.8320191E-01
       -2   -1    0    0    0  501  0.00000000000E+00  0.00000000000E+00  0.88248297510E+03  0.88248297510E+03  0.25500000920E-02 0.  1.
        2   -1    0    0  501    0  0.00000000000E+00  0.00000000000E+00 -0.21363634308E+04  0.21363634308E+04  0.25500000920E-02 0. -1.
    10030    2    1    2    0    0  0.00000000000E+00  0.00000000000E+00 -0.12538804557E+04  0.30188464059E+04  0.27461277147E+04 0.  0.
        4    1    3    3  502    0  0.62901523915E+03  0.31602096944E+02  0.71432817678E+03  0.95232621546E+03  0.12699999809E+01 0.  1.
       -4    1    3    3    0  502 -0.62901523915E+03 -0.31602096944E+02 -0.19682086325E+04  0.20665201904E+04  0.12699999809E+01 0. -1.
</event>
<event>
 5   0  0.1330962E-05  0.2795448E+04  0.7818609E-02  0.8304683E-01
       -2   -1    0    0    0  501  0.00000000000E+00  0.00000000000E+00  0.15524928723E+04  0.15524928723E+04  0.25500000920E-02 0.  1.
        2   -1    0    0  501    0  0.00000000000E+00  0.00000000000E+00 -0.12583844796E+04  0.12583844796E+04  0.25500000920E-02 0. -1.
    10030    2    1    2    0    0  0.00000000000E+00  0.00000000000E+00  0.29410839272E+03  0.28108773519E+04  0.27954483970E+04 0.  0.
        4    1    3    3  502    0 -0.22366368022E+03 -0.10082907489E+04 -0.79992702673E+03  0.13063539096E+04  0.12699999809E+01 0. -1.
       -4    1    3    3    0  502  0.22366368022E+03  0.10082907489E+04  0.10940354195E+04  0.15045234422E+04  0.12699999809E+01 0.  1.
</event>
<event>
 5   0  0.5023691E-06  0.2772433E+04  0.7818609E-02  0.8311878E-01
       -1   -1    0    0    0  501  0.00000000000E+00  0.00000000000E+00  0.17004878522E+04  0.17004878522E+04  0.50400001928E-02 0. -1.
        1   -1    0    0  501    0  0.00000000000E+00  0.00000000000E+00 -0.11300266041E+04  0.11300266041E+04  0.50400001928E-02 0.  1.
    10030    2    1    2    0    0  0.00000000000E+00  0.00000000000E+00  0.57046124815E+03  0.28305144563E+04  0.27724332367E+04 0.  0.
        5    1    3    3  502    0  0.28082276743E+03 -0.34477703182E+03  0.16256879225E+04  0.16854126912E+04  0.46999998093E+01 0. -1.
       -5    1    3    3    0  502 -0.28082276743E+03  0.34477703182E+03 -0.10552266743E+04  0.11451017651E+04  0.46999998093E+01 0.  1.
</event>
<event>
 5   0  0.1350863E-05  0.2777675E+04  0.7818609E-02  0.8310233E-01
        2   -1    0    0  501    0  0.00000000000E+00  0.00000000000E+00  0.31023050523E+04  0.31023050523E+04  0.25500000920E-02 0.  1.
       -2   -1    0    0    0  501  0.00000000000E+00  0.00000000000E+00 -0.62175388654E+03  0.62175388655E+03  0.25500000920E-02 0. -1.
    10030    2    1    2    0    0  0.00000000000E+00  0.00000000000E+00  0.24805511658E+04  0.37240589389E+04  0.27776754479E+04 0.  0.
        3    1    3    3  502    0  0.72705457904E+03 -0.10241779537E+04  0.44560464520E+03  0.13327086522E+04  0.10100000352E+00 0. -1.
       -3    1    3    3    0  502 -0.72705457904E+03  0.10241779537E+04  0.20349465206E+04  0.23913502866E+04  0.10100000352E+00 0.  1.
</event>
<event>
 5   0  0.1302063E-05  0.2698450E+04  0.7818609E-02  0.8335508E-01
        2   -1    0    0  501    0  0.00000000000E+00  0.00000000000E+00  0.22378985770E+04  0.22378985770E+04  0.25500000920E-02 0.  1.
       -2   -1    0    0    0  501  0.00000000000E+00  0.00000000000E+00 -0.81344534699E+03  0.81344534699E+03  0.25500000920E-02 0. -1.
    10030    2    1    2    0    0  0.00000000000E+00  0.00000000000E+00  0.14244532300E+04  0.30513439240E+04  0.26984500621E+04 0.  0.
        2    1    3    3  502    0  0.67006673715E+03 -0.50819616397E+02 -0.61075102300E+03  0.90806876267E+03  0.25500000920E-02 0. -1.
       -2    1    3    3    0  502 -0.67006673715E+03  0.50819616397E+02  0.20352042530E+04  0.21432751613E+04  0.25500000920E-02 0.  1.
</event>
<event>
 5   0  0.4764214E-06  0.2835782E+04  0.7818609E-02  0.8292245E-01
       -1   -1    0    0    0  501  0.00000000000E+00  0.00000000000E+00  0.11326911511E+04  0.11326911511E+04  0.50400001928E-02 0. -1.
        1   -1    0    0  501    0  0.00000000000E+00  0.00000000000E+00 -0.17749009410E+04  0.17749009410E+04  0.50400001928E-02 0.  1.
    10030    2    1    2    0    0  0.00000000000E+00  0.00000000000E+00 -0.64220978982E+03  0.29075920921E+04  0.28357817899E+04 0.  0.
        3    1    3    3  502    0 -0.10306445335E+04 -0.38667817202E+03  0.59520712001E+03  0.12514070837E+04  0.10100000352E+00 0. -1.
       -3    1    3    3    0  502  0.10306445335E+04  0.38667817202E+03 -0.12374169098E+04  0.16561850084E+04  0.10100000352E+00 0.  1.
</event>
<event>
 5   0  0.1283052E-05  0.2571271E+04  0.7818609E-02  0.8378026E-01
       -2   -1    0    0    0  501  0.00000000000E+00  0.00000000000E+00  0.97052740145E+03  0.97052740145E+03  0.25500000920E-02 0.  1.
        2   -1    0    0  501    0  0.00000000000E+00  0.00000000000E+00 -0.17030515756E+04  0.17030515756E+04  0.25500000920E-02 0. -1.
    10030    2    1    2    0    0  0.00000000000E+00  0.00000000000E+00 -0.73252417414E+03  0.26735789770E+04  0.25712706743E+04 0.  0.
        5    1    3    3  502    0  0.11377195747E+04  0.37439369517E+03  0.11950933163E+03  0.12036947453E+04  0.46999998093E+01 0. -1.
       -5    1    3    3    0  502 -0.11377195747E+04 -0.37439369517E+03 -0.85203350577E+03  0.14698842317E+04  0.46999998093E+01 0.  1.
</event>
<event>
 5   0  0.1302063E-05  0.2886932E+04  0.7818609E-02  0.8276776E-01
       -2   -1    0    0    0  501  0.00000000000E+00  0.00000000000E+00  0.10338835342E+04  0.10338835342E+04  0.25500000920E-02 0. -1.
        2   -1    0    0  501    0  0.00000000000E+00  0.00000000000E+00 -0.20153084486E+04  0.20153084486E+04  0.25500000920E-02 0.  1.
    10030    2    1    2    0    0  0.00000000000E+00  0.00000000000E+00 -0.98142491435E+03  0.30491919828E+04  0.28869320888E+04 0.  0.
        2    1    3    3  502    0 -0.16868469011E+03 -0.47795132349E+03 -0.19182320601E+04  0.19840630607E+04  0.25500000920E-02 0.  1.
       -2    1    3    3    0  502  0.16868469011E+03  0.47795132349E+03  0.93680714579E+03  0.10651289221E+04  0.25500000920E-02 0. -1.
</event>
<event>
 5   0  0.5217999E-06  0.2765825E+04  0.7818609E-02  0.8313957E-01
       -1   -1    0    0    0  501  0.00000000000E+00  0.00000000000E+00  0.70507753719E+03  0.70507753721E+03  0.50400001928E-02 0.  1.
        1   -1    0    0  501    0  0.00000000000E+00  0.00000000000E+00 -0.27123928327E+04  0.27123928327E+04  0.50400001928E-02 0. -1.
    10030    2    1    2    0    0  0.00000000000E+00  0.00000000000E+00 -0.20073152955E+04  0.34174703699E+04  0.27658251994E+04 0.  0.
        1    1    3    3  502    0  0.78555663244E+03 -0.12627759284E+03  0.39394444475E+03  0.88782739245E+03  0.50400001928E-02 0.  1.
       -1    1    3    3    0  502 -0.78555663244E+03  0.12627759284E+03 -0.24012597403E+04  0.25296429775E+04  0.50400001928E-02 0. -1.
</event>
<event>
 5   0  0.1283052E-05  0.2812974E+04  0.7818609E-02  0.8299252E-01
       -2   -1    0    0    0  501  0.00000000000E+00  0.00000000000E+00  0.90976481620E+03  0.90976481621E+03  0.25500000920E-02 0.  1.
        2   -1    0    0  501    0  0.00000000000E+00  0.00000000000E+00 -0.21744136244E+04  0.21744136244E+04  0.25500000920E-02 0. -1.
    10030    2    1    2    0    0  0.00000000000E+00  0.00000000000E+00 -0.12646488082E+04  0.30841784406E+04  0.28129735238E+04 0.  0.
        5    1    3    3  502    0 -0.72157879657E+03 -0.44910535314E+03  0.59634785604E+03  0.10382795545E+04  0.46999998093E+01 0.  1.
       -5    1    3    3    0  502  0.72157879657E+03  0.44910535314E+03 -0.18609966642E+04  0.20458988861E+04  0.46999998093E+01 0. -1.
</event>
<event>
 5   0  0.1283052E-05  0.2805788E+04  0.7818609E-02  0.8301474E-01
        2   -1    0    0  501    0  0.00000000000E+00  0.00000000000E+00  0.77360059185E+03  0.77360059186E+03  0.25500000920E-02 0.  1.
       -2   -1    0    0    0  501  0.00000000000E+00  0.00000000000E+00 -0.25440928760E+04  0.25440928760E+04  0.25500000920E-02 0. -1.
    10030    2    1    2    0    0  0.00000000000E+00  0.00000000000E+00 -0.17704922841E+04  0.33176934678E+04  0.28057881278E+04 0.  0.
        5    1    3    3  502    0 -0.12320734247E+04  0.14812591167E+03 -0.11154000951E+03  0.12459572518E+04  0.46999998093E+01 0.  1.
       -5    1    3    3    0  502  0.12320734247E+04 -0.14812591167E+03 -0.16589522746E+04  0.20717362160E+04  0.46999998093E+01 0. -1.
</event>
<event>
 5   0  0.1350863E-05  0.2802965E+04  0.7818609E-02  0.8302348E-01
       -2   -1    0    0    0  501  0.00000000000E+00  0.00000000000E+00  0.15730599535E+04  0.15730599535E+04  0.25500000920E-02 0. -1.
        2   -1    0    0  501    0  0.00000000000E+00  0.00000000000E+00 -0.12486195658E+04  0.12486195658E+04  0.25500000920E-02 0.  1.
    10030    2    1    2    0    0  0.00000000000E+00  0.00000000000E+00  0.32444038775E+03  0.28216795193E+04  0.28029651700E+04 0.  0.
        3    1    3    3  502    0  0.25839593799E+03  0.13113595926E+04 -0.26216413568E+03  0.13620434965E+04  0.10100000352E+00 0. -1.
       -3    1    3    3    0  502 -0.25839593799E+03 -0.13113595926E+04  0.58660452343E+03  0.14596360228E+04  0.10100000352E+00 0.  1.
</event>
<event>
 5   0  0.5107453E-06  0.2822220E+04  0.7818609E-02  0.8296403E-01
        1   -1    0    0  501    0  0.00000000000E+00  0.00000000000E+00  0.18803540716E+04  0.18803540716E+04  0.50400001928E-02 0. -1.
       -1   -1    0    0    0  501  0.00000000000E+00  0.00000000000E+00 -0.10589662821E+04  0.10589662821E+04  0.50400001928E-02 0.  1.
    10030    2    1    2    0    0  0.00000000000E+00  0.00000000000E+00  0.82138778950E+03  0.29393203536E+04  0.28222200907E+04 0.  0.
        2    1    3    3  502    0  0.25857369333E+03 -0.35023411695E+03  0.18086648811E+04  0.18603206562E+04  0.25500000920E-02 0. -1.
       -2    1    3    3    0  502 -0.25857369333E+03  0.35023411695E+03 -0.98727709160E+03  0.10789996975E+04  0.25500000920E-02 0.  1.
</event>
<event>
 5   0  0.5023691E-06  0.2291515E+04  0.7818609E-02  0.8481274E-01
       -1   -1    0    0    0  501  0.00000000000E+00  0.00000000000E+00  0.87668304952E+03  0.87668304954E+03  0.50400001928E-02 0. -1.
        1   -1    0    0  501    0  0.00000000000E+00  0.00000000000E+00 -0.14974174524E+04  0.14974174524E+04  0.50400001928E-02 0.  1.
    10030    2    1    2    0    0  0.00000000000E+00  0.00000000000E+00 -0.62073440285E+03  0.23741005019E+04  0.22915152180E+04 0.  0.
        5    1    3    3  502    0  0.46004913684E+03 -0.40282981345E+03  0.69348050459E+03  0.92458334788E+03  0.46999998093E+01 0. -1.
       -5    1    3    3    0  502 -0.46004913684E+03  0.40282981345E+03 -0.13142149074E+04  0.14495171540E+04  0.46999998093E+01 0.  1.
</event>
<event>
 5   0  0.1302063E-05  0.2798252E+04  0.7818609E-02  0.8303811E-01
        2   -1    0    0  501    0  0.00000000000E+00  0.00000000000E+00  0.10725056306E+04  0.10725056306E+04  0.25500000920E-02 0.  1.
       -2   -1    0    0    0  501  0.00000000000E+00  0.00000000000E+00 -0.18252150517E+04  0.18252150517E+04  0.25500000920E-02 0. -1.
    10030    2    1    2    0    0  0.00000000000E+00  0.00000000000E+00 -0.75270942116E+03  0.28977206823E+04  0.27982518972E+04 0.  0.
        2    1    3    3  502    0 -0.86744982705E+03  0.57460407845E+03 -0.13449726064E+04  0.17004676890E+04  0.25500000920E-02 0. -1.
       -2    1    3    3    0  502  0.86744982705E+03 -0.57460407845E+03  0.59226318522E+03  0.11972529933E+04  0.25500000920E-02 0.  1.
</event>
<event>
 5   0  0.1388269E-05  0.2823451E+04  0.7818609E-02  0.8296025E-01
        2   -1    0    0  501    0  0.00000000000E+00  0.00000000000E+00  0.25820804067E+04  0.25820804067E+04  0.25500000920E-02 0. -1.
       -2   -1    0    0    0  501  0.00000000000E+00  0.00000000000E+00 -0.77184612545E+03  0.77184612546E+03  0.25500000920E-02 0.  1.
    10030    2    1    2    0    0  0.00000000000E+00  0.00000000000E+00  0.18102342813E+04  0.33539265322E+04  0.28234509080E+04 0.  0.
        1    1    3    3  502    0  0.32714254517E+03 -0.37330349159E+02 -0.72559564834E+03  0.79680916457E+03  0.50400001928E-02 0.  1.
       -1    1    3    3    0  502 -0.32714254517E+03  0.37330349159E+02  0.25358299296E+04  0.25571173676E+04  0.50400001928E-02 0. -1.
</event>
<event>
 5   0  0.5107453E-06  0.2804002E+04  0.7818609E-02  0.8302027E-01
       -1   -1    0    0    0  501  0.00000000000E+00  0.00000000000E+00  0.10560233013E+04  0.10560233013E+04  0.50400001928E-02 0. -1.
        1   -1    0    0  501    0  0.00000000000E+00  0.00000000000E+00 -0.18613285348E+04  0.18613285348E+04  0.50400001928E-02 0.  1.
    10030    2    1    2    0    0  0.00000000000E+00  0.00000000000E+00 -0.80530523346E+03  0.29173518361E+04  0.28040016435E+04 0.  0.
        2    1    3    3  502    0  0.57779012971E+01  0.52170774184E+03 -0.17565618408E+04  0.18324087570E+04  0.25500000920E-02 0.  1.
       -2    1    3    3    0  502 -0.57779012971E+01 -0.52170774184E+03  0.95125660734E+03  0.10849430792E+04  0.25500000920E-02 0. -1.
</event>
<event>
 5   0  0.4764214E-06  0.2797699E+04  0.7818609E-02  0.8303983E-01
        1   -1    0    0  501    0  0.00000000000E+00  0.00000000000E+00  0.12130224377E+04  0.12130224377E+04  0.50400001928E-02 0. -1.
       -1   -1    0    0    0  501  0.00000000000E+00  0.00000000000E+00 -0.16131444851E+04  0.16131444851E+04  0.50400001928E-02 0.  1.
    10030    2    1    2    0    0  0.00000000000E+00  0.00000000000E+00 -0.40012204742E+03  0.28261669227E+04  0.27976993803E+04 0.  0.
        3    1    3    3  502    0 -0.21593312809E+03  0.91673383747E+03 -0.12448736142E+04  0.15610055637E+04  0.10100000352E+00 0.  1.
       -3    1    3    3    0  502  0.21593312809E+03 -0.91673383747E+03  0.84475156676E+03  0.12651613590E+04  0.10100000352E+00 0. -1.
</event>
<event>
 5   0  0.1302063E-05  0.2750243E+04  0.7818609E-02  0.8318885E-01
        2   -1    0    0  501    0  0.00000000000E+00  0.00000000000E+00  0.23768019713E+04  0.23768019713E+04  0.25500000920E-02 0.  1.
       -2   -1    0    0    0  501  0.00000000000E+00  0.00000000000E+00 -0.79558953314E+03  0.79558953314E+03  0.25500000920E-02 0. -1.
    10030    2    1    2    0    0  0.00000000000E+00  0.00000000000E+00  0.15812124381E+04  0.31723915044E+04  0.27502427316E+04 0.  0.
        2    1    3    3  502    0  0.83361172216E+03 -0.10382627534E+04  0.39426570304E+03  0.13886480811E+04  0.25500000920E-02 0. -1.
       -2    1    3    3    0  502 -0.83361172216E+03  0.10382627534E+04  0.11869467351E+04  0.17837434234E+04  0.25500000920E-02 0.  1.
</event>
<event>
 5   0  0.5217999E-06  0.2821045E+04  0.7818609E-02  0.8296764E-01
        1   -1    0    0  501    0  0.00000000000E+00  0.00000000000E+00  0.19432590519E+04  0.19432590519E+04  0.50400001928E-02 0.  1.
       -1   -1    0    0    0  501  0.00000000000E+00  0.00000000000E+00 -0.10238334106E+04  0.10238334107E+04  0.50400001928E-02 0. -1.
    10030    2    1    2    0    0  0.00000000000E+00  0.00000000000E+00  0.91942564127E+03  0.29670924626E+04  0.28210448723E+04 0.  0.
        1    1    3    3  502    0 -0.11388144319E+04  0.56929510759E+02  0.13330209797E+04  0.17541619685E+04  0.50400001928E-02 0.  1.
       -1    1    3    3    0  502  0.11388144319E+04 -0.56929510759E+02 -0.41359533842E+03  0.12129304941E+04  0.50400001928E-02 0. -1.
</event>
<event>
 5   0  0.5217999E-06  0.2803611E+04  0.7818609E-02  0.8302148E-01
       -1   -1    0    0    0  501  0.00000000000E+00  0.00000000000E+00  0.90860737134E+03  0.90860737135E+03  0.50400001928E-02 0. -1.
        1   -1    0    0  501    0  0.00000000000E+00  0.00000000000E+00 -0.21627145985E+04  0.21627145985E+04  0.50400001928E-02 0.  1.
    10030    2    1    2    0    0  0.00000000000E+00  0.00000000000E+00 -0.12541072271E+04  0.30713219698E+04  0.28036108334E+04 0.  0.
        1    1    3    3  502    0 -0.60211750360E+01 -0.26034145415E+03  0.88187699419E+03  0.91952213688E+03  0.50400001928E-02 0. -1.
       -1    1    3    3    0  502  0.60211750360E+01  0.26034145415E+03 -0.21359842213E+04  0.21517998330E+04  0.50400001928E-02 0.  1.
</event>
<event>
 5   0  0.5107453E-06  0.2824556E+04  0.7818609E-02  0.8295685E-01
       -1   -1    0    0    0  501  0.00000000000E+00  0.00000000000E+00  0.28604712756E+04  0.28604712756E+04  0.50400001928E-02 0. -1.
        1   -1    0    0  501    0  0.00000000000E+00  0.00000000000E+00 -0.69727305230E+03  0.69727305232E+03  0.50400001928E-02 0.  1.
    10030    2    1    2    0    0  0.00000000000E+00  0.00000000000E+00  0.21631982233E+04  0.35577443280E+04  0.28245562748E+04 0.  0.
        2    1    3    3  502    0 -0.74927538987E+03 -0.10363445457E+04  0.32679235432E+03  0.13199306308E+04  0.25500000920E-02 0. -1.
       -2    1    3    3    0  502  0.74927538987E+03  0.10363445457E+04  0.18364058690E+04  0.22378136971E+04  0.25500000920E-02 0.  1.
</event>
<event>
 5   0  0.1330962E-05  0.2791004E+04  0.7818609E-02  0.8306067E-01
       -2   -1    0    0    0  501  0.00000000000E+00  0.00000000000E+00  0.77351501651E+03  0.77351501651E+03  0.25500000920E-02 0. -1.
        2   -1    0    0  501    0  0.00000000000E+00  0.00000000000E+00 -0.25176318441E+04  0.25176318441E+04  0.25500000920E-02 0.  1.
    10030    2    1    2    0    0  0.00000000000E+00  0.00000000000E+00 -0.17441168276E+04  0.32911468607E+04  0.27910041473E+04 0.  0.
        4    1    3    3  502    0  0.13692986193E+04 -0.26505136591E+03 -0.92728580646E+03  0.16748407432E+04  0.12699999809E+01 0. -1.
       -4    1    3    3    0  502 -0.13692986193E+04  0.26505136591E+03 -0.81683102117E+03  0.16163061175E+04  0.12699999809E+01 0.  1.
</event>
<event>
 5   0  0.4447500E-06  0.2819349E+04  0.7818609E-02  0.8297286E-01
       -4   -1    0    0    0  501  0.00000000000E+00  0.00000000000E+00  0.21076315019E+04  0.21076318845E+04  0.12699999809E+01 0. -1.
        4   -1    0    0  501    0  0.00000000000E+00  0.00000000000E+00 -0.94285012076E+03  0.94285097610E+03  0.12699999809E+01 0.  1.
    10030    2    1    2    0    0  0.00000000000E+00  0.00000000000E+00  0.11647813811E+04  0.30504828606E+04  0.28193492187E+04 0.  0.
        2    1    3    3  502    0  0.81454678469E+03 -0.11218347027E+03 -0.65651837700E+03  0.10521824817E+04  0.25500000920E-02 0.  1.
       -2    1    3    3    0  502 -0.81454678469E+03  0.11218347027E+03  0.18212997581E+04  0.19983003789E+04  0.25500000920E-02 0. -1.
</event>
<event>
 5   0  0.1330962E-05  0.2781397E+04  0.7818609E-02  0.8309067E-01
        2   -1    0    0  501    0  0.00000000000E+00  0.00000000000E+00  0.12872666940E+04  0.12872666940E+04  0.25500000920E-02 0. -1.
       -2   -1    0    0    0  501  0.00000000000E+00  0.00000000000E+00 -0.15024412990E+04  0.15024412990E+04  0.25500000920E-02 0.  1.
    10030    2    1    2    0    0  0.00000000000E+00  0.00000000000E+00 -0.21517460495E+03  0.27897079930E+04  0.27813972344E+04 0.  0.
        4    1    3    3  502    0 -0.11339502435E+04  0.76456337496E+03  0.14543760626E+03  0.13753377837E+04  0.12699999809E+01 0. -1.
       -4    1    3    3    0  502  0.11339502435E+04 -0.76456337496E+03 -0.36061221121E+03  0.14143702093E+04  0.12699999809E+01 0.  1.
</event>
<event>
 5   0  0.1388269E-05  0.2799879E+04  0.7818609E-02  0.8303306E-01
        2   -1    0    0  501    0  0.00000000000E+00  0.00000000000E+00  0.20735873706E+04  0.20735873706E+04  0.25500000920E-02 0.  1.
       -2   -1    0    0    0  501  0.00000000000E+00  0.00000000000E+00 -0.94513980044E+03  0.94513980044E+03  0.25500000920E-02 0. -1.
    10030    2    1    2    0    0  0.00000000000E+00  0.00000000000E+00  0.11284475701E+04  0.30187271710E+04  0.27998785357E+04 0.  0.
        1    1    3    3  502    0 -0.46259479637E+03 -0.61681847304E+03  0.18240481591E+04  0.19803056989E+04  0.50400001928E-02 0.  1.
       -1    1    3    3    0  502  0.46259479637E+03  0.61681847304E+03 -0.69560058899E+03  0.10384214721E+04  0.50400001928E-02 0. -1.
</event>
<event>
 5   0  0.1283052E-05  0.2790191E+04  0.7818609E-02  0.8306320E-01
        2   -1    0    0  501    0  0.00000000000E+00  0.00000000000E+00  0.21580998611E+04  0.21580998611E+04  0.25500000920E-02 0.  1.
       -2   -1    0    0    0  501  0.00000000000E+00  0.00000000000E+00 -0.90185390057E+03  0.90185390058E+03  0.25500000920E-02 0. -1.
    10030    2    1    2    0    0  0.00000000000E+00  0.00000000000E+00  0.12562459605E+04  0.30599537616E+04  0.27901905150E+04 0.  0.
        5    1    3    3  502    0  0.13898836529E+03 -0.13869304580E+04  0.69183285221E+03  0.15561325928E+04  0.46999998093E+01 0.  1.
       -5    1    3    3    0  502 -0.13898836529E+03  0.13869304580E+04  0.56441310828E+03  0.15038211688E+04  0.46999998093E+01 0. -1.
</event>
<event>
 5   0  0.1350863E-05  0.2808806E+04  0.7818609E-02  0.8300540E-01
       -2   -1    0    0    0  501  0.00000000000E+00  0.00000000000E+00  0.69300775263E+03  0.69300775264E+03  0.25500000920E-02 0.  1.
        2   -1    0    0  501    0  0.00000000000E+00  0.00000000000E+00 -0.28460689240E+04  0.28460689240E+04  0.25500000920E-02 0. -1.
    10030    2    1    2    0    0  0.00000000000E+00  0.00000000000E+00 -0.21530611713E+04  0.35390766766E+04  0.28088060302E+04 0.  0.
        3    1    3    3  502    0  0.13973428462E+04 -0.13834225767E+03 -0.11084611228E+04  0.17889638569E+04  0.10100000352E+00 0. -1.
       -3    1    3    3    0  502 -0.13973428462E+04  0.13834225767E+03 -0.10446000486E+04  0.17501128198E+04  0.10100000352E+00 0.  1.
</event>
<event>
 5   0  0.1330962E-05  0.2800629E+04  0.7818609E-02  0.8303073E-01
        2   -1    0    0  501    0  0.00000000000E+00  0.00000000000E+00  0.97074120928E+03  0.97074120929E+03  0.25500000920E-02 0. -1.
       -2   -1    0    0    0  501  0.00000000000E+00  0.00000000000E+00 -0.20199829215E+04  0.20199829215E+04  0.25500000920E-02 0.  1.
    10030    2    1    2    0    0  0.00000000000E+00  0.00000000000E+00 -0.10492417122E+04  0.29907241308E+04  0.28006289750E+04 0.  0.
        4    1    3    3  502    0  0.59567187408E+03 -0.10525360257E+04 -0.12783793526E+04  0.17598046622E+04  0.12699999809E+01 0.  1.
       -4    1    3    3    0  502 -0.59567187408E+03  0.10525360257E+04  0.22913764036E+03  0.12309194686E+04  0.12699999809E+01 0. -1.
</event>
<event>
 5   0  0.4764214E-06  0.2810167E+04  0.7818609E-02  0.8300119E-01
        1   -1    0    0  501    0  0.00000000000E+00  0.00000000000E+00  0.13010211119E+04  0.13010211119E+04  0.50400001928E-02 0. -1.
       -1   -1    0    0    0  501  0.00000000000E+00  0.00000000000E+00 -0.15174697402E+04  0.15174697402E+04  0.50400001928E-02 0.  1.
    10030    2    1    2    0    0  0.00000000000E+00  0.00000000000E+00 -0.21644862828E+03  0.28184908521E+04  0.28101673749E+04 0.  0.
        3    1    3    3  502    0  0.40182395566E+03 -0.74085419141E+03 -0.12358018705E+04  0.14958387940E+04  0.10100000352E+00 0.  1.
       -3    1    3    3    0  502 -0.40182395566E+03  0.74085419141E+03  0.10193532422E+04  0.13226520581E+04  0.10100000352E+00 0. -1.
</event>
<event>
 5   0  0.5107453E-06  0.2413846E+04  0.7818609E-02  0.8434338E-01
       -1   -1    0    0    0  501  0.00000000000E+00  0.00000000000E+00  0.13732759099E+04  0.13732759099E+04  0.50400001928E-02 0.  1.
        1   -1    0    0  501    0  0.00000000000E+00  0.00000000000E+00 -0.10607210094E+04  0.10607210094E+04  0.50400001928E-02 0. -1.
    10030    2    1    2    0    0  0.00000000000E+00  0.00000000000E+00  0.31255490057E+03  0.24339969193E+04  0.24138455703E+04 0.  0.
        2    1    3    3  502    0 -0.27584943471E+03 -0.73838884448E+03  0.10778832519E+04  0.13353438887E+04  0.25500000920E-02 0.  1.
       -2    1    3    3    0  502  0.27584943471E+03  0.73838884448E+03 -0.76532835136E+03  0.10986530306E+04  0.25500000920E-02 0. -1.
</event>
<event>
 5   0  0.5023691E-06  0.2844739E+04  0.7818609E-02  0.8289512E-01
       -1   -1    0    0    0  501  0.00000000000E+00  0.00000000000E+00  0.30503980866E+04  0.30503980866E+04  0.50400001928E-02 0. -1.
        1   -1    0    0  501    0  0.00000000000E+00  0.00000000000E+00 -0.66323660264E+03  0.66323660266E+03  0.50400001928E-02 0.  1.
    10030    2    1    2    0    0  0.00000000000E+00  0.00000000000E+00  0.23871614840E+04  0.37136346893E+04  0.28447394705E+04 0.  0.
        5    1    3    3  502    0 -0.13057493144E+04 -0.24118836320E+03  0.18591761888E+04  0.22846687483E+04  0.46999998093E+01 0.  1.
       -5    1    3    3    0  502  0.13057493144E+04  0.24118836320E+03  0.52798529524E+03  0.14289659410E+04  0.46999998093E+01 0. -1.
</event>
<event>
 5   0  0.1330962E-05  0.2789203E+04  0.7818609E-02  0.8306628E-01
       -2   -1    0    0    0  501  0.00000000000E+00  0.00000000000E+00  0.12264903775E+04  0.12264903775E+04  0.25500000920E-02 0. -1.
        2   -1    0    0  501    0  0.00000000000E+00  0.00000000000E+00 -0.15857548818E+04  0.15857548818E+04  0.25500000920E-02 0.  1.
    10030    2    1    2    0    0  0.00000000000E+00  0.00000000000E+00 -0.35926450430E+03  0.28122452593E+04  0.27892028278E+04 0.  0.
        4    1    3    3  502    0 -0.22305628482E+03 -0.25954933993E+03 -0.15427595848E+04  0.15802622300E+04  0.12699999809E+01 0.  1.
       -4    1    3    3    0  502  0.22305628482E+03  0.25954933993E+03  0.11834950805E+04  0.12319830293E+04  0.12699999809E+01 0. -1.
</event>
<event>
 5   0  0.5217999E-06  0.2826151E+04  0.7818609E-02  0.8295195E-01
        1   -1    0    0  501    0  0.00000000000E+00  0.00000000000E+00  0.12325461286E+04  0.12325461286E+04  0.50400001928E-02 0.  1.
       -1   -1    0    0    0  501  0.00000000000E+00  0.00000000000E+00 -0.16200470861E+04  0.16200470861E+04  0.50400001928E-02 0. -1.
    10030    2    1    2    0    0  0.00000000000E+00  0.00000000000E+00 -0.38750095755E+03  0.28525932147E+04  0.28261512798E+04 0.  0.
        1    1    3    3  502    0 -0.35757541364E+03  0.22207698092E+03  0.11677974347E+04  0.12413416977E+04  0.50400001928E-02 0.  1.
       -1    1    3    3    0  502  0.35757541364E+03 -0.22207698092E+03 -0.15552983923E+04  0.16112515170E+04  0.50400001928E-02 0. -1.
</event>
<event>
 5   0  0.5023691E-06  0.2796580E+04  0.7818609E-02  0.8304331E-01
       -1   -1    0    0    0  501  0.00000000000E+00  0.00000000000E+00  0.13126094613E+04  0.13126094613E+04  0.50400001928E-02 0. -1.
        1   -1    0    0  501    0  0.00000000000E+00  0.00000000000E+00 -0.14895638294E+04  0.14895638294E+04  0.50400001928E-02 0.  1.
    10030    2    1    2    0    0  0.00000000000E+00  0.00000000000E+00 -0.17695436819E+03  0.28021732907E+04  0.27965804660E+04 0.  0.
        5    1    3    3  502    0 -0.80639912829E+03 -0.32782042239E+03  0.10079907791E+04  0.13318458185E+04  0.46999998093E+01 0. -1.
       -5    1    3    3    0  502  0.80639912829E+03  0.32782042239E+03 -0.11849451473E+04  0.14703274722E+04  0.46999998093E+01 0.  1.
</event>
<event>
 5   0  0.5217999E-06  0.2803043E+04  0.7818609E-02  0.8302324E-01
        1   -1    0    0  501    0  0.00000000000E+00  0.00000000000E+00  0.90952428076E+03  0.90952428077E+03  0.50400001928E-02 0. -1.
       -1   -1    0    0    0  501  0.00000000000E+00  0.00000000000E+00 -0.21596588416E+04  0.21596588416E+04  0.50400001928E-02 0.  1.
    10030    2    1    2    0    0  0.00000000000E+00  0.00000000000E+00 -0.12501345609E+04  0.30691831224E+04  0.28030427429E+04 0.  0.
        1    1    3    3  502    0 -0.66874528168E+03 -0.34162490108E+03  0.67064611606E+03  0.10068237372E+04  0.50400001928E-02 0. -1.
       -1    1    3    3    0  502  0.66874528168E+03  0.34162490108E+03 -0.19207806769E+04  0.20623593852E+04  0.50400001928E-02 0.  1.
</event>
<event>
 5   0  0.5107453E-06  0.2823189E+04  0.7818609E-02  0.8296105E-01
        1   -1    0    0  501    0  0.00000000000E+00  0.00000000000E+00  0.24792726448E+04  0.24792726448E+04  0.50400001928E-02 0. -1.
       -1   -1    0    0    0  501  0.00000000000E+00  0.00000000000E+00 -0.80370280527E+03  0.80370280528E+03  0.50400001928E-02 0.  1.
    10030    2    1    2    0    0  0.00000000000E+00  0.00000000000E+00  0.16755698396E+04  0.32829754501E+04  0.28231885376E+04 0.  0.
        2    1    3    3  502    0 -0.13652429095E+04 -0.23840195530E+03  0.52602826561E+03  0.14823729053E+04  0.25500000920E-02 0.  1.
       -2    1    3    3    0  502  0.13652429095E+04  0.23840195530E+03  0.11495415739E+04  0.18006025448E+04  0.25500000920E-02 0. -1.
</event>
<event>
 5   0  0.1283052E-05  0.2801366E+04  0.7818609E-02  0.8302844E-01
        2   -1    0    0  501    0  0.00000000000E+00  0.00000000000E+00  0.21341920767E+04  0.21341920767E+04  0.25500000920E-02 0. -1.
       -2   -1    0    0    0  501  0.00000000000E+00  0.00000000000E+00 -0.91927645392E+03  0.91927645392E+03  0.25500000920E-02 0.  1.
    10030    2    1    2    0    0  0.00000000000E+00  0.00000000000E+00  0.12149156228E+04  0.30534685307E+04  0.28013657557E+04 0.  0.
        5    1    3    3  502    0  0.10816362226E+04  0.25542468304E+03  0.15366482311E+04  0.18964410254E+04  0.46999998093E+01 0. -1.
       -5    1    3    3    0  502 -0.10816362226E+04 -0.25542468304E+03 -0.32173260823E+03  0.11570275053E+04  0.46999998093E+01 0.  1.
</event>
<event>
 5   0  0.1330962E-05  0.2504269E+04  0.7818609E-02  0.8401466E-01
       -2   -1    0    0    0  501  0.00000000000E+00  0.00000000000E+00  0.10308907508E+04  0.10308907508E+04  0.25500000920E-02 0.  1.
        2   -1    0    0  501    0  0.00000000000E+00  0.00000000000E+00 -0.15208601937E+04  0.15208601937E+04  0.25500000920E-02 0. -1.
    10030    2    1    2    0    0  0.00000000000E+00  0.00000000000E+00 -0.48996944289E+03  0.25517509445E+04  0.25042689208E+04 0.  0.
        4    1    3    3  502    0 -0.63922983881E+03 -0.77935973141E+03  0.51194770024E+03  0.11305345808E+04  0.12699999809E+01 0.  1.
       -4    1    3    3    0  502  0.63922983881E+03  0.77935973141E+03 -0.10019171431E+04  0.14212163637E+04  0.12699999809E+01 0. -1.
</event>
<event>
 5   0  0.4764214E-06  0.2790303E+04  0.7818609E-02  0.8306285E-01
        1   -1    0    0  501    0  0.00000000000E+00  0.00000000000E+00  0.13825828301E+04  0.13825828301E+04  0.50400001928E-02 0.  1.
       -1   -1    0    0    0  501  0.00000000000E+00  0.00000000000E+00 -0.14078339561E+04  0.14078339561E+04  0.50400001928E-02 0. -1.
    10030    2    1    2    0    0  0.00000000000E+00  0.00000000000E+00 -0.25251125953E+02  0.27904167863E+04  0.27903025323E+04 0.  0.
        3    1    3    3  502    0 -0.10751458035E+04 -0.12703531214E+03 -0.89264487703E+03  0.14031718911E+04  0.10100000352E+00 0. -1.
       -3    1    3    3    0  502  0.10751458035E+04  0.12703531214E+03  0.86739375108E+03  0.13872448951E+04  0.10100000352E+00 0.  1.
</event>
<event>
 5   0  0.5107453E-06  0.2796678E+04  0.7818609E-02  0.8304300E-01
        1   -1    0    0  501    0  0.00000000000E+00  0.00000000000E+00  0.20255394462E+04  0.20255394462E+04  0.50400001928E-02 0. -1.
       -1   -1    0    0    0  501  0.00000000000E+00  0.00000000000E+00 -0.96534885477E+03  0.96534885479E+03  0.50400001928E-02 0.  1.
    10030    2    1    2    0    0  0.00000000000E+00  0.00000000000E+00  0.10601905914E+04  0.29908883010E+04  0.27966781614E+04 0.  0.
        2    1    3    3  502    0 -0.55133355263E+02 -0.93424065874E+03 -0.58104887451E+03  0.11015730071E+04  0.25500000920E-02 0.  1.
       -2    1    3    3    0  502  0.55133355263E+02  0.93424065874E+03  0.16412394659E+04  0.18893152939E+04  0.25500000920E-02 0. -1.
</event>
<event>
 5   0  0.1330962E-05  0.2537545E+04  0.7818609E-02  0.8389731E-01
        2   -1    0    0  501    0  0.00000000000E+00  0.00000000000E+00  0.14970830333E+04  0.14970830333E+04  0.25500000920E-02 0. -1.
       -2   -1    0    0    0  501  0.00000000000E+00  0.00000000000E+00 -0.10752805155E+04  0.10752805155E+04  0.25500000920E-02 0.  1.
    10030    2    1    2    0    0  0.00000000000E+00  0.00000000000E+00  0.42180251780E+03  0.25723635488E+04  0.25375454406E+04 0.  0.
        4    1    3    3  502    0 -0.98964712965E+03  0.35883807098E+03 -0.50706557473E+03  0.11684533848E+04  0.12699999809E+01 0.  1.
       -4    1    3    3    0  502  0.98964712965E+03 -0.35883807098E+03  0.92886809253E+03  0.14039101640E+04  0.12699999809E+01 0. -1.
</event>
<event>
 5   0  0.5217999E-06  0.2764725E+04  0.7818609E-02  0.8314304E-01
       -1   -1    0    0    0  501  0.00000000000E+00  0.00000000000E+00  0.12383138340E+04  0.12383138340E+04  0.50400001928E-02 0. -1.
        1   -1    0    0  501    0  0.00000000000E+00  0.00000000000E+00 -0.15431676222E+04  0.15431676222E+04  0.50400001928E-02 0.  1.
    10030    2    1    2    0    0  0.00000000000E+00  0.00000000000E+00 -0.30485378817E+03  0.27814814563E+04  0.27647248072E+04 0.  0.
        1    1    3    3  502    0 -0.40319070195E+03  0.40693646496E+03  0.11132783703E+04  0.12520178746E+04  0.50400001928E-02 0. -1.
       -1    1    3    3    0  502  0.40319070195E+03 -0.40693646496E+03 -0.14181321585E+04  0.15294635816E+04  0.50400001928E-02 0.  1.
</event>
<event>
 5   0  0.1330962E-05  0.2772735E+04  0.7818609E-02  0.8311783E-01
       -2   -1    0    0    0  501  0.00000000000E+00  0.00000000000E+00  0.79732965810E+03  0.79732965811E+03  0.25500000920E-02 0.  1.
        2   -1    0    0  501    0  0.00000000000E+00  0.00000000000E+00 -0.24105649377E+04  0.24105649377E+04  0.25500000920E-02 0. -1.
    10030    2    1    2    0    0  0.00000000000E+00  0.00000000000E+00 -0.16132352796E+04  0.32078945958E+04  0.27727350524E+04 0.  0.
        4    1    3    3  502    0 -0.52921136408E+03  0.12810235023E+04 -0.77138454877E+03  0.15862287402E+04  0.12699999809E+01 0. -1.
       -4    1    3    3    0  502  0.52921136408E+03 -0.12810235023E+04 -0.84185073086E+03  0.16216658556E+04  0.12699999809E+01 0.  1.
</event>
<event>
 5   0  0.5217999E-06  0.2720701E+04  0.7818609E-02  0.8328319E-01
        1   -1    0    0  501    0  0.00000000000E+00  0.00000000000E+00  0.17208516317E+04  0.17208516317E+04  0.50400001928E-02 0.  1.
       -1   -1    0    0    0  501  0.00000000000E+00  0.00000000000E+00 -0.10753710382E+04  0.10753710382E+04  0.50400001928E-02 0. -1.
    10030    2    1    2    0    0  0.00000000000E+00  0.00000000000E+00  0.64548059353E+03  0.27962226699E+04  0.27207013844E+04 0.  0.
        1    1    3    3  502    0 -0.22991798890E+03 -0.46516422370E+03 -0.96966856875E+03  0.10997714171E+04  0.50400001928E-02 0. -1.
       -1    1    3    3    0  502  0.22991798890E+03  0.46516422370E+03  0.16151491623E+04  0.16964512528E+04  0.50400001928E-02 0.  1.
</event>
<event>
 5   0  0.5217999E-06  0.2890647E+04  0.7818609E-02  0.8275666E-01
       -1   -1    0    0    0  501  0.00000000000E+00  0.00000000000E+00  0.13953572904E+04  0.13953572904E+04  0.50400001928E-02 0.  1.
        1   -1    0    0  501    0  0.00000000000E+00  0.00000000000E+00 -0.14970786107E+04  0.14970786107E+04  0.50400001928E-02 0. -1.
    10030    2    1    2    0    0  0.00000000000E+00  0.00000000000E+00 -0.10172132035E+03  0.28924359011E+04  0.28906466776E+04 0.  0.
        1    1    3    3  502    0  0.79097977796E+03  0.12047585159E+04  0.58144654584E+02  0.14423844466E+04  0.50400001928E-02 0.  1.
       -1    1    3    3    0  502 -0.79097977796E+03 -0.12047585159E+04 -0.15986597493E+03  0.14500514545E+04  0.50400001928E-02 0. -1.
</event>
<event>
 5   0  0.1350863E-05  0.2695866E+04  0.7818609E-02  0.8336348E-01
       -2   -1    0    0    0  501  0.00000000000E+00  0.00000000000E+00  0.11915066790E+04  0.11915066790E+04  0.25500000920E-02 0. -1.
        2   -1    0    0  501    0  0.00000000000E+00  0.00000000000E+00 -0.15248953635E+04  0.15248953635E+04  0.25500000920E-02 0.  1.
    10030    2    1    2    0    0  0.00000000000E+00  0.00000000000E+00 -0.33338868452E+03  0.27164020425E+04  0.26958657313E+04 0.  0.
        3    1    3    3  502    0  0.79358673074E+03 -0.95537612742E+03  0.36112766312E+03  0.12934205207E+04  0.10100000352E+00 0. -1.
       -3    1    3    3    0  502 -0.79358673074E+03  0.95537612742E+03 -0.69451634764E+03  0.14229815218E+04  0.10100000352E+00 0.  1.
</event>
<event>
 5   0  0.5023691E-06  0.2930934E+04  0.7818609E-02  0.8263733E-01
       -1   -1    0    0    0  501  0.00000000000E+00  0.00000000000E+00  0.11483953994E+04  0.11483953994E+04  0.50400001928E-02 0. -1.
        1   -1    0    0  501    0  0.00000000000E+00  0.00000000000E+00 -0.18700820068E+04  0.18700820068E+04  0.50400001928E-02 0.  1.
    10030    2    1    2    0    0  0.00000000000E+00  0.00000000000E+00 -0.72168660737E+03  0.30184774062E+04  0.29309340307E+04 0.  0.
        5    1    3    3  502    0  0.11086520006E+04  0.25899374391E+03 -0.13111083322E+04  0.17364372049E+04  0.46999998093E+01 0.  1.
       -5    1    3    3    0  502 -0.11086520006E+04 -0.25899374391E+03  0.58942172481E+03  0.12820402012E+04  0.46999998093E+01 0. -1.
</event>
<event>
 5   0  0.1350863E-05  0.2805738E+04  0.7818609E-02  0.8301489E-01
       -2   -1    0    0    0  501  0.00000000000E+00  0.00000000000E+00  0.14231902829E+04  0.14231902829E+04  0.25500000920E-02 0.  1.
        2   -1    0    0  501    0  0.00000000000E+00  0.00000000000E+00 -0.13828381970E+04  0.13828381970E+04  0.25500000920E-02 0. -1.
    10030    2    1    2    0    0  0.00000000000E+00  0.00000000000E+00  0.40352085866E+02  0.28060284800E+04  0.28057383234E+04 0.  0.
        3    1    3    3  502    0 -0.13683807279E+04 -0.41820475399E+02  0.32651982601E+03  0.14074196160E+04  0.10100000352E+00 0.  1.
       -3    1    3    3    0  502  0.13683807279E+04  0.41820475399E+02 -0.28616774014E+03  0.13986088639E+04  0.10100000352E+00 0. -1.
</event>
<event>
 5   0  0.1330962E-05  0.2788780E+04  0.7818609E-02  0.8306760E-01
       -2   -1    0    0    0  501  0.00000000000E+00  0.00000000000E+00  0.74272482079E+03  0.74272482080E+03  0.25500000920E-02 0. -1.
        2   -1    0    0  501    0  0.00000000000E+00  0.00000000000E+00 -0.26178255377E+04  0.26178255377E+04  0.25500000920E-02 0.  1.
    10030    2    1    2    0    0  0.00000000000E+00  0.00000000000E+00 -0.18751007169E+04  0.33605503585E+04  0.27887803810E+04 0.  0.
        4    1    3    3  502    0 -0.36107093223E+03 -0.54261754082E+03  0.54786799552E+03  0.85144992050E+03  0.12699999809E+01 0. -1.
       -4    1    3    3    0  502  0.36107093223E+03  0.54261754082E+03 -0.24229687125E+04  0.25091004380E+04  0.12699999809E+01 0.  1.
</event>
<event>
 5   0  0.1350863E-05  0.2756677E+04  0.7818609E-02  0.8316846E-01
        2   -1    0    0  501    0  0.00000000000E+00  0.00000000000E+00  0.15202846511E+04  0.15202846511E+04  0.25500000920E-02 0. -1.
       -2   -1    0    0    0  501  0.00000000000E+00  0.00000000000E+00 -0.12496454296E+04  0.12496454296E+04  0.25500000920E-02 0.  1.
    10030    2    1    2    0    0  0.00000000000E+00  0.00000000000E+00  0.27063922149E+03  0.27699300806E+04  0.27566768152E+04 0.  0.
        3    1    3    3  502    0  0.58987627893E+03 -0.12840619464E+02 -0.11163408465E+04  0.12626701080E+04  0.10100000352E+00 0.  1.
       -3    1    3    3    0  502 -0.58987627893E+03  0.12840619464E+02  0.13869800680E+04  0.15072599726E+04  0.10100000352E+00 0. -1.
</event>
<event>
 5   0  0.1388269E-05  0.2802350E+04  0.7818609E-02  0.8302539E-01
       -2   -1    0    0    0  501  0.00000000000E+00  0.00000000000E+00  0.14080225519E+04  0.14080225519E+04  0.25500000920E-02 0. -1.
        2   -1    0    0  501    0  0.00000000000E+00  0.00000000000E+00 -0.13943610764E+04  0.13943610764E+04  0.25500000920E-02 0.  1.
    10030    2    1    2    0    0  0.00000000000E+00  0.00000000000E+00  0.13661475539E+02  0.28023836283E+04  0.28023503287E+04 0.  0.
        1    1    3    3  502    0  0.80978810087E+03 -0.31968278178E+03  0.11047226439E+04  0.14065439805E+04  0.50400001928E-02 0. -1.
       -1    1    3    3    0  502 -0.80978810087E+03  0.31968278178E+03 -0.10910611683E+04  0.13958396478E+04  0.50400001928E-02 0.  1.
</event>
<event>
 5   0  0.5107453E-06  0.2743478E+04  0.7818609E-02  0.8321034E-01
       -1   -1    0    0    0  501  0.00000000000E+00  0.00000000000E+00  0.18554100513E+04  0.18554100513E+04  0.50400001928E-02 0. -1.
        1   -1    0    0  501    0  0.00000000000E+00  0.00000000000E+00 -0.10141522831E+04  0.10141522831E+04  0.50400001928E-02 0.  1.
    10030    2    1    2    0    0  0.00000000000E+00  0.00000000000E+00  0.84125776814E+03  0.28695623344E+04  0.27434783321E+04 0.  0.
        2    1    3    3  502    0  0.13147875344E+04 -0.12833823806E+03  0.80711185372E+03  0.15480847873E+04  0.25500000920E-02 0. -1.
       -2    1    3    3    0  502 -0.13147875344E+04  0.12833823806E+03  0.34145914417E+02  0.13214775471E+04  0.25500000920E-02 0.  1.
</event>
<event>
 5   0  0.5281919E-06  0.2859404E+04  0.7818609E-02  0.8285059E-01
       -1   -1    0    0    0  501  0.00000000000E+00  0.00000000000E+00  0.10633564170E+04  0.10633564170E+04  0.50400001928E-02 0. -1.
        1   -1    0    0  501    0  0.00000000000E+00  0.00000000000E+00 -0.19222607194E+04  0.19222607194E+04  0.50400001928E-02 0.  1.
    10030    2    1    2    0    0  0.00000000000E+00  0.00000000000E+00 -0.85890430241E+03  0.29856171363E+04  0.28594043233E+04 0.  0.
        4    1    3    3  502    0 -0.10706233523E+04  0.67272263179E+03 -0.11261808612E+04  0.16932439419E+04  0.12699999809E+01 0.  1.
       -4    1    3    3    0  502  0.10706233523E+04 -0.67272263179E+03  0.26727655880E+03  0.12923731944E+04  0.12699999809E+01 0. -1.
</event>
<event>
 5   0  0.1283052E-05  0.2803395E+04  0.7818609E-02  0.8302215E-01
       -2   -1    0    0    0  501  0.00000000000E+00  0.00000000000E+00  0.11735943028E+04  0.11735943029E+04  0.25500000920E-02 0.  1.
        2   -1    0    0  501    0  0.00000000000E+00  0.00000000000E+00 -0.16741353857E+04  0.16741353857E+04  0.25500000920E-02 0. -1.
    10030    2    1    2    0    0  0.00000000000E+00  0.00000000000E+00 -0.50054108285E+03  0.28477296885E+04  0.28033949068E+04 0.  0.
        5    1    3    3  502    0 -0.49875575515E+03  0.12823903667E+04  0.21260550185E+02  0.13761382405E+04  0.46999998093E+01 0. -1.
       -5    1    3    3    0  502  0.49875575515E+03 -0.12823903667E+04 -0.52180163303E+03  0.14715914481E+04  0.46999998093E+01 0.  1.
</event>
<event>
 5   0  0.5217999E-06  0.2803441E+04  0.7818609E-02  0.8302201E-01
       -1   -1    0    0    0  501  0.00000000000E+00  0.00000000000E+00  0.17344503527E+04  0.17344503528E+04  0.50400001928E-02 0.  1.
        1   -1    0    0  501    0  0.00000000000E+00  0.00000000000E+00 -0.11328200248E+04  0.11328200248E+04  0.50400001928E-02 0. -1.
    10030    2    1    2    0    0  0.00000000000E+00  0.00000000000E+00  0.60163032791E+03  0.28672703776E+04  0.28034408085E+04 0.  0.
        1    1    3    3  502    0 -0.43414424005E+03  0.55158311799E+03 -0.94010878490E+03  0.11732560184E+04  0.50400001928E-02 0. -1.
       -1    1    3    3    0  502  0.43414424005E+03 -0.55158311799E+03  0.15417391128E+04  0.16940143592E+04  0.50400001928E-02 0.  1.
</event>
<event>
 5   0  0.5281919E-06  0.2811608E+04  0.7818609E-02  0.8299674E-01
       -1   -1    0    0    0  501  0.00000000000E+00  0.00000000000E+00  0.16478287073E+04  0.16478287073E+04  0.50400001928E-02 0.  1.
        1   -1    0    0  501    0  0.00000000000E+00  0.00000000000E+00 -0.11993266511E+04  0.11993266511E+04  0.50400001928E-02 0. -1.
    10030    2    1    2    0    0  0.00000000000E+00  0.00000000000E+00  0.44850205625E+03  0.28471553584E+04  0.28116079991E+04 0.  0.
        4    1    3    3  502    0  0.10230268193E+04 -0.19087806861E+03  0.11813272908E+04  0.15743424313E+04  0.12699999809E+01 0.  1.
       -4    1    3    3    0  502 -0.10230268193E+04  0.19087806861E+03 -0.73282523459E+03  0.12728129271E+04  0.12699999809E+01 0. -1.
</event>
<event>
 5   0  0.5023691E-06  0.2657454E+04  0.7818609E-02  0.8348943E-01
        1   -1    0    0  501    0  0.00000000000E+00  0.00000000000E+00  0.16863398674E+04  0.16863398674E+04  0.50400001928E-02 0. -1.
       -1   -1    0    0    0  501  0.00000000000E+00  0.00000000000E+00 -0.10469511921E+04  0.10469511921E+04  0.50400001928E-02 0.  1.
    10030    2    1    2    0    0  0.00000000000E+00  0.00000000000E+00  0.63938867529E+03  0.27332910594E+04  0.26574540706E+04 0.  0.
        5    1    3    3  502    0  0.54236218163E+03  0.12125973913E+04  0.28808835350E+03  0.13592520587E+04  0.46999998093E+01 0. -1.
       -5    1    3    3    0  502 -0.54236218163E+03 -0.12125973913E+04  0.35130032179E+03  0.13740390008E+04  0.46999998093E+01 0.  1.
</event>
<event>
 5   0  0.1330962E-05  0.2817973E+04  0.7818609E-02  0.8297710E-01
        2   -1    0    0  501    0  0.00000000000E+00  0.00000000000E+00  0.12028719567E+04  0.12028719567E+04  0.25500000920E-02 0.  1.
       -2   -1    0    0    0  501  0.00000000000E+00  0.00000000000E+00 -0.16504189691E+04  0.16504189691E+04  0.25500000920E-02 0. -1.
    10030    2    1    2    0    0  0.00000000000E+00  0.00000000000E+00 -0.44754701235E+03  0.28532909258E+04  0.28179728137E+04 0.  0.
        4    1    3    3  502    0 -0.77115488861E+03  0.67295896690E+03 -0.12042525317E+04  0.15804364607E+04  0.12699999809E+01 0. -1.
       -4    1    3    3    0  502  0.77115488861E+03 -0.67295896690E+03  0.75670551933E+03  0.12728544651E+04  0.12699999809E+01 0.  1.
</event>
<event>
 5   0  0.5217999E-06  0.2060916E+04  0.7818609E-02  0.8578658E-01
        1   -1    0    0  501    0  0.00000000000E+00  0.00000000000E+00  0.72265390325E+03  0.72265390327E+03  0.50400001928E-02 0. -1.
       -1   -1    0    0    0  501  0.00000000000E+00  0.00000000000E+00 -0.14693669486E+04  0.14693669486E+04  0.50400001928E-02 0.  1.
    10030    2    1    2    0    0  0.00000000000E+00  0.00000000000E+00 -0.74671304536E+03  0.21920208519E+04  0.20609160689E+04 0.  0.
        1    1    3    3  502    0  0.71509124700E+03  0.55279715560E+03 -0.89971538210E+03  0.12753148457E+04  0.50400001928E-02 0.  1.
       -1    1    3    3    0  502 -0.71509124700E+03 -0.55279715560E+03  0.15300233674E+03  0.91670600622E+03  0.50400001928E-02 0. -1.
</event>
<event>
 5   0  0.1302063E-05  0.2806599E+04  0.7818609E-02  0.8301223E-01
       -2   -1    0    0    0  501  0.00000000000E+00  0.00000000000E+00  0.15562709807E+04  0.15562709807E+04  0.25500000920E-02 0. -1.
        2   -1    0    0  501    0  0.00000000000E+00  0.00000000000E+00 -0.12653639911E+04  0.12653639911E+04  0.25500000920E-02 0.  1.
    10030    2    1    2    0    0  0.00000000000E+00  0.00000000000E+00  0.29090698964E+03  0.28216349718E+04  0.28065988380E+04 0.  0.
        2    1    3    3  502    0 -0.24664102420E+03  0.52540124626E+03 -0.11390341256E+04  0.12783884401E+04  0.25500000920E-02 0.  1.
       -2    1    3    3    0  502  0.24664102420E+03 -0.52540124626E+03  0.14299411153E+04  0.15432465317E+04  0.25500000920E-02 0. -1.
</event>
<event>
 5   0  0.1283052E-05  0.2762828E+04  0.7818609E-02  0.8314902E-01
       -2   -1    0    0    0  501  0.00000000000E+00  0.00000000000E+00  0.10793782251E+04  0.10793782251E+04  0.25500000920E-02 0.  1.
        2   -1    0    0  501    0  0.00000000000E+00  0.00000000000E+00 -0.17679669231E+04  0.17679669231E+04  0.25500000920E-02 0. -1.
    10030    2    1    2    0    0  0.00000000000E+00  0.00000000000E+00 -0.68858869803E+03  0.28473451482E+04  0.27628282607E+04 0.  0.
        5    1    3    3  502    0 -0.18635771718E+03  0.10462445721E+04 -0.12538605770E+04  0.16436378372E+04  0.46999998093E+01 0. -1.
       -5    1    3    3    0  502  0.18635771718E+03 -0.10462445721E+04  0.56527187896E+03  0.12037073110E+04  0.46999998093E+01 0.  1.
</event>
<event>
 5   0  0.4764214E-06  0.2803209E+04  0.7818609E-02  0.8302273E-01
       -1   -1    0    0    0  501  0.00000000000E+00  0.00000000000E+00  0.17950211231E+04  0.17950211231E+04  0.50400001928E-02 0.  1.
        1   -1    0    0  501    0  0.00000000000E+00  0.00000000000E+00 -0.10944136222E+04  0.10944136222E+04  0.50400001928E-02 0. -1.
    10030    2    1    2    0    0  0.00000000000E+00  0.00000000000E+00  0.70060750088E+03  0.28894347452E+04  0.28032092817E+04 0.  0.
        3    1    3    3  502    0  0.55535129276E+03 -0.63362047290E+03  0.15048490532E+04  0.17246624728E+04  0.10100000352E+00 0.  1.
       -3    1    3    3    0  502 -0.55535129276E+03  0.63362047290E+03 -0.80424155229E+03  0.11647722725E+04  0.10100000352E+00 0. -1.
</event>
<event>
 5   0  0.5023691E-06  0.2778200E+04  0.7818609E-02  0.8310069E-01
        1   -1    0    0  501    0  0.00000000000E+00  0.00000000000E+00  0.30773889375E+04  0.30773889375E+04  0.50400001928E-02 0.  1.
       -1   -1    0    0    0  501  0.00000000000E+00  0.00000000000E+00 -0.62702455777E+03  0.62702455779E+03  0.50400001928E-02 0. -1.
    10030    2    1    2    0    0  0.00000000000E+00  0.00000000000E+00  0.24503643797E+04  0.37044134953E+04  0.27781997319E+04 0.  0.
        5    1    3    3  502    0  0.11775699477E+04  0.68070707476E+03  0.84912175601E+03  0.16034534449E+04  0.46999998093E+01 0.  1.
       -5    1    3    3    0  502 -0.11775699477E+04 -0.68070707476E+03  0.16012426237E+04  0.21009600504E+04  0.46999998093E+01 0. -1.
</event>
<event>
 5   0  0.1302063E-05  0.2809398E+04  0.7818609E-02  0.8300356E-01
       -2   -1    0    0    0  501  0.00000000000E+00  0.00000000000E+00  0.12596697822E+04  0.12596697822E+04  0.25500000920E-02 0.  1.
        2   -1    0    0  501    0  0.00000000000E+00  0.00000000000E+00 -0.15664263678E+04  0.15664263678E+04  0.25500000920E-02 0. -1.
    10030    2    1    2    0    0  0.00000000000E+00  0.00000000000E+00 -0.30675658560E+03  0.28260961500E+04  0.28093984848E+04 0.  0.
        2    1    3    3  502    0 -0.12994123906E+04 -0.52174589593E+03 -0.26579499225E+03  0.14252502653E+04  0.25500000920E-02 0.  1.
       -2    1    3    3    0  502  0.12994123906E+04  0.52174589593E+03 -0.40961593348E+02  0.14008458848E+04  0.25500000920E-02 0. -1.
</event>
<event>
 5   0  0.5281919E-06  0.2781428E+04  0.7818609E-02  0.8309058E-01
        1   -1    0    0  501    0  0.00000000000E+00  0.00000000000E+00  0.18741554669E+04  0.18741554669E+04  0.50400001928E-02 0.  1.
       -1   -1    0    0    0  501  0.00000000000E+00  0.00000000000E+00 -0.10319767510E+04  0.10319767511E+04  0.50400001928E-02 0. -1.
    10030    2    1    2    0    0  0.00000000000E+00  0.00000000000E+00  0.84217871583E+03  0.29061322179E+04  0.27814275973E+04 0.  0.
        4    1    3    3  502    0 -0.85182924673E+03 -0.16599686305E+03 -0.71433177197E+03  0.11240282547E+04  0.12699999809E+01 0. -1.
       -4    1    3    3    0  502  0.85182924673E+03  0.16599686305E+03  0.15565104878E+04  0.17821039632E+04  0.12699999809E+01 0.  1.
</event>
<event>
 5   0  0.1350863E-05  0.2829128E+04  0.7818609E-02  0.8294282E-01
        2   -1    0    0  501    0  0.00000000000E+00  0.00000000000E+00  0.13530214076E+04  0.13530214076E+04  0.25500000920E-02 0. -1.
       -2   -1    0    0    0  501  0.00000000000E+00  0.00000000000E+00 -0.14789063246E+04  0.14789063246E+04  0.25500000920E-02 0.  1.
    10030    2    1    2    0    0  0.00000000000E+00  0.00000000000E+00 -0.12588491702E+03  0.28319277322E+04  0.28291284290E+04 0.  0.
        3    1    3    3  502    0 -0.13715227844E+04 -0.34629008351E+03 -0.62361473313E+02  0.14159380401E+04  0.10100000352E+00 0.  1.
       -3    1    3    3    0  502  0.13715227844E+04  0.34629008351E+03 -0.63523443710E+02  0.14159896921E+04  0.10100000352E+00 0. -1.
</event>
<event>
 5   0  0.1283052E-05  0.2698588E+04  0.7818609E-02  0.8335463E-01
        2   -1    0    0  501    0  0.00000000000E+00  0.00000000000E+00  0.67469545146E+03  0.67469545147E+03  0.25500000920E-02 0. -1.
       -2   -1    0    0    0  501  0.00000000000E+00  0.00000000000E+00 -0.26983951395E+04  0.26983951395E+04  0.25500000920E-02 0.  1.
    10030    2    1    2    0    0  0.00000000000E+00  0.00000000000E+00 -0.20236996880E+04  0.33730905909E+04  0.26985884657E+04 0.  0.
        5    1    3    3  502    0  0.13349370388E+04  0.17776277948E+03 -0.90789869045E+03  0.16241793698E+04  0.46999998093E+01 0. -1.
       -5    1    3    3    0  502 -0.13349370388E+04 -0.17776277948E+03 -0.11158009975E+04  0.17489112211E+04  0.46999998093E+01 0.  1.
</event>
<event>
 5   0  0.1330962E-05  0.2780085E+04  0.7818609E-02  0.8309478E-01
        2   -1    0    0  501    0  0.00000000000E+00  0.00000000000E+00  0.12618586102E+04  0.12618586102E+04  0.25500000920E-02 0.  1.
       -2   -1    0    0    0  501  0.00000000000E+00  0.00000000000E+00 -0.15312475873E+04  0.15312475873E+04  0.25500000920E-02 0. -1.
    10030    2    1    2    0    0  0.00000000000E+00  0.00000000000E+00 -0.26938897707E+03  0.27931061976E+04  0.27800848566E+04 0.  0.
        4    1    3    3  502    0  0.88807345458E+03 -0.19381754894E+03 -0.11912744570E+04  0.14984579233E+04  0.12699999809E+01 0. -1.
       -4    1    3    3    0  502 -0.88807345458E+03  0.19381754894E+03  0.92188547995E+03  0.12946482743E+04  0.12699999809E+01 0.  1.
</event>
<event>
 5   0  0.5281919E-06  0.2698162E+04  0.7818609E-02  0.8335602E-01
       -1   -1    0    0    0  501  0.00000000000E+00  0.00000000000E+00  0.12852087446E+04  0.12852087446E+04  0.50400001928E-02 0.  1.
        1   -1    0    0  501    0  0.00000000000E+00  0.00000000000E+00 -0.14161276144E+04  0.14161276144E+04  0.50400001928E-02 0. -1.
    10030    2    1    2    0    0  0.00000000000E+00  0.00000000000E+00 -0.13091886975E+03  0.27013363590E+04  0.26981620363E+04 0.  0.
        4    1    3    3  502    0 -0.77205726125E+03  0.29424197363E+03 -0.11331883197E+04  0.14024151078E+04  0.12699999809E+01 0. -1.
       -4    1    3    3    0  502  0.77205726125E+03 -0.29424197363E+03  0.10022694500E+04  0.12989212512E+04  0.12699999809E+01 0.  1.
</event>
<event>
 5   0  0.1388269E-05  0.2570546E+04  0.7818609E-02  0.8378275E-01
       -2   -1    0    0    0  501  0.00000000000E+00  0.00000000000E+00  0.69857035149E+03  0.69857035149E+03  0.25500000920E-02 0.  1.
        2   -1    0    0  501    0  0.00000000000E+00  0.00000000000E+00 -0.23647253499E+04  0.23647253499E+04  0.25500000920E-02 0. -1.
    10030    2    1    2    0    0  0.00000000000E+00  0.00000000000E+00 -0.16661549984E+04  0.30632957013E+04  0.25705462601E+04 0.  0.
        1    1    3    3  502    0 -0.38743347290E+03  0.10813484920E+04 -0.15202478160E+04  0.19054061717E+04  0.50400001928E-02 0. -1.
       -1    1    3    3    0  502  0.38743347290E+03 -0.10813484920E+04 -0.14590718236E+03  0.11578895297E+04  0.50400001928E-02 0.  1.
</event>
<event>
 5   0  0.5217999E-06  0.2713358E+04  0.7818609E-02  0.8330684E-01
        1   -1    0    0  501    0  0.00000000000E+00  0.00000000000E+00  0.20916422853E+04  0.20916422853E+04  0.50400001928E-02 0.  1.
       -1   -1    0    0    0  501  0.00000000000E+00  0.00000000000E+00 -0.87996751274E+03  0.87996751276E+03  0.50400001928E-02 0. -1.
    10030    2    1    2    0    0  0.00000000000E+00  0.00000000000E+00  0.12116747726E+04  0.29716097981E+04  0.27133575212E+04 0.  0.
        1    1    3    3  502    0  0.11469280203E+04  0.59487613228E+02 -0.18511675273E+03  0.11632931153E+04  0.50400001928E-02 0. -1.
       -1    1    3    3    0  502 -0.11469280203E+04 -0.59487613228E+02  0.13967915253E+04  0.18083166828E+04  0.50400001928E-02 0.  1.
</event>
<event>
 5   0  0.1330962E-05  0.2795022E+04  0.7818609E-02  0.8304815E-01
       -2   -1    0    0    0  501  0.00000000000E+00  0.00000000000E+00  0.16168680896E+04  0.16168680896E+04  0.25500000920E-02 0. -1.
        2   -1    0    0  501    0  0.00000000000E+00  0.00000000000E+00 -0.12079140431E+04  0.12079140431E+04  0.25500000920E-02 0.  1.
    10030    2    1    2    0    0  0.00000000000E+00  0.00000000000E+00  0.40895404646E+03  0.28247821327E+04  0.27950224838E+04 0.  0.
        4    1    3    3  502    0  0.10711897812E+04  0.89334131717E+03  0.11677867121E+03  0.13996946550E+04  0.12699999809E+01 0.  1.
       -4    1    3    3    0  502 -0.10711897812E+04 -0.89334131717E+03  0.29217537525E+03  0.14250874777E+04  0.12699999809E+01 0. -1.
</event>
<event>
 5   0  0.5217999E-06  0.2659792E+04  0.7818609E-02  0.8348170E-01
        1   -1    0    0  501    0  0.00000000000E+00  0.00000000000E+00  0.22274505358E+04  0.22274505358E+04  0.50400001928E-02 0.  1.
       -1   -1    0    0    0  501  0.00000000000E+00  0.00000000000E+00 -0.79401249615E+03  0.79401249616E+03  0.50400001928E-02 0. -1.
    10030    2    1    2    0    0  0.00000000000E+00  0.00000000000E+00  0.14334380397E+04  0.30214630320E+04  0.26597921423E+04 0.  0.
        1    1    3    3  502    0 -0.94470554932E+03 -0.53951375535E+03  0.15856337766E+04  0.19229607746E+04  0.50400001928E-02 0.  1.
       -1    1    3    3    0  502  0.94470554932E+03  0.53951375535E+03 -0.15219573692E+03  0.10985022574E+04  0.50400001928E-02 0. -1.
</event>
<event>
 5   0  0.1283052E-05  0.2819969E+04  0.7818609E-02  0.8297095E-01
       -2   -1    0    0    0  501  0.00000000000E+00  0.00000000000E+00  0.16745529513E+04  0.16745529513E+04  0.25500000920E-02 0.  1.
        2   -1    0    0  501    0  0.00000000000E+00  0.00000000000E+00 -0.11872161930E+04  0.11872161930E+04  0.25500000920E-02 0. -1.
    10030    2    1    2    0    0  0.00000000000E+00  0.00000000000E+00  0.48733675833E+03  0.28617691443E+04  0.28199690635E+04 0.  0.
        5    1    3    3  502    0  0.81499405054E+03 -0.10943999751E+04 -0.11671190566E+03  0.13695146465E+04  0.46999998093E+01 0. -1.
       -5    1    3    3    0  502 -0.81499405054E+03  0.10943999751E+04  0.60404866399E+03  0.14922544979E+04  0.46999998093E+01 0.  1.
</event>
<event>
 5   0  0.1283052E-05  0.2778256E+04  0.7818609E-02  0.8310051E-01
       -2   -1    0    0    0  501  0.00000000000E+00  0.00000000000E+00  0.13332765614E+04  0.13332765614E+04  0.25500000920E-02 0. -1.
        2   -1    0    0  501    0  0.00000000000E+00  0.00000000000E+00 -0.14473190278E+04  0.14473190278E+04  0.25500000920E-02 0.  1.
    10030    2    1    2    0    0  0.00000000000E+00  0.00000000000E+00 -0.11404246640E+03  0.27805955892E+04  0.27782559541E+04 0.  0.
        5    1    3    3  502    0  0.48092075398E+03 -0.71078165528E+03 -0.11502593293E+04  0.14351355155E+04  0.46999998093E+01 0.  1.
       -5    1    3    3    0  502 -0.48092075398E+03  0.71078165528E+03  0.10362168629E+04  0.13454600737E+04  0.46999998093E+01 0. -1.
</event>
<event>
 5   0  0.1302063E-05  0.2838291E+04  0.7818609E-02  0.8291478E-01
       -2   -1    0    0    0  501  0.00000000000E+00  0.00000000000E+00  0.12192662564E+04  0.12192662564E+04  0.25500000920E-02 0.  1.
        2   -1    0    0  501    0  0.00000000000E+00  0.00000000000E+00 -0.16517920043E+04  0.16517920043E+04  0.25500000920E-02 0. -1.
    10030    2    1    2    0    0  0.00000000000E+00  0.00000000000E+00 -0.43252574789E+03  0.28710582608E+04  0.28382912138E+04 0.  0.
        2    1    3    3  502    0  0.11047008080E+04  0.87506023937E+03 -0.38516343533E+03  0.14609740482E+04  0.25500000920E-02 0. -1.
       -2    1    3    3    0  502 -0.11047008080E+04 -0.87506023937E+03 -0.47362312554E+02  0.14100842125E+04  0.25500000920E-02 0.  1.
</event>
<event>
 5   0  0.1302063E-05  0.2895710E+04  0.7818609E-02  0.8274155E-01
       -2   -1    0    0    0  501  0.00000000000E+00  0.00000000000E+00  0.65926028617E+03  0.65926028618E+03  0.25500000920E-02 0. -1.
        2   -1    0    0  501    0  0.00000000000E+00  0.00000000000E+00 -0.31797511847E+04  0.31797511847E+04  0.25500000920E-02 0.  1.
    10030    2    1    2    0    0  0.00000000000E+00  0.00000000000E+00 -0.25204908985E+04  0.38390114708E+04  0.28957097064E+04 0.  0.
        2    1    3    3  502    0  0.29694559436E+03  0.98224804894E+03  0.93908713608E+02  0.10304400818E+04  0.25500000920E-02 0. -1.
       -2    1    3    3    0  502 -0.29694559436E+03 -0.98224804894E+03 -0.26143996121E+04  0.28085713890E+04  0.25500000920E-02 0.  1.
</event>
<event>
 5   0  0.1388269E-05  0.2954475E+04  0.7818609E-02  0.8256852E-01
        2   -1    0    0  501    0  0.00000000000E+00  0.00000000000E+00  0.27297593489E+04  0.27297593489E+04  0.25500000920E-02 0.  1.
       -2   -1    0    0    0  501  0.00000000000E+00  0.00000000000E+00 -0.79942244168E+03  0.79942244168E+03  0.25500000920E-02 0. -1.
    10030    2    1    2    0    0  0.00000000000E+00  0.00000000000E+00  0.19303369072E+04  0.35291817906E+04  0.29544751709E+04 0.  0.
        1    1    3    3  502    0  0.12061185612E+04  0.83687159890E+03  0.76832670834E+03  0.16569254622E+04  0.50400001928E-02 0. -1.
       -1    1    3    3    0  502 -0.12061185612E+04 -0.83687159890E+03  0.11620101989E+04  0.18722563283E+04  0.50400001928E-02 0.  1.
</event>
<event>
 5   0  0.5023691E-06  0.2765302E+04  0.7818609E-02  0.8314122E-01
       -1   -1    0    0    0  501  0.00000000000E+00  0.00000000000E+00  0.10065847968E+04  0.10065847968E+04  0.50400001928E-02 0.  1.
        1   -1    0    0  501    0  0.00000000000E+00  0.00000000000E+00 -0.18992175462E+04  0.18992175462E+04  0.50400001928E-02 0. -1.
    10030    2    1    2    0    0  0.00000000000E+00  0.00000000000E+00 -0.89263274937E+03  0.29058023430E+04  0.27653017975E+04 0.  0.
        5    1    3    3  502    0  0.44794840163E+03 -0.64246741157E+03  0.75099634254E+03  0.10850989549E+04  0.46999998093E+01 0.  1.
       -5    1    3    3    0  502 -0.44794840163E+03  0.64246741157E+03 -0.16436290919E+04  0.18207033880E+04  0.46999998093E+01 0. -1.
</event>
<event>
 5   0  0.4764214E-06  0.2822793E+04  0.7818609E-02  0.8296227E-01
       -1   -1    0    0    0  501  0.00000000000E+00  0.00000000000E+00  0.73748640492E+03  0.73748640494E+03  0.50400001928E-02 0.  1.
        1   -1    0    0  501    0  0.00000000000E+00  0.00000000000E+00 -0.27011218168E+04  0.27011218168E+04  0.50400001928E-02 0. -1.
    10030    2    1    2    0    0  0.00000000000E+00  0.00000000000E+00 -0.19636354119E+04  0.34386082218E+04  0.28227933810E+04 0.  0.
        3    1    3    3  502    0 -0.94800659259E+03 -0.95563480530E+03 -0.14987621316E+04  0.20145079593E+04  0.10100000352E+00 0. -1.
       -3    1    3    3    0  502  0.94800659259E+03  0.95563480530E+03 -0.46487328033E+03  0.14241002625E+04  0.10100000352E+00 0.  1.
</event>
<event>
 5   0  0.1350863E-05  0.2732106E+04  0.7818609E-02  0.8324662E-01
        2   -1    0    0  501    0  0.00000000000E+00  0.00000000000E+00  0.24670751721E+04  0.24670751721E+04  0.25500000920E-02 0. -1.
       -2   -1    0    0    0  501  0.00000000000E+00  0.00000000000E+00 -0.75640230842E+03  0.75640230843E+03  0.25500000920E-02 0.  1.
    10030    2    1    2    0    0  0.00000000000E+00  0.00000000000E+00  0.17106728637E+04  0.32234774805E+04  0.27321064073E+04 0.  0.
        3    1    3    3  502    0  0.63677468265E+02 -0.12340171613E+04  0.16813225880E+03  0.12470451639E+04  0.10100000352E+00 0.  1.
       -3    1    3    3    0  502 -0.63677468265E+02  0.12340171613E+04  0.15425406049E+04  0.19764323166E+04  0.10100000352E+00 0. -1.
</event>
<event>
 5   0  0.5217999E-06  0.2786538E+04  0.7818609E-02  0.8307460E-01
       -1   -1    0    0    0  501  0.00000000000E+00  0.00000000000E+00  0.71236843633E+03  0.71236843635E+03  0.50400001928E-02 0.  1.
        1   -1    0    0  501    0  0.00000000000E+00  0.00000000000E+00 -0.27249923193E+04  0.27249923193E+04  0.50400001928E-02 0. -1.
    10030    2    1    2    0    0  0.00000000000E+00  0.00000000000E+00 -0.20126238830E+04  0.34373607557E+04  0.27865380081E+04 0.  0.
        1    1    3    3  502    0  0.83485755334E+03  0.19385015284E+03  0.34871469575E+03  0.92529290237E+03  0.50400001928E-02 0.  1.
       -1    1    3    3    0  502 -0.83485755334E+03 -0.19385015284E+03 -0.23613385788E+04  0.25120678533E+04  0.50400001928E-02 0. -1.
</event>
<event>
 5   0  0.1302063E-05  0.2745907E+04  0.7818609E-02  0.8320262E-01
        2   -1    0    0  501    0  0.00000000000E+00  0.00000000000E+00  0.13383235420E+04  0.13383235420E+04  0.25500000920E-02 0.  1.
       -2   -1    0    0    0  501  0.00000000000E+00  0.00000000000E+00 -0.14084792081E+04  0.14084792081E+04  0.25500000920E-02 0. -1.
    10030    2    1    2    0    0  0.00000000000E+00  0.00000000000E+00 -0.70155666076E+02  0.27468027502E+04  0.27459066865E+04 0.  0.
        2    1    3    3  502    0  0.58807369989E+03  0.98544915310E+03 -0.78902145175E+03  0.13926577330E+04  0.25500000920E-02 0. -1.
       -2    1    3    3    0  502 -0.58807369989E+03 -0.98544915310E+03  0.71886578567E+03  0.13541450172E+04  0.25500000920E-02 0.  1.
</event>
<event>
 5   0  0.5281919E-06  0.2778870E+04  0.7818609E-02  0.8309859E-01
       -1   -1    0    0    0  501  0.00000000000E+00  0.00000000000E+00  0.11258816431E+04  0.11258816431E+04  0.50400001928E-02 0. -1.
        1   -1    0    0  501    0  0.00000000000E+00  0.00000000000E+00 -0.17146822649E+04  0.17146822650E+04  0.50400001928E-02 0.  1.
    10030    2    1    2    0    0  0.00000000000E+00  0.00000000000E+00 -0.58880062187E+03  0.28405639080E+04  0.27788697601E+04 0.  0.
        4    1    3    3  502    0 -0.80861349711E+03  0.71657338740E+03  0.59860486910E+03  0.12351771571E+04  0.12699999809E+01 0.  1.
       -4    1    3    3    0  502  0.80861349711E+03 -0.71657338740E+03 -0.11874054910E+04  0.16053867509E+04  0.12699999809E+01 0. -1.
</event>
<event>
 5   0  0.5217999E-06  0.2834991E+04  0.7818609E-02  0.8292487E-01
        1   -1    0    0  501    0  0.00000000000E+00  0.00000000000E+00  0.10363876864E+04  0.10363876864E+04  0.50400001928E-02 0.  1.
       -1   -1    0    0    0  501  0.00000000000E+00  0.00000000000E+00 -0.19387465621E+04  0.19387465621E+04  0.50400001928E-02 0. -1.
    10030    2    1    2    0    0  0.00000000000E+00  0.00000000000E+00 -0.90235887569E+03  0.29751342485E+04  0.28349906977E+04 0.  0.
        1    1    3    3  502    0 -0.10413120659E+04 -0.71024926487E+03  0.22934257479E+03  0.12811646473E+04  0.50400001928E-02 0.  1.
       -1    1    3    3    0  502  0.10413120659E+04  0.71024926487E+03 -0.11317014505E+04  0.16939696012E+04  0.50400001928E-02 0. -1.
</event>
<event>
 5   0  0.5107453E-06  0.2798521E+04  0.7818609E-02  0.8303728E-01
        1   -1    0    0  501    0  0.00000000000E+00  0.00000000000E+00  0.18525302110E+04  0.18525302110E+04  0.50400001928E-02 0.  1.
       -1   -1    0    0    0  501  0.00000000000E+00  0.00000000000E+00 -0.10568953662E+04  0.10568953662E+04  0.50400001928E-02 0. -1.
    10030    2    1    2    0    0  0.00000000000E+00  0.00000000000E+00  0.79563484475E+03  0.29094255772E+04  0.27985214637E+04 0.  0.
        2    1    3    3  502    0  0.20703076024E+03  0.64413600682E+03 -0.87553043820E+03  0.11064928735E+04  0.25500000920E-02 0. -1.
       -2    1    3    3    0  502 -0.20703076024E+03 -0.64413600682E+03  0.16711652829E+04  0.18029327036E+04  0.25500000920E-02 0.  1.
</event>
<event>
 5   0  0.4764214E-06  0.2620551E+04  0.7818609E-02  0.8361254E-01
       -1   -1    0    0    0  501  0.00000000000E+00  0.00000000000E+00  0.10975066284E+04  0.10975066284E+04  0.50400001928E-02 0.  1.
        1   -1    0    0  501    0  0.00000000000E+00  0.00000000000E+00 -0.15642929537E+04  0.15642929537E+04  0.50400001928E-02 0. -1.
    10030    2    1    2    0    0  0.00000000000E+00  0.00000000000E+00 -0.46678632533E+03  0.26617995821E+04  0.26205509996E+04 0.  0.
        3    1    3    3  502    0  0.70947415636E+03 -0.11188544286E+03  0.87973504835E+03  0.11356961285E+04  0.10100000352E+00 0.  1.
       -3    1    3    3    0  502 -0.70947415636E+03  0.11188544286E+03 -0.13465213737E+04  0.15261034535E+04  0.10100000352E+00 0. -1.
</event>
<event>
 5   0  0.1330962E-05  0.2892865E+04  0.7818609E-02  0.8275003E-01
       -2   -1    0    0    0  501  0.00000000000E+00  0.00000000000E+00  0.14162943185E+04  0.14162943185E+04  0.25500000920E-02 0.  1.
        2   -1    0    0  501    0  0.00000000000E+00  0.00000000000E+00 -0.14772121105E+04  0.14772121105E+04  0.25500000920E-02 0. -1.
    10030    2    1    2    0    0  0.00000000000E+00  0.00000000000E+00 -0.60917792020E+02  0.28935064291E+04  0.28928650984E+04 0.  0.
        4    1    3    3  502    0 -0.96442445092E+03 -0.10228827752E+04  0.30985440996E+03  0.14395885043E+04  0.12699999809E+01 0.  1.
       -4    1    3    3    0  502  0.96442445092E+03  0.10228827752E+04 -0.37077220198E+03  0.14539179248E+04  0.12699999809E+01 0. -1.
</event>
<event>
 5   0  0.1330962E-05  0.2841938E+04  0.7818609E-02  0.8290365E-01
        2   -1    0    0  501    0  0.00000000000E+00  0.00000000000E+00  0.18456980152E+04  0.18456980152E+04  0.25500000920E-02 0. -1.
       -2   -1    0    0    0  501  0.00000000000E+00  0.00000000000E+00 -0.10939780834E+04  0.10939780834E+04  0.25500000920E-02 0.  1.
    10030    2    1    2    0    0  0.00000000000E+00  0.00000000000E+00  0.75171993175E+03  0.29396760986E+04  0.28419381958E+04 0.  0.
        4    1    3    3  502    0  0.30965238746E+03  0.64756359132E+03  0.16443832014E+04  0.17942187525E+04  0.12699999809E+01 0. -1.
       -4    1    3    3    0  502 -0.30965238746E+03 -0.64756359132E+03 -0.89266326965E+03  0.11454573461E+04  0.12699999809E+01 0.  1.
</event>
<event>
 5   0  0.5107453E-06  0.2798835E+04  0.7818609E-02  0.8303630E-01
       -1   -1    0    0    0  501  0.00000000000E+00  0.00000000000E+00  0.10581558742E+04  0.10581558742E+04  0.50400001928E-02 0.  1.
        1   -1    0    0  501    0  0.00000000000E+00  0.00000000000E+00 -0.18507379893E+04  0.18507379893E+04  0.50400001928E-02 0. -1.
    10030    2    1    2    0    0  0.00000000000E+00  0.00000000000E+00 -0.79258211504E+03  0.29088938635E+04  0.27988349541E+04 0.  0.
        2    1    3    3  502    0  0.90620550307E+03 -0.44980918922E+03  0.60859657281E+03  0.11806466486E+04  0.25500000920E-02 0.  1.
       -2    1    3    3    0  502 -0.90620550307E+03  0.44980918922E+03 -0.14011786879E+04  0.17282472149E+04  0.25500000920E-02 0. -1.
</event>
<event>
 5   0  0.1330962E-05  0.2887918E+04  0.7818609E-02  0.8276481E-01
       -2   -1    0    0    0  501  0.00000000000E+00  0.00000000000E+00  0.14474749785E+04  0.14474749785E+04  0.25500000920E-02 0. -1.
        2   -1    0    0  501    0  0.00000000000E+00  0.00000000000E+00 -0.14404515532E+04  0.14404515532E+04  0.25500000920E-02 0.  1.
    10030    2    1    2    0    0  0.00000000000E+00  0.00000000000E+00  0.70234252172E+01  0.28879265317E+04  0.28879179912E+04 0.  0.
        4    1    3    3  502    0 -0.36099171203E+03  0.11888487030E+04  0.73927180609E+03  0.14457526313E+04  0.12699999809E+01 0. -1.
       -4    1    3    3    0  502  0.36099171203E+03 -0.11888487030E+04 -0.73224838087E+03  0.14421739004E+04  0.12699999809E+01 0.  1.
</event>
<event>
 5   0  0.1388269E-05  0.2777677E+04  0.7818609E-02  0.8310232E-01
        2   -1    0    0  501    0  0.00000000000E+00  0.00000000000E+00  0.15946735020E+04  0.15946735020E+04  0.25500000920E-02 0.  1.
       -2   -1    0    0    0  501  0.00000000000E+00  0.00000000000E+00 -0.12095721798E+04  0.12095721798E+04  0.25500000920E-02 0. -1.
    10030    2    1    2    0    0  0.00000000000E+00  0.00000000000E+00  0.38510132221E+03  0.28042456817E+04  0.27776772338E+04 0.  0.
        1    1    3    3  502    0  0.13023727593E+04 -0.20262114080E+03 -0.24940660347E+03  0.13414297539E+04  0.50400001928E-02 0. -1.
       -1    1    3    3    0  502 -0.13023727593E+04  0.20262114080E+03  0.63450792568E+03  0.14628159278E+04  0.50400001928E-02 0.  1.
</event>
<event>
 5   0  0.1330962E-05  0.2455179E+04  0.7818609E-02  0.8419129E-01
       -2   -1    0    0    0  501  0.00000000000E+00  0.00000000000E+00  0.14093559495E+04  0.14093559495E+04  0.25500000920E-02 0.  1.
        2   -1    0    0  501    0  0.00000000000E+00  0.00000000000E+00 -0.10692659560E+04  0.10692659560E+04  0.25500000920E-02 0. -1.
    10030    2    1    2    0    0  0.00000000000E+00  0.00000000000E+00  0.34008999347E+03  0.24786219055E+04  0.24551792901E+04 0.  0.
        4    1    3    3  502    0  0.86398994269E+03  0.87042234210E+03  0.11604549872E+03  0.12319017190E+04  0.12699999809E+01 0. -1.
       -4    1    3    3    0  502 -0.86398994269E+03 -0.87042234210E+03  0.22404449475E+03  0.12467201864E+04  0.12699999809E+01 0.  1.
</event>
<event>
 5   0  0.4764214E-06  0.2827772E+04  0.7818609E-02  0.8294698E-01
        1   -1    0    0  501    0  0.00000000000E+00  0.00000000000E+00  0.22908500370E+04  0.22908500370E+04  0.50400001928E-02 0. -1.
       -1   -1    0    0    0  501  0.00000000000E+00  0.00000000000E+00 -0.87263378332E+03  0.87263378333E+03  0.50400001928E-02 0.  1.
    10030    2    1    2    0    0  0.00000000000E+00  0.00000000000E+00  0.14182162536E+04  0.31634838203E+04  0.28277716561E+04 0.  0.
        3    1    3    3  502    0 -0.12134663851E+04  0.13235525124E+02 -0.10255926306E+03  0.12178646311E+04  0.10100000352E+00 0. -1.
       -3    1    3    3    0  502  0.12134663851E+04 -0.13235525124E+02  0.15207755167E+04  0.19456191892E+04  0.10100000352E+00 0.  1.
</event>
<event>
 5   0  0.1283052E-05  0.2792891E+04  0.7818609E-02  0.8305479E-01
        2   -1    0    0  501    0  0.00000000000E+00  0.00000000000E+00  0.25400199529E+04  0.25400199529E+04  0.25500000920E-02 0.  1.
       -2   -1    0    0    0  501  0.00000000000E+00  0.00000000000E+00 -0.76773421965E+03  0.76773421966E+03  0.25500000920E-02 0. -1.
    10030    2    1    2    0    0  0.00000000000E+00  0.00000000000E+00  0.17722857332E+04  0.33077541725E+04  0.27928911446E+04 0.  0.
        5    1    3    3  502    0  0.12222241570E+04 -0.62459065743E+03  0.11906210529E+04  0.18170156744E+04  0.46999998093E+01 0.  1.
       -5    1    3    3    0  502 -0.12222241570E+04  0.62459065743E+03  0.58166468028E+03  0.14907384981E+04  0.46999998093E+01 0. -1.
</event>
<event>
 5   0  0.5023691E-06  0.2595687E+04  0.7818609E-02  0.8369668E-01
        1   -1    0    0  501    0  0.00000000000E+00  0.00000000000E+00  0.19754764000E+04  0.19754764000E+04  0.50400001928E-02 0.  1.
       -1   -1    0    0    0  501  0.00000000000E+00  0.00000000000E+00 -0.85265424172E+03  0.85265424174E+03  0.50400001928E-02 0. -1.
    10030    2    1    2    0    0  0.00000000000E+00  0.00000000000E+00  0.11228221582E+04  0.28281306417E+04  0.25956874480E+04 0.  0.
        5    1    3    3  502    0  0.16170236071E+03  0.74985617753E+03 -0.57920978569E+03  0.96121694027E+03  0.46999998093E+01 0. -1.
       -5    1    3    3    0  502 -0.16170236071E+03 -0.74985617753E+03  0.17020319439E+04  0.18669137014E+04  0.46999998093E+01 0.  1.
</event>
<event>
 5   0  0.4764214E-06  0.2808232E+04  0.7818609E-02  0.8300717E-01
       -1   -1    0    0    0  501  0.00000000000E+00  0.00000000000E+00  0.56922428121E+03  0.56922428124E+03  0.50400001928E-02 0.  1.
        1   -1    0    0  501    0  0.00000000000E+00  0.00000000000E+00 -0.34635590064E+04  0.34635590064E+04  0.50400001928E-02 0. -1.
    10030    2    1    2    0    0  0.00000000000E+00  0.00000000000E+00 -0.28943347252E+04  0.40327832877E+04  0.28082321029E+04 0.  0.
        3    1    3    3  502    0 -0.49219252476E+03  0.74913179287E+03 -0.29992328035E+04  0.31303113814E+04  0.10100000352E+00 0. -1.
       -3    1    3    3    0  502  0.49219252476E+03 -0.74913179287E+03  0.10489807834E+03  0.90247190624E+03  0.10100000352E+00 0.  1.
</event>
<event>
 5   0  0.1350863E-05  0.2528978E+04  0.7818609E-02  0.8392734E-01
       -2   -1    0    0    0  501  0.00000000000E+00  0.00000000000E+00  0.73057857227E+03  0.73057857228E+03  0.25500000920E-02 0. -1.
        2   -1    0    0  501    0  0.00000000000E+00  0.00000000000E+00 -0.21885831011E+04  0.21885831011E+04  0.25500000920E-02 0.  1.
    10030    2    1    2    0    0  0.00000000000E+00  0.00000000000E+00 -0.14580045288E+04  0.29191616734E+04  0.25289775937E+04 0.  0.
        3    1    3    3  502    0 -0.39039302060E+03  0.80540761516E+03  0.30202961993E+03  0.94462163781E+03  0.10100000352E+00 0. -1.
       -3    1    3    3    0  502  0.39039302060E+03 -0.80540761516E+03 -0.17600341487E+04  0.19745400355E+04  0.10100000352E+00 0.  1.
</event>
<event>
 5   0  0.5217999E-06  0.2794783E+04  0.7818609E-02  0.8304890E-01
        1   -1    0    0  501    0  0.00000000000E+00  0.00000000000E+00  0.21778364830E+04  0.21778364830E+04  0.50400001928E-02 0.  1.
       -1   -1    0    0    0  501  0.00000000000E+00  0.00000000000E+00 -0.89662504517E+03  0.89662504518E+03  0.50400001928E-02 0. -1.
    10030    2    1    2    0    0  0.00000000000E+00  0.00000000000E+00  0.12812114378E+04  0.30744615281E+04  0.27947828073E+04 0.  0.
        1    1    3    3  502    0  0.88871035902E+02  0.17617206838E+03 -0.88122257022E+03  0.90304367391E+03  0.50400001928E-02 0. -1.
       -1    1    3    3    0  502 -0.88871035902E+02 -0.17617206838E+03  0.21624340080E+04  0.21714178542E+04  0.50400001928E-02 0.  1.
</event>
<event>
 5   0  0.5281919E-06  0.2834570E+04  0.7818609E-02  0.8292615E-01
       -1   -1    0    0    0  501  0.00000000000E+00  0.00000000000E+00  0.20591197834E+04  0.20591197834E+04  0.50400001928E-02 0. -1.
        1   -1    0    0  501    0  0.00000000000E+00  0.00000000000E+00 -0.97551226770E+03  0.97551226772E+03  0.50400001928E-02 0.  1.
    10030    2    1    2    0    0  0.00000000000E+00  0.00000000000E+00  0.10836075157E+04  0.30346320511E+04  0.28345698858E+04 0.  0.
        4    1    3    3  502    0  0.41668304359E+03 -0.13234502176E+04  0.23235305532E+03  0.14068172562E+04  0.12699999809E+01 0. -1.
       -4    1    3    3    0  502 -0.41668304359E+03  0.13234502176E+04  0.85125446035E+03  0.16278147949E+04  0.12699999809E+01 0.  1.
</event>
<event>
 5   0  0.5023691E-06  0.2791062E+04  0.7818609E-02  0.8306049E-01
        1   -1    0    0  501    0  0.00000000000E+00  0.00000000000E+00  0.18111767091E+04  0.18111767091E+04  0.50400001928E-02 0.  1.
       -1   -1    0    0    0  501  0.00000000000E+00  0.00000000000E+00 -0.10752717916E+04  0.10752717916E+04  0.50400001928E-02 0. -1.
    10030    2    1    2    0    0  0.00000000000E+00  0.00000000000E+00  0.73590491751E+03  0.28864485008E+04  0.27910623246E+04 0.  0.
        5    1    3    3  502    0  0.75090766097E+03 -0.78589196196E+03 -0.53717077355E+03  0.12124615545E+04  0.46999998093E+01 0.  1.
       -5    1    3    3    0  502 -0.75090766097E+03  0.78589196196E+03  0.12730756911E+04  0.16739869463E+04  0.46999998093E+01 0. -1.
</event>
<event>
 5   0  0.5217999E-06  0.2612572E+04  0.7818609E-02  0.8363943E-01
       -1   -1    0    0    0  501  0.00000000000E+00  0.00000000000E+00  0.88521832487E+03  0.88521832488E+03  0.50400001928E-02 0. -1.
        1   -1    0    0  501    0  0.00000000000E+00  0.00000000000E+00 -0.19276407986E+04  0.19276407986E+04  0.50400001928E-02 0.  1.
    10030    2    1    2    0    0  0.00000000000E+00  0.00000000000E+00 -0.10424224737E+04  0.28128591235E+04  0.26125718813E+04 0.  0.
        1    1    3    3  502    0 -0.95880316878E+03  0.37847621104E+03  0.34269596020E+03  0.10862726545E+04  0.50400001928E-02 0. -1.
       -1    1    3    3    0  502  0.95880316878E+03 -0.37847621104E+03 -0.13851184339E+04  0.17265864690E+04  0.50400001928E-02 0.  1.
</event>
<event>
 5   0  0.5217999E-06  0.2748871E+04  0.7818609E-02  0.8319320E-01
        1   -1    0    0  501    0  0.00000000000E+00  0.00000000000E+00  0.21582630787E+04  0.21582630787E+04  0.50400001928E-02 0.  1.
       -1   -1    0    0    0  501  0.00000000000E+00  0.00000000000E+00 -0.87527453734E+03  0.87527453735E+03  0.50400001928E-02 0. -1.
    10030    2    1    2    0    0  0.00000000000E+00  0.00000000000E+00  0.12829885413E+04  0.30335376160E+04  0.27488708356E+04 0.  0.
        1    1    3    3  502    0  0.60748945280E+03  0.11444130601E+04  0.13536171180E+03  0.13027077494E+04  0.50400001928E-02 0. -1.
       -1    1    3    3    0  502 -0.60748945280E+03 -0.11444130601E+04  0.11476268295E+04  0.17308298666E+04  0.50400001928E-02 0.  1.
</event>
<event>
 5   0  0.1330962E-05  0.2751790E+04  0.7818609E-02  0.8318394E-01
        2   -1    0    0  501    0  0.00000000000E+00  0.00000000000E+00  0.15191863334E+04  0.15191863334E+04  0.25500000920E-02 0.  1.
       -2   -1    0    0    0  501  0.00000000000E+00  0.00000000000E+00 -0.12461187570E+04  0.12461187570E+04  0.25500000920E-02 0. -1.
    10030    2    1    2    0    0  0.00000000000E+00  0.00000000000E+00  0.27306757643E+03  0.27653050904E+04  0.27517896616E+04 0.  0.
        4    1    3    3  502    0 -0.19412592124E+03 -0.22824961497E+03 -0.12129326134E+04  0.12493958131E+04  0.12699999809E+01 0. -1.
       -4    1    3    3    0  502  0.19412592124E+03  0.22824961497E+03  0.14860001899E+04  0.15159092774E+04  0.12699999809E+01 0.  1.
</event>
<event>
 5   0  0.5281919E-06  0.2766716E+04  0.7818609E-02  0.8313677E-01
        1   -1    0    0  501    0  0.00000000000E+00  0.00000000000E+00  0.87201025322E+03  0.87201025323E+03  0.50400001928E-02 0.  1.
       -1   -1    0    0    0  501  0.00000000000E+00  0.00000000000E+00 -0.21945611500E+04  0.21945611500E+04  0.50400001928E-02 0. -1.
    10030    2    1    2    0    0  0.00000000000E+00  0.00000000000E+00 -0.13225508968E+04  0.30665714032E+04  0.27667163383E+04 0.  0.
        4    1    3    3  502    0 -0.14382529921E+03 -0.79718150154E+03  0.58163956234E+03  0.99724132308E+03  0.12699999809E+01 0.  1.
       -4    1    3    3    0  502  0.14382529921E+03  0.79718150154E+03 -0.19041904591E+04  0.20693300801E+04  0.12699999809E+01 0. -1.
</event>
<event>
 5   0  0.5217999E-06  0.2798824E+04  0.7818609E-02  0.8303634E-01
       -1   -1    0    0    0  501  0.00000000000E+00  0.00000000000E+00  0.19372485215E+04  0.19372485215E+04  0.50400001928E-02 0. -1.
        1   -1    0    0  501    0  0.00000000000E+00  0.00000000000E+00 -0.10108941804E+04  0.10108941804E+04  0.50400001928E-02 0.  1.
    10030    2    1    2    0    0  0.00000000000E+00  0.00000000000E+00  0.92635434112E+03  0.29481427019E+04  0.27988235073E+04 0.  0.
        1    1    3    3  502    0  0.12452268538E+03  0.10698452489E+04 -0.47795410226E+03  0.11783526126E+04  0.50400001928E-02 0.  1.
       -1    1    3    3    0  502 -0.12452268538E+03 -0.10698452489E+04  0.14043084434E+04  0.17697900892E+04  0.50400001928E-02 0. -1.
</event>
<event>
 5   0  0.4764214E-06  0.2927661E+04  0.7818609E-02  0.8264695E-01
        1   -1    0    0  501    0  0.00000000000E+00  0.00000000000E+00  0.16903172210E+04  0.16903172210E+04  0.50400001928E-02 0.  1.
       -1   -1    0    0    0  501  0.00000000000E+00  0.00000000000E+00 -0.12676905351E+04  0.12676905351E+04  0.50400001928E-02 0. -1.
    10030    2    1    2    0    0  0.00000000000E+00  0.00000000000E+00  0.42262668591E+03  0.29580077562E+04  0.29276605968E+04 0.  0.
        3    1    3    3  502    0 -0.45074585533E+03  0.20371100990E+03 -0.11806937813E+04  0.12801202354E+04  0.10100000352E+00 0. -1.
       -3    1    3    3    0  502  0.45074585533E+03 -0.20371100990E+03  0.16033204672E+04  0.16778875208E+04  0.10100000352E+00 0.  1.
</event>
<event>
 5   0  0.4764214E-06  0.2803265E+04  0.7818609E-02  0.8302256E-01
       -1   -1    0    0    0  501  0.00000000000E+00  0.00000000000E+00  0.84672457053E+03  0.84672457055E+03  0.50400001928E-02 0. -1.
        1   -1    0    0  501    0  0.00000000000E+00  0.00000000000E+00 -0.23202032911E+04  0.23202032911E+04  0.50400001928E-02 0.  1.
    10030    2    1    2    0    0  0.00000000000E+00  0.00000000000E+00 -0.14734787205E+04  0.31669278616E+04  0.28032646220E+04 0.  0.
        3    1    3    3  502    0 -0.38773081073E+03  0.64893563301E+03  0.59668508996E+03  0.96306061292E+03  0.10100000352E+00 0. -1.
       -3    1    3    3    0  502  0.38773081073E+03 -0.64893563301E+03 -0.20701638105E+04  0.22038672487E+04  0.10100000352E+00 0.  1.
</event>
<event>
 5   0  0.1330962E-05  0.2791318E+04  0.7818609E-02  0.8305969E-01
       -2   -1    0    0    0  501  0.00000000000E+00  0.00000000000E+00  0.18485787782E+04  0.18485787782E+04  0.25500000920E-02 0.  1.
        2   -1    0    0  501    0  0.00000000000E+00  0.00000000000E+00 -0.10537087348E+04  0.10537087348E+04  0.25500000920E-02 0. -1.
    10030    2    1    2    0    0  0.00000000000E+00  0.00000000000E+00  0.79487004335E+03  0.29022875130E+04  0.27913176856E+04 0.  0.
        4    1    3    3  502    0  0.87510533375E+03 -0.57344290726E+02  0.15263068874E+04  0.17603158922E+04  0.12699999809E+01 0.  1.
       -4    1    3    3    0  502 -0.87510533375E+03  0.57344290726E+02 -0.73143684408E+03  0.11419716208E+04  0.12699999809E+01 0. -1.
</event>
<event>
 5   0  0.5107453E-06  0.2792722E+04  0.7818609E-02  0.8305532E-01
        1   -1    0    0  501    0  0.00000000000E+00  0.00000000000E+00  0.18395957334E+04  0.18395957334E+04  0.50400001928E-02 0.  1.
       -1   -1    0    0    0  501  0.00000000000E+00  0.00000000000E+00 -0.10599195463E+04  0.10599195463E+04  0.50400001928E-02 0. -1.
    10030    2    1    2    0    0  0.00000000000E+00  0.00000000000E+00  0.77967618705E+03  0.28995152797E+04  0.27927215938E+04 0.  0.
        2    1    3    3  502    0 -0.98379100065E+03  0.30612183916E+03 -0.58868213170E+03  0.11866347229E+04  0.25500000920E-02 0. -1.
       -2    1    3    3    0  502  0.98379100065E+03 -0.30612183916E+03  0.13683583188E+04  0.17128805568E+04  0.25500000920E-02 0.  1.
</event>
<event>
 5   0  0.5281919E-06  0.2813111E+04  0.7818609E-02  0.8299210E-01
       -1   -1    0    0    0  501  0.00000000000E+00  0.00000000000E+00  0.81199916750E+03  0.81199916752E+03  0.50400001928E-02 0. -1.
        1   -1    0    0  501    0  0.00000000000E+00  0.00000000000E+00 -0.24364531457E+04  0.24364531457E+04  0.50400001928E-02 0.  1.
    10030    2    1    2    0    0  0.00000000000E+00  0.00000000000E+00 -0.16244539782E+04  0.32484523132E+04  0.28131106811E+04 0.  0.
        4    1    3    3  502    0  0.47675869421E+03  0.10245589473E+04 -0.17793133488E+04  0.21078371605E+04  0.12699999809E+01 0. -1.
       -4    1    3    3    0  502 -0.47675869421E+03 -0.10245589473E+04  0.15485937067E+03  0.11406151527E+04  0.12699999809E+01 0.  1.
</event>
<event>
 5   0  0.1330962E-05  0.2938942E+04  0.7818609E-02  0.8261384E-01
        2   -1    0    0  501    0  0.00000000000E+00  0.00000000000E+00  0.15101476005E+04  0.15101476005E+04  0.25500000920E-02 0.  1.
       -2   -1    0    0    0  501  0.00000000000E+00  0.00000000000E+00 -0.14298902485E+04  0.14298902485E+04  0.25500000920E-02 0. -1.
    10030    2    1    2    0    0  0.00000000000E+00  0.00000000000E+00  0.80257352020E+02  0.29400378490E+04  0.29389422096E+04 0.  0.
        4    1    3    3  502    0 -0.99439272676E+03 -0.10816842618E+04  0.18075557613E+02  0.14694169170E+04  0.12699999809E+01 0.  1.
       -4    1    3    3    0  502  0.99439272676E+03  0.10816842618E+04  0.62181794406E+02  0.14706209320E+04  0.12699999809E+01 0. -1.
</event>
<event>
 5   0  0.1283052E-05  0.2801554E+04  0.7818609E-02  0.8302786E-01
        2   -1    0    0  501    0  0.00000000000E+00  0.00000000000E+00  0.24972232717E+04  0.24972232717E+04  0.25500000920E-02 0. -1.
       -2   -1    0    0    0  501  0.00000000000E+00  0.00000000000E+00 -0.78574296802E+03  0.78574296803E+03  0.25500000920E-02 0.  1.
    10030    2    1    2    0    0  0.00000000000E+00  0.00000000000E+00  0.17114803037E+04  0.32829662397E+04  0.28015535871E+04 0.  0.
        5    1    3    3  502    0 -0.58485862837E+03 -0.12632809580E+04  0.10380923431E+04  0.17365472055E+04  0.46999998093E+01 0. -1.
       -5    1    3    3    0  502  0.58485862837E+03  0.12632809580E+04  0.67338796058E+03  0.15464190343E+04  0.46999998093E+01 0.  1.
</event>
<event>
 5   0  0.5281919E-06  0.2826464E+04  0.7818609E-02  0.8295099E-01
        1   -1    0    0  501    0  0.00000000000E+00  0.00000000000E+00  0.14154157720E+04  0.14154157721E+04  0.50400001928E-02 0.  1.
       -1   -1    0    0    0  501  0.00000000000E+00  0.00000000000E+00 -0.14110515495E+04  0.14110515495E+04  0.50400001928E-02 0. -1.
    10030    2    1    2    0    0  0.00000000000E+00  0.00000000000E+00  0.43642225600E+01  0.28264673216E+04  0.28264639522E+04 0.  0.
        4    1    3    3  502    0 -0.29895541532E+03 -0.54068523363E+03 -0.12688458171E+04  0.14112711230E+04  0.12699999809E+01 0. -1.
       -4    1    3    3    0  502  0.29895541532E+03  0.54068523363E+03  0.12732100397E+04  0.14151961985E+04  0.12699999809E+01 0.  1.
</event>
<event>
 5   0  0.1330962E-05  0.2362326E+04  0.7818609E-02  0.8453744E-01
        2   -1    0    0  501    0  0.00000000000E+00  0.00000000000E+00  0.19191199447E+04  0.19191199447E+04  0.25500000920E-02 0. -1.
       -2   -1    0    0    0  501  0.00000000000E+00  0.00000000000E+00 -0.72697158315E+03  0.72697158315E+03  0.25500000920E-02 0.  1.
    10030    2    1    2    0    0  0.00000000000E+00  0.00000000000E+00  0.11921483615E+04  0.26460915278E+04  0.23623256883E+04 0.  0.
        4    1    3    3  502    0  0.99767184084E+03 -0.36107709793E+03  0.11774789881E+04  0.15849871145E+04  0.12699999809E+01 0. -1.
       -4    1    3    3    0  502 -0.99767184084E+03  0.36107709793E+03  0.14669373418E+02  0.10611044134E+04  0.12699999809E+01 0.  1.
</event>
<event>
 5   0  0.1350863E-05  0.2104575E+04  0.7818609E-02  0.8559231E-01
       -2   -1    0    0    0  501  0.00000000000E+00  0.00000000000E+00  0.53569509685E+03  0.53569509686E+03  0.25500000920E-02 0. -1.
        2   -1    0    0  501    0  0.00000000000E+00  0.00000000000E+00 -0.20670507264E+04  0.20670507264E+04  0.25500000920E-02 0.  1.
    10030    2    1    2    0    0  0.00000000000E+00  0.00000000000E+00 -0.15313556295E+04  0.26027458232E+04  0.21045749586E+04 0.  0.
        3    1    3    3  502    0  0.19695407833E+03  0.10326301103E+04 -0.82359322369E+03  0.13354481128E+04  0.10100000352E+00 0. -1.
       -3    1    3    3    0  502 -0.19695407833E+03 -0.10326301103E+04 -0.70776240582E+03  0.12672977104E+04  0.10100000352E+00 0.  1.
</event>
<event>
 5   0  0.5023691E-06  0.2828381E+04  0.7818609E-02  0.8294511E-01
       -1   -1    0    0    0  501  0.00000000000E+00  0.00000000000E+00  0.11025193977E+04  0.11025193978E+04  0.50400001928E-02 0. -1.
        1   -1    0    0  501    0  0.00000000000E+00  0.00000000000E+00 -0.18139676597E+04  0.18139676597E+04  0.50400001928E-02 0.  1.
    10030    2    1    2    0    0  0.00000000000E+00  0.00000000000E+00 -0.71144826192E+03  0.29164870574E+04  0.28283808313E+04 0.  0.
        5    1    3    3  502    0  0.72189344624E+03 -0.46059297694E+03 -0.15162321642E+04  0.17413380211E+04  0.46999998093E+01 0.  1.
       -5    1    3    3    0  502 -0.72189344624E+03  0.46059297694E+03  0.80478390228E+03  0.11751490363E+04  0.46999998093E+01 0. -1.
</event>
<event>
 5   0  0.1302063E-05  0.2825888E+04  0.7818609E-02  0.8295276E-01
       -2   -1    0    0    0  501  0.00000000000E+00  0.00000000000E+00  0.15219012308E+04  0.15219012308E+04  0.25500000920E-02 0.  1.
        2   -1    0    0  501    0  0.00000000000E+00  0.00000000000E+00 -0.13117873630E+04  0.13117873630E+04  0.25500000920E-02 0. -1.
    10030    2    1    2    0    0  0.00000000000E+00  0.00000000000E+00  0.21011386781E+03  0.28336885938E+04  0.28258880391E+04 0.  0.
        2    1    3    3  502    0  0.18067215746E+03  0.23600930805E+03 -0.12800844109E+04  0.13141380906E+04  0.25500000920E-02 0. -1.
       -2    1    3    3    0  502 -0.18067215746E+03 -0.23600930805E+03  0.14901982787E+04  0.15195505033E+04  0.25500000920E-02 0.  1.
</event>
<event>
 5   0  0.5023691E-06  0.2781137E+04  0.7818609E-02  0.8309148E-01
        1   -1    0    0  501    0  0.00000000000E+00  0.00000000000E+00  0.27427771132E+04  0.27427771133E+04  0.50400001928E-02 0.  1.
       -1   -1    0    0    0  501  0.00000000000E+00  0.00000000000E+00 -0.70500848332E+03  0.70500848334E+03  0.50400001928E-02 0. -1.
    10030    2    1    2    0    0  0.00000000000E+00  0.00000000000E+00  0.20377686299E+04  0.34477855966E+04  0.27811372729E+04 0.  0.
        5    1    3    3  502    0 -0.10617394101E+04 -0.52259248719E+03  0.11359041556E+03  0.11888306671E+04  0.46999998093E+01 0. -1.
       -5    1    3    3    0  502  0.10617394101E+04  0.52259248719E+03  0.19241782144E+04  0.22589549294E+04  0.46999998093E+01 0.  1.
</event>
<event>
 5   0  0.1302063E-05  0.2835833E+04  0.7818609E-02  0.8292229E-01
        2   -1    0    0  501    0  0.00000000000E+00  0.00000000000E+00  0.22548658227E+04  0.22548658227E+04  0.25500000920E-02 0.  1.
       -2   -1    0    0    0  501  0.00000000000E+00  0.00000000000E+00 -0.89162162658E+03  0.89162162658E+03  0.25500000920E-02 0. -1.
    10030    2    1    2    0    0  0.00000000000E+00  0.00000000000E+00  0.13632441961E+04  0.31464874493E+04  0.28358329518E+04 0.  0.
        2    1    3    3  502    0 -0.13806627720E+04 -0.31358805472E+03  0.76699209648E+03  0.16102310500E+04  0.25500000920E-02 0. -1.
       -2    1    3    3    0  502  0.13806627720E+04  0.31358805472E+03  0.59625209966E+03  0.15362563993E+04  0.25500000920E-02 0.  1.
</event>
<event>
 5   0  0.4764214E-06  0.2827387E+04  0.7818609E-02  0.8294816E-01
        1   -1    0    0  501    0  0.00000000000E+00  0.00000000000E+00  0.17401020267E+04  0.17401020267E+04  0.50400001928E-02 0.  1.
       -1   -1    0    0    0  501  0.00000000000E+00  0.00000000000E+00 -0.11485124189E+04  0.11485124189E+04  0.50400001928E-02 0. -1.
    10030    2    1    2    0    0  0.00000000000E+00  0.00000000000E+00  0.59158960776E+03  0.28886144456E+04  0.28273866293E+04 0.  0.
        3    1    3    3  502    0 -0.84884560323E+03 -0.11168745349E+04  0.11713305138E+03  0.14077172112E+04  0.10100000352E+00 0. -1.
       -3    1    3    3    0  502  0.84884560323E+03  0.11168745349E+04  0.47445655638E+03  0.14808972344E+04  0.10100000352E+00 0.  1.
</event>
<event>
 5   0  0.1350863E-05  0.2888401E+04  0.7818609E-02  0.8276337E-01
       -2   -1    0    0    0  501  0.00000000000E+00  0.00000000000E+00  0.11492148703E+04  0.11492148703E+04  0.25500000920E-02 0.  1.
        2   -1    0    0  501    0  0.00000000000E+00  0.00000000000E+00 -0.18149038797E+04  0.18149038797E+04  0.25500000920E-02 0. -1.
    10030    2    1    2    0    0  0.00000000000E+00  0.00000000000E+00 -0.66568900940E+03  0.29641187500E+04  0.28884006140E+04 0.  0.
        3    1    3    3  502    0  0.64317829692E+03  0.28881387138E+03  0.96060225666E+03  0.11915739506E+04  0.10100000352E+00 0.  1.
       -3    1    3    3    0  502 -0.64317829692E+03 -0.28881387138E+03 -0.16262912661E+04  0.17725447995E+04  0.10100000352E+00 0. -1.
</event>
<event>
 5   0  0.5281919E-06  0.2830135E+04  0.7818609E-02  0.8293973E-01
        1   -1    0    0  501    0  0.00000000000E+00  0.00000000000E+00  0.18935374310E+04  0.18935374310E+04  0.50400001928E-02 0.  1.
       -1   -1    0    0    0  501  0.00000000000E+00  0.00000000000E+00 -0.10575001561E+04  0.10575001561E+04  0.50400001928E-02 0. -1.
    10030    2    1    2    0    0  0.00000000000E+00  0.00000000000E+00  0.83603727492E+03  0.29510375870E+04  0.28301350701E+04 0.  0.
        4    1    3    3  502    0  0.45164252338E+03 -0.76646482903E+03 -0.72943041534E+03  0.11504432393E+04  0.12699999809E+01 0. -1.
       -4    1    3    3    0  502 -0.45164252338E+03  0.76646482903E+03  0.15654676903E+04  0.18005943478E+04  0.12699999809E+01 0.  1.
</event>
<event>
 5   0  0.5217999E-06  0.2746762E+04  0.7818609E-02  0.8319990E-01
        1   -1    0    0  501    0  0.00000000000E+00  0.00000000000E+00  0.18196004923E+04  0.18196004923E+04  0.50400001928E-02 0. -1.
       -1   -1    0    0    0  501  0.00000000000E+00  0.00000000000E+00 -0.10365878632E+04  0.10365878632E+04  0.50400001928E-02 0.  1.
    10030    2    1    2    0    0  0.00000000000E+00  0.00000000000E+00  0.78301262904E+03  0.28561883555E+04  0.27467623022E+04 0.  0.
        1    1    3    3  502    0 -0.80685232985E+03  0.78490556110E+03  0.12096735556E+04  0.16523914589E+04  0.50400001928E-02 0. -1.
       -1    1    3    3    0  502  0.80685232985E+03 -0.78490556110E+03 -0.42666092660E+03  0.12037968966E+04  0.50400001928E-02 0.  1.
</event>
<event>
 5   0  0.1302063E-05  0.2862443E+04  0.7818609E-02  0.8284140E-01
        2   -1    0    0  501    0  0.00000000000E+00  0.00000000000E+00  0.14052027530E+04  0.14052027530E+04  0.25500000920E-02 0.  1.
       -2   -1    0    0    0  501  0.00000000000E+00  0.00000000000E+00 -0.14577221114E+04  0.14577221114E+04  0.25500000920E-02 0. -1.
    10030    2    1    2    0    0  0.00000000000E+00  0.00000000000E+00 -0.52519358429E+02  0.28629248644E+04  0.28624430992E+04 0.  0.
        2    1    3    3  502    0  0.13753073726E+04  0.33354433860E+02  0.36853734340E+03  0.14242200185E+04  0.25500000920E-02 0.  1.
       -2    1    3    3    0  502 -0.13753073726E+04 -0.33354433860E+02 -0.42105670183E+03  0.14387048459E+04  0.25500000920E-02 0. -1.
</event>
<event>
 5   0  0.4764214E-06  0.2781981E+04  0.7818609E-02  0.8308884E-01
        1   -1    0    0  501    0  0.00000000000E+00  0.00000000000E+00  0.79506107991E+03  0.79506107993E+03  0.50400001928E-02 0.  1.
       -1   -1    0    0    0  501  0.00000000000E+00  0.00000000000E+00 -0.24335924701E+04  0.24335924701E+04  0.50400001928E-02 0. -1.
    10030    2    1    2    0    0  0.00000000000E+00  0.00000000000E+00 -0.16385313902E+04  0.32286535501E+04  0.27819810621E+04 0.  0.
        3    1    3    3  502    0  0.11527505739E+04  0.62183742302E+03 -0.27573360868E+03  0.13384859729E+04  0.10100000352E+00 0.  1.
       -3    1    3    3    0  502 -0.11527505739E+04 -0.62183742302E+03 -0.13627977815E+04  0.18901675772E+04  0.10100000352E+00 0. -1.
</event>
<event>
 5   0  0.1330962E-05  0.2777127E+04  0.7818609E-02  0.8310405E-01
        2   -1    0    0  501    0  0.00000000000E+00  0.00000000000E+00  0.12946892231E+04  0.12946892231E+04  0.25500000920E-02 0.  1.
       -2   -1    0    0    0  501  0.00000000000E+00  0.00000000000E+00 -0.14892440710E+04  0.14892440710E+04  0.25500000920E-02 0. -1.
    10030    2    1    2    0    0  0.00000000000E+00  0.00000000000E+00 -0.19455484790E+03  0.27839332941E+04  0.27771267521E+04 0.  0.
        4    1    3    3  502    0 -0.10442137177E+04  0.73795915905E+02  0.81725153811E+03  0.13280548991E+04  0.12699999809E+01 0.  1.
       -4    1    3    3    0  502  0.10442137177E+04 -0.73795915905E+02 -0.10118063860E+04  0.14558783951E+04  0.12699999809E+01 0. -1.
</event>
<event>
 5   0  0.1350863E-05  0.2719637E+04  0.7818609E-02  0.8328661E-01
       -2   -1    0    0    0  501  0.00000000000E+00  0.00000000000E+00  0.13480452662E+04  0.13480452662E+04  0.25500000920E-02 0.  1.
        2   -1    0    0  501    0  0.00000000000E+00  0.00000000000E+00 -0.13716944286E+04  0.13716944286E+04  0.25500000920E-02 0. -1.
    10030    2    1    2    0    0  0.00000000000E+00  0.00000000000E+00 -0.23649162334E+02  0.27197396948E+04  0.27196368736E+04 0.  0.
        3    1    3    3  502    0 -0.73582233164E+03 -0.50663019065E+03 -0.10370450397E+04  0.13687845259E+04  0.10100000352E+00 0. -1.
       -3    1    3    3    0  502  0.73582233164E+03  0.50663019065E+03  0.10133958774E+04  0.13509551689E+04  0.10100000352E+00 0.  1.
</event>
<event>
 5   0  0.1283052E-05  0.2801883E+04  0.7818609E-02  0.8302684E-01
        2   -1    0    0  501    0  0.00000000000E+00  0.00000000000E+00  0.18627541016E+04  0.18627541016E+04  0.25500000920E-02 0. -1.
       -2   -1    0    0    0  501  0.00000000000E+00  0.00000000000E+00 -0.10536214584E+04  0.10536214584E+04  0.25500000920E-02 0.  1.
    10030    2    1    2    0    0  0.00000000000E+00  0.00000000000E+00  0.80913264315E+03  0.29163755600E+04  0.28018834331E+04 0.  0.
        5    1    3    3  502    0 -0.51909509111E+03  0.90772089698E+03  0.13749710667E+04  0.17274213338E+04  0.46999998093E+01 0. -1.
       -5    1    3    3    0  502  0.51909509111E+03 -0.90772089698E+03 -0.56583842353E+03  0.11889542262E+04  0.46999998093E+01 0.  1.
</event>
<event>
 5   0  0.5281919E-06  0.2779979E+04  0.7818609E-02  0.8309511E-01
        1   -1    0    0  501    0  0.00000000000E+00  0.00000000000E+00  0.20675735144E+04  0.20675735144E+04  0.50400001928E-02 0.  1.
       -1   -1    0    0    0  501  0.00000000000E+00  0.00000000000E+00 -0.93446314985E+03  0.93446314986E+03  0.50400001928E-02 0. -1.
    10030    2    1    2    0    0  0.00000000000E+00  0.00000000000E+00  0.11331103645E+04  0.30020366643E+04  0.27799793228E+04 0.  0.
        4    1    3    3  502    0  0.68518722993E+03  0.56906857295E+03  0.17189158938E+04  0.19359736681E+04  0.12699999809E+01 0.  1.
       -4    1    3    3    0  502 -0.68518722993E+03 -0.56906857295E+03 -0.58580552924E+03  0.10660629962E+04  0.12699999809E+01 0. -1.
</event>
<event>
 5   0  0.4764214E-06  0.2775593E+04  0.7818609E-02  0.8310886E-01
       -1   -1    0    0    0  501  0.00000000000E+00  0.00000000000E+00  0.96089120340E+03  0.96089120342E+03  0.50400001928E-02 0. -1.
        1   -1    0    0  501    0  0.00000000000E+00  0.00000000000E+00 -0.20043670771E+04  0.20043670771E+04  0.50400001928E-02 0.  1.
    10030    2    1    2    0    0  0.00000000000E+00  0.00000000000E+00 -0.10434758737E+04  0.29652582806E+04  0.27755926883E+04 0.  0.
        3    1    3    3  502    0 -0.10845937585E+04 -0.77441178390E+03 -0.93539331990E+03  0.16281946767E+04  0.10100000352E+00 0.  1.
       -3    1    3    3    0  502  0.10845937585E+04  0.77441178390E+03 -0.10808255383E+03  0.13370636039E+04  0.10100000352E+00 0. -1.
</event>
<event>
 5   0  0.5023691E-06  0.2873634E+04  0.7818609E-02  0.8280766E-01
        1   -1    0    0  501    0  0.00000000000E+00  0.00000000000E+00  0.16602935120E+04  0.16602935120E+04  0.50400001928E-02 0. -1.
       -1   -1    0    0    0  501  0.00000000000E+00  0.00000000000E+00 -0.12434204676E+04  0.12434204676E+04  0.50400001928E-02 0.  1.
    10030    2    1    2    0    0  0.00000000000E+00  0.00000000000E+00  0.41687304442E+03  0.29037139796E+04  0.28736338911E+04 0.  0.
        5    1    3    3  502    0  0.25748568966E+03 -0.92569057422E+03  0.12878973352E+04  0.16068302821E+04  0.46999998093E+01 0. -1.
       -5    1    3    3    0  502 -0.25748568966E+03  0.92569057422E+03 -0.87102429078E+03  0.12968836974E+04  0.46999998093E+01 0.  1.
</event>
<event>
 5   0  0.1330962E-05  0.2811355E+04  0.7818609E-02  0.8299752E-01
       -2   -1    0    0    0  501  0.00000000000E+00  0.00000000000E+00  0.12444919633E+04  0.12444919633E+04  0.25500000920E-02 0.  1.
        2   -1    0    0  501    0  0.00000000000E+00  0.00000000000E+00 -0.15877394790E+04  0.15877394790E+04  0.25500000920E-02 0. -1.
    10030    2    1    2    0    0  0.00000000000E+00  0.00000000000E+00 -0.34324751567E+03  0.28322314424E+04  0.28113548488E+04 0.  0.
        4    1    3    3  502    0 -0.12681899904E+04 -0.50316316319E+03 -0.51243814082E+03  0.14574201458E+04  0.12699999809E+01 0. -1.
       -4    1    3    3    0  502  0.12681899904E+04  0.50316316319E+03  0.16919062514E+03  0.13748112965E+04  0.12699999809E+01 0.  1.
</event>
<event>
 5   0  0.1388269E-05  0.2717708E+04  0.7818609E-02  0.8329282E-01
       -2   -1    0    0    0  501  0.00000000000E+00  0.00000000000E+00  0.80087276557E+03  0.80087276557E+03  0.25500000920E-02 0. -1.
        2   -1    0    0  501    0  0.00000000000E+00  0.00000000000E+00 -0.23055892406E+04  0.23055892406E+04  0.25500000920E-02 0.  1.
    10030    2    1    2    0    0  0.00000000000E+00  0.00000000000E+00 -0.15047164750E+04  0.31064620062E+04  0.27177075865E+04 0.  0.
        1    1    3    3  502    0 -0.32841001946E+03  0.42908726801E+03  0.67279224180E+03  0.86291275637E+03  0.50400001928E-02 0. -1.
       -1    1    3    3    0  502  0.32841001946E+03 -0.42908726801E+03 -0.21775087168E+04  0.22435492498E+04  0.50400001928E-02 0.  1.
</event>
<event>
 5   0  0.1283052E-05  0.2821719E+04  0.7818609E-02  0.8296557E-01
        2   -1    0    0  501    0  0.00000000000E+00  0.00000000000E+00  0.23822894701E+04  0.23822894701E+04  0.25500000920E-02 0.  1.
       -2   -1    0    0    0  501  0.00000000000E+00  0.00000000000E+00 -0.83555106376E+03  0.83555106376E+03  0.25500000920E-02 0. -1.
    10030    2    1    2    0    0  0.00000000000E+00  0.00000000000E+00  0.15467384064E+04  0.32178405339E+04  0.28217189803E+04 0.  0.
        5    1    3    3  502    0  0.50988600478E+03 -0.49964608748E+02 -0.72571289782E+03  0.88834762343E+03  0.46999998093E+01 0. -1.
       -5    1    3    3    0  502 -0.50988600478E+03  0.49964608748E+02  0.22724513042E+04  0.23294929105E+04  0.46999998093E+01 0.  1.
</event>
<event>
 5   0  0.1330962E-05  0.2875864E+04  0.7818609E-02  0.8280095E-01
       -2   -1    0    0    0  501  0.00000000000E+00  0.00000000000E+00  0.10742614900E+04  0.10742614900E+04  0.25500000920E-02 0.  1.
        2   -1    0    0  501    0  0.00000000000E+00  0.00000000000E+00 -0.19247156493E+04  0.19247156493E+04  0.25500000920E-02 0. -1.
    10030    2    1    2    0    0  0.00000000000E+00  0.00000000000E+00 -0.85045415928E+03  0.29989771393E+04  0.28758636277E+04 0.  0.
        4    1    3    3  502    0 -0.11070830936E+04 -0.60299055400E+03 -0.11465132089E+04  0.17040319056E+04  0.12699999809E+01 0.  1.
       -4    1    3    3    0  502  0.11070830936E+04  0.60299055400E+03  0.29605904960E+03  0.12949452337E+04  0.12699999809E+01 0. -1.
</event>
<event>
 5   0  0.1302063E-05  0.2801287E+04  0.7818609E-02  0.8302869E-01
       -2   -1    0    0    0  501  0.00000000000E+00  0.00000000000E+00  0.12161662526E+04  0.12161662526E+04  0.25500000920E-02 0. -1.
        2   -1    0    0  501    0  0.00000000000E+00  0.00000000000E+00 -0.16131038563E+04  0.16131038563E+04  0.25500000920E-02 0.  1.
    10030    2    1    2    0    0  0.00000000000E+00  0.00000000000E+00 -0.39693760371E+03  0.28292701088E+04  0.28012871840E+04 0.  0.
        2    1    3    3  502    0 -0.12011993216E+04  0.71344126216E+02 -0.92245058204E+03  0.15162073971E+04  0.25500000920E-02 0.  1.
       -2    1    3    3    0  502  0.12011993216E+04 -0.71344126216E+02  0.52551297833E+03  0.13130627118E+04  0.25500000920E-02 0. -1.
</event>
<event>
 5   0  0.1283052E-05  0.2780540E+04  0.7818609E-02  0.8309335E-01
       -2   -1    0    0    0  501  0.00000000000E+00  0.00000000000E+00  0.15282163943E+04  0.15282163943E+04  0.25500000920E-02 0.  1.
        2   -1    0    0  501    0  0.00000000000E+00  0.00000000000E+00 -0.12647755268E+04  0.12647755268E+04  0.25500000920E-02 0. -1.
    10030    2    1    2    0    0  0.00000000000E+00  0.00000000000E+00  0.26344086751E+03  0.27929919211E+04  0.27805400160E+04 0.  0.
        5    1    3    3  502    0 -0.72908517319E+03  0.52080276948E+03  0.11995086190E+04  0.14972119862E+04  0.46999998093E+01 0.  1.
       -5    1    3    3    0  502  0.72908517319E+03 -0.52080276948E+03 -0.93606775149E+03  0.12957799350E+04  0.46999998093E+01 0. -1.
</event>
<event>
 5   0  0.1283052E-05  0.2784747E+04  0.7818609E-02  0.8308020E-01
        2   -1    0    0  501    0  0.00000000000E+00  0.00000000000E+00  0.17940138037E+04  0.17940138037E+04  0.25500000920E-02 0.  1.
       -2   -1    0    0    0  501  0.00000000000E+00  0.00000000000E+00 -0.10806513054E+04  0.10806513054E+04  0.25500000920E-02 0. -1.
    10030    2    1    2    0    0  0.00000000000E+00  0.00000000000E+00  0.71336249824E+03  0.28746651091E+04  0.27847465657E+04 0.  0.
        5    1    3    3  502    0 -0.90666666696E+03 -0.63866613939E+02  0.14455182928E+04  0.17075329028E+04  0.46999998093E+01 0.  1.
       -5    1    3    3    0  502  0.90666666696E+03  0.63866613939E+02 -0.73215579458E+03  0.11671322063E+04  0.46999998093E+01 0. -1.
</event>
<event>
 5   0  0.5107453E-06  0.2816515E+04  0.7818609E-02  0.8298159E-01
        1   -1    0    0  501    0  0.00000000000E+00  0.00000000000E+00  0.17227332278E+04  0.17227332278E+04  0.50400001928E-02 0. -1.
       -1   -1    0    0    0  501  0.00000000000E+00  0.00000000000E+00 -0.11511877570E+04  0.11511877570E+04  0.50400001928E-02 0.  1.
    10030    2    1    2    0    0  0.00000000000E+00  0.00000000000E+00  0.57154547081E+03  0.28739209848E+04  0.28165151521E+04 0.  0.
        2    1    3    3  502    0  0.11241037083E+04 -0.61096670988E+03  0.88623944576E+03  0.15563771467E+04  0.25500000920E-02 0. -1.
       -2    1    3    3    0  502 -0.11241037083E+04  0.61096670988E+03 -0.31469397495E+03  0.13175438381E+04  0.25500000920E-02 0.  1.
</event>
<event>
 5   0  0.5107453E-06  0.2795673E+04  0.7818609E-02  0.8304613E-01
       -1   -1    0    0    0  501  0.00000000000E+00  0.00000000000E+00  0.13341218184E+04  0.13341218184E+04  0.50400001928E-02 0. -1.
        1   -1    0    0  501    0  0.00000000000E+00  0.00000000000E+00 -0.14645939756E+04  0.14645939756E+04  0.50400001928E-02 0.  1.
    10030    2    1    2    0    0  0.00000000000E+00  0.00000000000E+00 -0.13047215721E+03  0.27987157940E+04  0.27956729265E+04 0.  0.
        2    1    3    3  502    0  0.32416615134E+03  0.13114968221E+04 -0.42456849401E+03  0.14161094641E+04  0.25500000920E-02 0.  1.
       -2    1    3    3    0  502 -0.32416615134E+03 -0.13114968221E+04  0.29409633680E+03  0.13826063299E+04  0.25500000920E-02 0. -1.
</event>
<event>
 5   0  0.5107453E-06  0.2797855E+04  0.7818609E-02  0.8303935E-01
       -1   -1    0    0    0  501  0.00000000000E+00  0.00000000000E+00  0.13185426752E+04  0.13185426752E+04  0.50400001928E-02 0.  1.
        1   -1    0    0  501    0  0.00000000000E+00  0.00000000000E+00 -0.14842126149E+04  0.14842126149E+04  0.50400001928E-02 0. -1.
    10030    2    1    2    0    0  0.00000000000E+00  0.00000000000E+00 -0.16566993964E+03  0.28027552901E+04  0.27978546580E+04 0.  0.
        2    1    3    3  502    0 -0.97456370219E+03 -0.41175672303E+03 -0.99968650562E+03  0.14555724366E+04  0.25500000920E-02 0. -1.
       -2    1    3    3    0  502  0.97456370219E+03  0.41175672303E+03  0.83401656598E+03  0.13471828536E+04  0.25500000920E-02 0.  1.
</event>
<event>
 5   0  0.5023691E-06  0.2789754E+04  0.7818609E-02  0.8306456E-01
        1   -1    0    0  501    0  0.00000000000E+00  0.00000000000E+00  0.22825708124E+04  0.22825708124E+04  0.50400001928E-02 0. -1.
       -1   -1    0    0    0  501  0.00000000000E+00  0.00000000000E+00 -0.85240832210E+03  0.85240832212E+03  0.50400001928E-02 0.  1.
    10030    2    1    2    0    0  0.00000000000E+00  0.00000000000E+00  0.14301624903E+04  0.31349791345E+04  0.27897543665E+04 0.  0.
        5    1    3    3  502    0 -0.11604809346E+04  0.66798688883E+03  0.27590187651E+03  0.13671380394E+04  0.46999998093E+01 0. -1.
       -5    1    3    3    0  502  0.11604809346E+04 -0.66798688883E+03  0.11542606138E+04  0.17678410952E+04  0.46999998093E+01 0.  1.
</event>
<event>
 5   0  0.1350863E-05  0.2800430E+04  0.7818609E-02  0.8303135E-01
       -2   -1    0    0    0  501  0.00000000000E+00  0.00000000000E+00  0.87967436378E+03  0.87967436379E+03  0.25500000920E-02 0.  1.
        2   -1    0    0  501    0  0.00000000000E+00  0.00000000000E+00 -0.22287812273E+04  0.22287812273E+04  0.25500000920E-02 0. -1.
    10030    2    1    2    0    0  0.00000000000E+00  0.00000000000E+00 -0.13491068635E+04  0.31084555911E+04  0.28004297585E+04 0.  0.
        3    1    3    3  502    0 -0.58839810223E+03 -0.11944090585E+03 -0.20786491010E+04  0.21636220908E+04  0.10100000352E+00 0. -1.
       -3    1    3    3    0  502  0.58839810223E+03  0.11944090585E+03  0.72954223749E+03  0.94483350024E+03  0.10100000352E+00 0.  1.
</event>
<event>
 5   0  0.4764214E-06  0.2806536E+04  0.7818609E-02  0.8301242E-01
       -1   -1    0    0    0  501  0.00000000000E+00  0.00000000000E+00  0.17740327854E+04  0.17740327854E+04  0.50400001928E-02 0. -1.
        1   -1    0    0  501    0  0.00000000000E+00  0.00000000000E+00 -0.11099912118E+04  0.11099912118E+04  0.50400001928E-02 0.  1.
    10030    2    1    2    0    0  0.00000000000E+00  0.00000000000E+00  0.66404157359E+03  0.28840239972E+04  0.28065358015E+04 0.  0.
        3    1    3    3  502    0 -0.81410801537E+03 -0.99553217864E+02 -0.83804659731E+03  0.11726059924E+04  0.10100000352E+00 0.  1.
       -3    1    3    3    0  502  0.81410801537E+03  0.99553217864E+02  0.15020881709E+04  0.17114180048E+04  0.10100000352E+00 0. -1.
</event>
<event>
 5   0  0.5107453E-06  0.2818850E+04  0.7818609E-02  0.8297440E-01
       -1   -1    0    0    0  501  0.00000000000E+00  0.00000000000E+00  0.10555131686E+04  0.10555131686E+04  0.50400001928E-02 0. -1.
        1   -1    0    0  501    0  0.00000000000E+00  0.00000000000E+00 -0.18820032115E+04  0.18820032115E+04  0.50400001928E-02 0.  1.
    10030    2    1    2    0    0  0.00000000000E+00  0.00000000000E+00 -0.82649004285E+03  0.29375163801E+04  0.28188502430E+04 0.  0.
        2    1    3    3  502    0 -0.33581331109E+03 -0.67844291637E+02 -0.18379509433E+04  0.18696088088E+04  0.25500000920E-02 0.  1.
       -2    1    3    3    0  502  0.33581331109E+03  0.67844291637E+02  0.10114609004E+04  0.10679075714E+04  0.25500000920E-02 0. -1.
</event>
<event>
 5   0  0.5023691E-06  0.2783394E+04  0.7818609E-02  0.8308443E-01
        1   -1    0    0  501    0  0.00000000000E+00  0.00000000000E+00  0.13290021316E+04  0.13290021316E+04  0.50400001928E-02 0.  1.
       -1   -1    0    0    0  501  0.00000000000E+00  0.00000000000E+00 -0.14573492063E+04  0.14573492063E+04  0.50400001928E-02 0. -1.
    10030    2    1    2    0    0  0.00000000000E+00  0.00000000000E+00 -0.12834707476E+03  0.27863513379E+04  0.27833937571E+04 0.  0.
        5    1    3    3  502    0  0.13268355085E+03  0.12021664199E+04 -0.75337374372E+03  0.14249221430E+04  0.46999998093E+01 0. -1.
       -5    1    3    3    0  502 -0.13268355085E+03 -0.12021664199E+04  0.62502666896E+03  0.13614291949E+04  0.46999998093E+01 0.  1.
</event>
<event>
 5   0  0.1302063E-05  0.2758083E+04  0.7818609E-02  0.8316401E-01
       -2   -1    0    0    0  501  0.00000000000E+00  0.00000000000E+00  0.87655247931E+03  0.87655247931E+03  0.25500000920E-02 0. -1.
        2   -1    0    0  501    0  0.00000000000E+00  0.00000000000E+00 -0.21695849918E+04  0.21695849918E+04  0.25500000920E-02 0.  1.
    10030    2    1    2    0    0  0.00000000000E+00  0.00000000000E+00 -0.12930325124E+04  0.30461374711E+04  0.27580827425E+04 0.  0.
        2    1    3    3  502    0  0.39779903297E+03  0.26003354054E+03  0.78325126763E+03  0.91615722509E+03  0.25500000920E-02 0. -1.
       -2    1    3    3    0  502 -0.39779903297E+03 -0.26003354054E+03 -0.20762837801E+04  0.21299802460E+04  0.25500000920E-02 0.  1.
</event>
<event>
 5   0  0.1330962E-05  0.2696781E+04  0.7818609E-02  0.8336050E-01
       -2   -1    0    0    0  501  0.00000000000E+00  0.00000000000E+00  0.16544101651E+04  0.16544101651E+04  0.25500000920E-02 0.  1.
        2   -1    0    0  501    0  0.00000000000E+00  0.00000000000E+00 -0.10989756892E+04  0.10989756892E+04  0.25500000920E-02 0. -1.
    10030    2    1    2    0    0  0.00000000000E+00  0.00000000000E+00  0.55543447589E+03  0.27533858543E+04  0.26967807115E+04 0.  0.
        4    1    3    3  502    0  0.33926146584E+03  0.72746759687E+03 -0.82846653102E+03  0.11535449071E+04  0.12699999809E+01 0. -1.
       -4    1    3    3    0  502 -0.33926146584E+03 -0.72746759687E+03  0.13839010069E+04  0.15998409473E+04  0.12699999809E+01 0.  1.
</event>
<event>
 5   0  0.4764214E-06  0.2802760E+04  0.7818609E-02  0.8302412E-01
       -1   -1    0    0    0  501  0.00000000000E+00  0.00000000000E+00  0.22461646386E+04  0.22461646386E+04  0.50400001928E-02 0.  1.
        1   -1    0    0  501    0  0.00000000000E+00  0.00000000000E+00 -0.87431951495E+03  0.87431951497E+03  0.50400001928E-02 0. -1.
    10030    2    1    2    0    0  0.00000000000E+00  0.00000000000E+00  0.13718451237E+04  0.31204841536E+04  0.28027597666E+04 0.  0.
        3    1    3    3  502    0 -0.32932565706E+03 -0.46885509848E+03 -0.73795509879E+03  0.93426882095E+03  0.10100000352E+00 0. -1.
       -3    1    3    3    0  502  0.32932565706E+03  0.46885509848E+03  0.21098002225E+04  0.21862153326E+04  0.10100000352E+00 0.  1.
</event>
<event>
 5   0  0.1302063E-05  0.2807358E+04  0.7818609E-02  0.8300988E-01
       -2   -1    0    0    0  501  0.00000000000E+00  0.00000000000E+00  0.12468469236E+04  0.12468469236E+04  0.25500000920E-02 0. -1.
        2   -1    0    0  501    0  0.00000000000E+00  0.00000000000E+00 -0.15802381102E+04  0.15802381102E+04  0.25500000920E-02 0.  1.
    10030    2    1    2    0    0  0.00000000000E+00  0.00000000000E+00 -0.33339118661E+03  0.28270850338E+04  0.28073582075E+04 0.  0.
        2    1    3    3  502    0  0.89710739761E+03 -0.10202065572E+04 -0.52229432568E+03  0.14554774010E+04  0.25500000920E-02 0.  1.
       -2    1    3    3    0  502 -0.89710739761E+03  0.10202065572E+04  0.18890313907E+03  0.13716076328E+04  0.25500000920E-02 0. -1.
</event>
<event>
 5   0  0.5023691E-06  0.2795077E+04  0.7818609E-02  0.8304798E-01
       -1   -1    0    0    0  501  0.00000000000E+00  0.00000000000E+00  0.10478963633E+04  0.10478963633E+04  0.50400001928E-02 0.  1.
        1   -1    0    0  501    0  0.00000000000E+00  0.00000000000E+00 -0.18638425157E+04  0.18638425157E+04  0.50400001928E-02 0. -1.
    10030    2    1    2    0    0  0.00000000000E+00  0.00000000000E+00 -0.81594615239E+03  0.29117388790E+04  0.27950769535E+04 0.  0.
        5    1    3    3  502    0  0.69239309124E+03  0.47893381853E+03 -0.15700161804E+04  0.17815046146E+04  0.46999998093E+01 0. -1.
       -5    1    3    3    0  502 -0.69239309124E+03 -0.47893381853E+03  0.75407002799E+03  0.11302342644E+04  0.46999998093E+01 0.  1.
</event>
<event>
 5   0  0.5281919E-06  0.2430863E+04  0.7818609E-02  0.8428039E-01
       -1   -1    0    0    0  501  0.00000000000E+00  0.00000000000E+00  0.14477079331E+04  0.14477079331E+04  0.50400001928E-02 0.  1.
        1   -1    0    0  501    0  0.00000000000E+00  0.00000000000E+00 -0.10204221200E+04  0.10204221201E+04  0.50400001928E-02 0. -1.
    10030    2    1    2    0    0  0.00000000000E+00  0.00000000000E+00  0.42728581305E+03  0.24681300532E+04  0.24308625616E+04 0.  0.
        4    1    3    3  502    0  0.11269937725E+04 -0.45440748360E+03  0.18735267453E+03  0.12295136282E+04  0.12699999809E+01 0.  1.
       -4    1    3    3    0  502 -0.11269937725E+04  0.45440748360E+03  0.23993313852E+03  0.12386164250E+04  0.12699999809E+01 0. -1.
</event>
<event>
 5   0  0.5107453E-06  0.2801785E+04  0.7818609E-02  0.8302714E-01
        1   -1    0    0  501    0  0.00000000000E+00  0.00000000000E+00  0.12576434705E+04  0.12576434706E+04  0.50400001928E-02 0. -1.
       -1   -1    0    0    0  501  0.00000000000E+00  0.00000000000E+00 -0.15604585366E+04  0.15604585366E+04  0.50400001928E-02 0.  1.
    10030    2    1    2    0    0  0.00000000000E+00  0.00000000000E+00 -0.30281506602E+03  0.28181020071E+04  0.28017854947E+04 0.  0.
        2    1    3    3  502    0  0.54924953598E+03 -0.12782178198E+04 -0.31663420538E+03  0.14268051961E+04  0.25500000920E-02 0. -1.
       -2    1    3    3    0  502 -0.54924953598E+03  0.12782178198E+04  0.13819139354E+02  0.13912968110E+04  0.25500000920E-02 0.  1.
</event>
<event>
 5   0  0.5023691E-06  0.2809893E+04  0.7818609E-02  0.8300204E-01
        1   -1    0    0  501    0  0.00000000000E+00  0.00000000000E+00  0.12865513752E+04  0.12865513752E+04  0.50400001928E-02 0. -1.
       -1   -1    0    0    0  501  0.00000000000E+00  0.00000000000E+00 -0.15342364276E+04  0.15342364276E+04  0.50400001928E-02 0.  1.
    10030    2    1    2    0    0  0.00000000000E+00  0.00000000000E+00 -0.24768505244E+03  0.28207878028E+04  0.28098925145E+04 0.  0.
        5    1    3    3  502    0 -0.59041630648E+03 -0.10370281139E+04 -0.86822506714E+03  0.14757559355E+04  0.46999998093E+01 0.  1.
       -5    1    3    3    0  502  0.59041630648E+03  0.10370281139E+04  0.62054001471E+03  0.13450318672E+04  0.46999998093E+01 0. -1.
</event>
<event>
 5   0  0.5217999E-06  0.2821211E+04  0.7818609E-02  0.8296713E-01
        1   -1    0    0  501    0  0.00000000000E+00  0.00000000000E+00  0.24323404715E+04  0.24323404715E+04  0.50400001928E-02 0.  1.
       -1   -1    0    0    0  501  0.00000000000E+00  0.00000000000E+00 -0.81806311122E+03  0.81806311124E+03  0.50400001928E-02 0. -1.
    10030    2    1    2    0    0  0.00000000000E+00  0.00000000000E+00  0.16142773603E+04  0.32504035828E+04  0.28212110972E+04 0.  0.
        1    1    3    3  502    0 -0.69195609298E+03  0.68607052420E+03  0.19822621812E+04  0.22088140152E+04  0.50400001928E-02 0.  1.
       -1    1    3    3    0  502  0.69195609298E+03 -0.68607052420E+03 -0.36798482089E+03  0.10415895675E+04  0.50400001928E-02 0. -1.
</event>
<event>
 5   0  0.1350863E-05  0.2844718E+04  0.7818609E-02  0.8289518E-01
        2   -1    0    0  501    0  0.00000000000E+00  0.00000000000E+00  0.12824041172E+04  0.12824041172E+04  0.25500000920E-02 0.  1.
       -2   -1    0    0    0  501  0.00000000000E+00  0.00000000000E+00 -0.15775873977E+04  0.15775873977E+04  0.25500000920E-02 0. -1.
    10030    2    1    2    0    0  0.00000000000E+00  0.00000000000E+00 -0.29518328050E+03  0.28599915149E+04  0.28447176127E+04 0.  0.
        3    1    3    3  502    0  0.11208684979E+04  0.68168261098E+03  0.40496571240E+03  0.13729656260E+04  0.10100000352E+00 0.  1.
       -3    1    3    3    0  502 -0.11208684979E+04 -0.68168261098E+03 -0.70014899290E+03  0.14870258889E+04  0.10100000352E+00 0. -1.
</event>
<event>
 5   0  0.1350863E-05  0.2815687E+04  0.7818609E-02  0.8298415E-01
        2   -1    0    0  501    0  0.00000000000E+00  0.00000000000E+00  0.28293423425E+04  0.28293423425E+04  0.25500000920E-02 0. -1.
       -2   -1    0    0    0  501  0.00000000000E+00  0.00000000000E+00 -0.70052450672E+03  0.70052450673E+03  0.25500000920E-02 0.  1.
    10030    2    1    2    0    0  0.00000000000E+00  0.00000000000E+00  0.21288178358E+04  0.35298668493E+04  0.28156872332E+04 0.  0.
        3    1    3    3  502    0 -0.16049299426E+03 -0.50891253371E+01  0.28178248577E+04  0.28223962938E+04  0.10100000352E+00 0. -1.
       -3    1    3    3    0  502  0.16049299426E+03  0.50891253371E+01 -0.68900702190E+03  0.70747055545E+03  0.10100000352E+00 0.  1.
</event>
<event>
 5   0  0.5023691E-06  0.2846043E+04  0.7818609E-02  0.8289115E-01
       -1   -1    0    0    0  501  0.00000000000E+00  0.00000000000E+00  0.11417186410E+04  0.11417186410E+04  0.50400001928E-02 0. -1.
        1   -1    0    0  501    0  0.00000000000E+00  0.00000000000E+00 -0.17736327108E+04  0.17736327108E+04  0.50400001928E-02 0.  1.
    10030    2    1    2    0    0  0.00000000000E+00  0.00000000000E+00 -0.63191406978E+03  0.29153513517E+04  0.28460425353E+04 0.  0.
        5    1    3    3  502    0 -0.91885060593E+03  0.97003862541E+03  0.18556385724E+03  0.13489690159E+04  0.46999998093E+01 0. -1.
       -5    1    3    3    0  502  0.91885060593E+03 -0.97003862541E+03 -0.81747792703E+03  0.15663823358E+04  0.46999998093E+01 0.  1.
</event>
<event>
 5   0  0.4764214E-06  0.2369724E+04  0.7818609E-02  0.8450926E-01
        1   -1    0    0  501    0  0.00000000000E+00  0.00000000000E+00  0.12863018843E+04  0.12863018843E+04  0.50400001928E-02 0.  1.
       -1   -1    0    0    0  501  0.00000000000E+00  0.00000000000E+00 -0.10914218808E+04  0.10914218808E+04  0.50400001928E-02 0. -1.
    10030    2    1    2    0    0  0.00000000000E+00  0.00000000000E+00  0.19488000349E+03  0.23777237651E+04  0.23697240530E+04 0.  0.
        3    1    3    3  502    0 -0.28583129380E+03 -0.76347697215E+03  0.96016897835E+03  0.12595717894E+04  0.10100000352E+00 0.  1.
       -3    1    3    3    0  502  0.28583129380E+03  0.76347697215E+03 -0.76528897487E+03  0.11181519757E+04  0.10100000352E+00 0. -1.
</event>
<event>
 5   0  0.4764214E-06  0.2641540E+04  0.7818609E-02  0.8354226E-01
        1   -1    0    0  501    0  0.00000000000E+00  0.00000000000E+00  0.24035091522E+04  0.24035091522E+04  0.50400001928E-02 0.  1.
       -1   -1    0    0    0  501  0.00000000000E+00  0.00000000000E+00 -0.72578602095E+03  0.72578602097E+03  0.50400001928E-02 0. -1.
    10030    2    1    2    0    0  0.00000000000E+00  0.00000000000E+00  0.16777231312E+04  0.31292951732E+04  0.26415399629E+04 0.  0.
        3    1    3    3  502    0 -0.28256286497E+03  0.44916138947E+03 -0.59394839122E+03  0.79646872386E+03  0.10100000352E+00 0. -1.
       -3    1    3    3    0  502  0.28256286497E+03 -0.44916138947E+03  0.22716715224E+04  0.23328264493E+04  0.10100000352E+00 0.  1.
</event>
<event>
 5   0  0.1302063E-05  0.2517242E+04  0.7818609E-02  0.8396869E-01
        2   -1    0    0  501    0  0.00000000000E+00  0.00000000000E+00  0.19438630196E+04  0.19438630196E+04  0.25500000920E-02 0.  1.
       -2   -1    0    0    0  501  0.00000000000E+00  0.00000000000E+00 -0.81493733342E+03  0.81493733343E+03  0.25500000920E-02 0. -1.
    10030    2    1    2    0    0  0.00000000000E+00  0.00000000000E+00  0.11289256862E+04  0.27588003530E+04  0.25172417808E+04 0.  0.
        2    1    3    3  502    0  0.25367252858E+02 -0.40248909296E+03  0.18711347992E+04  0.19141019838E+04  0.25500000920E-02 0.  1.
       -2    1    3    3    0  502 -0.25367252858E+02  0.40248909296E+03 -0.74220911305E+03  0.84469836923E+03  0.25500000920E-02 0. -1.
</event>
<event>
 5   0  0.1302063E-05  0.2861572E+04  0.7818609E-02  0.8284404E-01
       -2   -1    0    0    0  501  0.00000000000E+00  0.00000000000E+00  0.12089985447E+04  0.12089985447E+04  0.25500000920E-02 0.  1.
        2   -1    0    0  501    0  0.00000000000E+00  0.00000000000E+00 -0.16932600679E+04  0.16932600679E+04  0.25500000920E-02 0. -1.
    10030    2    1    2    0    0  0.00000000000E+00  0.00000000000E+00 -0.48426152322E+03  0.29022586126E+04  0.28615722657E+04 0.  0.
        2    1    3    3  502    0 -0.75692992009E+03 -0.57822076893E+02  0.98790419053E+03  0.12458896364E+04  0.25500000920E-02 0.  1.
       -2    1    3    3    0  502  0.75692992009E+03  0.57822076893E+02 -0.14721657138E+04  0.16563689762E+04  0.25500000920E-02 0. -1.
</event>
<event>
 5   0  0.5281919E-06  0.2777550E+04  0.7818609E-02  0.8310272E-01
        1   -1    0    0  501    0  0.00000000000E+00  0.00000000000E+00  0.12207794818E+04  0.12207794818E+04  0.50400001928E-02 0.  1.
       -1   -1    0    0    0  501  0.00000000000E+00  0.00000000000E+00 -0.15798894545E+04  0.15798894545E+04  0.50400001928E-02 0. -1.
    10030    2    1    2    0    0  0.00000000000E+00  0.00000000000E+00 -0.35910997271E+03  0.28006689363E+04  0.27775504529E+04 0.  0.
        4    1    3    3  502    0 -0.89759423213E+02  0.73442010852E+03 -0.13646096380E+04  0.15522856460E+04  0.12699999809E+01 0. -1.
       -4    1    3    3    0  502  0.89759423213E+02 -0.73442010852E+03  0.10054996652E+04  0.12483832903E+04  0.12699999809E+01 0.  1.
</event>
<event>
 5   0  0.1388269E-05  0.2804152E+04  0.7818609E-02  0.8301981E-01
       -2   -1    0    0    0  501  0.00000000000E+00  0.00000000000E+00  0.16296124863E+04  0.16296124863E+04  0.25500000920E-02 0.  1.
        2   -1    0    0  501    0  0.00000000000E+00  0.00000000000E+00 -0.12063091833E+04  0.12063091833E+04  0.25500000920E-02 0. -1.
    10030    2    1    2    0    0  0.00000000000E+00  0.00000000000E+00  0.42330330294E+03  0.28359216696E+04  0.28041515704E+04 0.  0.
        1    1    3    3  502    0  0.11941735632E+04  0.19533845141E+03  0.92791934378E+03  0.15248743942E+04  0.50400001928E-02 0.  1.
       -1    1    3    3    0  502 -0.11941735632E+04 -0.19533845141E+03 -0.50461604083E+03  0.13110472754E+04  0.50400001928E-02 0. -1.
</event>
<event>
 5   0  0.4447500E-06  0.2797428E+04  0.7818609E-02  0.8304067E-01
       -3   -1    0    0    0  501  0.00000000000E+00  0.00000000000E+00  0.16877713646E+04  0.16877713677E+04  0.10100000352E+00 0.  1.
        3   -1    0    0  501    0  0.00000000000E+00  0.00000000000E+00 -0.11591623796E+04  0.11591623840E+04  0.10100000352E+00 0. -1.
    10030    2    1    2    0    0  0.00000000000E+00  0.00000000000E+00  0.52860898508E+03  0.28469337516E+04  0.27974281630E+04 0.  0.
        5    1    3    3  502    0 -0.27720594035E+03 -0.13140515340E+04 -0.13351529685E+03  0.13496010491E+04  0.46999998093E+01 0. -1.
       -5    1    3    3    0  502  0.27720594035E+03  0.13140515340E+04  0.66212428193E+03  0.14973327025E+04  0.46999998093E+01 0.  1.
</event>
<event>
 5   0  0.1283052E-05  0.2830630E+04  0.7818609E-02  0.8293821E-01
        2   -1    0    0  501    0  0.00000000000E+00  0.00000000000E+00  0.10871196858E+04  0.10871196858E+04  0.25500000920E-02 0.  1.
       -2   -1    0    0    0  501  0.00000000000E+00  0.00000000000E+00 -0.18425912091E+04  0.18425912091E+04  0.25500000920E-02 0. -1.
    10030    2    1    2    0    0  0.00000000000E+00  0.00000000000E+00 -0.75547152329E+03  0.29297108948E+04  0.28306304430E+04 0.  0.
        5    1    3    3  502    0  0.52927133005E+03  0.10123309449E+04 -0.12425381858E+04  0.16878582037E+04  0.46999998093E+01 0. -1.
       -5    1    3    3    0  502 -0.52927133005E+03 -0.10123309449E+04  0.48706666248E+03  0.12418526911E+04  0.46999998093E+01 0.  1.
</event>
<event>
 5   0  0.1283052E-05  0.3118091E+04  0.7818609E-02  0.8210791E-01
       -2   -1    0    0    0  501  0.00000000000E+00  0.00000000000E+00  0.15728626114E+04  0.15728626114E+04  0.25500000920E-02 0.  1.
        2   -1    0    0  501    0  0.00000000000E+00  0.00000000000E+00 -0.15453495701E+04  0.15453495701E+04  0.25500000920E-02 0. -1.
    10030    2    1    2    0    0  0.00000000000E+00  0.00000000000E+00  0.27513041319E+02  0.31182121815E+04  0.31180908007E+04 0.  0.
        5    1    3    3  502    0  0.18708367524E+03 -0.13220641522E+04 -0.79110183828E+03  0.15520045531E+04  0.46999998093E+01 0. -1.
       -5    1    3    3    0  502 -0.18708367524E+03  0.13220641522E+04  0.81861487960E+03  0.15662076284E+04  0.46999998093E+01 0.  1.
</event>
<event>
 5   0  0.1302063E-05  0.2775664E+04  0.7818609E-02  0.8310864E-01
        2   -1    0    0  501    0  0.00000000000E+00  0.00000000000E+00  0.16918224675E+04  0.16918224675E+04  0.25500000920E-02 0. -1.
       -2   -1    0    0    0  501  0.00000000000E+00  0.00000000000E+00 -0.11384631137E+04  0.11384631137E+04  0.25500000920E-02 0.  1.
    10030    2    1    2    0    0  0.00000000000E+00  0.00000000000E+00  0.55335935377E+03  0.28302855812E+04  0.27756638659E+04 0.  0.
        2    1    3    3  502    0 -0.46771310502E+03 -0.94990823250E+02 -0.10521533752E+04  0.11553378423E+04  0.25500000920E-02 0.  1.
       -2    1    3    3    0  502  0.46771310502E+03  0.94990823250E+02  0.16055127289E+04  0.16749477388E+04  0.25500000920E-02 0. -1.
</event>
<event>
 5   0  0.5023691E-06  0.2771011E+04  0.7818609E-02  0.8312325E-01
       -1   -1    0    0    0  501  0.00000000000E+00  0.00000000000E+00  0.18679539453E+04  0.18679539454E+04  0.50400001928E-02 0. -1.
        1   -1    0    0  501    0  0.00000000000E+00  0.00000000000E+00 -0.10276618983E+04  0.10276618983E+04  0.50400001928E-02 0.  1.
    10030    2    1    2    0    0  0.00000000000E+00  0.00000000000E+00  0.84029204707E+03  0.28956158436E+04  0.27710107162E+04 0.  0.
        5    1    3    3  502    0  0.11110657998E+04  0.35956057252E+03  0.11992265007E+04  0.16738928600E+04  0.46999998093E+01 0. -1.
       -5    1    3    3    0  502 -0.11110657998E+04 -0.35956057252E+03 -0.35893445361E+03  0.12217229836E+04  0.46999998093E+01 0.  1.
</event>
<event>
 5   0  0.1350863E-05  0.2788300E+04  0.7818609E-02  0.8306910E-01
       -2   -1    0    0    0  501  0.00000000000E+00  0.00000000000E+00  0.11983979692E+04  0.11983979692E+04  0.25500000920E-02 0.  1.
        2   -1    0    0  501    0  0.00000000000E+00  0.00000000000E+00 -0.16218766509E+04  0.16218766509E+04  0.25500000920E-02 0. -1.
    10030    2    1    2    0    0  0.00000000000E+00  0.00000000000E+00 -0.42347868164E+03  0.28202746201E+04  0.27882996143E+04 0.  0.
        3    1    3    3  502    0 -0.45796305367E+03 -0.10809658673E+04 -0.97231742508E+03  0.15243420056E+04  0.10100000352E+00 0. -1.
       -3    1    3    3    0  502  0.45796305367E+03  0.10809658673E+04  0.54883874345E+03  0.12959326145E+04  0.10100000352E+00 0.  1.
</event>
<event>
 5   0  0.4764214E-06  0.2794478E+04  0.7818609E-02  0.8304985E-01
        1   -1    0    0  501    0  0.00000000000E+00  0.00000000000E+00  0.16009511548E+04  0.16009511548E+04  0.50400001928E-02 0.  1.
       -1   -1    0    0    0  501  0.00000000000E+00  0.00000000000E+00 -0.12194483499E+04  0.12194483499E+04  0.50400001928E-02 0. -1.
    10030    2    1    2    0    0  0.00000000000E+00  0.00000000000E+00  0.38150280484E+03  0.28203995047E+04  0.27944783012E+04 0.  0.
        3    1    3    3  502    0  0.63218430029E+03  0.53341656870E+03  0.13272905899E+04  0.15639343162E+04  0.10100000352E+00 0.  1.
       -3    1    3    3    0  502 -0.63218430029E+03 -0.53341656870E+03 -0.94578778505E+03  0.12564651885E+04  0.10100000352E+00 0. -1.
</event>
<event>
 5   0  0.1330962E-05  0.2829591E+04  0.7818609E-02  0.8294140E-01
       -2   -1    0    0    0  501  0.00000000000E+00  0.00000000000E+00  0.15112039411E+04  0.15112039411E+04  0.25500000920E-02 0. -1.
        2   -1    0    0  501    0  0.00000000000E+00  0.00000000000E+00 -0.13245376026E+04  0.13245376026E+04  0.25500000920E-02 0.  1.
    10030    2    1    2    0    0  0.00000000000E+00  0.00000000000E+00  0.18666633856E+03  0.28357415437E+04  0.28295910978E+04 0.  0.
        4    1    3    3  502    0  0.76712850351E+03 -0.68738474301E+02 -0.10960209232E+04  0.13395800072E+04  0.12699999809E+01 0.  1.
       -4    1    3    3    0  502 -0.76712850351E+03  0.68738474301E+02  0.12826872618E+04  0.14961615365E+04  0.12699999809E+01 0. -1.
</event>
<event>
 5   0  0.5107453E-06  0.2783823E+04  0.7818609E-02  0.8308308E-01
        1   -1    0    0  501    0  0.00000000000E+00  0.00000000000E+00  0.99926810541E+03  0.99926810542E+03  0.50400001928E-02 0.  1.
       -1   -1    0    0    0  501  0.00000000000E+00  0.00000000000E+00 -0.19388367086E+04  0.19388367086E+04  0.50400001928E-02 0. -1.
    10030    2    1    2    0    0  0.00000000000E+00  0.00000000000E+00 -0.93956860321E+03  0.29381048141E+04  0.27838230436E+04 0.  0.
        2    1    3    3  502    0  0.52449391533E+03 -0.11806021535E+03  0.88526490310E+03  0.10357248816E+04  0.25500000920E-02 0.  1.
       -2    1    3    3    0  502 -0.52449391533E+03  0.11806021535E+03 -0.18248335063E+04  0.19023799325E+04  0.25500000920E-02 0. -1.
</event>
<event>
 5   0  0.5217999E-06  0.2785722E+04  0.7818609E-02  0.8307715E-01
        1   -1    0    0  501    0  0.00000000000E+00  0.00000000000E+00  0.14485419571E+04  0.14485419571E+04  0.50400001928E-02 0.  1.
       -1   -1    0    0    0  501  0.00000000000E+00  0.00000000000E+00 -0.13393202604E+04  0.13393202604E+04  0.50400001928E-02 0. -1.
    10030    2    1    2    0    0  0.00000000000E+00  0.00000000000E+00  0.10922169665E+03  0.27878622175E+04  0.27857218750E+04 0.  0.
        1    1    3    3  502    0  0.71632561687E+03 -0.67688965700E+03  0.10396229357E+04  0.14325214992E+04  0.50400001928E-02 0.  1.
       -1    1    3    3    0  502 -0.71632561687E+03  0.67688965700E+03 -0.93040123907E+03  0.13553407184E+04  0.50400001928E-02 0. -1.
</event>
<event>
 5   0  0.1283052E-05  0.2792135E+04  0.7818609E-02  0.8305714E-01
        2   -1    0    0  501    0  0.00000000000E+00  0.00000000000E+00  0.12925767758E+04  0.12925767758E+04  0.25500000920E-02 0. -1.
       -2   -1    0    0    0  501  0.00000000000E+00  0.00000000000E+00 -0.15078441817E+04  0.15078441817E+04  0.25500000920E-02 0.  1.
    10030    2    1    2    0    0  0.00000000000E+00  0.00000000000E+00 -0.21526740596E+03  0.28004209575E+04  0.27921349329E+04 0.  0.
        5    1    3    3  502    0 -0.65118228611E+03  0.48099525124E+02  0.11299772879E+04  0.13050757431E+04  0.46999998093E+01 0. -1.
       -5    1    3    3    0  502  0.65118228611E+03 -0.48099525124E+02 -0.13452446938E+04  0.14953452144E+04  0.46999998093E+01 0.  1.
</event>
<event>
 5   0  0.5023691E-06  0.2806561E+04  0.7818609E-02  0.8301234E-01
        1   -1    0    0  501    0  0.00000000000E+00  0.00000000000E+00  0.20429596013E+04  0.20429596013E+04  0.50400001928E-02 0. -1.
       -1   -1    0    0    0  501  0.00000000000E+00  0.00000000000E+00 -0.96389408512E+03  0.96389408513E+03  0.50400001928E-02 0.  1.
    10030    2    1    2    0    0  0.00000000000E+00  0.00000000000E+00  0.10790655162E+04  0.30068536864E+04  0.28065613664E+04 0.  0.
        5    1    3    3  502    0  0.17888416176E+03  0.96831176648E+03  0.16106559989E+04  0.18878193921E+04  0.46999998093E+01 0. -1.
       -5    1    3    3    0  502 -0.17888416176E+03 -0.96831176648E+03 -0.53159048276E+03  0.11190342943E+04  0.46999998093E+01 0.  1.
</event>
<event>
 5   0  0.1350863E-05  0.2729728E+04  0.7818609E-02  0.8325423E-01
        2   -1    0    0  501    0  0.00000000000E+00  0.00000000000E+00  0.11243963251E+04  0.11243963251E+04  0.25500000920E-02 0.  1.
       -2   -1    0    0    0  501  0.00000000000E+00  0.00000000000E+00 -0.16567588953E+04  0.16567588953E+04  0.25500000920E-02 0. -1.
    10030    2    1    2    0    0  0.00000000000E+00  0.00000000000E+00 -0.53236257019E+03  0.27811552205E+04  0.27297279085E+04 0.  0.
        3    1    3    3  502    0 -0.91055075212E+03  0.35976067097E+03 -0.12350561789E+04  0.15760374957E+04  0.10100000352E+00 0. -1.
       -3    1    3    3    0  502  0.91055075212E+03 -0.35976067097E+03  0.70269360875E+03  0.12051177248E+04  0.10100000352E+00 0.  1.
</event>
<event>
 5   0  0.1388269E-05  0.2820159E+04  0.7818609E-02  0.8297037E-01
        2   -1    0    0  501    0  0.00000000000E+00  0.00000000000E+00  0.14564531843E+04  0.14564531843E+04  0.25500000920E-02 0. -1.
       -2   -1    0    0    0  501  0.00000000000E+00  0.00000000000E+00 -0.13651821339E+04  0.13651821339E+04  0.25500000920E-02 0.  1.
    10030    2    1    2    0    0  0.00000000000E+00  0.00000000000E+00  0.91271050397E+02  0.28216353182E+04  0.28201587658E+04 0.  0.
        1    1    3    3  502    0 -0.13890390814E+04 -0.23144806016E+03  0.11865381261E+03  0.14131795716E+04  0.50400001928E-02 0.  1.
       -1    1    3    3    0  502  0.13890390814E+04  0.23144806016E+03 -0.27382762212E+02  0.14084557466E+04  0.50400001928E-02 0. -1.
</event>
<event>
 5   0  0.5107453E-06  0.2833375E+04  0.7818609E-02  0.8292981E-01
       -1   -1    0    0    0  501  0.00000000000E+00  0.00000000000E+00  0.90176395702E+03  0.90176395703E+03  0.50400001928E-02 0.  1.
        1   -1    0    0  501    0  0.00000000000E+00  0.00000000000E+00 -0.22256419498E+04  0.22256419498E+04  0.50400001928E-02 0. -1.
    10030    2    1    2    0    0  0.00000000000E+00  0.00000000000E+00 -0.13238779928E+04  0.31274059068E+04  0.28333751545E+04 0.  0.
        2    1    3    3  502    0  0.56690937048E+03  0.12907518662E+04 -0.81637697087E+03  0.16290788725E+04  0.25500000920E-02 0.  1.
       -2    1    3    3    0  502 -0.56690937048E+03 -0.12907518662E+04 -0.50750102188E+03  0.14983270343E+04  0.25500000920E-02 0. -1.
</event>
<event>
 5   0  0.5107453E-06  0.2811221E+04  0.7818609E-02  0.8299793E-01
       -1   -1    0    0    0  501  0.00000000000E+00  0.00000000000E+00  0.83316454271E+03  0.83316454272E+03  0.50400001928E-02 0.  1.
        1   -1    0    0  501    0  0.00000000000E+00  0.00000000000E+00 -0.23713693559E+04  0.23713693559E+04  0.50400001928E-02 0. -1.
    10030    2    1    2    0    0  0.00000000000E+00  0.00000000000E+00 -0.15382048132E+04  0.32045338986E+04  0.28112209910E+04 0.  0.
        2    1    3    3  502    0  0.10363349852E+04  0.29781899969E+03  0.25874753091E+03  0.11088898245E+04  0.25500000920E-02 0.  1.
       -2    1    3    3    0  502 -0.10363349852E+04 -0.29781899969E+03 -0.17969523441E+04  0.20956440741E+04  0.25500000920E-02 0. -1.
</event>
<event>
 5   0  0.1350863E-05  0.2789451E+04  0.7818609E-02  0.8306551E-01
        2   -1    0    0  501    0  0.00000000000E+00  0.00000000000E+00  0.15815908027E+04  0.15815908027E+04  0.25500000920E-02 0.  1.
       -2   -1    0    0    0  501  0.00000000000E+00  0.00000000000E+00 -0.12299385402E+04  0.12299385402E+04  0.25500000920E-02 0. -1.
    10030    2    1    2    0    0  0.00000000000E+00  0.00000000000E+00  0.35165226253E+03  0.28115293429E+04  0.27894511884E+04 0.  0.
        3    1    3    3  502    0  0.69243106209E+03 -0.34948673554E+03  0.13441632639E+04  0.15518945339E+04  0.10100000352E+00 0.  1.
       -3    1    3    3    0  502 -0.69243106209E+03  0.34948673554E+03 -0.99251100137E+03  0.12596348090E+04  0.10100000352E+00 0. -1.
</event>
<event>
 5   0  0.1283052E-05  0.2694310E+04  0.7818609E-02  0.8336853E-01
       -2   -1    0    0    0  501  0.00000000000E+00  0.00000000000E+00  0.11661690541E+04  0.11661690541E+04  0.25500000920E-02 0. -1.
        2   -1    0    0  501    0  0.00000000000E+00  0.00000000000E+00 -0.15562299636E+04  0.15562299636E+04  0.25500000920E-02 0.  1.
    10030    2    1    2    0    0  0.00000000000E+00  0.00000000000E+00 -0.39006090957E+03  0.27223990177E+04  0.26943104681E+04 0.  0.
        5    1    3    3  502    0 -0.35382065719E+03 -0.78849905356E+03 -0.12391890049E+04  0.15108048500E+04  0.46999998093E+01 0.  1.
       -5    1    3    3    0  502  0.35382065719E+03  0.78849905356E+03  0.84912809534E+03  0.12115941677E+04  0.46999998093E+01 0. -1.
</event>
<event>
 5   0  0.5281919E-06  0.2796814E+04  0.7818609E-02  0.8304258E-01
       -1   -1    0    0    0  501  0.00000000000E+00  0.00000000000E+00  0.10846400431E+04  0.10846400431E+04  0.50400001928E-02 0.  1.
        1   -1    0    0  501    0  0.00000000000E+00  0.00000000000E+00 -0.18029416501E+04  0.18029416501E+04  0.50400001928E-02 0. -1.
    10030    2    1    2    0    0  0.00000000000E+00  0.00000000000E+00 -0.71830160697E+03  0.28875816932E+04  0.27968144086E+04 0.  0.
        4    1    3    3  502    0 -0.57751245963E+03  0.12947305003E+03  0.94895521129E+03  0.11183923809E+04  0.12699999809E+01 0.  1.
       -4    1    3    3    0  502  0.57751245963E+03 -0.12947305003E+03 -0.16672568183E+04  0.17691893123E+04  0.12699999809E+01 0. -1.
</event>
<event>
 5   0  0.5281919E-06  0.2796047E+04  0.7818609E-02  0.8304496E-01
       -1   -1    0    0    0  501  0.00000000000E+00  0.00000000000E+00  0.11310452664E+04  0.11310452664E+04  0.50400001928E-02 0.  1.
        1   -1    0    0  501    0  0.00000000000E+00  0.00000000000E+00 -0.17280213805E+04  0.17280213805E+04  0.50400001928E-02 0. -1.
    10030    2    1    2    0    0  0.00000000000E+00  0.00000000000E+00 -0.59697611407E+03  0.28590666469E+04  0.27960474979E+04 0.  0.
        4    1    3    3  502    0 -0.20461077151E+03 -0.13076238002E+04 -0.75888399306E+03  0.15256644777E+04  0.12699999809E+01 0. -1.
       -4    1    3    3    0  502  0.20461077151E+03  0.13076238002E+04  0.16190787899E+03  0.13334021692E+04  0.12699999809E+01 0.  1.
</event>
<event>
 5   0  0.5217999E-06  0.2812867E+04  0.7818609E-02  0.8299285E-01
        1   -1    0    0  501    0  0.00000000000E+00  0.00000000000E+00  0.21534034497E+04  0.21534034497E+04  0.50400001928E-02 0.  1.
       -1   -1    0    0    0  501  0.00000000000E+00  0.00000000000E+00 -0.91857176642E+03  0.91857176643E+03  0.50400001928E-02 0. -1.
    10030    2    1    2    0    0  0.00000000000E+00  0.00000000000E+00  0.12348316833E+04  0.30719752161E+04  0.28128672991E+04 0.  0.
        1    1    3    3  502    0  0.12858148123E+03  0.13386767460E+04  0.16783167066E+03  0.13552697508E+04  0.50400001928E-02 0. -1.
       -1    1    3    3    0  502 -0.12858148123E+03 -0.13386767460E+04  0.10670000126E+04  0.17167054653E+04  0.50400001928E-02 0.  1.
</event>
<event>
 5   0  0.5217999E-06  0.3244542E+04  0.7818609E-02  0.8177152E-01
        1   -1    0    0  501    0  0.00000000000E+00  0.00000000000E+00  0.26095908125E+04  0.26095908125E+04  0.50400001928E-02 0. -1.
       -1   -1    0    0    0  501  0.00000000000E+00  0.00000000000E+00 -0.10084962497E+04  0.10084962498E+04  0.50400001928E-02 0.  1.
    10030    2    1    2    0    0  0.00000000000E+00  0.00000000000E+00  0.16010945627E+04  0.36180870622E+04  0.32445415995E+04 0.  0.
        1    1    3    3  502    0  0.35187754492E+03 -0.90217129928E+03 -0.65085042094E+03  0.11667635280E+04  0.50400001928E-02 0.  1.
       -1    1    3    3    0  502 -0.35187754492E+03  0.90217129928E+03  0.22519449837E+04  0.24513235342E+04  0.50400001928E-02 0. -1.
</event>
<event>
 5   0  0.5107453E-06  0.2812228E+04  0.7818609E-02  0.8299482E-01
       -1   -1    0    0    0  501  0.00000000000E+00  0.00000000000E+00  0.10803156478E+04  0.10803156479E+04  0.50400001928E-02 0.  1.
        1   -1    0    0  501    0  0.00000000000E+00  0.00000000000E+00 -0.18301652442E+04  0.18301652442E+04  0.50400001928E-02 0. -1.
    10030    2    1    2    0    0  0.00000000000E+00  0.00000000000E+00 -0.74984959635E+03  0.29104808921E+04  0.28122276945E+04 0.  0.
        2    1    3    3  502    0 -0.42032234842E+03 -0.49365982639E+03 -0.16662291830E+04  0.17879291348E+04  0.25500000920E-02 0. -1.
       -2    1    3    3    0  502  0.42032234842E+03  0.49365982639E+03  0.91637958668E+03  0.11225517572E+04  0.25500000920E-02 0.  1.
</event>
<event>
 5   0  0.5023691E-06  0.2751868E+04  0.7818609E-02  0.8318369E-01
       -1   -1    0    0    0  501  0.00000000000E+00  0.00000000000E+00  0.12248767395E+04  0.12248767395E+04  0.50400001928E-02 0.  1.
        1   -1    0    0  501    0  0.00000000000E+00  0.00000000000E+00 -0.15456205710E+04  0.15456205710E+04  0.50400001928E-02 0. -1.
    10030    2    1    2    0    0  0.00000000000E+00  0.00000000000E+00 -0.32074383148E+03  0.27704973105E+04  0.27518682275E+04 0.  0.
        5    1    3    3  502    0  0.12784218007E+04 -0.19764802409E+03  0.31157173415E+03  0.13306111669E+04  0.46999998093E+01 0.  1.
       -5    1    3    3    0  502 -0.12784218007E+04  0.19764802409E+03 -0.63231556563E+03  0.14398861436E+04  0.46999998093E+01 0. -1.
</event>
<event>
 5   0  0.5107453E-06  0.2804902E+04  0.7818609E-02  0.8301748E-01
       -1   -1    0    0    0  501  0.00000000000E+00  0.00000000000E+00  0.10666623941E+04  0.10666623941E+04  0.50400001928E-02 0. -1.
        1   -1    0    0  501    0  0.00000000000E+00  0.00000000000E+00 -0.18439470574E+04  0.18439470574E+04  0.50400001928E-02 0.  1.
    10030    2    1    2    0    0  0.00000000000E+00  0.00000000000E+00 -0.77728466325E+03  0.29106094515E+04  0.28049021251E+04 0.  0.
        2    1    3    3  502    0 -0.44399859334E+03  0.10861537810E+04 -0.11857073953E+04  0.16681627062E+04  0.25500000920E-02 0.  1.
       -2    1    3    3    0  502  0.44399859334E+03 -0.10861537810E+04  0.40842273207E+03  0.12424467454E+04  0.25500000920E-02 0. -1.
</event>
<event>
 5   0  0.1388269E-05  0.2799443E+04  0.7818609E-02  0.8303441E-01
        2   -1    0    0  501    0  0.00000000000E+00  0.00000000000E+00  0.11134560765E+04  0.11134560765E+04  0.25500000920E-02 0.  1.
       -2   -1    0    0    0  501  0.00000000000E+00  0.00000000000E+00 -0.17595841468E+04  0.17595841468E+04  0.25500000920E-02 0. -1.
    10030    2    1    2    0    0  0.00000000000E+00  0.00000000000E+00 -0.64612807029E+03  0.28730402233E+04  0.27994425591E+04 0.  0.
        1    1    3    3  502    0 -0.86589764824E+03  0.15715132449E+03  0.79401133128E+03  0.11852971232E+04  0.50400001928E-02 0.  1.
       -1    1    3    3    0  502  0.86589764824E+03 -0.15715132449E+03 -0.14401394016E+04  0.16877431001E+04  0.50400001928E-02 0. -1.
</event>
<event>
 5   0  0.1388269E-05  0.2915439E+04  0.7818609E-02  0.8268299E-01
       -2   -1    0    0    0  501  0.00000000000E+00  0.00000000000E+00  0.17316562715E+04  0.17316562715E+04  0.25500000920E-02 0.  1.
        2   -1    0    0  501    0  0.00000000000E+00  0.00000000000E+00 -0.12271180087E+04  0.12271180087E+04  0.25500000920E-02 0. -1.
    10030    2    1    2    0    0  0.00000000000E+00  0.00000000000E+00  0.50453826283E+03  0.29587742802E+04  0.29154393121E+04 0.  0.
        1    1    3    3  502    0 -0.11121110956E+03  0.85818901760E+03 -0.93823606459E+03  0.12763789460E+04  0.50400001928E-02 0. -1.
       -1    1    3    3    0  502  0.11121110956E+03 -0.85818901760E+03  0.14427743274E+04  0.16823953343E+04  0.50400001928E-02 0.  1.
</event>
<event>
 5   0  0.1302063E-05  0.2223032E+04  0.7818609E-02  0.8508903E-01
        2   -1    0    0  501    0  0.00000000000E+00  0.00000000000E+00  0.21278412273E+04  0.21278412273E+04  0.25500000920E-02 0. -1.
       -2   -1    0    0    0  501  0.00000000000E+00  0.00000000000E+00 -0.58062018210E+03  0.58062018211E+03  0.25500000920E-02 0.  1.
    10030    2    1    2    0    0  0.00000000000E+00  0.00000000000E+00  0.15472210452E+04  0.27084614094E+04  0.22230317685E+04 0.  0.
        2    1    3    3  502    0  0.31536696425E+03  0.25870998510E+03 -0.48613308468E+03  0.63459637137E+03  0.25500000920E-02 0.  1.
       -2    1    3    3    0  502 -0.31536696425E+03 -0.25870998510E+03  0.20333541299E+04  0.20738650381E+04  0.25500000920E-02 0. -1.
</event>
<event>
 5   0  0.5281919E-06  0.2765984E+04  0.7818609E-02  0.8313907E-01
       -1   -1    0    0    0  501  0.00000000000E+00  0.00000000000E+00  0.87639411307E+03  0.87639411309E+03  0.50400001928E-02 0. -1.
        1   -1    0    0  501    0  0.00000000000E+00  0.00000000000E+00 -0.21824281059E+04  0.21824281059E+04  0.50400001928E-02 0.  1.
    10030    2    1    2    0    0  0.00000000000E+00  0.00000000000E+00 -0.13060339929E+04  0.30588222190E+04  0.27659841968E+04 0.  0.
        4    1    3    3  502    0  0.28247712837E+03 -0.10290081333E+04  0.31990736996E+03  0.11139988351E+04  0.12699999809E+01 0. -1.
       -4    1    3    3    0  502 -0.28247712837E+03  0.10290081333E+04 -0.16259413628E+04  0.19448233839E+04  0.12699999809E+01 0.  1.
</event>
<event>
 5   0  0.5281919E-06  0.2767350E+04  0.7818609E-02  0.8313477E-01
       -1   -1    0    0    0  501  0.00000000000E+00  0.00000000000E+00  0.13716133342E+04  0.13716133343E+04  0.50400001928E-02 0.  1.
        1   -1    0    0  501    0  0.00000000000E+00  0.00000000000E+00 -0.13958431240E+04  0.13958431240E+04  0.50400001928E-02 0. -1.
    10030    2    1    2    0    0  0.00000000000E+00  0.00000000000E+00 -0.24229789712E+02  0.27674564582E+04  0.27673503872E+04 0.  0.
        4    1    3    3  502    0  0.12341491008E+04  0.18440285717E+03  0.58576001868E+03  0.13784936812E+04  0.12699999809E+01 0.  1.
       -4    1    3    3    0  502 -0.12341491008E+04 -0.18440285717E+03 -0.60998980839E+03  0.13889627770E+04  0.12699999809E+01 0. -1.
</event>
<event>
 5   0  0.5217999E-06  0.2826274E+04  0.7818609E-02  0.8295157E-01
       -1   -1    0    0    0  501  0.00000000000E+00  0.00000000000E+00  0.92158494653E+03  0.92158494654E+03  0.50400001928E-02 0. -1.
        1   -1    0    0  501    0  0.00000000000E+00  0.00000000000E+00 -0.21668720912E+04  0.21668720912E+04  0.50400001928E-02 0.  1.
    10030    2    1    2    0    0  0.00000000000E+00  0.00000000000E+00 -0.12452871446E+04  0.30884570377E+04  0.28262743676E+04 0.  0.
        1    1    3    3  502    0  0.59795828571E+03  0.16997581507E+03 -0.20094283532E+04  0.21033896919E+04  0.50400001928E-02 0.  1.
       -1    1    3    3    0  502 -0.59795828571E+03 -0.16997581507E+03  0.76414120858E+03  0.98506734583E+03  0.50400001928E-02 0. -1.
</event>
<event>
 5   0  0.5107453E-06  0.2874512E+04  0.7818609E-02  0.8280502E-01
        1   -1    0    0  501    0  0.00000000000E+00  0.00000000000E+00  0.20802059728E+04  0.20802059728E+04  0.50400001928E-02 0.  1.
       -1   -1    0    0    0  501  0.00000000000E+00  0.00000000000E+00 -0.99302884805E+03  0.99302884806E+03  0.50400001928E-02 0. -1.
    10030    2    1    2    0    0  0.00000000000E+00  0.00000000000E+00  0.10871771247E+04  0.30732348209E+04  0.28745118131E+04 0.  0.
        2    1    3    3  502    0 -0.89435533216E+03 -0.11025848609E+04  0.78298767452E+03  0.16213064282E+04  0.25500000920E-02 0. -1.
       -2    1    3    3    0  502  0.89435533216E+03  0.11025848609E+04  0.30418945023E+03  0.14519283926E+04  0.25500000920E-02 0.  1.
</event>
<event>
 5   0  0.5107453E-06  0.2170681E+04  0.7818609E-02  0.8530731E-01
        1   -1    0    0  501    0  0.00000000000E+00  0.00000000000E+00  0.96787896294E+03  0.96787896295E+03  0.50400001928E-02 0.  1.
       -1   -1    0    0    0  501  0.00000000000E+00  0.00000000000E+00 -0.12170567663E+04  0.12170567663E+04  0.50400001928E-02 0. -1.
    10030    2    1    2    0    0  0.00000000000E+00  0.00000000000E+00 -0.24917780340E+03  0.21849357293E+04  0.21706806682E+04 0.  0.
        2    1    3    3  502    0 -0.13898124523E+02 -0.17546674657E+03  0.95341668375E+03  0.96952829245E+03  0.25500000920E-02 0.  1.
       -2    1    3    3    0  502  0.13898124523E+02  0.17546674657E+03 -0.12025944871E+04  0.12154074368E+04  0.25500000920E-02 0. -1.
</event>
<event>
 5   0  0.1350863E-05  0.2780919E+04  0.7818609E-02  0.8309217E-01
       -2   -1    0    0    0  501  0.00000000000E+00  0.00000000000E+00  0.15303993354E+04  0.15303993354E+04  0.25500000920E-02 0.  1.
        2   -1    0    0  501    0  0.00000000000E+00  0.00000000000E+00 -0.12633154485E+04  0.12633154485E+04  0.25500000920E-02 0. -1.
    10030    2    1    2    0    0  0.00000000000E+00  0.00000000000E+00  0.26708388691E+03  0.27937147840E+04  0.27809186417E+04 0.  0.
        3    1    3    3  502    0 -0.55447720227E+03  0.56082466225E+03  0.12839784934E+04  0.15068410837E+04  0.10100000352E+00 0.  1.
       -3    1    3    3    0  502  0.55447720227E+03 -0.56082466225E+03 -0.10168946065E+04  0.12868737003E+04  0.10100000352E+00 0. -1.
</event>
<event>
 5   0  0.1388269E-05  0.3095491E+04  0.7818609E-02  0.8216976E-01
       -2   -1    0    0    0  501  0.00000000000E+00  0.00000000000E+00  0.89803265209E+03  0.89803265209E+03  0.25500000920E-02 0.  1.
        2   -1    0    0  501    0  0.00000000000E+00  0.00000000000E+00 -0.26675164355E+04  0.26675164355E+04  0.25500000920E-02 0. -1.
    10030    2    1    2    0    0  0.00000000000E+00  0.00000000000E+00 -0.17694837834E+04  0.35655490876E+04  0.30954914693E+04 0.  0.
        1    1    3    3  502    0 -0.13633166550E+04  0.12873909051E+03 -0.17156026167E+04  0.21951078319E+04  0.50400001928E-02 0. -1.
       -1    1    3    3    0  502  0.13633166550E+04 -0.12873909051E+03 -0.53881166762E+02  0.13704412557E+04  0.50400001928E-02 0.  1.
</event>
<event>
 5   0  0.1350863E-05  0.2771012E+04  0.7818609E-02  0.8312325E-01
       -2   -1    0    0    0  501  0.00000000000E+00  0.00000000000E+00  0.18843257303E+04  0.18843257303E+04  0.25500000920E-02 0. -1.
        2   -1    0    0  501    0  0.00000000000E+00  0.00000000000E+00 -0.10187339110E+04  0.10187339110E+04  0.25500000920E-02 0.  1.
    10030    2    1    2    0    0  0.00000000000E+00  0.00000000000E+00  0.86559181935E+03  0.29030596413E+04  0.27710117436E+04 0.  0.
        3    1    3    3  502    0  0.57488004588E+03 -0.69680583818E+03  0.15333810574E+04  0.17796861860E+04  0.10100000352E+00 0. -1.
       -3    1    3    3    0  502 -0.57488004588E+03  0.69680583818E+03 -0.66778923807E+03  0.11233734552E+04  0.10100000352E+00 0.  1.
</event>
<event>
 5   0  0.5217999E-06  0.2777093E+04  0.7818609E-02  0.8310415E-01
        1   -1    0    0  501    0  0.00000000000E+00  0.00000000000E+00  0.15095059279E+04  0.15095059279E+04  0.50400001928E-02 0.  1.
       -1   -1    0    0    0  501  0.00000000000E+00  0.00000000000E+00 -0.12772801335E+04  0.12772801335E+04  0.50400001928E-02 0. -1.
    10030    2    1    2    0    0  0.00000000000E+00  0.00000000000E+00  0.23222579443E+03  0.27867860614E+04  0.27770933964E+04 0.  0.
        1    1    3    3  502    0  0.11516628825E+04  0.63577563907E+03  0.56210065991E+03  0.14305576570E+04  0.50400001928E-02 0. -1.
       -1    1    3    3    0  502 -0.11516628825E+04 -0.63577563907E+03 -0.32987486548E+03  0.13562284044E+04  0.50400001928E-02 0.  1.
</event>
<event>
 5   0  0.1302063E-05  0.2758830E+04  0.7818609E-02  0.8316165E-01
       -2   -1    0    0    0  501  0.00000000000E+00  0.00000000000E+00  0.12037950961E+04  0.12037950961E+04  0.25500000920E-02 0.  1.
        2   -1    0    0  501    0  0.00000000000E+00  0.00000000000E+00 -0.15806558493E+04  0.15806558493E+04  0.25500000920E-02 0. -1.
    10030    2    1    2    0    0  0.00000000000E+00  0.00000000000E+00 -0.37686075324E+03  0.27844509454E+04  0.27588300129E+04 0.  0.
        2    1    3    3  502    0  0.10684965488E+04 -0.30909043841E+03 -0.10118278618E+04  0.15036679806E+04  0.25500000920E-02 0. -1.
       -2    1    3    3    0  502 -0.10684965488E+04  0.30909043841E+03  0.63496710857E+03  0.12807829648E+04  0.25500000920E-02 0.  1.
</event>
<event>
 5   0  0.1302063E-05  0.2810397E+04  0.7818609E-02  0.8300048E-01
        2   -1    0    0  501    0  0.00000000000E+00  0.00000000000E+00  0.21130194579E+04  0.21130194579E+04  0.25500000920E-02 0.  1.
       -2   -1    0    0    0  501  0.00000000000E+00  0.00000000000E+00 -0.93448373437E+03  0.93448373437E+03  0.25500000920E-02 0. -1.
    10030    2    1    2    0    0  0.00000000000E+00  0.00000000000E+00  0.11785357235E+04  0.30475031922E+04  0.28103966366E+04 0.  0.
        2    1    3    3  502    0  0.78516313750E+03 -0.46040772121E+03 -0.57162653219E+03  0.10748085013E+04  0.25500000920E-02 0. -1.
       -2    1    3    3    0  502 -0.78516313750E+03  0.46040772121E+03  0.17501622557E+04  0.19726946909E+04  0.25500000920E-02 0.  1.
</event>
<event>
 5   0  0.5217999E-06  0.2788519E+04  0.7818609E-02  0.8306842E-01
       -1   -1    0    0    0  501  0.00000000000E+00  0.00000000000E+00  0.11982587951E+04  0.11982587951E+04  0.50400001928E-02 0.  1.
        1   -1    0    0  501    0  0.00000000000E+00  0.00000000000E+00 -0.16223199372E+04  0.16223199372E+04  0.50400001928E-02 0. -1.
    10030    2    1    2    0    0  0.00000000000E+00  0.00000000000E+00 -0.42406114206E+03  0.28205787323E+04  0.27885186987E+04 0.  0.
        1    1    3    3  502    0  0.65960875498E+03  0.12146822644E+04 -0.39695045559E+03  0.14380912270E+04  0.50400001928E-02 0.  1.
       -1    1    3    3    0  502 -0.65960875498E+03 -0.12146822644E+04 -0.27110686477E+02  0.13824875053E+04  0.50400001928E-02 0. -1.
</event>
<event>
 5   0  0.5281919E-06  0.2729646E+04  0.7818609E-02  0.8325449E-01
        1   -1    0    0  501    0  0.00000000000E+00  0.00000000000E+00  0.19595042104E+04  0.19595042104E+04  0.50400001928E-02 0.  1.
       -1   -1    0    0    0  501  0.00000000000E+00  0.00000000000E+00 -0.95061913779E+03  0.95061913781E+03  0.50400001928E-02 0. -1.
    10030    2    1    2    0    0  0.00000000000E+00  0.00000000000E+00  0.10088850726E+04  0.29101233482E+04  0.27296462797E+04 0.  0.
        4    1    3    3  502    0  0.10722754303E+04 -0.25270498831E+03 -0.35449759989E+03  0.11572832716E+04  0.12699999809E+01 0. -1.
       -4    1    3    3    0  502 -0.10722754303E+04  0.25270498831E+03  0.13633826725E+04  0.17528400766E+04  0.12699999809E+01 0.  1.
</event>
<event>
 5   0  0.5023691E-06  0.2748785E+04  0.7818609E-02  0.8319347E-01
       -1   -1    0    0    0  501  0.00000000000E+00  0.00000000000E+00  0.95354497946E+03  0.95354497948E+03  0.50400001928E-02 0.  1.
        1   -1    0    0  501    0  0.00000000000E+00  0.00000000000E+00 -0.19809818192E+04  0.19809818192E+04  0.50400001928E-02 0. -1.
    10030    2    1    2    0    0  0.00000000000E+00  0.00000000000E+00 -0.10274368397E+04  0.29345267987E+04  0.27487853813E+04 0.  0.
        5    1    3    3  502    0 -0.75168728645E+03  0.44922142756E+03  0.61715223311E+03  0.10713228442E+04  0.46999998093E+01 0.  1.
       -5    1    3    3    0  502  0.75168728645E+03 -0.44922142756E+03 -0.16445890728E+04  0.18632039545E+04  0.46999998093E+01 0. -1.
</event>
<event>
 5   0  0.1330962E-05  0.2787982E+04  0.7818609E-02  0.8307009E-01
       -2   -1    0    0    0  501  0.00000000000E+00  0.00000000000E+00  0.12038558271E+04  0.12038558271E+04  0.25500000920E-02 0. -1.
        2   -1    0    0  501    0  0.00000000000E+00  0.00000000000E+00 -0.16141557185E+04  0.16141557185E+04  0.25500000920E-02 0.  1.
    10030    2    1    2    0    0  0.00000000000E+00  0.00000000000E+00 -0.41029989143E+03  0.28180115456E+04  0.27879818991E+04 0.  0.
        4    1    3    3  502    0  0.11549372270E+04  0.44411230369E+03 -0.85400943033E+03  0.15034791175E+04  0.12699999809E+01 0.  1.
       -4    1    3    3    0  502 -0.11549372270E+04 -0.44411230369E+03  0.44370953890E+03  0.13145324281E+04  0.12699999809E+01 0. -1.
</event>
<event>
 5   0  0.5023691E-06  0.2802071E+04  0.7818609E-02  0.8302626E-01
        1   -1    0    0  501    0  0.00000000000E+00  0.00000000000E+00  0.18591522486E+04  0.18591522486E+04  0.50400001928E-02 0.  1.
       -1   -1    0    0    0  501  0.00000000000E+00  0.00000000000E+00 -0.10558041439E+04  0.10558041439E+04  0.50400001928E-02 0. -1.
    10030    2    1    2    0    0  0.00000000000E+00  0.00000000000E+00  0.80334810473E+03  0.29149563925E+04  0.28020711256E+04 0.  0.
        5    1    3    3  502    0 -0.82468468023E+03  0.95273837109E+03  0.10387705408E+04  0.16330589555E+04  0.46999998093E+01 0.  1.
       -5    1    3    3    0  502  0.82468468023E+03 -0.95273837109E+03 -0.23542243611E+03  0.12818974370E+04  0.46999998093E+01 0. -1.
</event>
<event>
 5   0  0.1388269E-05  0.2756160E+04  0.7818609E-02  0.8317010E-01
        2   -1    0    0  501    0  0.00000000000E+00  0.00000000000E+00  0.20010562076E+04  0.20010562076E+04  0.25500000920E-02 0.  1.
       -2   -1    0    0    0  501  0.00000000000E+00  0.00000000000E+00 -0.94905127070E+03  0.94905127070E+03  0.25500000920E-02 0. -1.
    10030    2    1    2    0    0  0.00000000000E+00  0.00000000000E+00  0.10520049369E+04  0.29501074783E+04  0.27561603267E+04 0.  0.
        1    1    3    3  502    0 -0.79578018245E+03  0.98771527726E+03  0.11026693212E+04  0.16806924762E+04  0.50400001928E-02 0. -1.
       -1    1    3    3    0  502  0.79578018245E+03 -0.98771527726E+03 -0.50664384253E+02  0.12694150021E+04  0.50400001928E-02 0.  1.
</event>
<event>
 5   0  0.5023691E-06  0.2777641E+04  0.7818609E-02  0.8310244E-01
       -1   -1    0    0    0  501  0.00000000000E+00  0.00000000000E+00  0.93088669976E+03  0.93088669978E+03  0.50400001928E-02 0. -1.
        1   -1    0    0  501    0  0.00000000000E+00  0.00000000000E+00 -0.20720269763E+04  0.20720269763E+04  0.50400001928E-02 0.  1.
    10030    2    1    2    0    0  0.00000000000E+00  0.00000000000E+00 -0.11411402766E+04  0.30029136761E+04  0.27776409803E+04 0.  0.
        5    1    3    3  502    0 -0.19427431177E+03  0.67423888543E+03  0.72515670837E+03  0.10090663628E+04  0.46999998093E+01 0. -1.
       -5    1    3    3    0  502  0.19427431177E+03 -0.67423888543E+03 -0.18662969849E+04  0.19938473133E+04  0.46999998093E+01 0.  1.
</event>
<event>
 5   0  0.4764214E-06  0.2797060E+04  0.7818609E-02  0.8304182E-01
        1   -1    0    0  501    0  0.00000000000E+00  0.00000000000E+00  0.11908677354E+04  0.11908677354E+04  0.50400001928E-02 0. -1.
       -1   -1    0    0    0  501  0.00000000000E+00  0.00000000000E+00 -0.16424037632E+04  0.16424037632E+04  0.50400001928E-02 0.  1.
    10030    2    1    2    0    0  0.00000000000E+00  0.00000000000E+00 -0.45153602784E+03  0.28332714986E+04  0.27970596347E+04 0.  0.
        3    1    3    3  502    0 -0.10961897836E+04  0.53380186831E+03 -0.91969852646E+03  0.15272268548E+04  0.10100000352E+00 0.  1.
       -3    1    3    3    0  502  0.10961897836E+04 -0.53380186831E+03  0.46816249862E+03  0.13060446438E+04  0.10100000352E+00 0. -1.
</event>
<event>
 5   0  0.4764214E-06  0.2795538E+04  0.7818609E-02  0.8304655E-01
       -1   -1    0    0    0  501  0.00000000000E+00  0.00000000000E+00  0.10584700103E+04  0.10584700103E+04  0.50400001928E-02 0. -1.
        1   -1    0    0  501    0  0.00000000000E+00  0.00000000000E+00 -0.18458319126E+04  0.18458319126E+04  0.50400001928E-02 0.  1.
    10030    2    1    2    0    0  0.00000000000E+00  0.00000000000E+00 -0.78736190233E+03  0.29043019229E+04  0.27955376754E+04 0.  0.
        3    1    3    3  502    0  0.11937387314E+04  0.70226499135E+03 -0.58961725191E+03  0.15052696738E+04  0.10100000352E+00 0.  1.
       -3    1    3    3    0  502 -0.11937387314E+04 -0.70226499135E+03 -0.19774465042E+03  0.13990322491E+04  0.10100000352E+00 0. -1.
</event>
<event>
 5   0  0.5023691E-06  0.2856138E+04  0.7818609E-02  0.8286049E-01
        1   -1    0    0  501    0  0.00000000000E+00  0.00000000000E+00  0.18416508962E+04  0.18416508962E+04  0.50400001928E-02 0.  1.
       -1   -1    0    0    0  501  0.00000000000E+00  0.00000000000E+00 -0.11073655840E+04  0.11073655840E+04  0.50400001928E-02 0. -1.
    10030    2    1    2    0    0  0.00000000000E+00  0.00000000000E+00  0.73428531218E+03  0.29490164802E+04  0.28561378259E+04 0.  0.
        5    1    3    3  502    0 -0.89712594037E+03  0.10653638444E+04  0.41410075408E+02  0.13934030135E+04  0.46999998093E+01 0.  1.
       -5    1    3    3    0  502  0.89712594037E+03 -0.10653638444E+04  0.69287523678E+03  0.15556134666E+04  0.46999998093E+01 0. -1.
</event>
<event>
 5   0  0.1330962E-05  0.2808080E+04  0.7818609E-02  0.8300764E-01
        2   -1    0    0  501    0  0.00000000000E+00  0.00000000000E+00  0.14926152066E+04  0.14926152066E+04  0.25500000920E-02 0. -1.
       -2   -1    0    0    0  501  0.00000000000E+00  0.00000000000E+00 -0.13207212167E+04  0.13207212167E+04  0.25500000920E-02 0.  1.
    10030    2    1    2    0    0  0.00000000000E+00  0.00000000000E+00  0.17189398990E+03  0.28133364233E+04  0.28080801782E+04 0.  0.
        4    1    3    3  502    0  0.39210661143E+03  0.11362884040E+04 -0.64096471751E+03  0.13622541297E+04  0.12699999809E+01 0.  1.
       -4    1    3    3    0  502 -0.39210661143E+03 -0.11362884040E+04  0.81285870741E+03  0.14510822937E+04  0.12699999809E+01 0. -1.
</event>
<event>
 5   0  0.1350863E-05  0.2763306E+04  0.7818609E-02  0.8314752E-01
       -2   -1    0    0    0  501  0.00000000000E+00  0.00000000000E+00  0.20085712825E+04  0.20085712825E+04  0.25500000920E-02 0. -1.
        2   -1    0    0  501    0  0.00000000000E+00  0.00000000000E+00 -0.95040915925E+03  0.95040915926E+03  0.25500000920E-02 0.  1.
    10030    2    1    2    0    0  0.00000000000E+00  0.00000000000E+00  0.10581621232E+04  0.29589804417E+04  0.27633056609E+04 0.  0.
        3    1    3    3  502    0 -0.75222654866E+03  0.11524952349E+04  0.39848377281E+03  0.14327872747E+04  0.10100000352E+00 0.  1.
       -3    1    3    3    0  502  0.75222654866E+03 -0.11524952349E+04  0.65967835041E+03  0.15261931671E+04  0.10100000352E+00 0. -1.
</event>
<event>
 5   0  0.1302063E-05  0.2792930E+04  0.7818609E-02  0.8305467E-01
        2   -1    0    0  501    0  0.00000000000E+00  0.00000000000E+00  0.20186426347E+04  0.20186426347E+04  0.25500000920E-02 0.  1.
       -2   -1    0    0    0  501  0.00000000000E+00  0.00000000000E+00 -0.96605247745E+03  0.96605247745E+03  0.25500000920E-02 0. -1.
    10030    2    1    2    0    0  0.00000000000E+00  0.00000000000E+00  0.10525901572E+04  0.29846951121E+04  0.27929301590E+04 0.  0.
        2    1    3    3  502    0  0.91201227860E+03  0.53619650857E+03  0.15003849379E+04  0.18358725593E+04  0.25500000920E-02 0.  1.
       -2    1    3    3    0  502 -0.91201227860E+03 -0.53619650857E+03 -0.44779478072E+03  0.11488225528E+04  0.25500000920E-02 0. -1.
</event>
<event>
 5   0  0.1388269E-05  0.2841277E+04  0.7818609E-02  0.8290567E-01
       -2   -1    0    0    0  501  0.00000000000E+00  0.00000000000E+00  0.20900313243E+04  0.20900313243E+04  0.25500000920E-02 0. -1.
        2   -1    0    0  501    0  0.00000000000E+00  0.00000000000E+00 -0.96563782731E+03  0.96563782731E+03  0.25500000920E-02 0.  1.
    10030    2    1    2    0    0  0.00000000000E+00  0.00000000000E+00  0.11243934970E+04  0.30556691516E+04  0.28412766898E+04 0.  0.
        1    1    3    3  502    0  0.11620982852E+04  0.81624227237E+03  0.60370205640E+03  0.15431072693E+04  0.50400001928E-02 0. -1.
       -1    1    3    3    0  502 -0.11620982852E+04 -0.81624227237E+03  0.52069144062E+03  0.15125618824E+04  0.50400001928E-02 0.  1.
</event>
<event>
 5   0  0.1283052E-05  0.2753093E+04  0.7818609E-02  0.8317981E-01
        2   -1    0    0  501    0  0.00000000000E+00  0.00000000000E+00  0.16590512421E+04  0.16590512421E+04  0.25500000920E-02 0. -1.
       -2   -1    0    0    0  501  0.00000000000E+00  0.00000000000E+00 -0.11421473143E+04  0.11421473143E+04  0.25500000920E-02 0.  1.
    10030    2    1    2    0    0  0.00000000000E+00  0.00000000000E+00  0.51690392783E+03  0.28011985564E+04  0.27530934749E+04 0.  0.
        5    1    3    3  502    0 -0.79208635500E+02  0.91059812031E+03 -0.78880215644E+03  0.12073499396E+04  0.46999998093E+01 0.  1.
       -5    1    3    3    0  502  0.79208635500E+02 -0.91059812031E+03  0.13057060843E+04  0.15938486168E+04  0.46999998093E+01 0. -1.
</event>
<event>
 5   0  0.1350863E-05  0.3044941E+04  0.7818609E-02  0.8231013E-01
        2   -1    0    0  501    0  0.00000000000E+00  0.00000000000E+00  0.12062501140E+04  0.12062501140E+04  0.25500000920E-02 0. -1.
       -2   -1    0    0    0  501  0.00000000000E+00  0.00000000000E+00 -0.19215889456E+04  0.19215889456E+04  0.25500000920E-02 0.  1.
    10030    2    1    2    0    0  0.00000000000E+00  0.00000000000E+00 -0.71533883159E+03  0.31278390597E+04  0.30449413031E+04 0.  0.
        3    1    3    3  502    0 -0.99749598381E+03 -0.10224565161E+04  0.18345607417E+03  0.14401637776E+04  0.10100000352E+00 0.  1.
       -3    1    3    3    0  502  0.99749598381E+03  0.10224565161E+04 -0.89879490576E+03  0.16876752821E+04  0.10100000352E+00 0. -1.
</event>
<event>
 5   0  0.5217999E-06  0.2781854E+04  0.7818609E-02  0.8308924E-01
        1   -1    0    0  501    0  0.00000000000E+00  0.00000000000E+00  0.21419667967E+04  0.21419667967E+04  0.50400001928E-02 0.  1.
       -1   -1    0    0    0  501  0.00000000000E+00  0.00000000000E+00 -0.90322522523E+03  0.90322522524E+03  0.50400001928E-02 0. -1.
    10030    2    1    2    0    0  0.00000000000E+00  0.00000000000E+00  0.12387415715E+04  0.30451920220E+04  0.27818543761E+04 0.  0.
        1    1    3    3  502    0 -0.47578544577E+02  0.89007144852E+03 -0.54950520195E+03  0.10471135890E+04  0.50400001928E-02 0. -1.
       -1    1    3    3    0  502  0.47578544577E+02 -0.89007144852E+03  0.17882467734E+04  0.19980784329E+04  0.50400001928E-02 0.  1.
</event>
<event>
 5   0  0.4764214E-06  0.2726510E+04  0.7818609E-02  0.8326454E-01
       -1   -1    0    0    0  501  0.00000000000E+00  0.00000000000E+00  0.78243939442E+03  0.78243939444E+03  0.50400001928E-02 0. -1.
        1   -1    0    0  501    0  0.00000000000E+00  0.00000000000E+00 -0.23752182438E+04  0.23752182438E+04  0.50400001928E-02 0.  1.
    10030    2    1    2    0    0  0.00000000000E+00  0.00000000000E+00 -0.15927788494E+04  0.31576576383E+04  0.27265100949E+04 0.  0.
        3    1    3    3  502    0 -0.79550327532E+03 -0.10042815374E+04 -0.25682255444E+03  0.13066616632E+04  0.10100000352E+00 0.  1.
       -3    1    3    3    0  502  0.79550327532E+03  0.10042815374E+04 -0.13359562950E+04  0.18509959751E+04  0.10100000352E+00 0. -1.
</event>
<event>
 5   0  0.5023691E-06  0.2668836E+04  0.7818609E-02  0.8345188E-01
        1   -1    0    0  501    0  0.00000000000E+00  0.00000000000E+00  0.19718762698E+04  0.19718762698E+04  0.50400001928E-02 0. -1.
       -1   -1    0    0    0  501  0.00000000000E+00  0.00000000000E+00 -0.90303378538E+03  0.90303378540E+03  0.50400001928E-02 0.  1.
    10030    2    1    2    0    0  0.00000000000E+00  0.00000000000E+00  0.10688424844E+04  0.28749100552E+04  0.26688356204E+04 0.  0.
        5    1    3    3  502    0  0.60649754608E+03 -0.22848689848E+03  0.17909377279E+04  0.19046064085E+04  0.46999998093E+01 0. -1.
       -5    1    3    3    0  502 -0.60649754608E+03  0.22848689848E+03 -0.72209524346E+03  0.97030364670E+03  0.46999998093E+01 0.  1.
</event>
<event>
 5   0  0.4764214E-06  0.2840788E+04  0.7818609E-02  0.8290716E-01
        1   -1    0    0  501    0  0.00000000000E+00  0.00000000000E+00  0.17859853074E+04  0.17859853074E+04  0.50400001928E-02 0. -1.
       -1   -1    0    0    0  501  0.00000000000E+00  0.00000000000E+00 -0.11296388910E+04  0.11296388910E+04  0.50400001928E-02 0.  1.
    10030    2    1    2    0    0  0.00000000000E+00  0.00000000000E+00  0.65634641639E+03  0.29156241984E+04  0.28407875401E+04 0.  0.
        3    1    3    3  502    0 -0.93710803634E+03 -0.35514166660E+03  0.13612793977E+04  0.16903782665E+04  0.10100000352E+00 0. -1.
       -3    1    3    3    0  502  0.93710803634E+03  0.35514166660E+03 -0.70493298133E+03  0.12252459318E+04  0.10100000352E+00 0.  1.
</event>
<event>
 5   0  0.1302063E-05  0.2742133E+04  0.7818609E-02  0.8321462E-01
        2   -1    0    0  501    0  0.00000000000E+00  0.00000000000E+00  0.20807386254E+04  0.20807386254E+04  0.25500000920E-02 0.  1.
       -2   -1    0    0    0  501  0.00000000000E+00  0.00000000000E+00 -0.90344015049E+03  0.90344015049E+03  0.25500000920E-02 0. -1.
    10030    2    1    2    0    0  0.00000000000E+00  0.00000000000E+00  0.11772984749E+04  0.29841787759E+04  0.27421326130E+04 0.  0.
        2    1    3    3  502    0 -0.11573351407E+04 -0.63972739774E+03  0.19454088501E+03  0.13366083672E+04  0.25500000920E-02 0.  1.
       -2    1    3    3    0  502  0.11573351407E+04  0.63972739774E+03  0.98275758989E+03  0.16475704087E+04  0.25500000920E-02 0. -1.
</event>
<event>
 5   0  0.1350863E-05  0.2740350E+04  0.7818609E-02  0.8322030E-01
       -2   -1    0    0    0  501  0.00000000000E+00  0.00000000000E+00  0.90830846986E+03  0.90830846987E+03  0.25500000920E-02 0. -1.
        2   -1    0    0  501    0  0.00000000000E+00  0.00000000000E+00 -0.20668966182E+04  0.20668966182E+04  0.25500000920E-02 0.  1.
    10030    2    1    2    0    0  0.00000000000E+00  0.00000000000E+00 -0.11585881484E+04  0.29752050881E+04  0.27403501270E+04 0.  0.
        3    1    3    3  502    0 -0.61519646105E+03  0.11988700511E+04 -0.30977815725E+03  0.13826491247E+04  0.10100000352E+00 0. -1.
       -3    1    3    3    0  502  0.61519646105E+03 -0.11988700511E+04 -0.84880999111E+03  0.15925559634E+04  0.10100000352E+00 0.  1.
</event>
<event>
 5   0  0.4764214E-06  0.2658846E+04  0.7818609E-02  0.8348483E-01
       -1   -1    0    0    0  501  0.00000000000E+00  0.00000000000E+00  0.10579799766E+04  0.10579799766E+04  0.50400001928E-02 0. -1.
        1   -1    0    0  501    0  0.00000000000E+00  0.00000000000E+00 -0.16705096784E+04  0.16705096784E+04  0.50400001928E-02 0.  1.
    10030    2    1    2    0    0  0.00000000000E+00  0.00000000000E+00 -0.61252970177E+03  0.27284896550E+04  0.26588462088E+04 0.  0.
        3    1    3    3  502    0  0.56114310261E+03  0.34832360217E+03  0.87771247610E+03  0.10984489585E+04  0.10100000352E+00 0. -1.
       -3    1    3    3    0  502 -0.56114310261E+03 -0.34832360217E+03 -0.14902421779E+04  0.16300406965E+04  0.10100000352E+00 0.  1.
</event>
<event>
 5   0  0.5107453E-06  0.2742380E+04  0.7818609E-02  0.8321384E-01
       -1   -1    0    0    0  501  0.00000000000E+00  0.00000000000E+00  0.15928539946E+04  0.15928539946E+04  0.50400001928E-02 0. -1.
        1   -1    0    0  501    0  0.00000000000E+00  0.00000000000E+00 -0.11803735270E+04  0.11803735271E+04  0.50400001928E-02 0.  1.
    10030    2    1    2    0    0  0.00000000000E+00  0.00000000000E+00  0.41248046760E+03  0.27732275217E+04  0.27423804898E+04 0.  0.
        2    1    3    3  502    0 -0.94214125710E+03  0.79730471860E+02  0.12104742211E+04  0.15359801224E+04  0.25500000920E-02 0. -1.
       -2    1    3    3    0  502  0.94214125710E+03 -0.79730471860E+02 -0.79799375349E+03  0.12372473993E+04  0.25500000920E-02 0.  1.
</event>
<event>
 5   0  0.1302063E-05  0.2849357E+04  0.7818609E-02  0.8288107E-01
        2   -1    0    0  501    0  0.00000000000E+00  0.00000000000E+00  0.15651589806E+04  0.15651589806E+04  0.25500000920E-02 0.  1.
       -2   -1    0    0    0  501  0.00000000000E+00  0.00000000000E+00 -0.12968067981E+04  0.12968067981E+04  0.25500000920E-02 0. -1.
    10030    2    1    2    0    0  0.00000000000E+00  0.00000000000E+00  0.26835218250E+03  0.28619657787E+04  0.28493569844E+04 0.  0.
        2    1    3    3  502    0  0.90642668172E+01 -0.13022808568E+04  0.71439243726E+03  0.14853868672E+04  0.25500000920E-02 0.  1.
       -2    1    3    3    0  502 -0.90642668172E+01  0.13022808568E+04 -0.44604025476E+03  0.13765789115E+04  0.25500000920E-02 0. -1.
</event>
<event>
 5   0  0.5281919E-06  0.2816710E+04  0.7818609E-02  0.8298099E-01
       -1   -1    0    0    0  501  0.00000000000E+00  0.00000000000E+00  0.15231755590E+04  0.15231755591E+04  0.50400001928E-02 0.  1.
        1   -1    0    0  501    0  0.00000000000E+00  0.00000000000E+00 -0.13021899179E+04  0.13021899179E+04  0.50400001928E-02 0. -1.
    10030    2    1    2    0    0  0.00000000000E+00  0.00000000000E+00  0.22098564111E+03  0.28253654770E+04  0.28167100357E+04 0.  0.
        4    1    3    3  502    0 -0.84370689036E+03  0.11276448967E+04  0.11666913136E+03  0.14131658179E+04  0.12699999809E+01 0.  1.
       -4    1    3    3    0  502  0.84370689036E+03 -0.11276448967E+04  0.10431650976E+03  0.14121996590E+04  0.12699999809E+01 0. -1.
</event>
<event>
 5   0  0.1388269E-05  0.2738316E+04  0.7818609E-02  0.8322679E-01
        2   -1    0    0  501    0  0.00000000000E+00  0.00000000000E+00  0.11891071156E+04  0.11891071156E+04  0.25500000920E-02 0.  1.
       -2   -1    0    0    0  501  0.00000000000E+00  0.00000000000E+00 -0.15764714093E+04  0.15764714093E+04  0.25500000920E-02 0. -1.
    10030    2    1    2    0    0  0.00000000000E+00  0.00000000000E+00 -0.38736429370E+03  0.27655785249E+04  0.27383158111E+04 0.  0.
        1    1    3    3  502    0 -0.48592835239E+03 -0.31758869399E+03  0.10586651153E+04  0.12073776412E+04  0.50400001928E-02 0.  1.
       -1    1    3    3    0  502  0.48592835239E+03  0.31758869399E+03 -0.14460294090E+04  0.15582008837E+04  0.50400001928E-02 0. -1.
</event>
<event>
 5   0  0.5281919E-06  0.2809037E+04  0.7818609E-02  0.8300468E-01
        1   -1    0    0  501    0  0.00000000000E+00  0.00000000000E+00  0.24286782382E+04  0.24286782382E+04  0.50400001928E-02 0.  1.
       -1   -1    0    0    0  501  0.00000000000E+00  0.00000000000E+00 -0.81224132677E+03  0.81224132679E+03  0.50400001928E-02 0. -1.
    10030    2    1    2    0    0  0.00000000000E+00  0.00000000000E+00  0.16164369114E+04  0.32409195650E+04  0.28090374398E+04 0.  0.
        4    1    3    3  502    0 -0.45743019196E+03  0.11202291610E+04 -0.14521916436E+02  0.12101108431E+04  0.12699999809E+01 0. -1.
       -4    1    3    3    0  502  0.45743019196E+03 -0.11202291610E+04  0.16309588278E+04  0.20308087218E+04  0.12699999809E+01 0.  1.
</event>
<event>
 5   0  0.4764214E-06  0.2769768E+04  0.7818609E-02  0.8312716E-01
        1   -1    0    0  501    0  0.00000000000E+00  0.00000000000E+00  0.25758599763E+04  0.25758599763E+04  0.50400001928E-02 0. -1.
       -1   -1    0    0    0  501  0.00000000000E+00  0.00000000000E+00 -0.74456838887E+03  0.74456838889E+03  0.50400001928E-02 0.  1.
    10030    2    1    2    0    0  0.00000000000E+00  0.00000000000E+00  0.18312915874E+04  0.33204283652E+04  0.27697681582E+04 0.  0.
        3    1    3    3  502    0  0.11262342045E+03  0.81282858014E+03 -0.42172953228E+03  0.92262134385E+03  0.10100000352E+00 0.  1.
       -3    1    3    3    0  502 -0.11262342045E+03 -0.81282858014E+03  0.22530211197E+04  0.23978070213E+04  0.10100000352E+00 0. -1.
</event>
<event>
 5   0  0.5107453E-06  0.2813863E+04  0.7818609E-02  0.8298977E-01
        1   -1    0    0  501    0  0.00000000000E+00  0.00000000000E+00  0.23488908775E+04  0.23488908775E+04  0.50400001928E-02 0.  1.
       -1   -1    0    0    0  501  0.00000000000E+00  0.00000000000E+00 -0.84271980085E+03  0.84271980087E+03  0.50400001928E-02 0. -1.
    10030    2    1    2    0    0  0.00000000000E+00  0.00000000000E+00  0.15061710767E+04  0.31916106784E+04  0.28138634314E+04 0.  0.
        2    1    3    3  502    0  0.66127134944E+03 -0.94953712353E+03  0.16608758626E+04  0.20242058140E+04  0.25500000920E-02 0.  1.
       -2    1    3    3    0  502 -0.66127134944E+03  0.94953712353E+03 -0.15470478594E+03  0.11674048644E+04  0.25500000920E-02 0. -1.
</event>
<event>
 5   0  0.1388269E-05  0.2772581E+04  0.7818609E-02  0.8311832E-01
        2   -1    0    0  501    0  0.00000000000E+00  0.00000000000E+00  0.87587475124E+03  0.87587475125E+03  0.25500000920E-02 0.  1.
       -2   -1    0    0    0  501  0.00000000000E+00  0.00000000000E+00 -0.21941501040E+04  0.21941501040E+04  0.25500000920E-02 0. -1.
    10030    2    1    2    0    0  0.00000000000E+00  0.00000000000E+00 -0.13182753528E+04  0.30700248552E+04  0.27725805139E+04 0.  0.
        1    1    3    3  502    0 -0.34127994795E+03 -0.63528821113E+03  0.65182727385E+03  0.97208122553E+03  0.50400001928E-02 0.  1.
       -1    1    3    3    0  502  0.34127994795E+03  0.63528821113E+03 -0.19701026266E+04  0.20979436297E+04  0.50400001928E-02 0. -1.
</event>
<event>
 5   0  0.1283052E-05  0.2824262E+04  0.7818609E-02  0.8295775E-01
        2   -1    0    0  501    0  0.00000000000E+00  0.00000000000E+00  0.15132818305E+04  0.15132818305E+04  0.25500000920E-02 0.  1.
       -2   -1    0    0    0  501  0.00000000000E+00  0.00000000000E+00 -0.13177413495E+04  0.13177413495E+04  0.25500000920E-02 0. -1.
    10030    2    1    2    0    0  0.00000000000E+00  0.00000000000E+00  0.19554048100E+03  0.28310231799E+04  0.28242620568E+04 0.  0.
        5    1    3    3  502    0 -0.66801980124E+03  0.24504910471E+03 -0.11249007458E+04  0.13310609664E+04  0.46999998093E+01 0. -1.
       -5    1    3    3    0  502  0.66801980124E+03 -0.24504910471E+03  0.13204412268E+04  0.14999622135E+04  0.46999998093E+01 0.  1.
</event>
<event>
 5   0  0.5023691E-06  0.2393091E+04  0.7818609E-02  0.8442095E-01
       -1   -1    0    0    0  501  0.00000000000E+00  0.00000000000E+00  0.10481217678E+04  0.10481217678E+04  0.50400001928E-02 0. -1.
        1   -1    0    0  501    0  0.00000000000E+00  0.00000000000E+00 -0.13659875237E+04  0.13659875237E+04  0.50400001928E-02 0.  1.
    10030    2    1    2    0    0  0.00000000000E+00  0.00000000000E+00 -0.31786575585E+03  0.24141092915E+04  0.23930911041E+04 0.  0.
        5    1    3    3  502    0 -0.61365194598E+03 -0.83606202370E+03 -0.76094111318E+03  0.12863210664E+04  0.46999998093E+01 0.  1.
       -5    1    3    3    0  502  0.61365194598E+03  0.83606202370E+03  0.44307535733E+03  0.11277882250E+04  0.46999998093E+01 0. -1.
</event>
<event>
 5   0  0.1330962E-05  0.2799550E+04  0.7818609E-02  0.8303408E-01
        2   -1    0    0  501    0  0.00000000000E+00  0.00000000000E+00  0.12582193589E+04  0.12582193589E+04  0.25500000920E-02 0. -1.
       -2   -1    0    0    0  501  0.00000000000E+00  0.00000000000E+00 -0.15572559097E+04  0.15572559097E+04  0.25500000920E-02 0.  1.
    10030    2    1    2    0    0  0.00000000000E+00  0.00000000000E+00 -0.29903655079E+03  0.28154752686E+04  0.27995496297E+04 0.  0.
        4    1    3    3  502    0 -0.11875351263E+03 -0.29862508897E+03  0.12206152562E+04  0.12622133564E+04  0.12699999809E+01 0. -1.
       -4    1    3    3    0  502  0.11875351263E+03  0.29862508897E+03 -0.15196518070E+04  0.15532619122E+04  0.12699999809E+01 0.  1.
</event>
<event>
 5   0  0.5217999E-06  0.2846336E+04  0.7818609E-02  0.8289026E-01
        1   -1    0    0  501    0  0.00000000000E+00  0.00000000000E+00  0.11956533835E+04  0.11956533835E+04  0.50400001928E-02 0.  1.
       -1   -1    0    0    0  501  0.00000000000E+00  0.00000000000E+00 -0.16939751991E+04  0.16939751991E+04  0.50400001928E-02 0. -1.
    10030    2    1    2    0    0  0.00000000000E+00  0.00000000000E+00 -0.49832181558E+03  0.28896285826E+04  0.28463360155E+04 0.  0.
        1    1    3    3  502    0  0.19295217767E+03  0.12573124177E+04  0.39878017284E+03  0.13330756486E+04  0.50400001928E-02 0.  1.
       -1    1    3    3    0  502 -0.19295217767E+03 -0.12573124177E+04 -0.89710198841E+03  0.15565529340E+04  0.50400001928E-02 0. -1.
</event>
<event>
 5   0  0.5023691E-06  0.2802252E+04  0.7818609E-02  0.8302569E-01
        1   -1    0    0  501    0  0.00000000000E+00  0.00000000000E+00  0.20316397607E+04  0.20316397607E+04  0.50400001928E-02 0. -1.
       -1   -1    0    0    0  501  0.00000000000E+00  0.00000000000E+00 -0.96629066366E+03  0.96629066368E+03  0.50400001928E-02 0.  1.
    10030    2    1    2    0    0  0.00000000000E+00  0.00000000000E+00  0.10653490970E+04  0.29979304244E+04  0.28022523317E+04 0.  0.
        5    1    3    3  502    0 -0.27091914491E+03 -0.11118578898E+04  0.13975220388E+04  0.18062987265E+04  0.46999998093E+01 0. -1.
       -5    1    3    3    0  502  0.27091914491E+03  0.11118578898E+04 -0.33217294182E+03  0.11916316979E+04  0.46999998093E+01 0.  1.
</event>
<event>
 5   0  0.5107453E-06  0.2785379E+04  0.7818609E-02  0.8307822E-01
        1   -1    0    0  501    0  0.00000000000E+00  0.00000000000E+00  0.29378018947E+04  0.29378018947E+04  0.50400001928E-02 0. -1.
       -1   -1    0    0    0  501  0.00000000000E+00  0.00000000000E+00 -0.66021608523E+03  0.66021608525E+03  0.50400001928E-02 0.  1.
    10030    2    1    2    0    0  0.00000000000E+00  0.00000000000E+00  0.22775858095E+04  0.35980179799E+04  0.27853790163E+04 0.  0.
        2    1    3    3  502    0  0.67458799789E+03  0.93354487475E+03  0.12741728913E+03  0.11587968613E+04  0.25500000920E-02 0.  1.
       -2    1    3    3    0  502 -0.67458799789E+03 -0.93354487475E+03  0.21501685203E+04  0.24392211187E+04  0.25500000920E-02 0. -1.
</event>
<event>
 5   0  0.5107453E-06  0.2825334E+04  0.7818609E-02  0.8295446E-01
        1   -1    0    0  501    0  0.00000000000E+00  0.00000000000E+00  0.18044984445E+04  0.18044984445E+04  0.50400001928E-02 0.  1.
       -1   -1    0    0    0  501  0.00000000000E+00  0.00000000000E+00 -0.11059182656E+04  0.11059182656E+04  0.50400001928E-02 0. -1.
    10030    2    1    2    0    0  0.00000000000E+00  0.00000000000E+00  0.69858017892E+03  0.29104167102E+04  0.28253338140E+04 0.  0.
        2    1    3    3  502    0  0.87322857182E+03 -0.11085239045E+04  0.41663785984E+03  0.14713736751E+04  0.25500000920E-02 0.  1.
       -2    1    3    3    0  502 -0.87322857182E+03  0.11085239045E+04  0.28194231908E+03  0.14390430351E+04  0.25500000920E-02 0. -1.
</event>
<event>
 5   0  0.5023691E-06  0.2702699E+04  0.7818609E-02  0.8334130E-01
        1   -1    0    0  501    0  0.00000000000E+00  0.00000000000E+00  0.17532383046E+04  0.17532383046E+04  0.50400001928E-02 0.  1.
       -1   -1    0    0    0  501  0.00000000000E+00  0.00000000000E+00 -0.10415839614E+04  0.10415839615E+04  0.50400001928E-02 0. -1.
    10030    2    1    2    0    0  0.00000000000E+00  0.00000000000E+00  0.71165434319E+03  0.27948222661E+04  0.27026985764E+04 0.  0.
        5    1    3    3  502    0 -0.48208835229E+03  0.11525845776E+03 -0.94417504520E+03  0.10663874987E+04  0.46999998093E+01 0. -1.
       -5    1    3    3    0  502  0.48208835229E+03 -0.11525845776E+03  0.16558293884E+04  0.17284347673E+04  0.46999998093E+01 0.  1.
</event>
<event>
 5   0  0.5023691E-06  0.2797384E+04  0.7818609E-02  0.8304081E-01
       -1   -1    0    0    0  501  0.00000000000E+00  0.00000000000E+00  0.12302710468E+04  0.12302710468E+04  0.50400001928E-02 0.  1.
        1   -1    0    0  501    0  0.00000000000E+00  0.00000000000E+00 -0.15901698421E+04  0.15901698421E+04  0.50400001928E-02 0. -1.
    10030    2    1    2    0    0  0.00000000000E+00  0.00000000000E+00 -0.35989879527E+03  0.28204408889E+04  0.27973844329E+04 0.  0.
        5    1    3    3  502    0 -0.89310911356E+03  0.38349267778E+03 -0.11940261497E+04  0.15396204269E+04  0.46999998093E+01 0. -1.
       -5    1    3    3    0  502  0.89310911356E+03 -0.38349267778E+03  0.83412735444E+03  0.12808204621E+04  0.46999998093E+01 0.  1.
</event>
<event>
 5   0  0.5107453E-06  0.2801809E+04  0.7818609E-02  0.8302707E-01
       -1   -1    0    0    0  501  0.00000000000E+00  0.00000000000E+00  0.16656468420E+04  0.16656468421E+04  0.50400001928E-02 0.  1.
        1   -1    0    0  501    0  0.00000000000E+00  0.00000000000E+00 -0.11782413117E+04  0.11782413117E+04  0.50400001928E-02 0. -1.
    10030    2    1    2    0    0  0.00000000000E+00  0.00000000000E+00  0.48740553035E+03  0.28438881538E+04  0.28018093583E+04 0.  0.
        2    1    3    3  502    0 -0.60459670667E+02 -0.10465452062E+04  0.11869720623E+04  0.15836081956E+04  0.25500000920E-02 0.  1.
       -2    1    3    3    0  502  0.60459670667E+02  0.10465452062E+04 -0.69956653198E+03  0.12602799582E+04  0.25500000920E-02 0. -1.
</event>
<event>
 5   0  0.5107453E-06  0.2805975E+04  0.7818609E-02  0.8301416E-01
       -1   -1    0    0    0  501  0.00000000000E+00  0.00000000000E+00  0.10384629958E+04  0.10384629958E+04  0.50400001928E-02 0. -1.
        1   -1    0    0  501    0  0.00000000000E+00  0.00000000000E+00 -0.18954679055E+04  0.18954679056E+04  0.50400001928E-02 0.  1.
    10030    2    1    2    0    0  0.00000000000E+00  0.00000000000E+00 -0.85700490974E+03  0.29339309014E+04  0.28059745399E+04 0.  0.
        2    1    3    3  502    0  0.93284355157E+03 -0.36185655639E+03 -0.14568321710E+04  0.17673418553E+04  0.25500000920E-02 0.  1.
       -2    1    3    3    0  502 -0.93284355157E+03  0.36185655639E+03  0.59982726123E+03  0.11665890461E+04  0.25500000920E-02 0. -1.
</event>
<event>
 5   0  0.5107453E-06  0.2813411E+04  0.7818609E-02  0.8299117E-01
        1   -1    0    0  501    0  0.00000000000E+00  0.00000000000E+00  0.13444156954E+04  0.13444156954E+04  0.50400001928E-02 0. -1.
       -1   -1    0    0    0  501  0.00000000000E+00  0.00000000000E+00 -0.14718816389E+04  0.14718816389E+04  0.50400001928E-02 0.  1.
    10030    2    1    2    0    0  0.00000000000E+00  0.00000000000E+00 -0.12746594354E+03  0.28162973343E+04  0.28134112939E+04 0.  0.
        2    1    3    3  502    0 -0.22005022419E+03 -0.31242370024E+03 -0.14189275130E+04  0.14694849290E+04  0.25500000920E-02 0.  1.
       -2    1    3    3    0  502  0.22005022419E+03  0.31242370024E+03  0.12914615694E+04  0.13468124053E+04  0.25500000920E-02 0. -1.
</event>
<event>
 5   0  0.1388269E-05  0.2732776E+04  0.7818609E-02  0.8324448E-01
        2   -1    0    0  501    0  0.00000000000E+00  0.00000000000E+00  0.20965821676E+04  0.20965821676E+04  0.25500000920E-02 0.  1.
       -2   -1    0    0    0  501  0.00000000000E+00  0.00000000000E+00 -0.89050465150E+03  0.89050465151E+03  0.25500000920E-02 0. -1.
    10030    2    1    2    0    0  0.00000000000E+00  0.00000000000E+00  0.12060775161E+04  0.29870868191E+04  0.27327760044E+04 0.  0.
        1    1    3    3  502    0  0.13494510160E+04 -0.21232245348E+03  0.63614427380E+03  0.15069102183E+04  0.50400001928E-02 0. -1.
       -1    1    3    3    0  502 -0.13494510160E+04  0.21232245348E+03  0.56993324233E+03  0.14801766008E+04  0.50400001928E-02 0.  1.
</event>
<event>
 5   0  0.5023691E-06  0.2832387E+04  0.7818609E-02  0.8293283E-01
       -1   -1    0    0    0  501  0.00000000000E+00  0.00000000000E+00  0.88092896043E+03  0.88092896044E+03  0.50400001928E-02 0.  1.
        1   -1    0    0  501    0  0.00000000000E+00  0.00000000000E+00 -0.22766926398E+04  0.22766926398E+04  0.50400001928E-02 0. -1.
    10030    2    1    2    0    0  0.00000000000E+00  0.00000000000E+00 -0.13957636794E+04  0.31576216002E+04  0.28323873184E+04 0.  0.
        5    1    3    3  502    0 -0.31352940396E+03 -0.36625004400E+03 -0.21823786748E+04  0.22350030318E+04  0.46999998093E+01 0. -1.
       -5    1    3    3    0  502  0.31352940396E+03  0.36625004400E+03  0.78661499542E+03  0.92261856847E+03  0.46999998093E+01 0.  1.
</event>
<event>
 5   0  0.5107453E-06  0.2879631E+04  0.7818609E-02  0.8278964E-01
       -1   -1    0    0    0  501  0.00000000000E+00  0.00000000000E+00  0.97188328563E+03  0.97188328565E+03  0.50400001928E-02 0. -1.
        1   -1    0    0  501    0  0.00000000000E+00  0.00000000000E+00 -0.21330426872E+04  0.21330426872E+04  0.50400001928E-02 0.  1.
    10030    2    1    2    0    0  0.00000000000E+00  0.00000000000E+00 -0.11611594016E+04  0.31049259729E+04  0.28796309036E+04 0.  0.
        2    1    3    3  502    0  0.59148060598E+02  0.88568487826E+03 -0.18029093624E+04  0.20095816395E+04  0.25500000920E-02 0.  1.
       -2    1    3    3    0  502 -0.59148060598E+02 -0.88568487826E+03  0.64174996077E+03  0.10953443334E+04  0.25500000920E-02 0. -1.
</event>
<event>
 5   0  0.5217999E-06  0.2819823E+04  0.7818609E-02  0.8297140E-01
        1   -1    0    0  501    0  0.00000000000E+00  0.00000000000E+00  0.20003002428E+04  0.20003002428E+04  0.50400001928E-02 0.  1.
       -1   -1    0    0    0  501  0.00000000000E+00  0.00000000000E+00 -0.99377616880E+03  0.99377616881E+03  0.50400001928E-02 0. -1.
    10030    2    1    2    0    0  0.00000000000E+00  0.00000000000E+00  0.10065240740E+04  0.29940764116E+04  0.28198231943E+04 0.  0.
        1    1    3    3  502    0 -0.51277576805E+03  0.79229305360E+03 -0.60893215662E+03  0.11231498753E+04  0.50400001928E-02 0. -1.
       -1    1    3    3    0  502  0.51277576805E+03 -0.79229305360E+03  0.16154562306E+04  0.18709265363E+04  0.50400001928E-02 0.  1.
</event>
<event>
 5   0  0.1283052E-05  0.2165397E+04  0.7818609E-02  0.8532970E-01
       -2   -1    0    0    0  501  0.00000000000E+00  0.00000000000E+00  0.99405397595E+03  0.99405397595E+03  0.25500000920E-02 0.  1.
        2   -1    0    0  501    0  0.00000000000E+00  0.00000000000E+00 -0.11792482427E+04  0.11792482427E+04  0.25500000920E-02 0. -1.
    10030    2    1    2    0    0  0.00000000000E+00  0.00000000000E+00 -0.18519426674E+03  0.21733022187E+04  0.21653973347E+04 0.  0.
        5    1    3    3  502    0  0.66015520360E+02  0.10647909243E+04  0.92675107128E+02  0.10708634492E+04  0.46999998093E+01 0. -1.
       -5    1    3    3    0  502 -0.66015520360E+02 -0.10647909243E+04 -0.27786937387E+03  0.11024387694E+04  0.46999998093E+01 0.  1.
</event>
<event>
 5   0  0.1283052E-05  0.2809941E+04  0.7818609E-02  0.8300189E-01
        2   -1    0    0  501    0  0.00000000000E+00  0.00000000000E+00  0.21900612681E+04  0.21900612681E+04  0.25500000920E-02 0.  1.
       -2   -1    0    0    0  501  0.00000000000E+00  0.00000000000E+00 -0.90131843727E+03  0.90131843727E+03  0.25500000920E-02 0. -1.
    10030    2    1    2    0    0  0.00000000000E+00  0.00000000000E+00  0.12887428308E+04  0.30913797054E+04  0.28099413515E+04 0.  0.
        5    1    3    3  502    0 -0.13114980402E+04 -0.10536112118E+03  0.10227982387E+03  0.13197012266E+04  0.46999998093E+01 0. -1.
       -5    1    3    3    0  502  0.13114980402E+04  0.10536112118E+03  0.11864630069E+04  0.17716784787E+04  0.46999998093E+01 0.  1.
</event>
<event>
 5   0  0.1330962E-05  0.2865938E+04  0.7818609E-02  0.8283085E-01
       -2   -1    0    0    0  501  0.00000000000E+00  0.00000000000E+00  0.16387831012E+04  0.16387831012E+04  0.25500000920E-02 0.  1.
        2   -1    0    0  501    0  0.00000000000E+00  0.00000000000E+00 -0.12530032800E+04  0.12530032800E+04  0.25500000920E-02 0. -1.
    10030    2    1    2    0    0  0.00000000000E+00  0.00000000000E+00  0.38577982118E+03  0.28917863812E+04  0.28659383113E+04 0.  0.
        4    1    3    3  502    0 -0.20460108675E+03 -0.67422327110E+03  0.14519259112E+04  0.16138553493E+04  0.12699999809E+01 0.  1.
       -4    1    3    3    0  502  0.20460108675E+03  0.67422327110E+03 -0.10661460901E+04  0.12779310319E+04  0.12699999809E+01 0. -1.
</event>
<event>
 5   0  0.5023691E-06  0.2757865E+04  0.7818609E-02  0.8316470E-01
       -1   -1    0    0    0  501  0.00000000000E+00  0.00000000000E+00  0.11243193327E+04  0.11243193327E+04  0.50400001928E-02 0.  1.
        1   -1    0    0  501    0  0.00000000000E+00  0.00000000000E+00 -0.16912048175E+04  0.16912048175E+04  0.50400001928E-02 0. -1.
    10030    2    1    2    0    0  0.00000000000E+00  0.00000000000E+00 -0.56688548479E+03  0.28155241502E+04  0.27578645883E+04 0.  0.
        5    1    3    3  502    0 -0.11552280929E+04 -0.14895533984E+03  0.47002043527E+03  0.12560576975E+04  0.46999998093E+01 0.  1.
       -5    1    3    3    0  502  0.11552280929E+04  0.14895533984E+03 -0.10369059201E+04  0.15594664527E+04  0.46999998093E+01 0. -1.
</event>
<event>
 5   0  0.1302063E-05  0.2775641E+04  0.7818609E-02  0.8310871E-01
        2   -1    0    0  501    0  0.00000000000E+00  0.00000000000E+00  0.14155736801E+04  0.14155736801E+04  0.25500000920E-02 0.  1.
       -2   -1    0    0    0  501  0.00000000000E+00  0.00000000000E+00 -0.13606112858E+04  0.13606112858E+04  0.25500000920E-02 0. -1.
    10030    2    1    2    0    0  0.00000000000E+00  0.00000000000E+00  0.54962394328E+02  0.27761849660E+04  0.27756408450E+04 0.  0.
        2    1    3    3  502    0  0.66049578799E+03 -0.30312109686E+03  0.12100447556E+04  0.14115046567E+04  0.25500000920E-02 0.  1.
       -2    1    3    3    0  502 -0.66049578799E+03  0.30312109686E+03 -0.11550823612E+04  0.13646803093E+04  0.25500000920E-02 0. -1.
</event>
<event>
 5   0  0.5107453E-06  0.2555626E+04  0.7818609E-02  0.8383432E-01
        1   -1    0    0  501    0  0.00000000000E+00  0.00000000000E+00  0.10225904260E+04  0.10225904260E+04  0.50400001928E-02 0. -1.
       -1   -1    0    0    0  501  0.00000000000E+00  0.00000000000E+00 -0.15967356877E+04  0.15967356877E+04  0.50400001928E-02 0.  1.
    10030    2    1    2    0    0  0.00000000000E+00  0.00000000000E+00 -0.57414526168E+03  0.26193261137E+04  0.25556264415E+04 0.  0.
        2    1    3    3  502    0  0.22494146436E+03 -0.12284981103E+03  0.99597493413E+03  0.10284244298E+04  0.25500000920E-02 0. -1.
       -2    1    3    3    0  502 -0.22494146436E+03  0.12284981103E+03 -0.15701201958E+04  0.15909016839E+04  0.25500000920E-02 0.  1.
</event>
<event>
 5   0  0.1302063E-05  0.2832466E+04  0.7818609E-02  0.8293259E-01
       -2   -1    0    0    0  501  0.00000000000E+00  0.00000000000E+00  0.17703586420E+04  0.17703586420E+04  0.25500000920E-02 0. -1.
        2   -1    0    0  501    0  0.00000000000E+00  0.00000000000E+00 -0.11329430634E+04  0.11329430634E+04  0.25500000920E-02 0.  1.
    10030    2    1    2    0    0  0.00000000000E+00  0.00000000000E+00  0.63741557857E+03  0.29033017055E+04  0.28324657408E+04 0.  0.
        2    1    3    3  502    0  0.42303617503E+03  0.13204296351E+03 -0.10600413892E+04  0.11489485178E+04  0.25500000920E-02 0.  1.
       -2    1    3    3    0  502 -0.42303617503E+03 -0.13204296351E+03  0.16974569678E+04  0.17543531877E+04  0.25500000920E-02 0. -1.
</event>
<event>
 5   0  0.5023691E-06  0.2798014E+04  0.7818609E-02  0.8303885E-01
       -1   -1    0    0    0  501  0.00000000000E+00  0.00000000000E+00  0.14872769432E+04  0.14872769432E+04  0.50400001928E-02 0.  1.
        1   -1    0    0  501    0  0.00000000000E+00  0.00000000000E+00 -0.13159755675E+04  0.13159755675E+04  0.50400001928E-02 0. -1.
    10030    2    1    2    0    0  0.00000000000E+00  0.00000000000E+00  0.17130137571E+03  0.28032525107E+04  0.27980136664E+04 0.  0.
        5    1    3    3  502    0  0.72284192112E+03 -0.40546209768E+03 -0.10435345924E+04  0.13326239121E+04  0.46999998093E+01 0. -1.
       -5    1    3    3    0  502 -0.72284192112E+03  0.40546209768E+03  0.12148359681E+04  0.14706285986E+04  0.46999998093E+01 0.  1.
</event>
<event>
 5   0  0.1330962E-05  0.2731283E+04  0.7818609E-02  0.8324926E-01
       -2   -1    0    0    0  501  0.00000000000E+00  0.00000000000E+00  0.65666199582E+03  0.65666199583E+03  0.25500000920E-02 0.  1.
        2   -1    0    0  501    0  0.00000000000E+00  0.00000000000E+00 -0.28400857289E+04  0.28400857289E+04  0.25500000920E-02 0. -1.
    10030    2    1    2    0    0  0.00000000000E+00  0.00000000000E+00 -0.21834237331E+04  0.34967477247E+04  0.27312827485E+04 0.  0.
        4    1    3    3  502    0  0.60898088625E+03 -0.20352285622E+03 -0.26347793925E+04  0.27118892553E+04  0.12699999809E+01 0. -1.
       -4    1    3    3    0  502 -0.60898088625E+03  0.20352285622E+03  0.45135565945E+03  0.78485846943E+03  0.12699999809E+01 0.  1.
</event>
<event>
 5   0  0.5217999E-06  0.2799023E+04  0.7818609E-02  0.8303572E-01
        1   -1    0    0  501    0  0.00000000000E+00  0.00000000000E+00  0.16509235757E+04  0.16509235757E+04  0.50400001928E-02 0.  1.
       -1   -1    0    0    0  501  0.00000000000E+00  0.00000000000E+00 -0.11863859107E+04  0.11863859107E+04  0.50400001928E-02 0. -1.
    10030    2    1    2    0    0  0.00000000000E+00  0.00000000000E+00  0.46453766498E+03  0.28373094865E+04  0.27990230224E+04 0.  0.
        1    1    3    3  502    0  0.13161776583E+04 -0.27931837325E+03 -0.15808307052E+03  0.13547444922E+04  0.50400001928E-02 0. -1.
       -1    1    3    3    0  502 -0.13161776583E+04  0.27931837325E+03  0.62262073551E+03  0.14825649943E+04  0.50400001928E-02 0.  1.
</event>
<event>
 5   0  0.5023691E-06  0.2457795E+04  0.7818609E-02  0.8418177E-01
       -1   -1    0    0    0  501  0.00000000000E+00  0.00000000000E+00  0.63962456506E+03  0.63962456508E+03  0.50400001928E-02 0. -1.
        1   -1    0    0  501    0  0.00000000000E+00  0.00000000000E+00 -0.23610551648E+04  0.23610551648E+04  0.50400001928E-02 0.  1.
    10030    2    1    2    0    0  0.00000000000E+00  0.00000000000E+00 -0.17214305997E+04  0.30006797299E+04  0.24577948514E+04 0.  0.
        5    1    3    3  502    0 -0.86441715235E+03  0.86246784616E+03 -0.10294402314E+04  0.15971340203E+04  0.46999998093E+01 0. -1.
       -5    1    3    3    0  502  0.86441715235E+03 -0.86246784616E+03 -0.69199036836E+03  0.14035457096E+04  0.46999998093E+01 0.  1.
</event>
<event>
 5   0  0.5217999E-06  0.2783569E+04  0.7818609E-02  0.8308388E-01
        1   -1    0    0  501    0  0.00000000000E+00  0.00000000000E+00  0.19145125493E+04  0.19145125493E+04  0.50400001928E-02 0. -1.
       -1   -1    0    0    0  501  0.00000000000E+00  0.00000000000E+00 -0.10117793003E+04  0.10117793003E+04  0.50400001928E-02 0.  1.
    10030    2    1    2    0    0  0.00000000000E+00  0.00000000000E+00  0.90273324895E+03  0.29262918496E+04  0.27835690526E+04 0.  0.
        1    1    3    3  502    0 -0.22314087108E+03  0.12791274613E+04  0.97816392493E+03  0.16256578898E+04  0.50400001928E-02 0. -1.
       -1    1    3    3    0  502  0.22314087108E+03 -0.12791274613E+04 -0.75430675977E+02  0.13006339598E+04  0.50400001928E-02 0.  1.
</event>
<event>
 5   0  0.1302063E-05  0.3119455E+04  0.7818609E-02  0.8210419E-01
        2   -1    0    0  501    0  0.00000000000E+00  0.00000000000E+00  0.15704126719E+04  0.15704126719E+04  0.25500000920E-02 0. -1.
       -2   -1    0    0    0  501  0.00000000000E+00  0.00000000000E+00 -0.15491149060E+04  0.15491149060E+04  0.25500000920E-02 0.  1.
    10030    2    1    2    0    0  0.00000000000E+00  0.00000000000E+00  0.21297765874E+02  0.31195275779E+04  0.31194548746E+04 0.  0.
        2    1    3    3  502    0 -0.63174940577E+03 -0.70282015914E+03  0.12515187233E+04  0.15682355061E+04  0.25500000920E-02 0. -1.
       -2    1    3    3    0  502  0.63174940577E+03  0.70282015914E+03 -0.12302209575E+04  0.15512920718E+04  0.25500000920E-02 0.  1.
</event>
<event>
 5   0  0.1350863E-05  0.2754457E+04  0.7818609E-02  0.8317549E-01
        2   -1    0    0  501    0  0.00000000000E+00  0.00000000000E+00  0.22973548891E+04  0.22973548891E+04  0.25500000920E-02 0. -1.
       -2   -1    0    0    0  501  0.00000000000E+00  0.00000000000E+00 -0.82562678070E+03  0.82562678071E+03  0.25500000920E-02 0.  1.
    10030    2    1    2    0    0  0.00000000000E+00  0.00000000000E+00  0.14717281084E+04  0.31229816698E+04  0.27544565498E+04 0.  0.
        3    1    3    3  502    0  0.28596609226E+03 -0.11330435956E+04 -0.90477913300E+02  0.11720710978E+04  0.10100000352E+00 0.  1.
       -3    1    3    3    0  502 -0.28596609226E+03  0.11330435956E+04  0.15622060217E+04  0.19509105720E+04  0.10100000352E+00 0. -1.
</event>
<event>
 5   0  0.5023691E-06  0.2835114E+04  0.7818609E-02  0.8292449E-01
        1   -1    0    0  501    0  0.00000000000E+00  0.00000000000E+00  0.13198544377E+04  0.13198544377E+04  0.50400001928E-02 0.  1.
       -1   -1    0    0    0  501  0.00000000000E+00  0.00000000000E+00 -0.15224918936E+04  0.15224918936E+04  0.50400001928E-02 0. -1.
    10030    2    1    2    0    0  0.00000000000E+00  0.00000000000E+00 -0.20263745590E+03  0.28423463313E+04  0.28351138828E+04 0.  0.
        5    1    3    3  502    0 -0.12461445623E+04 -0.67484880573E+03 -0.13529339830E+03  0.14235952986E+04  0.46999998093E+01 0. -1.
       -5    1    3    3    0  502  0.12461445623E+04  0.67484880573E+03 -0.67344057597E+02  0.14187510327E+04  0.46999998093E+01 0.  1.
</event>
<event>
 5   0  0.1283052E-05  0.2803529E+04  0.7818609E-02  0.8302174E-01
       -2   -1    0    0    0  501  0.00000000000E+00  0.00000000000E+00  0.18374788256E+04  0.18374788256E+04  0.25500000920E-02 0. -1.
        2   -1    0    0  501    0  0.00000000000E+00  0.00000000000E+00 -0.10693690906E+04  0.10693690906E+04  0.25500000920E-02 0.  1.
    10030    2    1    2    0    0  0.00000000000E+00  0.00000000000E+00  0.76810973502E+03  0.29068479162E+04  0.28035285343E+04 0.  0.
        5    1    3    3  502    0 -0.34278927566E+03 -0.70323396735E+02 -0.10233455397E+04  0.10815304208E+04  0.46999998093E+01 0.  1.
       -5    1    3    3    0  502  0.34278927566E+03  0.70323396735E+02  0.17914552747E+04  0.18253174953E+04  0.46999998093E+01 0. -1.
</event>
<event>
 5   0  0.1283052E-05  0.2838694E+04  0.7818609E-02  0.8291355E-01
       -2   -1    0    0    0  501  0.00000000000E+00  0.00000000000E+00  0.91258069326E+03  0.91258069326E+03  0.25500000920E-02 0.  1.
        2   -1    0    0  501    0  0.00000000000E+00  0.00000000000E+00 -0.22075266243E+04  0.22075266243E+04  0.25500000920E-02 0. -1.
    10030    2    1    2    0    0  0.00000000000E+00  0.00000000000E+00 -0.12949459311E+04  0.31201073176E+04  0.28386941908E+04 0.  0.
        5    1    3    3  502    0 -0.16244738915E+03  0.60156955993E+03 -0.20491386593E+04  0.21417904717E+04  0.46999998093E+01 0. -1.
       -5    1    3    3    0  502  0.16244738915E+03 -0.60156955993E+03  0.75419272821E+03  0.97831684589E+03  0.46999998093E+01 0.  1.
</event>
<event>
 5   0  0.1283052E-05  0.2807257E+04  0.7818609E-02  0.8301019E-01
       -2   -1    0    0    0  501  0.00000000000E+00  0.00000000000E+00  0.86128338820E+03  0.86128338820E+03  0.25500000920E-02 0.  1.
        2   -1    0    0  501    0  0.00000000000E+00  0.00000000000E+00 -0.22874855241E+04  0.22874855241E+04  0.25500000920E-02 0. -1.
    10030    2    1    2    0    0  0.00000000000E+00  0.00000000000E+00 -0.14262021359E+04  0.31487689123E+04  0.28072572256E+04 0.  0.
        5    1    3    3  502    0  0.12013911067E+02 -0.15021403601E+03  0.85217488689E+03  0.86540898916E+03  0.46999998093E+01 0.  1.
       -5    1    3    3    0  502 -0.12013911067E+02  0.15021403601E+03 -0.22783770227E+04  0.22833599231E+04  0.46999998093E+01 0. -1.
</event>
<event>
 5   0  0.5217999E-06  0.2800339E+04  0.7818609E-02  0.8303163E-01
        1   -1    0    0  501    0  0.00000000000E+00  0.00000000000E+00  0.17692856557E+04  0.17692856557E+04  0.50400001928E-02 0.  1.
       -1   -1    0    0    0  501  0.00000000000E+00  0.00000000000E+00 -0.11080602599E+04  0.11080602599E+04  0.50400001928E-02 0. -1.
    10030    2    1    2    0    0  0.00000000000E+00  0.00000000000E+00  0.66122539577E+03  0.28773459156E+04  0.28003393533E+04 0.  0.
        1    1    3    3  502    0 -0.85852126586E+03 -0.76083414683E+03 -0.49430185308E+03  0.12491043531E+04  0.50400001928E-02 0. -1.
       -1    1    3    3    0  502  0.85852126586E+03  0.76083414683E+03  0.11555272488E+04  0.16282415625E+04  0.50400001928E-02 0.  1.
</event>
<event>
 5   0  0.1330962E-05  0.2797290E+04  0.7818609E-02  0.8304110E-01
        2   -1    0    0  501    0  0.00000000000E+00  0.00000000000E+00  0.24987611114E+04  0.24987611114E+04  0.25500000920E-02 0. -1.
       -2   -1    0    0    0  501  0.00000000000E+00  0.00000000000E+00 -0.78287093803E+03  0.78287093803E+03  0.25500000920E-02 0.  1.
    10030    2    1    2    0    0  0.00000000000E+00  0.00000000000E+00  0.17158901734E+04  0.32816320494E+04  0.27972897277E+04 0.  0.
        4    1    3    3  502    0 -0.48951836163E+03 -0.10869920968E+04  0.17160488280E+04  0.20894988006E+04  0.12699999809E+01 0. -1.
       -4    1    3    3    0  502  0.48951836163E+03  0.10869920968E+04 -0.15865463048E+00  0.11921332488E+04  0.12699999809E+01 0.  1.
</event>
<event>
 5   0  0.5217999E-06  0.2817722E+04  0.7818609E-02  0.8297788E-01
       -1   -1    0    0    0  501  0.00000000000E+00  0.00000000000E+00  0.15949725471E+04  0.15949725471E+04  0.50400001928E-02 0. -1.
        1   -1    0    0  501    0  0.00000000000E+00  0.00000000000E+00 -0.12444659170E+04  0.12444659170E+04  0.50400001928E-02 0.  1.
    10030    2    1    2    0    0  0.00000000000E+00  0.00000000000E+00  0.35050663011E+03  0.28394384640E+04  0.28177217558E+04 0.  0.
        1    1    3    3  502    0 -0.12623949994E+04  0.51297502153E+03  0.53592868947E+03  0.14642418063E+04  0.50400001928E-02 0. -1.
       -1    1    3    3    0  502  0.12623949994E+04 -0.51297502153E+03 -0.18542205936E+03  0.13751966577E+04  0.50400001928E-02 0.  1.
</event>
<event>
 5   0  0.4764214E-06  0.2781014E+04  0.7818609E-02  0.8309187E-01
        1   -1    0    0  501    0  0.00000000000E+00  0.00000000000E+00  0.18014543163E+04  0.18014543163E+04  0.50400001928E-02 0. -1.
       -1   -1    0    0    0  501  0.00000000000E+00  0.00000000000E+00 -0.10733048032E+04  0.10733048033E+04  0.50400001928E-02 0.  1.
    10030    2    1    2    0    0  0.00000000000E+00  0.00000000000E+00  0.72814951307E+03  0.28747591196E+04  0.27810138947E+04 0.  0.
        3    1    3    3  502    0  0.53616631981E+03  0.82200458028E+03 -0.65419090535E+03  0.11794624213E+04  0.10100000352E+00 0.  1.
       -3    1    3    3    0  502 -0.53616631981E+03 -0.82200458028E+03  0.13823404184E+04  0.16952966983E+04  0.10100000352E+00 0. -1.
</event>
<event>
 5   0  0.5107453E-06  0.2711268E+04  0.7818609E-02  0.8331358E-01
       -1   -1    0    0    0  501  0.00000000000E+00  0.00000000000E+00  0.14753183505E+04  0.14753183505E+04  0.50400001928E-02 0. -1.
        1   -1    0    0  501    0  0.00000000000E+00  0.00000000000E+00 -0.12456593298E+04  0.12456593298E+04  0.50400001928E-02 0.  1.
    10030    2    1    2    0    0  0.00000000000E+00  0.00000000000E+00  0.22965902070E+03  0.27209776803E+04  0.27112683878E+04 0.  0.
        2    1    3    3  502    0 -0.28370843467E+03 -0.12554053270E+04  0.54204286019E+03  0.13965469821E+04  0.25500000920E-02 0. -1.
       -2    1    3    3    0  502  0.28370843467E+03  0.12554053270E+04 -0.31238383949E+03  0.13244306981E+04  0.25500000920E-02 0.  1.
</event>
<event>
 5   0  0.1330962E-05  0.2778927E+04  0.7818609E-02  0.8309841E-01
       -2   -1    0    0    0  501  0.00000000000E+00  0.00000000000E+00  0.86460357779E+03  0.86460357779E+03  0.25500000920E-02 0.  1.
        2   -1    0    0  501    0  0.00000000000E+00  0.00000000000E+00 -0.22329405703E+04  0.22329405703E+04  0.25500000920E-02 0. -1.
    10030    2    1    2    0    0  0.00000000000E+00  0.00000000000E+00 -0.13683369925E+04  0.30975441481E+04  0.27789267037E+04 0.  0.
        4    1    3    3  502    0  0.61794183622E+03 -0.64251587822E+03 -0.18721667993E+04  0.20735691221E+04  0.12699999809E+01 0. -1.
       -4    1    3    3    0  502 -0.61794183622E+03  0.64251587822E+03  0.50382980682E+03  0.10239750260E+04  0.12699999809E+01 0.  1.
</event>
<event>
 5   0  0.5281919E-06  0.2854814E+04  0.7818609E-02  0.8286450E-01
        1   -1    0    0  501    0  0.00000000000E+00  0.00000000000E+00  0.18299506318E+04  0.18299506318E+04  0.50400001928E-02 0. -1.
       -1   -1    0    0    0  501  0.00000000000E+00  0.00000000000E+00 -0.11134129807E+04  0.11134129807E+04  0.50400001928E-02 0.  1.
    10030    2    1    2    0    0  0.00000000000E+00  0.00000000000E+00  0.71653765103E+03  0.29433636125E+04  0.28548140307E+04 0.  0.
        4    1    3    3  502    0 -0.14442877237E+03  0.24883630946E+02 -0.11056347393E+04  0.11153065296E+04  0.12699999809E+01 0.  1.
       -4    1    3    3    0  502  0.14442877237E+03 -0.24883630946E+02  0.18221723903E+04  0.18280570829E+04  0.12699999809E+01 0. -1.
</event>
<event>
 5   0  0.4764214E-06  0.2794281E+04  0.7818609E-02  0.8305046E-01
        1   -1    0    0  501    0  0.00000000000E+00  0.00000000000E+00  0.15025745465E+04  0.15025745465E+04  0.50400001928E-02 0. -1.
       -1   -1    0    0    0  501  0.00000000000E+00  0.00000000000E+00 -0.12991046788E+04  0.12991046788E+04  0.50400001928E-02 0.  1.
    10030    2    1    2    0    0  0.00000000000E+00  0.00000000000E+00  0.20346986769E+03  0.28016792253E+04  0.27942810335E+04 0.  0.
        3    1    3    3  502    0  0.11463965908E+04  0.78968393613E+03  0.22111212756E+03  0.14095092925E+04  0.10100000352E+00 0.  1.
       -3    1    3    3    0  502 -0.11463965908E+04 -0.78968393613E+03 -0.17642259863E+02  0.13921699328E+04  0.10100000352E+00 0. -1.
</event>
<event>
 5   0  0.1388269E-05  0.2824122E+04  0.7818609E-02  0.8295818E-01
       -2   -1    0    0    0  501  0.00000000000E+00  0.00000000000E+00  0.74346617209E+03  0.74346617209E+03  0.25500000920E-02 0.  1.
        2   -1    0    0  501    0  0.00000000000E+00  0.00000000000E+00 -0.26819196311E+04  0.26819196311E+04  0.25500000920E-02 0. -1.
    10030    2    1    2    0    0  0.00000000000E+00  0.00000000000E+00 -0.19384534590E+04  0.34253858032E+04  0.28241221801E+04 0.  0.
        1    1    3    3  502    0 -0.56914666634E+03 -0.10450075343E+04 -0.18913104127E+04  0.22345074965E+04  0.50400001928E-02 0. -1.
       -1    1    3    3    0  502  0.56914666634E+03  0.10450075343E+04 -0.47143046279E+02  0.11908783067E+04  0.50400001928E-02 0.  1.
</event>
<event>
 5   0  0.1283052E-05  0.2718883E+04  0.7818609E-02  0.8328904E-01
       -2   -1    0    0    0  501  0.00000000000E+00  0.00000000000E+00  0.11872163525E+04  0.11872163525E+04  0.25500000920E-02 0.  1.
        2   -1    0    0  501    0  0.00000000000E+00  0.00000000000E+00 -0.15566510913E+04  0.15566510913E+04  0.25500000920E-02 0. -1.
    10030    2    1    2    0    0  0.00000000000E+00  0.00000000000E+00 -0.36943473878E+03  0.27438674438E+04  0.27188833228E+04 0.  0.
        5    1    3    3  502    0 -0.64066949842E+03  0.11729097778E+04  0.66335106598E+02  0.13381319776E+04  0.46999998093E+01 0.  1.
       -5    1    3    3    0  502  0.64066949842E+03 -0.11729097778E+04 -0.43576984537E+03  0.14057354663E+04  0.46999998093E+01 0. -1.
</event>
<event>
 5   0  0.5281919E-06  0.2797901E+04  0.7818609E-02  0.8303920E-01
       -1   -1    0    0    0  501  0.00000000000E+00  0.00000000000E+00  0.15750224655E+04  0.15750224655E+04  0.50400001928E-02 0.  1.
        1   -1    0    0  501    0  0.00000000000E+00  0.00000000000E+00 -0.12425613509E+04  0.12425613509E+04  0.50400001928E-02 0. -1.
    10030    2    1    2    0    0  0.00000000000E+00  0.00000000000E+00  0.33246111454E+03  0.28175838164E+04  0.27979006719E+04 0.  0.
        4    1    3    3  502    0  0.10865787777E+04  0.42256243155E+03  0.94487633865E+03  0.15006683034E+04  0.12699999809E+01 0.  1.
       -4    1    3    3    0  502 -0.10865787777E+04 -0.42256243155E+03 -0.61241522411E+03  0.13169155130E+04  0.12699999809E+01 0. -1.
</event>
<event>
 5   0  0.1330962E-05  0.2732182E+04  0.7818609E-02  0.8324638E-01
       -2   -1    0    0    0  501  0.00000000000E+00  0.00000000000E+00  0.24484873656E+04  0.24484873656E+04  0.25500000920E-02 0.  1.
        2   -1    0    0  501    0  0.00000000000E+00  0.00000000000E+00 -0.76218673854E+03  0.76218673854E+03  0.25500000920E-02 0. -1.
    10030    2    1    2    0    0  0.00000000000E+00  0.00000000000E+00  0.16863006270E+04  0.32106741041E+04  0.27321819848E+04 0.  0.
        4    1    3    3  502    0 -0.67850646673E+03  0.82260060479E+03  0.18466057296E+04  0.21323688972E+04  0.12699999809E+01 0.  1.
       -4    1    3    3    0  502  0.67850646673E+03 -0.82260060479E+03 -0.16030510257E+03  0.10783052069E+04  0.12699999809E+01 0. -1.
</event>
<event>
 5   0  0.1302063E-05  0.2750266E+04  0.7818609E-02  0.8318877E-01
       -2   -1    0    0    0  501  0.00000000000E+00  0.00000000000E+00  0.12781092837E+04  0.12781092837E+04  0.25500000920E-02 0.  1.
        2   -1    0    0  501    0  0.00000000000E+00  0.00000000000E+00 -0.14795222883E+04  0.14795222883E+04  0.25500000920E-02 0. -1.
    10030    2    1    2    0    0  0.00000000000E+00  0.00000000000E+00 -0.20141300456E+03  0.27576315721E+04  0.27502662942E+04 0.  0.
        2    1    3    3  502    0 -0.50487403012E+03 -0.12207437807E+04 -0.48366914209E+03  0.14067867654E+04  0.25500000920E-02 0. -1.
       -2    1    3    3    0  502  0.50487403012E+03  0.12207437807E+04  0.28225613753E+03  0.13508448066E+04  0.25500000920E-02 0.  1.
</event>
<event>
 5   0  0.5217999E-06  0.2796738E+04  0.7818609E-02  0.8304282E-01
        1   -1    0    0  501    0  0.00000000000E+00  0.00000000000E+00  0.13002799986E+04  0.13002799987E+04  0.50400001928E-02 0. -1.
       -1   -1    0    0    0  501  0.00000000000E+00  0.00000000000E+00 -0.15038570402E+04  0.15038570402E+04  0.50400001928E-02 0.  1.
    10030    2    1    2    0    0  0.00000000000E+00  0.00000000000E+00 -0.20357704151E+03  0.28041370388E+04  0.27967375495E+04 0.  0.
        1    1    3    3  502    0  0.14349889034E+03  0.32263056993E+03 -0.14584215165E+04  0.15005584747E+04  0.50400001928E-02 0.  1.
       -1    1    3    3    0  502 -0.14349889034E+03 -0.32263056993E+03  0.12548444750E+04  0.13035785641E+04  0.50400001928E-02 0. -1.
</event>
<event>
 5   0  0.1302063E-05  0.2782930E+04  0.7818609E-02  0.8308587E-01
       -2   -1    0    0    0  501  0.00000000000E+00  0.00000000000E+00  0.17767629471E+04  0.17767629471E+04  0.25500000920E-02 0. -1.
        2   -1    0    0  501    0  0.00000000000E+00  0.00000000000E+00 -0.10897207999E+04  0.10897207999E+04  0.25500000920E-02 0.  1.
    10030    2    1    2    0    0  0.00000000000E+00  0.00000000000E+00  0.68704214713E+03  0.28664837470E+04  0.27829304986E+04 0.  0.
        2    1    3    3  502    0 -0.50156345160E+03 -0.56276864760E+03  0.15482087611E+04  0.17219828148E+04  0.25500000920E-02 0. -1.
       -2    1    3    3    0  502  0.50156345160E+03  0.56276864760E+03 -0.86116661396E+03  0.11445009322E+04  0.25500000920E-02 0.  1.
</event>
<event>
 5   0  0.5107453E-06  0.2803646E+04  0.7818609E-02  0.8302137E-01
        1   -1    0    0  501    0  0.00000000000E+00  0.00000000000E+00  0.23773939979E+04  0.23773939979E+04  0.50400001928E-02 0. -1.
       -1   -1    0    0    0  501  0.00000000000E+00  0.00000000000E+00 -0.82658034254E+03  0.82658034255E+03  0.50400001928E-02 0.  1.
    10030    2    1    2    0    0  0.00000000000E+00  0.00000000000E+00  0.15508136554E+04  0.32039743405E+04  0.28036455876E+04 0.  0.
        2    1    3    3  502    0 -0.43740483263E+03  0.89214962127E+03  0.19054700713E+04  0.21489695501E+04  0.25500000920E-02 0. -1.
       -2    1    3    3    0  502  0.43740483263E+03 -0.89214962127E+03 -0.35465641597E+03  0.10550047904E+04  0.25500000920E-02 0.  1.
</event>
<event>
 5   0  0.5281919E-06  0.2404034E+04  0.7818609E-02  0.8437995E-01
       -1   -1    0    0    0  501  0.00000000000E+00  0.00000000000E+00  0.15423244828E+04  0.15423244828E+04  0.50400001928E-02 0.  1.
        1   -1    0    0  501    0  0.00000000000E+00  0.00000000000E+00 -0.93679711040E+03  0.93679711042E+03  0.50400001928E-02 0. -1.
    10030    2    1    2    0    0  0.00000000000E+00  0.00000000000E+00  0.60552737242E+03  0.24791215932E+04  0.24040342084E+04 0.  0.
        4    1    3    3  502    0 -0.71262066485E+02  0.55863539469E+03  0.13978601603E+04  0.15070389600E+04  0.12699999809E+01 0.  1.
       -4    1    3    3    0  502  0.71262066485E+02 -0.55863539469E+03 -0.79233278784E+03  0.97208263327E+03  0.12699999809E+01 0. -1.
</event>
<event>
 5   0  0.1388269E-05  0.2746976E+04  0.7818609E-02  0.8319922E-01
       -2   -1    0    0    0  501  0.00000000000E+00  0.00000000000E+00  0.98925143350E+03  0.98925143350E+03  0.25500000920E-02 0.  1.
        2   -1    0    0  501    0  0.00000000000E+00  0.00000000000E+00 -0.19069670306E+04  0.19069670306E+04  0.25500000920E-02 0. -1.
    10030    2    1    2    0    0  0.00000000000E+00  0.00000000000E+00 -0.91771559713E+03  0.28962184641E+04  0.27469764241E+04 0.  0.
        1    1    3    3  502    0 -0.46107098501E+03  0.56119389611E+03 -0.16879297227E+04  0.18375613707E+04  0.50400001928E-02 0. -1.
       -1    1    3    3    0  502  0.46107098501E+03 -0.56119389611E+03  0.77021412557E+03  0.10586570934E+04  0.50400001928E-02 0.  1.
</event>
<event>
 5   0  0.1302063E-05  0.2790344E+04  0.7818609E-02  0.8306272E-01
        2   -1    0    0  501    0  0.00000000000E+00  0.00000000000E+00  0.14117832024E+04  0.14117832024E+04  0.25500000920E-02 0.  1.
       -2   -1    0    0    0  501  0.00000000000E+00  0.00000000000E+00 -0.13787566371E+04  0.13787566371E+04  0.25500000920E-02 0. -1.
    10030    2    1    2    0    0  0.00000000000E+00  0.00000000000E+00  0.33026565277E+02  0.27905398395E+04  0.27903443948E+04 0.  0.
        2    1    3    3  502    0 -0.40024006678E+03  0.19524277793E+03  0.13387986201E+04  0.14109194161E+04  0.25500000920E-02 0.  1.
       -2    1    3    3    0  502  0.40024006678E+03 -0.19524277793E+03 -0.13057720548E+04  0.13796204234E+04  0.25500000920E-02 0. -1.
</event>
<event>
 5   0  0.5217999E-06  0.2786424E+04  0.7818609E-02  0.8307496E-01
       -1   -1    0    0    0  501  0.00000000000E+00  0.00000000000E+00  0.83537484359E+03  0.83537484360E+03  0.50400001928E-02 0.  1.
        1   -1    0    0  501    0  0.00000000000E+00  0.00000000000E+00 -0.23235553043E+04  0.23235553043E+04  0.50400001928E-02 0. -1.
    10030    2    1    2    0    0  0.00000000000E+00  0.00000000000E+00 -0.14881804607E+04  0.31589301479E+04  0.27864239799E+04 0.  0.
        1    1    3    3  502    0  0.60530631432E+03 -0.76614715225E+03  0.38258071860E+03  0.10486873697E+04  0.50400001928E-02 0.  1.
       -1    1    3    3    0  502 -0.60530631432E+03  0.76614715225E+03 -0.18707611793E+04  0.21102427782E+04  0.50400001928E-02 0. -1.
</event>
<event>
 5   0  0.5107453E-06  0.2635705E+04  0.7818609E-02  0.8356173E-01
        1   -1    0    0  501    0  0.00000000000E+00  0.00000000000E+00  0.18045693219E+04  0.18045693220E+04  0.50400001928E-02 0.  1.
       -1   -1    0    0    0  501  0.00000000000E+00  0.00000000000E+00 -0.96241013422E+03  0.96241013423E+03  0.50400001928E-02 0. -1.
    10030    2    1    2    0    0  0.00000000000E+00  0.00000000000E+00  0.84215918773E+03  0.27669794562E+04  0.26357054489E+04 0.  0.
        2    1    3    3  502    0  0.63247587935E+03  0.11319815263E+04  0.66801371943E+03  0.14586467164E+04  0.25500000920E-02 0. -1.
       -2    1    3    3    0  502 -0.63247587935E+03 -0.11319815263E+04  0.17414546830E+03  0.13083327398E+04  0.25500000920E-02 0.  1.
</event>
<event>
 5   0  0.1388269E-05  0.2791702E+04  0.7818609E-02  0.8305849E-01
       -2   -1    0    0    0  501  0.00000000000E+00  0.00000000000E+00  0.16343992522E+04  0.16343992522E+04  0.25500000920E-02 0.  1.
        2   -1    0    0  501    0  0.00000000000E+00  0.00000000000E+00 -0.11921202927E+04  0.11921202927E+04  0.25500000920E-02 0. -1.
    10030    2    1    2    0    0  0.00000000000E+00  0.00000000000E+00  0.44227895949E+03  0.28265195450E+04  0.27917023588E+04 0.  0.
        1    1    3    3  502    0  0.76706043024E+02 -0.24638605386E+01  0.16322615394E+04  0.16340647541E+04  0.50400001928E-02 0.  1.
       -1    1    3    3    0  502 -0.76706043024E+02  0.24638605386E+01 -0.11899825799E+04  0.11924547908E+04  0.50400001928E-02 0. -1.
</event>
<event>
 5   0  0.5107453E-06  0.2774003E+04  0.7818609E-02  0.8311385E-01
        1   -1    0    0  501    0  0.00000000000E+00  0.00000000000E+00  0.11616542780E+04  0.11616542780E+04  0.50400001928E-02 0.  1.
       -1   -1    0    0    0  501  0.00000000000E+00  0.00000000000E+00 -0.16560636749E+04  0.16560636749E+04  0.50400001928E-02 0. -1.
    10030    2    1    2    0    0  0.00000000000E+00  0.00000000000E+00 -0.49440939686E+03  0.28177179529E+04  0.27740032102E+04 0.  0.
        2    1    3    3  502    0  0.56138257341E+02 -0.70396127764E+03 -0.14597757786E+04  0.16216221225E+04  0.25500000920E-02 0. -1.
       -2    1    3    3    0  502 -0.56138257341E+02  0.70396127764E+03  0.96536638179E+03  0.11960958304E+04  0.25500000920E-02 0.  1.
</event>
<event>
 5   0  0.4764214E-06  0.2788469E+04  0.7818609E-02  0.8306857E-01
        1   -1    0    0  501    0  0.00000000000E+00  0.00000000000E+00  0.14876332247E+04  0.14876332247E+04  0.50400001928E-02 0. -1.
       -1   -1    0    0    0  501  0.00000000000E+00  0.00000000000E+00 -0.13067000712E+04  0.13067000712E+04  0.50400001928E-02 0.  1.
    10030    2    1    2    0    0  0.00000000000E+00  0.00000000000E+00  0.18093315348E+03  0.27943332960E+04  0.27884694302E+04 0.  0.
        3    1    3    3  502    0 -0.13470688116E+04 -0.34809909482E+03  0.18078416823E+03  0.14030147144E+04  0.10100000352E+00 0.  1.
       -3    1    3    3    0  502  0.13470688116E+04  0.34809909482E+03  0.14898525672E+00  0.13913185816E+04  0.10100000352E+00 0. -1.
</event>
<event>
 5   0  0.1330962E-05  0.2813793E+04  0.7818609E-02  0.8298999E-01
       -2   -1    0    0    0  501  0.00000000000E+00  0.00000000000E+00  0.12842723304E+04  0.12842723304E+04  0.25500000920E-02 0.  1.
        2   -1    0    0  501    0  0.00000000000E+00  0.00000000000E+00 -0.15412290918E+04  0.15412290918E+04  0.25500000920E-02 0. -1.
    10030    2    1    2    0    0  0.00000000000E+00  0.00000000000E+00 -0.25695676147E+03  0.28255014222E+04  0.28137930823E+04 0.  0.
        4    1    3    3  502    0 -0.55491463649E+03 -0.36963411693E+03  0.11155457116E+04  0.12996166672E+04  0.12699999809E+01 0.  1.
       -4    1    3    3    0  502  0.55491463649E+03  0.36963411693E+03 -0.13725024730E+04  0.15258847550E+04  0.12699999809E+01 0. -1.
</event>
<event>
 5   0  0.1330962E-05  0.2808909E+04  0.7818609E-02  0.8300508E-01
       -2   -1    0    0    0  501  0.00000000000E+00  0.00000000000E+00  0.92269441146E+03  0.92269441147E+03  0.25500000920E-02 0. -1.
        2   -1    0    0  501    0  0.00000000000E+00  0.00000000000E+00 -0.21377531201E+04  0.21377531201E+04  0.25500000920E-02 0.  1.
    10030    2    1    2    0    0  0.00000000000E+00  0.00000000000E+00 -0.12150587086E+04  0.30604475315E+04  0.28089092951E+04 0.  0.
        4    1    3    3  502    0  0.74213297464E+03 -0.11741834911E+04 -0.83352375337E+03  0.16199480495E+04  0.12699999809E+01 0. -1.
       -4    1    3    3    0  502 -0.74213297464E+03  0.11741834911E+04 -0.38153495525E+03  0.14404994820E+04  0.12699999809E+01 0.  1.
</event>
<event>
 5   0  0.1330962E-05  0.2563586E+04  0.7818609E-02  0.8380677E-01
        2   -1    0    0  501    0  0.00000000000E+00  0.00000000000E+00  0.17322020580E+04  0.17322020580E+04  0.25500000920E-02 0.  1.
       -2   -1    0    0    0  501  0.00000000000E+00  0.00000000000E+00 -0.94849948840E+03  0.94849948841E+03  0.25500000920E-02 0. -1.
    10030    2    1    2    0    0  0.00000000000E+00  0.00000000000E+00  0.78370256957E+03  0.26807015464E+04  0.25635855873E+04 0.  0.
        4    1    3    3  502    0 -0.12219085411E+04  0.37725170417E+03  0.48308281319E+03  0.13670222926E+04  0.12699999809E+01 0.  1.
       -4    1    3    3    0  502  0.12219085411E+04 -0.37725170417E+03  0.30061975638E+03  0.13136792538E+04  0.12699999809E+01 0. -1.
</event>
<event>
 5   0  0.1350863E-05  0.2006807E+04  0.7818609E-02  0.8603445E-01
       -2   -1    0    0    0  501  0.00000000000E+00  0.00000000000E+00  0.12399906139E+04  0.12399906140E+04  0.25500000920E-02 0.  1.
        2   -1    0    0  501    0  0.00000000000E+00  0.00000000000E+00 -0.81195638331E+03  0.81195638332E+03  0.25500000920E-02 0. -1.
    10030    2    1    2    0    0  0.00000000000E+00  0.00000000000E+00  0.42803423064E+03  0.20519469973E+04  0.20068067114E+04 0.  0.
        3    1    3    3  502    0 -0.99692260456E+02 -0.54182385599E+03  0.10715147970E+04  0.12048467156E+04  0.10100000352E+00 0.  1.
       -3    1    3    3    0  502  0.99692260456E+02  0.54182385599E+03 -0.64348056636E+03  0.84710028167E+03  0.10100000352E+00 0. -1.
</event>
<event>
 5   0  0.5217999E-06  0.2948059E+04  0.7818609E-02  0.8258720E-01
        1   -1    0    0  501    0  0.00000000000E+00  0.00000000000E+00  0.15883750824E+04  0.15883750824E+04  0.50400001928E-02 0. -1.
       -1   -1    0    0    0  501  0.00000000000E+00  0.00000000000E+00 -0.13679156385E+04  0.13679156385E+04  0.50400001928E-02 0.  1.
    10030    2    1    2    0    0  0.00000000000E+00  0.00000000000E+00  0.22045944395E+03  0.29562907209E+04  0.29480591005E+04 0.  0.
        1    1    3    3  502    0  0.12479768679E+04  0.73201081799E+03  0.39293357465E+03  0.14992274326E+04  0.50400001928E-02 0. -1.
       -1    1    3    3    0  502 -0.12479768679E+04 -0.73201081799E+03 -0.17247413070E+03  0.14570632884E+04  0.50400001928E-02 0.  1.
</event>
<event>
 5   0  0.1302063E-05  0.2799437E+04  0.7818609E-02  0.8303443E-01
        2   -1    0    0  501    0  0.00000000000E+00  0.00000000000E+00  0.31471170648E+04  0.31471170648E+04  0.25500000920E-02 0. -1.
       -2   -1    0    0    0  501  0.00000000000E+00  0.00000000000E+00 -0.62254180656E+03  0.62254180656E+03  0.25500000920E-02 0.  1.
    10030    2    1    2    0    0  0.00000000000E+00  0.00000000000E+00  0.25245752583E+04  0.37696588714E+04  0.27994370455E+04 0.  0.
        2    1    3    3  502    0 -0.12421773517E+04  0.64426373708E+03  0.13075856445E+04  0.19151659337E+04  0.25500000920E-02 0.  1.
       -2    1    3    3    0  502  0.12421773517E+04 -0.64426373708E+03  0.12169896137E+04  0.18544929377E+04  0.25500000920E-02 0. -1.
</event>
<event>
 5   0  0.1388269E-05  0.2827271E+04  0.7818609E-02  0.8294851E-01
       -2   -1    0    0    0  501  0.00000000000E+00  0.00000000000E+00  0.14745108132E+04  0.14745108132E+04  0.25500000920E-02 0. -1.
        2   -1    0    0  501    0  0.00000000000E+00  0.00000000000E+00 -0.13552735912E+04  0.13552735912E+04  0.25500000920E-02 0.  1.
    10030    2    1    2    0    0  0.00000000000E+00  0.00000000000E+00  0.11923722208E+03  0.28297844044E+04  0.28272711685E+04 0.  0.
        1    1    3    3  502    0  0.71636853580E+03 -0.10457398709E+04  0.68596224067E+03  0.14412841331E+04  0.50400001928E-02 0. -1.
       -1    1    3    3    0  502 -0.71636853580E+03  0.10457398709E+04 -0.56672501859E+03  0.13885002713E+04  0.50400001928E-02 0.  1.
</event>
<event>
 5   0  0.5107453E-06  0.2854788E+04  0.7818609E-02  0.8286458E-01
        1   -1    0    0  501    0  0.00000000000E+00  0.00000000000E+00  0.12712970035E+04  0.12712970035E+04  0.50400001928E-02 0. -1.
       -1   -1    0    0    0  501  0.00000000000E+00  0.00000000000E+00 -0.16026570732E+04  0.16026570732E+04  0.50400001928E-02 0.  1.
    10030    2    1    2    0    0  0.00000000000E+00  0.00000000000E+00 -0.33136006969E+03  0.28739540767E+04  0.28547876522E+04 0.  0.
        2    1    3    3  502    0  0.11724100113E+04  0.80237476812E+03 -0.26539837725E+02  0.14209345045E+04  0.25500000920E-02 0. -1.
       -2    1    3    3    0  502 -0.11724100113E+04 -0.80237476812E+03 -0.30482023196E+03  0.14530195721E+04  0.25500000920E-02 0.  1.
</event>
<event>
 5   0  0.5107453E-06  0.2450104E+04  0.7818609E-02  0.8420980E-01
        1   -1    0    0  501    0  0.00000000000E+00  0.00000000000E+00  0.19332388356E+04  0.19332388356E+04  0.50400001928E-02 0.  1.
       -1   -1    0    0    0  501  0.00000000000E+00  0.00000000000E+00 -0.77628927151E+03  0.77628927153E+03  0.50400001928E-02 0. -1.
    10030    2    1    2    0    0  0.00000000000E+00  0.00000000000E+00  0.11569495641E+04  0.27095281072E+04  0.24501041344E+04 0.  0.
        2    1    3    3  502    0  0.23433807574E+03 -0.95632839863E+03 -0.22758729932E+03  0.10105811786E+04  0.25500000920E-02 0. -1.
       -2    1    3    3    0  502 -0.23433807574E+03  0.95632839863E+03  0.13845368634E+04  0.16989469285E+04  0.25500000920E-02 0.  1.
</event>
<event>
 5   0  0.1330962E-05  0.2731262E+04  0.7818609E-02  0.8324932E-01
       -2   -1    0    0    0  501  0.00000000000E+00  0.00000000000E+00  0.96880921522E+03  0.96880921522E+03  0.25500000920E-02 0. -1.
        2   -1    0    0  501    0  0.00000000000E+00  0.00000000000E+00 -0.19249904607E+04  0.19249904607E+04  0.25500000920E-02 0.  1.
    10030    2    1    2    0    0  0.00000000000E+00  0.00000000000E+00 -0.95618124552E+03  0.28937996760E+04  0.27312623437E+04 0.  0.
        4    1    3    3  502    0  0.48061530603E+03 -0.12251783446E+04 -0.86433081603E+03  0.15745229185E+04  0.12699999809E+01 0.  1.
       -4    1    3    3    0  502 -0.48061530603E+03  0.12251783446E+04 -0.91850429490E+02  0.13192767575E+04  0.12699999809E+01 0. -1.
</event>
<event>
 5   0  0.1330962E-05  0.2797192E+04  0.7818609E-02  0.8304141E-01
        2   -1    0    0  501    0  0.00000000000E+00  0.00000000000E+00  0.16355119691E+04  0.16355119691E+04  0.25500000920E-02 0.  1.
       -2   -1    0    0    0  501  0.00000000000E+00  0.00000000000E+00 -0.11959989361E+04  0.11959989361E+04  0.25500000920E-02 0. -1.
    10030    2    1    2    0    0  0.00000000000E+00  0.00000000000E+00  0.43951303299E+03  0.28315109052E+04  0.27971918597E+04 0.  0.
        4    1    3    3  502    0  0.67868923920E+03 -0.28740412457E+03 -0.98346009308E+03  0.12289896589E+04  0.12699999809E+01 0. -1.
       -4    1    3    3    0  502 -0.67868923920E+03  0.28740412457E+03  0.14229731261E+04  0.16025212462E+04  0.12699999809E+01 0.  1.
</event>
<event>
 5   0  0.1330962E-05  0.2823425E+04  0.7818609E-02  0.8296032E-01
        2   -1    0    0  501    0  0.00000000000E+00  0.00000000000E+00  0.17086320051E+04  0.17086320051E+04  0.25500000920E-02 0. -1.
       -2   -1    0    0    0  501  0.00000000000E+00  0.00000000000E+00 -0.11663909249E+04  0.11663909249E+04  0.25500000920E-02 0.  1.
    10030    2    1    2    0    0  0.00000000000E+00  0.00000000000E+00  0.54224108025E+03  0.28750229300E+04  0.28234254832E+04 0.  0.
        4    1    3    3  502    0  0.12383914638E+04  0.52103541830E+00  0.96123560580E+03  0.15676699882E+04  0.12699999809E+01 0. -1.
       -4    1    3    3    0  502 -0.12383914638E+04 -0.52103541830E+00 -0.41899452555E+03  0.13073529418E+04  0.12699999809E+01 0.  1.
</event>
<event>
 5   0  0.4764214E-06  0.2800497E+04  0.7818609E-02  0.8303114E-01
       -1   -1    0    0    0  501  0.00000000000E+00  0.00000000000E+00  0.18457326327E+04  0.18457326327E+04  0.50400001928E-02 0. -1.
        1   -1    0    0  501    0  0.00000000000E+00  0.00000000000E+00 -0.10622861585E+04  0.10622861585E+04  0.50400001928E-02 0.  1.
    10030    2    1    2    0    0  0.00000000000E+00  0.00000000000E+00  0.78344647425E+03  0.29080187912E+04  0.28004972615E+04 0.  0.
        3    1    3    3  502    0  0.11428638786E+02  0.11881234166E+04  0.11610660253E+04  0.16612772773E+04  0.10100000352E+00 0.  1.
       -3    1    3    3    0  502 -0.11428638786E+02 -0.11881234166E+04 -0.37761955110E+03  0.12467415139E+04  0.10100000352E+00 0. -1.
</event>
<event>
 5   0  0.5023691E-06  0.2825217E+04  0.7818609E-02  0.8295482E-01
        1   -1    0    0  501    0  0.00000000000E+00  0.00000000000E+00  0.11317237302E+04  0.11317237302E+04  0.50400001928E-02 0.  1.
       -1   -1    0    0    0  501  0.00000000000E+00  0.00000000000E+00 -0.17632061833E+04  0.17632061833E+04  0.50400001928E-02 0. -1.
    10030    2    1    2    0    0  0.00000000000E+00  0.00000000000E+00 -0.63148245312E+03  0.28949299135E+04  0.28252166493E+04 0.  0.
        5    1    3    3  502    0  0.81428926159E+03  0.21195955887E+03  0.84691377496E+03  0.11938504464E+04  0.46999998093E+01 0.  1.
       -5    1    3    3    0  502 -0.81428926159E+03 -0.21195955887E+03 -0.14783962281E+04  0.17010794671E+04  0.46999998093E+01 0. -1.
</event>
<event>
 5   0  0.1302063E-05  0.2796956E+04  0.7818609E-02  0.8304214E-01
        2   -1    0    0  501    0  0.00000000000E+00  0.00000000000E+00  0.14574541869E+04  0.14574541869E+04  0.25500000920E-02 0.  1.
       -2   -1    0    0    0  501  0.00000000000E+00  0.00000000000E+00 -0.13418880206E+04  0.13418880206E+04  0.25500000920E-02 0. -1.
    10030    2    1    2    0    0  0.00000000000E+00  0.00000000000E+00  0.11556616634E+03  0.27993422075E+04  0.27969557122E+04 0.  0.
        2    1    3    3  502    0  0.13279552759E+04 -0.24148523250E+03  0.42410081590E+03  0.14147939194E+04  0.25500000920E-02 0.  1.
       -2    1    3    3    0  502 -0.13279552759E+04  0.24148523250E+03 -0.30853464955E+03  0.13845482881E+04  0.25500000920E-02 0. -1.
</event>
<event>
 5   0  0.5107453E-06  0.1999960E+04  0.7818609E-02  0.8606640E-01
        1   -1    0    0  501    0  0.00000000000E+00  0.00000000000E+00  0.12242474655E+04  0.12242474655E+04  0.50400001928E-02 0. -1.
       -1   -1    0    0    0  501  0.00000000000E+00  0.00000000000E+00 -0.81679530558E+03  0.81679530559E+03  0.50400001928E-02 0.  1.
    10030    2    1    2    0    0  0.00000000000E+00  0.00000000000E+00  0.40745215989E+03  0.20410427711E+04  0.19999595823E+04 0.  0.
        2    1    3    3  502    0 -0.59713145708E+03 -0.80149730446E+03  0.23592861311E+03  0.10269499582E+04  0.25500000920E-02 0.  1.
       -2    1    3    3    0  502  0.59713145708E+03  0.80149730446E+03  0.17152354679E+03  0.10140928129E+04  0.25500000920E-02 0. -1.
</event>
<event>
 5   0  0.5107453E-06  0.2771679E+04  0.7818609E-02  0.8312115E-01
        1   -1    0    0  501    0  0.00000000000E+00  0.00000000000E+00  0.23524703335E+04  0.23524703335E+04  0.50400001928E-02 0. -1.
       -1   -1    0    0    0  501  0.00000000000E+00  0.00000000000E+00 -0.81639775265E+03  0.81639775267E+03  0.50400001928E-02 0.  1.
    10030    2    1    2    0    0  0.00000000000E+00  0.00000000000E+00  0.15360725809E+04  0.31688680862E+04  0.27716792697E+04 0.  0.
        2    1    3    3  502    0 -0.10699192913E+04  0.39046211683E+03 -0.13463968786E+03  0.11468721813E+04  0.25500000920E-02 0.  1.
       -2    1    3    3    0  502  0.10699192913E+04 -0.39046211683E+03  0.16707122687E+04  0.20219959049E+04  0.25500000920E-02 0. -1.
</event>
<event>
 5   0  0.5217999E-06  0.2791428E+04  0.7818609E-02  0.8305934E-01
       -1   -1    0    0    0  501  0.00000000000E+00  0.00000000000E+00  0.11266025381E+04  0.11266025381E+04  0.50400001928E-02 0.  1.
        1   -1    0    0  501    0  0.00000000000E+00  0.00000000000E+00 -0.17291086984E+04  0.17291086984E+04  0.50400001928E-02 0. -1.
    10030    2    1    2    0    0  0.00000000000E+00  0.00000000000E+00 -0.60250616031E+03  0.28557112365E+04  0.27914284861E+04 0.  0.
        1    1    3    3  502    0 -0.78668077055E+03 -0.83102084846E+03  0.51624598873E+03  0.12553773163E+04  0.50400001928E-02 0.  1.
       -1    1    3    3    0  502  0.78668077055E+03  0.83102084846E+03 -0.11187521490E+04  0.16003339203E+04  0.50400001928E-02 0. -1.
</event>
<event>
 5   0  0.1302063E-05  0.2766771E+04  0.7818609E-02  0.8313660E-01
        2   -1    0    0  501    0  0.00000000000E+00  0.00000000000E+00  0.14137041402E+04  0.14137041402E+04  0.25500000920E-02 0. -1.
       -2   -1    0    0    0  501  0.00000000000E+00  0.00000000000E+00 -0.13537169395E+04  0.13537169395E+04  0.25500000920E-02 0.  1.
    10030    2    1    2    0    0  0.00000000000E+00  0.00000000000E+00  0.59987200716E+02  0.27674210797E+04  0.27667708557E+04 0.  0.
        2    1    3    3  502    0  0.41914672863E+03  0.25099339739E+03 -0.12645568982E+04  0.13556495913E+04  0.25500000920E-02 0.  1.
       -2    1    3    3    0  502 -0.41914672863E+03 -0.25099339739E+03  0.13245440989E+04  0.14117714884E+04  0.25500000920E-02 0. -1.
</event>
<event>
 5   0  0.1330962E-05  0.2737171E+04  0.7818609E-02  0.8323044E-01
        2   -1    0    0  501    0  0.00000000000E+00  0.00000000000E+00  0.19137164124E+04  0.19137164124E+04  0.25500000920E-02 0.  1.
       -2   -1    0    0    0  501  0.00000000000E+00  0.00000000000E+00 -0.97873791735E+03  0.97873791736E+03  0.25500000920E-02 0. -1.
    10030    2    1    2    0    0  0.00000000000E+00  0.00000000000E+00  0.93497849500E+03  0.28924543297E+04  0.27371713982E+04 0.  0.
        4    1    3    3  502    0  0.51870721402E+03  0.89023684764E+03  0.14193960532E+04  0.17539286153E+04  0.12699999809E+01 0.  1.
       -4    1    3    3    0  502 -0.51870721402E+03 -0.89023684764E+03 -0.48441755821E+03  0.11385257144E+04  0.12699999809E+01 0. -1.
</event>
<event>
 5   0  0.4764214E-06  0.2774815E+04  0.7818609E-02  0.8311130E-01
       -1   -1    0    0    0  501  0.00000000000E+00  0.00000000000E+00  0.20361090213E+04  0.20361090213E+04  0.50400001928E-02 0. -1.
        1   -1    0    0  501    0  0.00000000000E+00  0.00000000000E+00 -0.94538126072E+03  0.94538126073E+03  0.50400001928E-02 0.  1.
    10030    2    1    2    0    0  0.00000000000E+00  0.00000000000E+00  0.10907277606E+04  0.29814902820E+04  0.27748148144E+04 0.  0.
        3    1    3    3  502    0 -0.66843194990E+03  0.30144381592E+03  0.18108971771E+04  0.19537190796E+04  0.10100000352E+00 0. -1.
       -3    1    3    3    0  502  0.66843194990E+03 -0.30144381592E+03 -0.72016941653E+03  0.10277712024E+04  0.10100000352E+00 0.  1.
</event>
<event>
 5   0  0.1388269E-05  0.2332226E+04  0.7818609E-02  0.8465322E-01
       -2   -1    0    0    0  501  0.00000000000E+00  0.00000000000E+00  0.97431988988E+03  0.97431988989E+03  0.25500000920E-02 0. -1.
        2   -1    0    0  501    0  0.00000000000E+00  0.00000000000E+00 -0.13956600994E+04  0.13956600994E+04  0.25500000920E-02 0.  1.
    10030    2    1    2    0    0  0.00000000000E+00  0.00000000000E+00 -0.42134020956E+03  0.23699799893E+04  0.23322258848E+04 0.  0.
        1    1    3    3  502    0 -0.34573709958E+03 -0.40752138889E+03  0.84254961220E+03  0.99774629714E+03  0.50400001928E-02 0. -1.
       -1    1    3    3    0  502  0.34573709958E+03  0.40752138889E+03 -0.12638898218E+04  0.13722336922E+04  0.50400001928E-02 0.  1.
</event>
<event>
 5   0  0.5107453E-06  0.2866506E+04  0.7818609E-02  0.8282913E-01
        1   -1    0    0  501    0  0.00000000000E+00  0.00000000000E+00  0.17295713091E+04  0.17295713091E+04  0.50400001928E-02 0. -1.
       -1   -1    0    0    0  501  0.00000000000E+00  0.00000000000E+00 -0.11877017499E+04  0.11877017499E+04  0.50400001928E-02 0.  1.
    10030    2    1    2    0    0  0.00000000000E+00  0.00000000000E+00  0.54186955924E+03  0.29172730590E+04  0.28665064942E+04 0.  0.
        2    1    3    3  502    0  0.28067924530E+03 -0.14054451273E+04  0.28372823637E+03  0.14610128531E+04  0.25500000920E-02 0.  1.
       -2    1    3    3    0  502 -0.28067924530E+03  0.14054451273E+04  0.25814132287E+03  0.14562602059E+04  0.25500000920E-02 0. -1.
</event>
<event>
 5   0  0.5217999E-06  0.2799560E+04  0.7818609E-02  0.8303405E-01
        1   -1    0    0  501    0  0.00000000000E+00  0.00000000000E+00  0.12791145674E+04  0.12791145674E+04  0.50400001928E-02 0.  1.
       -1   -1    0    0    0  501  0.00000000000E+00  0.00000000000E+00 -0.15318285342E+04  0.15318285342E+04  0.50400001928E-02 0. -1.
    10030    2    1    2    0    0  0.00000000000E+00  0.00000000000E+00 -0.25271396685E+03  0.28109431016E+04  0.27995601032E+04 0.  0.
        1    1    3    3  502    0 -0.13024273766E+03 -0.13136069273E+04 -0.59393043632E+03  0.14475080979E+04  0.50400001928E-02 0. -1.
       -1    1    3    3    0  502  0.13024273766E+03  0.13136069273E+04  0.34121646947E+03  0.13634350037E+04  0.50400001928E-02 0.  1.
</event>
<event>
 5   0  0.4764214E-06  0.2683440E+04  0.7818609E-02  0.8340398E-01
        1   -1    0    0  501    0  0.00000000000E+00  0.00000000000E+00  0.15913638684E+04  0.15913638684E+04  0.50400001928E-02 0.  1.
       -1   -1    0    0    0  501  0.00000000000E+00  0.00000000000E+00 -0.11312386080E+04  0.11312386080E+04  0.50400001928E-02 0. -1.
    10030    2    1    2    0    0  0.00000000000E+00  0.00000000000E+00  0.46012526039E+03  0.27226024764E+04  0.26834397681E+04 0.  0.
        3    1    3    3  502    0 -0.50182541492E+03  0.10172195343E+04  0.95721453447E+03  0.14841913634E+04  0.10100000352E+00 0. -1.
       -3    1    3    3    0  502  0.50182541492E+03 -0.10172195343E+04 -0.49708927408E+03  0.12384111129E+04  0.10100000352E+00 0.  1.
</event>
<event>
 5   0  0.5217999E-06  0.2790135E+04  0.7818609E-02  0.8306338E-01
        1   -1    0    0  501    0  0.00000000000E+00  0.00000000000E+00  0.21407579192E+04  0.21407579192E+04  0.50400001928E-02 0.  1.
       -1   -1    0    0    0  501  0.00000000000E+00  0.00000000000E+00 -0.90912353225E+03  0.90912353227E+03  0.50400001928E-02 0. -1.
    10030    2    1    2    0    0  0.00000000000E+00  0.00000000000E+00  0.12316343870E+04  0.30498814515E+04  0.27901350514E+04 0.  0.
        1    1    3    3  502    0 -0.82042276379E+03 -0.10523603558E+04  0.10607181903E+04  0.17046052062E+04  0.50400001928E-02 0. -1.
       -1    1    3    3    0  502  0.82042276379E+03  0.10523603558E+04  0.17091619668E+03  0.13452762453E+04  0.50400001928E-02 0.  1.
</event>
<event>
 5   0  0.5217999E-06  0.2442507E+04  0.7818609E-02  0.8423759E-01
        1   -1    0    0  501    0  0.00000000000E+00  0.00000000000E+00  0.10520151048E+04  0.10520151049E+04  0.50400001928E-02 0. -1.
       -1   -1    0    0    0  501  0.00000000000E+00  0.00000000000E+00 -0.14177173699E+04  0.14177173699E+04  0.50400001928E-02 0.  1.
    10030    2    1    2    0    0  0.00000000000E+00  0.00000000000E+00 -0.36570226507E+03  0.24697324748E+04  0.24425069806E+04 0.  0.
        1    1    3    3  502    0 -0.31823720266E+03 -0.66878580473E+03 -0.11647107193E+04  0.13802537555E+04  0.50400001928E-02 0.  1.
       -1    1    3    3    0  502  0.31823720266E+03  0.66878580473E+03  0.79900845427E+03  0.10894787193E+04  0.50400001928E-02 0. -1.
</event>
<event>
 5   0  0.5107453E-06  0.2768839E+04  0.7818609E-02  0.8313008E-01
       -1   -1    0    0    0  501  0.00000000000E+00  0.00000000000E+00  0.99815140015E+03  0.99815140016E+03  0.50400001928E-02 0. -1.
        1   -1    0    0  501    0  0.00000000000E+00  0.00000000000E+00 -0.19201668585E+04  0.19201668585E+04  0.50400001928E-02 0.  1.
    10030    2    1    2    0    0  0.00000000000E+00  0.00000000000E+00 -0.92201545830E+03  0.29183182586E+04  0.27688389179E+04 0.  0.
        2    1    3    3  502    0  0.11832433329E+04  0.31130675266E+03 -0.11437765654E+04  0.16748735805E+04  0.25500000920E-02 0.  1.
       -2    1    3    3    0  502 -0.11832433329E+04 -0.31130675266E+03  0.22176110708E+03  0.12434446782E+04  0.25500000920E-02 0. -1.
</event>
<event>
 5   0  0.5217999E-06  0.2763529E+04  0.7818609E-02  0.8314681E-01
       -1   -1    0    0    0  501  0.00000000000E+00  0.00000000000E+00  0.11198543728E+04  0.11198543729E+04  0.50400001928E-02 0.  1.
        1   -1    0    0  501    0  0.00000000000E+00  0.00000000000E+00 -0.17049297937E+04  0.17049297937E+04  0.50400001928E-02 0. -1.
    10030    2    1    2    0    0  0.00000000000E+00  0.00000000000E+00 -0.58507542084E+03  0.28247841666E+04  0.27635289648E+04 0.  0.
        1    1    3    3  502    0 -0.42058342850E+03 -0.12867025221E+04 -0.93050845833E+01  0.13537283278E+04  0.50400001928E-02 0.  1.
       -1    1    3    3    0  502  0.42058342850E+03  0.12867025221E+04 -0.57577033626E+03  0.14710558388E+04  0.50400001928E-02 0. -1.
</event>
<event>
 5   0  0.1302063E-05  0.2819287E+04  0.7818609E-02  0.8297305E-01
       -2   -1    0    0    0  501  0.00000000000E+00  0.00000000000E+00  0.87715555666E+03  0.87715555666E+03  0.25500000920E-02 0.  1.
        2   -1    0    0  501    0  0.00000000000E+00  0.00000000000E+00 -0.22653848834E+04  0.22653848834E+04  0.25500000920E-02 0. -1.
    10030    2    1    2    0    0  0.00000000000E+00  0.00000000000E+00 -0.13882293268E+04  0.31425404401E+04  0.28192871003E+04 0.  0.
        2    1    3    3  502    0 -0.10093196078E+04 -0.46301050271E+03  0.27377177527E+03  0.11437026629E+04  0.25500000920E-02 0.  1.
       -2    1    3    3    0  502  0.10093196078E+04  0.46301050271E+03 -0.16620011020E+04  0.19988377772E+04  0.25500000920E-02 0. -1.
</event>
<event>
 5   0  0.5107453E-06  0.2918391E+04  0.7818609E-02  0.8267427E-01
        1   -1    0    0  501    0  0.00000000000E+00  0.00000000000E+00  0.12203544883E+04  0.12203544883E+04  0.50400001928E-02 0. -1.
       -1   -1    0    0    0  501  0.00000000000E+00  0.00000000000E+00 -0.17447808615E+04  0.17447808615E+04  0.50400001928E-02 0.  1.
    10030    2    1    2    0    0  0.00000000000E+00  0.00000000000E+00 -0.52442637319E+03  0.29651353499E+04  0.29183907590E+04 0.  0.
        2    1    3    3  502    0 -0.21968390710E+02 -0.24081129303E+03 -0.17242822948E+04  0.17411553984E+04  0.25500000920E-02 0.  1.
       -2    1    3    3    0  502  0.21968390710E+02  0.24081129303E+03  0.11998559216E+04  0.12239799515E+04  0.25500000920E-02 0. -1.
</event>
<event>
 5   0  0.5023691E-06  0.2244530E+04  0.7818609E-02  0.8500119E-01
       -1   -1    0    0    0  501  0.00000000000E+00  0.00000000000E+00  0.99392867941E+03  0.99392867942E+03  0.50400001928E-02 0.  1.
        1   -1    0    0  501    0  0.00000000000E+00  0.00000000000E+00 -0.12671719608E+04  0.12671719608E+04  0.50400001928E-02 0. -1.
    10030    2    1    2    0    0  0.00000000000E+00  0.00000000000E+00 -0.27324328137E+03  0.22611006402E+04  0.22445298426E+04 0.  0.
        5    1    3    3  502    0  0.20750998131E+03  0.92185199435E+03 -0.74655422810E+03  0.12042577786E+04  0.46999998093E+01 0. -1.
       -5    1    3    3    0  502 -0.20750998131E+03 -0.92185199435E+03  0.47331094674E+03  0.10568428616E+04  0.46999998093E+01 0.  1.
</event>
<event>
 5   0  0.1388269E-05  0.2814283E+04  0.7818609E-02  0.8298848E-01
       -2   -1    0    0    0  501  0.00000000000E+00  0.00000000000E+00  0.11361855249E+04  0.11361855250E+04  0.25500000920E-02 0. -1.
        2   -1    0    0  501    0  0.00000000000E+00  0.00000000000E+00 -0.17427149117E+04  0.17427149117E+04  0.25500000920E-02 0.  1.
    10030    2    1    2    0    0  0.00000000000E+00  0.00000000000E+00 -0.60652938672E+03  0.28789004366E+04  0.28142831817E+04 0.  0.
        1    1    3    3  502    0  0.66242144578E+03 -0.95454100735E+03  0.50874734917E+03  0.12683747758E+04  0.50400001928E-02 0. -1.
       -1    1    3    3    0  502 -0.66242144578E+03  0.95454100735E+03 -0.11152767359E+04  0.16105256608E+04  0.50400001928E-02 0.  1.
</event>
<event>
 5   0  0.1388269E-05  0.2802947E+04  0.7818609E-02  0.8302354E-01
        2   -1    0    0  501    0  0.00000000000E+00  0.00000000000E+00  0.24455599064E+04  0.24455599064E+04  0.25500000920E-02 0.  1.
       -2   -1    0    0    0  501  0.00000000000E+00  0.00000000000E+00 -0.80314045927E+03  0.80314045927E+03  0.25500000920E-02 0. -1.
    10030    2    1    2    0    0  0.00000000000E+00  0.00000000000E+00  0.16424194471E+04  0.32487003656E+04  0.28029470964E+04 0.  0.
        1    1    3    3  502    0  0.44929608134E+02  0.79827303496E+03  0.21552880348E+04  0.22988094791E+04  0.50400001928E-02 0.  1.
       -1    1    3    3    0  502 -0.44929608134E+02 -0.79827303496E+03 -0.51286858774E+03  0.94989088655E+03  0.50400001928E-02 0. -1.
</event>
<event>
 5   0  0.1302063E-05  0.2801341E+04  0.7818609E-02  0.8302852E-01
       -2   -1    0    0    0  501  0.00000000000E+00  0.00000000000E+00  0.71173624998E+03  0.71173624998E+03  0.25500000920E-02 0. -1.
        2   -1    0    0  501    0  0.00000000000E+00  0.00000000000E+00 -0.27564677356E+04  0.27564677356E+04  0.25500000920E-02 0.  1.
    10030    2    1    2    0    0  0.00000000000E+00  0.00000000000E+00 -0.20447314856E+04  0.34682039856E+04  0.28013411141E+04 0.  0.
        2    1    3    3  502    0 -0.34528295024E+03 -0.16976697210E+03  0.64502639886E+03  0.75106603956E+03  0.25500000920E-02 0. -1.
       -2    1    3    3    0  502  0.34528295024E+03  0.16976697210E+03 -0.26897578845E+04  0.27171379460E+04  0.25500000920E-02 0.  1.
</event>
<event>
 5   0  0.1283052E-05  0.2473364E+04  0.7818609E-02  0.8412537E-01
       -2   -1    0    0    0  501  0.00000000000E+00  0.00000000000E+00  0.68501559820E+03  0.68501559821E+03  0.25500000920E-02 0.  1.
        2   -1    0    0  501    0  0.00000000000E+00  0.00000000000E+00 -0.22326241333E+04  0.22326241333E+04  0.25500000920E-02 0. -1.
    10030    2    1    2    0    0  0.00000000000E+00  0.00000000000E+00 -0.15476085351E+04  0.29176397315E+04  0.24733639896E+04 0.  0.
        5    1    3    3  502    0  0.41047197821E+02  0.12681465365E+03 -0.22241152305E+04  0.22281107417E+04  0.46999998093E+01 0. -1.
       -5    1    3    3    0  502 -0.41047197821E+02 -0.12681465365E+03  0.67650669540E+03  0.68952898979E+03  0.46999998093E+01 0.  1.
</event>
<event>
 5   0  0.5281919E-06  0.2812289E+04  0.7818609E-02  0.8299463E-01
        1   -1    0    0  501    0  0.00000000000E+00  0.00000000000E+00  0.13512680814E+04  0.13512680814E+04  0.50400001928E-02 0. -1.
       -1   -1    0    0    0  501  0.00000000000E+00  0.00000000000E+00 -0.14632493714E+04  0.14632493714E+04  0.50400001928E-02 0.  1.
    10030    2    1    2    0    0  0.00000000000E+00  0.00000000000E+00 -0.11198128999E+03  0.28145174529E+04  0.28122888691E+04 0.  0.
        4    1    3    3  502    0  0.28858210305E+03 -0.13760464501E+04 -0.77387362105E+02  0.14081100383E+04  0.12699999809E+01 0. -1.
       -4    1    3    3    0  502 -0.28858210305E+03  0.13760464501E+04 -0.34593927886E+02  0.14064074146E+04  0.12699999809E+01 0.  1.
</event>
<event>
 5   0  0.1388269E-05  0.2694729E+04  0.7818609E-02  0.8336717E-01
       -2   -1    0    0    0  501  0.00000000000E+00  0.00000000000E+00  0.84790982296E+03  0.84790982297E+03  0.25500000920E-02 0. -1.
        2   -1    0    0  501    0  0.00000000000E+00  0.00000000000E+00 -0.21410192723E+04  0.21410192723E+04  0.25500000920E-02 0.  1.
    10030    2    1    2    0    0  0.00000000000E+00  0.00000000000E+00 -0.12931094493E+04  0.29889290953E+04  0.26947291308E+04 0.  0.
        1    1    3    3  502    0  0.97562770696E+03 -0.77716612338E+02 -0.16736673333E+04  0.19388273871E+04  0.50400001928E-02 0.  1.
       -1    1    3    3    0  502 -0.97562770696E+03  0.77716612338E+02  0.38055788396E+03  0.10501017082E+04  0.50400001928E-02 0. -1.
</event>
<event>
 5   0  0.5217999E-06  0.2814945E+04  0.7818609E-02  0.8298644E-01
        1   -1    0    0  501    0  0.00000000000E+00  0.00000000000E+00  0.12410830324E+04  0.12410830324E+04  0.50400001928E-02 0. -1.
       -1   -1    0    0    0  501  0.00000000000E+00  0.00000000000E+00 -0.15961692640E+04  0.15961692640E+04  0.50400001928E-02 0.  1.
    10030    2    1    2    0    0  0.00000000000E+00  0.00000000000E+00 -0.35508623159E+03  0.28372522964E+04  0.28149448239E+04 0.  0.
        1    1    3    3  502    0 -0.15812861320E+03 -0.11577530184E+04 -0.96835098736E+03  0.15175968979E+04  0.50400001928E-02 0.  1.
       -1    1    3    3    0  502  0.15812861320E+03  0.11577530184E+04  0.61326475577E+03  0.13196553984E+04  0.50400001928E-02 0. -1.
</event>
<event>
 5   0  0.5107453E-06  0.2800783E+04  0.7818609E-02  0.8303025E-01
        1   -1    0    0  501    0  0.00000000000E+00  0.00000000000E+00  0.11846659175E+04  0.11846659175E+04  0.50400001928E-02 0. -1.
       -1   -1    0    0    0  501  0.00000000000E+00  0.00000000000E+00 -0.16554000232E+04  0.16554000232E+04  0.50400001928E-02 0.  1.
    10030    2    1    2    0    0  0.00000000000E+00  0.00000000000E+00 -0.47073410562E+03  0.28400659407E+04  0.28007827387E+04 0.  0.
        2    1    3    3  502    0 -0.74876594267E+02 -0.60292749891E+03  0.10440618506E+04  0.12079707038E+04  0.25500000920E-02 0. -1.
       -2    1    3    3    0  502  0.74876594267E+02  0.60292749891E+03 -0.15147959562E+04  0.16320952369E+04  0.25500000920E-02 0.  1.
</event>
<event>
 5   0  0.5217999E-06  0.2833894E+04  0.7818609E-02  0.8292822E-01
        1   -1    0    0  501    0  0.00000000000E+00  0.00000000000E+00  0.91495311720E+03  0.91495311722E+03  0.50400001928E-02 0. -1.
       -1   -1    0    0    0  501  0.00000000000E+00  0.00000000000E+00 -0.21943632191E+04  0.21943632191E+04  0.50400001928E-02 0.  1.
    10030    2    1    2    0    0  0.00000000000E+00  0.00000000000E+00 -0.12794101019E+04  0.31093163363E+04  0.28338944706E+04 0.  0.
        1    1    3    3  502    0  0.15496356335E+03 -0.14017461135E+04 -0.48913179259E+03  0.14927008351E+04  0.50400001928E-02 0. -1.
       -1    1    3    3    0  502 -0.15496356335E+03  0.14017461135E+04 -0.79027830929E+03  0.16166155012E+04  0.50400001928E-02 0.  1.
</event>
<event>
 5   0  0.5023691E-06  0.2787251E+04  0.7818609E-02  0.8307237E-01
        1   -1    0    0  501    0  0.00000000000E+00  0.00000000000E+00  0.20055166274E+04  0.20055166274E+04  0.50400001928E-02 0. -1.
       -1   -1    0    0    0  501  0.00000000000E+00  0.00000000000E+00 -0.96842467458E+03  0.96842467459E+03  0.50400001928E-02 0.  1.
    10030    2    1    2    0    0  0.00000000000E+00  0.00000000000E+00  0.10370919528E+04  0.29739413020E+04  0.27872508228E+04 0.  0.
        5    1    3    3  502    0  0.11196253514E+04 -0.46933843116E+03  0.12487301661E+04  0.17416051815E+04  0.46999998093E+01 0. -1.
       -5    1    3    3    0  502 -0.11196253514E+04  0.46933843116E+03 -0.21163821334E+03  0.12323361205E+04  0.46999998093E+01 0.  1.
</event>
<event>
 5   0  0.5107453E-06  0.2835535E+04  0.7818609E-02  0.8292320E-01
       -1   -1    0    0    0  501  0.00000000000E+00  0.00000000000E+00  0.16687250276E+04  0.16687250276E+04  0.50400001928E-02 0.  1.
        1   -1    0    0  501    0  0.00000000000E+00  0.00000000000E+00 -0.12045511346E+04  0.12045511346E+04  0.50400001928E-02 0. -1.
    10030    2    1    2    0    0  0.00000000000E+00  0.00000000000E+00  0.46417389301E+03  0.28732761622E+04  0.28355349585E+04 0.  0.
        2    1    3    3  502    0  0.65470699467E+03 -0.10730800363E+04  0.89649900776E+03  0.15439729545E+04  0.25500000920E-02 0.  1.
       -2    1    3    3    0  502 -0.65470699467E+03  0.10730800363E+04 -0.43232511475E+03  0.13293032077E+04  0.25500000920E-02 0. -1.
</event>
<event>
 5   0  0.1388269E-05  0.2862502E+04  0.7818609E-02  0.8284122E-01
       -2   -1    0    0    0  501  0.00000000000E+00  0.00000000000E+00  0.10661315925E+04  0.10661315925E+04  0.25500000920E-02 0. -1.
        2   -1    0    0  501    0  0.00000000000E+00  0.00000000000E+00 -0.19214134113E+04  0.19214134113E+04  0.25500000920E-02 0.  1.
    10030    2    1    2    0    0  0.00000000000E+00  0.00000000000E+00 -0.85528181881E+03  0.29875450038E+04  0.28625020804E+04 0.  0.
        1    1    3    3  502    0  0.41370352792E+03 -0.34399955339E+03 -0.18118469181E+04  0.18900464430E+04  0.50400001928E-02 0.  1.
       -1    1    3    3    0  502 -0.41370352792E+03  0.34399955339E+03  0.95656509932E+03  0.10974985608E+04  0.50400001928E-02 0. -1.
</event>
<event>
 5   0  0.1350863E-05  0.2775817E+04  0.7818609E-02  0.8310816E-01
       -2   -1    0    0    0  501  0.00000000000E+00  0.00000000000E+00  0.10543954984E+04  0.10543954984E+04  0.25500000920E-02 0. -1.
        2   -1    0    0  501    0  0.00000000000E+00  0.00000000000E+00 -0.18269138153E+04  0.18269138153E+04  0.25500000920E-02 0.  1.
    10030    2    1    2    0    0  0.00000000000E+00  0.00000000000E+00 -0.77251831698E+03  0.28813093137E+04  0.27758167827E+04 0.  0.
        3    1    3    3  502    0  0.10592350391E+04  0.79722398681E+03  0.40137907088E+02  0.13263317892E+04  0.10100000352E+00 0. -1.
       -3    1    3    3    0  502 -0.10592350391E+04 -0.79722398681E+03 -0.81265622407E+03  0.15549775245E+04  0.10100000352E+00 0.  1.
</event>
<event>
 5   0  0.5217999E-06  0.2810303E+04  0.7818609E-02  0.8300077E-01
        1   -1    0    0  501    0  0.00000000000E+00  0.00000000000E+00  0.22355248262E+04  0.22355248262E+04  0.50400001928E-02 0. -1.
       -1   -1    0    0    0  501  0.00000000000E+00  0.00000000000E+00 -0.88321561248E+03  0.88321561250E+03  0.50400001928E-02 0.  1.
    10030    2    1    2    0    0  0.00000000000E+00  0.00000000000E+00  0.13523092138E+04  0.31187404387E+04  0.28103027799E+04 0.  0.
        1    1    3    3  502    0  0.71517312757E+03  0.62699018243E+03  0.18240169922E+04  0.20570919472E+04  0.50400001928E-02 0. -1.
       -1    1    3    3    0  502 -0.71517312757E+03 -0.62699018243E+03 -0.47170777849E+03  0.10616484915E+04  0.50400001928E-02 0.  1.
</event>
<event>
 5   0  0.5107453E-06  0.2792539E+04  0.7818609E-02  0.8305588E-01
        1   -1    0    0  501    0  0.00000000000E+00  0.00000000000E+00  0.19128883553E+04  0.19128883553E+04  0.50400001928E-02 0.  1.
       -1   -1    0    0    0  501  0.00000000000E+00  0.00000000000E+00 -0.10191752408E+04  0.10191752408E+04  0.50400001928E-02 0. -1.
    10030    2    1    2    0    0  0.00000000000E+00  0.00000000000E+00  0.89371311449E+03  0.29320635961E+04  0.27925389523E+04 0.  0.
        2    1    3    3  502    0 -0.40727299300E+03 -0.40140732514E+03 -0.89058796381E+03  0.10583695256E+04  0.25500000920E-02 0. -1.
       -2    1    3    3    0  502  0.40727299300E+03  0.40140732514E+03  0.17843010783E+04  0.18736940704E+04  0.25500000920E-02 0.  1.
</event>
<event>
 5   0  0.5217999E-06  0.2812297E+04  0.7818609E-02  0.8299461E-01
       -1   -1    0    0    0  501  0.00000000000E+00  0.00000000000E+00  0.12705752640E+04  0.12705752640E+04  0.50400001928E-02 0. -1.
        1   -1    0    0  501    0  0.00000000000E+00  0.00000000000E+00 -0.15561881965E+04  0.15561881965E+04  0.50400001928E-02 0.  1.
    10030    2    1    2    0    0  0.00000000000E+00  0.00000000000E+00 -0.28561293249E+03  0.28267634605E+04  0.28122974442E+04 0.  0.
        1    1    3    3  502    0 -0.73648147231E+03 -0.65728857131E+03 -0.11493670679E+04  0.15150834570E+04  0.50400001928E-02 0.  1.
       -1    1    3    3    0  502  0.73648147231E+03  0.65728857131E+03  0.86375413540E+03  0.13116800035E+04  0.50400001928E-02 0. -1.
</event>
<event>
 5   0  0.5107453E-06  0.2805669E+04  0.7818609E-02  0.8301510E-01
       -1   -1    0    0    0  501  0.00000000000E+00  0.00000000000E+00  0.23453177465E+04  0.23453177465E+04  0.50400001928E-02 0. -1.
        1   -1    0    0  501    0  0.00000000000E+00  0.00000000000E+00 -0.83909525570E+03  0.83909525572E+03  0.50400001928E-02 0.  1.
    10030    2    1    2    0    0  0.00000000000E+00  0.00000000000E+00  0.15062224908E+04  0.31844130022E+04  0.28056692565E+04 0.  0.
        2    1    3    3  502    0  0.38142788004E+03 -0.10422567546E+04 -0.22070859219E+03  0.11315912039E+04  0.25500000920E-02 0.  1.
       -2    1    3    3    0  502 -0.38142788004E+03  0.10422567546E+04  0.17269310830E+04  0.20528217983E+04  0.25500000920E-02 0. -1.
</event>
<event>
 5   0  0.4764214E-06  0.2795502E+04  0.7818609E-02  0.8304666E-01
        1   -1    0    0  501    0  0.00000000000E+00  0.00000000000E+00  0.21676694773E+04  0.21676694773E+04  0.50400001928E-02 0.  1.
       -1   -1    0    0    0  501  0.00000000000E+00  0.00000000000E+00 -0.90129418259E+03  0.90129418261E+03  0.50400001928E-02 0. -1.
    10030    2    1    2    0    0  0.00000000000E+00  0.00000000000E+00  0.12663752947E+04  0.30689636599E+04  0.27955020227E+04 0.  0.
        3    1    3    3  502    0  0.22157747064E+03  0.10969493835E+04 -0.28617740160E+03  0.11551155963E+04  0.10100000352E+00 0. -1.
       -3    1    3    3    0  502 -0.22157747064E+03 -0.10969493835E+04  0.15525526963E+04  0.19138480635E+04  0.10100000352E+00 0.  1.
</event>
<event>
 5   0  0.1388269E-05  0.2787920E+04  0.7818609E-02  0.8307028E-01
        2   -1    0    0  501    0  0.00000000000E+00  0.00000000000E+00  0.29914429394E+04  0.29914429394E+04  0.25500000920E-02 0.  1.
       -2   -1    0    0    0  501  0.00000000000E+00  0.00000000000E+00 -0.64956108135E+03  0.64956108135E+03  0.25500000920E-02 0. -1.
    10030    2    1    2    0    0  0.00000000000E+00  0.00000000000E+00  0.23418818580E+04  0.36410040207E+04  0.27879203077E+04 0.  0.
        1    1    3    3  502    0  0.15196072483E+03 -0.13374826347E+04  0.69793878165E+03  0.15162685788E+04  0.50400001928E-02 0.  1.
       -1    1    3    3    0  502 -0.15196072483E+03  0.13374826347E+04  0.16439430764E+04  0.21247354420E+04  0.50400001928E-02 0. -1.
</event>
<event>
 5   0  0.5023691E-06  0.2749771E+04  0.7818609E-02  0.8319034E-01
        1   -1    0    0  501    0  0.00000000000E+00  0.00000000000E+00  0.10177801888E+04  0.10177801888E+04  0.50400001928E-02 0. -1.
       -1   -1    0    0    0  501  0.00000000000E+00  0.00000000000E+00 -0.18572872211E+04  0.18572872212E+04  0.50400001928E-02 0.  1.
    10030    2    1    2    0    0  0.00000000000E+00  0.00000000000E+00 -0.83950703235E+03  0.28750674100E+04  0.27497710004E+04 0.  0.
        5    1    3    3  502    0 -0.48958283713E+03  0.11297621756E+03 -0.17578465878E+04  0.18282509938E+04  0.46999998093E+01 0.  1.
       -5    1    3    3    0  502  0.48958283713E+03 -0.11297621756E+03  0.91833955541E+03  0.10468164162E+04  0.46999998093E+01 0. -1.
</event>
<event>
 5   0  0.1302063E-05  0.2735357E+04  0.7818609E-02  0.8323623E-01
        2   -1    0    0  501    0  0.00000000000E+00  0.00000000000E+00  0.22725527512E+04  0.22725527512E+04  0.25500000920E-02 0. -1.
       -2   -1    0    0    0  501  0.00000000000E+00  0.00000000000E+00 -0.82310291365E+03  0.82310291366E+03  0.25500000920E-02 0.  1.
    10030    2    1    2    0    0  0.00000000000E+00  0.00000000000E+00  0.14494498375E+04  0.30956556648E+04  0.27353572278E+04 0.  0.
        2    1    3    3  502    0  0.78760295484E+03  0.63783161324E+03  0.17640578201E+04  0.20344649355E+04  0.25500000920E-02 0. -1.
       -2    1    3    3    0  502 -0.78760295484E+03 -0.63783161324E+03 -0.31460798253E+03  0.10611907293E+04  0.25500000920E-02 0.  1.
</event>
<event>
 5   0  0.5107453E-06  0.2805479E+04  0.7818609E-02  0.8301569E-01
       -1   -1    0    0    0  501  0.00000000000E+00  0.00000000000E+00  0.93295935615E+03  0.93295935616E+03  0.50400001928E-02 0.  1.
        1   -1    0    0  501    0  0.00000000000E+00  0.00000000000E+00 -0.21090715682E+04  0.21090715682E+04  0.50400001928E-02 0. -1.
    10030    2    1    2    0    0  0.00000000000E+00  0.00000000000E+00 -0.11761122120E+04  0.30420309243E+04  0.28054789626E+04 0.  0.
        2    1    3    3  502    0  0.37970219044E+03  0.77174502887E+03  0.61349035242E+03  0.10564726951E+04  0.25500000920E-02 0.  1.
       -2    1    3    3    0  502 -0.37970219044E+03 -0.77174502887E+03 -0.17896025644E+04  0.19855582292E+04  0.25500000920E-02 0. -1.
</event>
<event>
 5   0  0.1350863E-05  0.2796044E+04  0.7818609E-02  0.8304498E-01
       -2   -1    0    0    0  501  0.00000000000E+00  0.00000000000E+00  0.10542925064E+04  0.10542925064E+04  0.25500000920E-02 0.  1.
        2   -1    0    0  501    0  0.00000000000E+00  0.00000000000E+00 -0.18538168123E+04  0.18538168123E+04  0.25500000920E-02 0. -1.
    10030    2    1    2    0    0  0.00000000000E+00  0.00000000000E+00 -0.79952430590E+03  0.29081093187E+04  0.27960437575E+04 0.  0.
        3    1    3    3  502    0 -0.84153680324E+02 -0.37462594578E+02  0.10511326886E+04  0.10551612327E+04  0.10100000352E+00 0.  1.
       -3    1    3    3    0  502  0.84153680324E+02  0.37462594578E+02 -0.18506569945E+04  0.18529480860E+04  0.10100000352E+00 0. -1.
</event>
<event>
 5   0  0.5217999E-06  0.2794327E+04  0.7818609E-02  0.8305032E-01
        1   -1    0    0  501    0  0.00000000000E+00  0.00000000000E+00  0.13260305220E+04  0.13260305220E+04  0.50400001928E-02 0. -1.
       -1   -1    0    0    0  501  0.00000000000E+00  0.00000000000E+00 -0.14721128172E+04  0.14721128172E+04  0.50400001928E-02 0.  1.
    10030    2    1    2    0    0  0.00000000000E+00  0.00000000000E+00 -0.14608229516E+03  0.27981433392E+04  0.27943274879E+04 0.  0.
        1    1    3    3  502    0  0.29755641133E+03 -0.13471011460E+04 -0.29435248057E+03  0.14106256408E+04  0.50400001928E-02 0.  1.
       -1    1    3    3    0  502 -0.29755641133E+03  0.13471011460E+04  0.14827018541E+03  0.13875176984E+04  0.50400001928E-02 0. -1.
</event>
<event>
 5   0  0.1350863E-05  0.2744742E+04  0.7818609E-02  0.8320632E-01
        2   -1    0    0  501    0  0.00000000000E+00  0.00000000000E+00  0.13094599493E+04  0.13094599493E+04  0.25500000920E-02 0.  1.
       -2   -1    0    0    0  501  0.00000000000E+00  0.00000000000E+00 -0.14383048390E+04  0.14383048390E+04  0.25500000920E-02 0. -1.
    10030    2    1    2    0    0  0.00000000000E+00  0.00000000000E+00 -0.12884488975E+03  0.27477647883E+04  0.27447423060E+04 0.  0.
        3    1    3    3  502    0 -0.12031370216E+04 -0.28329641232E+03 -0.66140706314E+03  0.14018754806E+04  0.10100000352E+00 0. -1.
       -3    1    3    3    0  502  0.12031370216E+04  0.28329641232E+03  0.53256217339E+03  0.13458893077E+04  0.10100000352E+00 0.  1.
</event>
<event>
 5   0  0.4764214E-06  0.2537533E+04  0.7818609E-02  0.8389735E-01
        1   -1    0    0  501    0  0.00000000000E+00  0.00000000000E+00  0.10923722600E+04  0.10923722600E+04  0.50400001928E-02 0. -1.
       -1   -1    0    0    0  501  0.00000000000E+00  0.00000000000E+00 -0.14736449461E+04  0.14736449461E+04  0.50400001928E-02 0.  1.
    10030    2    1    2    0    0  0.00000000000E+00  0.00000000000E+00 -0.38127268613E+03  0.25660172061E+04  0.25375333378E+04 0.  0.
        3    1    3    3  502    0 -0.11332943221E+04  0.28072734931E+03  0.31153130850E+03  0.12083938230E+04  0.10100000352E+00 0. -1.
       -3    1    3    3    0  502  0.11332943221E+04 -0.28072734931E+03 -0.69280399463E+03  0.13576233831E+04  0.10100000352E+00 0.  1.
</event>
<event>
 5   0  0.5023691E-06  0.2816980E+04  0.7818609E-02  0.8298016E-01
       -1   -1    0    0    0  501  0.00000000000E+00  0.00000000000E+00  0.10729531980E+04  0.10729531980E+04  0.50400001928E-02 0.  1.
        1   -1    0    0  501    0  0.00000000000E+00  0.00000000000E+00 -0.18489562013E+04  0.18489562014E+04  0.50400001928E-02 0. -1.
    10030    2    1    2    0    0  0.00000000000E+00  0.00000000000E+00 -0.77600300334E+03  0.29219093994E+04  0.28169795663E+04 0.  0.
        5    1    3    3  502    0  0.83827906733E+03 -0.22686904993E+03 -0.15381980056E+04  0.17664247946E+04  0.46999998093E+01 0. -1.
       -5    1    3    3    0  502 -0.83827906733E+03  0.22686904993E+03  0.76219500222E+03  0.11554846048E+04  0.46999998093E+01 0.  1.
</event>
<event>
 5   0  0.4764214E-06  0.2808469E+04  0.7818609E-02  0.8300644E-01
       -1   -1    0    0    0  501  0.00000000000E+00  0.00000000000E+00  0.20170987537E+04  0.20170987537E+04  0.50400001928E-02 0.  1.
        1   -1    0    0  501    0  0.00000000000E+00  0.00000000000E+00 -0.97757965954E+03  0.97757965956E+03  0.50400001928E-02 0. -1.
    10030    2    1    2    0    0  0.00000000000E+00  0.00000000000E+00  0.10395190942E+04  0.29946784133E+04  0.28084691296E+04 0.  0.
        3    1    3    3  502    0  0.43911011847E+03  0.62971946235E+03  0.17735205052E+04  0.19325473578E+04  0.10100000352E+00 0.  1.
       -3    1    3    3    0  502 -0.43911011847E+03 -0.62971946235E+03 -0.73400141106E+03  0.10621310555E+04  0.10100000352E+00 0. -1.
</event>
<event>
 5   0  0.1283052E-05  0.2801719E+04  0.7818609E-02  0.8302735E-01
        2   -1    0    0  501    0  0.00000000000E+00  0.00000000000E+00  0.17099254050E+04  0.17099254050E+04  0.25500000920E-02 0. -1.
       -2   -1    0    0    0  501  0.00000000000E+00  0.00000000000E+00 -0.11476563082E+04  0.11476563082E+04  0.25500000920E-02 0.  1.
    10030    2    1    2    0    0  0.00000000000E+00  0.00000000000E+00  0.56226909686E+03  0.28575817132E+04  0.28017185280E+04 0.  0.
        5    1    3    3  502    0  0.20255228811E+03 -0.38908133091E+03  0.16380646019E+04  0.16957857888E+04  0.46999998093E+01 0. -1.
       -5    1    3    3    0  502 -0.20255228811E+03  0.38908133091E+03 -0.10757955050E+04  0.11617959244E+04  0.46999998093E+01 0.  1.
</event>
<event>
 5   0  0.1388269E-05  0.2808718E+04  0.7818609E-02  0.8300567E-01
        2   -1    0    0  501    0  0.00000000000E+00  0.00000000000E+00  0.14402038012E+04  0.14402038012E+04  0.25500000920E-02 0. -1.
       -2   -1    0    0    0  501  0.00000000000E+00  0.00000000000E+00 -0.13694062840E+04  0.13694062840E+04  0.25500000920E-02 0.  1.
    10030    2    1    2    0    0  0.00000000000E+00  0.00000000000E+00  0.70797517163E+02  0.28096100852E+04  0.28087179535E+04 0.  0.
        1    1    3    3  502    0  0.51752980004E+03 -0.10933595696E+04 -0.67823648492E+03  0.13868226173E+04  0.50400001928E-02 0.  1.
       -1    1    3    3    0  502 -0.51752980004E+03  0.10933595696E+04  0.74903400208E+03  0.14227874679E+04  0.50400001928E-02 0. -1.
</event>
<event>
 5   0  0.1388269E-05  0.2819523E+04  0.7818609E-02  0.8297233E-01
       -2   -1    0    0    0  501  0.00000000000E+00  0.00000000000E+00  0.18018413967E+04  0.18018413967E+04  0.25500000920E-02 0.  1.
        2   -1    0    0  501    0  0.00000000000E+00  0.00000000000E+00 -0.11029982224E+04  0.11029982224E+04  0.25500000920E-02 0. -1.
    10030    2    1    2    0    0  0.00000000000E+00  0.00000000000E+00  0.69884317434E+03  0.29048396191E+04  0.28195232629E+04 0.  0.
        1    1    3    3  502    0 -0.98737777300E+03  0.46835081304E+03  0.12669658371E+04  0.16731616130E+04  0.50400001928E-02 0.  1.
       -1    1    3    3    0  502  0.98737777300E+03 -0.46835081304E+03 -0.56812266279E+03  0.12316780061E+04  0.50400001928E-02 0. -1.
</event>
<event>
 5   0  0.5107453E-06  0.2685881E+04  0.7818609E-02  0.8339601E-01
        1   -1    0    0  501    0  0.00000000000E+00  0.00000000000E+00  0.16629924623E+04  0.16629924623E+04  0.50400001928E-02 0. -1.
       -1   -1    0    0    0  501  0.00000000000E+00  0.00000000000E+00 -0.10844839480E+04  0.10844839480E+04  0.50400001928E-02 0.  1.
    10030    2    1    2    0    0  0.00000000000E+00  0.00000000000E+00  0.57850851428E+03  0.27474764102E+04  0.26858805863E+04 0.  0.
        2    1    3    3  502    0  0.66315310423E+03  0.89175960692E+03 -0.48201389770E+03  0.12113400158E+04  0.25500000920E-02 0.  1.
       -2    1    3    3    0  502 -0.66315310423E+03 -0.89175960692E+03  0.10605224120E+04  0.15361363945E+04  0.25500000920E-02 0. -1.
</event>
<event>
 5   0  0.4447500E-06  0.2214652E+04  0.7818609E-02  0.8512354E-01
        4   -1    0    0  501    0  0.00000000000E+00  0.00000000000E+00  0.15505804660E+04  0.15505809861E+04  0.12699999809E+01 0. -1.
       -4   -1    0    0    0  501  0.00000000000E+00  0.00000000000E+00 -0.79078033583E+03  0.79078135564E+03  0.12699999809E+01 0.  1.
    10030    2    1    2    0    0  0.00000000000E+00  0.00000000000E+00  0.75980013015E+03  0.23413623417E+04  0.22146515251E+04 0.  0.
        3    1    3    3  502    0  0.19068992207E+03  0.83697115431E+03 -0.35961164669E+03  0.93070076081E+03  0.10100000352E+00 0.  1.
       -3    1    3    3    0  502 -0.19068992207E+03 -0.83697115431E+03  0.11194117768E+04  0.14106615809E+04  0.10100000352E+00 0. -1.
</event>
<event>
 5   0  0.1302063E-05  0.2638515E+04  0.7818609E-02  0.8355235E-01
        2   -1    0    0  501    0  0.00000000000E+00  0.00000000000E+00  0.12011137489E+04  0.12011137489E+04  0.25500000920E-02 0.  1.
       -2   -1    0    0    0  501  0.00000000000E+00  0.00000000000E+00 -0.14490219686E+04  0.14490219686E+04  0.25500000920E-02 0. -1.
    10030    2    1    2    0    0  0.00000000000E+00  0.00000000000E+00 -0.24790821970E+03  0.26501357176E+04  0.26385148922E+04 0.  0.
        2    1    3    3  502    0  0.10384024302E+04 -0.76911988193E+03  0.14295149326E+03  0.13001000458E+04  0.25500000920E-02 0.  1.
       -2    1    3    3    0  502 -0.10384024302E+04  0.76911988193E+03 -0.39085971296E+03  0.13500356717E+04  0.25500000920E-02 0. -1.
</event>
<event>
 5   0  0.5023691E-06  0.2820192E+04  0.7818609E-02  0.8297027E-01
       -1   -1    0    0    0  501  0.00000000000E+00  0.00000000000E+00  0.14425729439E+04  0.14425729439E+04  0.50400001928E-02 0.  1.
        1   -1    0    0  501    0  0.00000000000E+00  0.00000000000E+00 -0.13783505133E+04  0.13783505133E+04  0.50400001928E-02 0. -1.
    10030    2    1    2    0    0  0.00000000000E+00  0.00000000000E+00  0.64222430618E+02  0.28209234572E+04  0.28201923039E+04 0.  0.
        5    1    3    3  502    0 -0.26972993191E+03 -0.12157932572E+04 -0.62945392576E+03  0.13954002347E+04  0.46999998093E+01 0. -1.
       -5    1    3    3    0  502  0.26972993191E+03  0.12157932572E+04  0.69367635638E+03  0.14255232225E+04  0.46999998093E+01 0.  1.
</event>
<event>
 5   0  0.5281919E-06  0.2670773E+04  0.7818609E-02  0.8344551E-01
        1   -1    0    0  501    0  0.00000000000E+00  0.00000000000E+00  0.16470259392E+04  0.16470259392E+04  0.50400001928E-02 0. -1.
       -1   -1    0    0    0  501  0.00000000000E+00  0.00000000000E+00 -0.10827137841E+04  0.10827137841E+04  0.50400001928E-02 0.  1.
    10030    2    1    2    0    0  0.00000000000E+00  0.00000000000E+00  0.56431215508E+03  0.27297397233E+04  0.26707734364E+04 0.  0.
        4    1    3    3  502    0 -0.85382789712E+03  0.91931114824E+03 -0.18521545479E+03  0.12682513327E+04  0.12699999809E+01 0.  1.
       -4    1    3    3    0  502  0.85382789712E+03 -0.91931114824E+03  0.74952760987E+03  0.14614883907E+04  0.12699999809E+01 0. -1.
</event>
<event>
 5   0  0.4764214E-06  0.2826734E+04  0.7818609E-02  0.8295016E-01
       -1   -1    0    0    0  501  0.00000000000E+00  0.00000000000E+00  0.11907818549E+04  0.11907818549E+04  0.50400001928E-02 0.  1.
        1   -1    0    0  501    0  0.00000000000E+00  0.00000000000E+00 -0.16775580287E+04  0.16775580287E+04  0.50400001928E-02 0. -1.
    10030    2    1    2    0    0  0.00000000000E+00  0.00000000000E+00 -0.48677617379E+03  0.28683398837E+04  0.28267335646E+04 0.  0.
        3    1    3    3  502    0 -0.99056594399E+03  0.98611786590E+03 -0.30644547451E+02  0.13980659617E+04  0.10100000352E+00 0. -1.
       -3    1    3    3    0  502  0.99056594399E+03 -0.98611786590E+03 -0.45613162634E+03  0.14702739220E+04  0.10100000352E+00 0.  1.
</event>
<event>
 5   0  0.5023691E-06  0.2872694E+04  0.7818609E-02  0.8281048E-01
        1   -1    0    0  501    0  0.00000000000E+00  0.00000000000E+00  0.13279492973E+04  0.13279492973E+04  0.50400001928E-02 0.  1.
       -1   -1    0    0    0  501  0.00000000000E+00  0.00000000000E+00 -0.15535929832E+04  0.15535929833E+04  0.50400001928E-02 0. -1.
    10030    2    1    2    0    0  0.00000000000E+00  0.00000000000E+00 -0.22564368593E+03  0.28815422806E+04  0.28726940042E+04 0.  0.
        5    1    3    3  502    0 -0.33701999041E+01 -0.86206386113E+03 -0.12652317734E+04  0.15310124066E+04  0.46999998093E+01 0. -1.
       -5    1    3    3    0  502  0.33701999041E+01  0.86206386113E+03  0.10395880874E+04  0.13505298740E+04  0.46999998093E+01 0.  1.
</event>
<event>
 5   0  0.1302063E-05  0.2787979E+04  0.7818609E-02  0.8307010E-01
       -2   -1    0    0    0  501  0.00000000000E+00  0.00000000000E+00  0.11997040125E+04  0.11997040125E+04  0.25500000920E-02 0.  1.
        2   -1    0    0  501    0  0.00000000000E+00  0.00000000000E+00 -0.16197382368E+04  0.16197382368E+04  0.25500000920E-02 0. -1.
    10030    2    1    2    0    0  0.00000000000E+00  0.00000000000E+00 -0.42003422434E+03  0.28194422493E+04  0.27879788105E+04 0.  0.
        2    1    3    3  502    0 -0.81813595420E+03  0.56319151280E+03  0.77911892528E+03  0.12623618417E+04  0.25500000920E-02 0.  1.
       -2    1    3    3    0  502  0.81813595420E+03 -0.56319151280E+03 -0.11991531496E+04  0.15570804077E+04  0.25500000920E-02 0. -1.
</event>
<event>
 5   0  0.1302063E-05  0.2792756E+04  0.7818609E-02  0.8305521E-01
        2   -1    0    0  501    0  0.00000000000E+00  0.00000000000E+00  0.94788012336E+03  0.94788012336E+03  0.25500000920E-02 0.  1.
       -2   -1    0    0    0  501  0.00000000000E+00  0.00000000000E+00 -0.20570865686E+04  0.20570865686E+04  0.25500000920E-02 0. -1.
    10030    2    1    2    0    0  0.00000000000E+00  0.00000000000E+00 -0.11092064452E+04  0.30049666919E+04  0.27927559653E+04 0.  0.
        2    1    3    3  502    0 -0.83932065920E+03 -0.10114270324E+04 -0.47144092810E+02  0.13151678130E+04  0.25500000920E-02 0.  1.
       -2    1    3    3    0  502  0.83932065920E+03  0.10114270324E+04 -0.10620623524E+04  0.16897988789E+04  0.25500000920E-02 0. -1.
</event>
<event>
 5   0  0.5281919E-06  0.2771486E+04  0.7818609E-02  0.8312176E-01
       -1   -1    0    0    0  501  0.00000000000E+00  0.00000000000E+00  0.10427057907E+04  0.10427057907E+04  0.50400001928E-02 0.  1.
        1   -1    0    0  501    0  0.00000000000E+00  0.00000000000E+00 -0.18416345679E+04  0.18416345679E+04  0.50400001928E-02 0. -1.
    10030    2    1    2    0    0  0.00000000000E+00  0.00000000000E+00 -0.79892877719E+03  0.28843403586E+04  0.27714855426E+04 0.  0.
        4    1    3    3  502    0 -0.33956895720E+03 -0.87705711047E+02  0.99575340857E+03  0.10557110552E+04  0.12699999809E+01 0.  1.
       -4    1    3    3    0  502  0.33956895720E+03  0.87705711047E+02 -0.17946821858E+04  0.18286293034E+04  0.12699999809E+01 0. -1.
</event>
<event>
 5   0  0.5217999E-06  0.2776294E+04  0.7818609E-02  0.8310666E-01
        1   -1    0    0  501    0  0.00000000000E+00  0.00000000000E+00  0.15053130400E+04  0.15053130400E+04  0.50400001928E-02 0. -1.
       -1   -1    0    0    0  501  0.00000000000E+00  0.00000000000E+00 -0.12801009760E+04  0.12801009760E+04  0.50400001928E-02 0.  1.
    10030    2    1    2    0    0  0.00000000000E+00  0.00000000000E+00  0.22521206403E+03  0.27854140160E+04  0.27762944308E+04 0.  0.
        1    1    3    3  502    0 -0.54720527404E+02 -0.17590993703E+03 -0.12677818983E+04  0.12810970236E+04  0.50400001928E-02 0.  1.
       -1    1    3    3    0  502  0.54720527404E+02  0.17590993703E+03  0.14929939623E+04  0.15043169924E+04  0.50400001928E-02 0. -1.
</event>
<event>
 5   0  0.5217999E-06  0.2792266E+04  0.7818609E-02  0.8305673E-01
       -1   -1    0    0    0  501  0.00000000000E+00  0.00000000000E+00  0.10578651824E+04  0.10578651824E+04  0.50400001928E-02 0. -1.
        1   -1    0    0  501    0  0.00000000000E+00  0.00000000000E+00 -0.18425670827E+04  0.18425670827E+04  0.50400001928E-02 0.  1.
    10030    2    1    2    0    0  0.00000000000E+00  0.00000000000E+00 -0.78470190028E+03  0.29004322651E+04  0.27922661500E+04 0.  0.
        1    1    3    3  502    0  0.26566752256E+03 -0.96430087406E+03 -0.14041114643E+04  0.17239444342E+04  0.50400001928E-02 0.  1.
       -1    1    3    3    0  502 -0.26566752256E+03  0.96430087406E+03  0.61940956397E+03  0.11764878309E+04  0.50400001928E-02 0. -1.
</event>
<event>
 5   0  0.5023691E-06  0.2774987E+04  0.7818609E-02  0.8311076E-01
        1   -1    0    0  501    0  0.00000000000E+00  0.00000000000E+00  0.21555075227E+04  0.21555075227E+04  0.50400001928E-02 0.  1.
       -1   -1    0    0    0  501  0.00000000000E+00  0.00000000000E+00 -0.89312545551E+03  0.89312545552E+03  0.50400001928E-02 0. -1.
    10030    2    1    2    0    0  0.00000000000E+00  0.00000000000E+00  0.12623820672E+04  0.30486329782E+04  0.27749873067E+04 0.  0.
        5    1    3    3  502    0  0.14514209687E+03  0.92242030714E+03 -0.49626011110E+03  0.10574599941E+04  0.46999998093E+01 0. -1.
       -5    1    3    3    0  502 -0.14514209687E+03 -0.92242030714E+03  0.17586421783E+04  0.19911729841E+04  0.46999998093E+01 0.  1.
</event>
<event>
 5   0  0.1330962E-05  0.2673505E+04  0.7818609E-02  0.8343653E-01
       -2   -1    0    0    0  501  0.00000000000E+00  0.00000000000E+00  0.82488505618E+03  0.82488505618E+03  0.25500000920E-02 0.  1.
        2   -1    0    0  501    0  0.00000000000E+00  0.00000000000E+00 -0.21662506532E+04  0.21662506532E+04  0.25500000920E-02 0. -1.
    10030    2    1    2    0    0  0.00000000000E+00  0.00000000000E+00 -0.13413655971E+04  0.29911357094E+04  0.26735054081E+04 0.  0.
        4    1    3    3  502    0  0.72980129378E+03  0.46789003820E+03  0.46774088461E+03  0.98504526002E+03  0.12699999809E+01 0.  1.
       -4    1    3    3    0  502 -0.72980129378E+03 -0.46789003820E+03 -0.18091064817E+04  0.20060904494E+04  0.12699999809E+01 0. -1.
</event>
<event>
 5   0  0.1350863E-05  0.2779495E+04  0.7818609E-02  0.8309663E-01
        2   -1    0    0  501    0  0.00000000000E+00  0.00000000000E+00  0.15086373012E+04  0.15086373012E+04  0.25500000920E-02 0.  1.
       -2   -1    0    0    0  501  0.00000000000E+00  0.00000000000E+00 -0.12802272551E+04  0.12802272551E+04  0.25500000920E-02 0. -1.
    10030    2    1    2    0    0  0.00000000000E+00  0.00000000000E+00  0.22841004617E+03  0.27888645563E+04  0.27794953435E+04 0.  0.
        3    1    3    3  502    0 -0.51272971959E+03  0.63892558351E+02  0.14086796118E+04  0.15004506934E+04  0.10100000352E+00 0.  1.
       -3    1    3    3    0  502  0.51272971959E+03 -0.63892558351E+02 -0.11802695656E+04  0.12884138629E+04  0.10100000352E+00 0. -1.
</event>
<event>
 5   0  0.1388269E-05  0.2746312E+04  0.7818609E-02  0.8320133E-01
       -2   -1    0    0    0  501  0.00000000000E+00  0.00000000000E+00  0.20993314780E+04  0.20993314780E+04  0.25500000920E-02 0. -1.
        2   -1    0    0  501    0  0.00000000000E+00  0.00000000000E+00 -0.89817026448E+03  0.89817026448E+03  0.25500000920E-02 0.  1.
    10030    2    1    2    0    0  0.00000000000E+00  0.00000000000E+00  0.12011612135E+04  0.29975017425E+04  0.27463117877E+04 0.  0.
        1    1    3    3  502    0  0.80940949427E+03  0.44962618788E+03 -0.50619325179E+03  0.10552435958E+04  0.50400001928E-02 0.  1.
       -1    1    3    3    0  502 -0.80940949427E+03 -0.44962618788E+03  0.17073544653E+04  0.19422581467E+04  0.50400001928E-02 0. -1.
</event>
<event>
 5   0  0.1350863E-05  0.2776283E+04  0.7818609E-02  0.8310670E-01
       -2   -1    0    0    0  501  0.00000000000E+00  0.00000000000E+00  0.88911982114E+03  0.88911982114E+03  0.25500000920E-02 0.  1.
        2   -1    0    0  501    0  0.00000000000E+00  0.00000000000E+00 -0.21672402131E+04  0.21672402131E+04  0.25500000920E-02 0. -1.
    10030    2    1    2    0    0  0.00000000000E+00  0.00000000000E+00 -0.12781203920E+04  0.30563600343E+04  0.27762825726E+04 0.  0.
        3    1    3    3  502    0  0.14867593906E+03  0.98990254954E+03 -0.16978116432E+04  0.19709327687E+04  0.10100000352E+00 0. -1.
       -3    1    3    3    0  502 -0.14867593906E+03 -0.98990254954E+03  0.41969125123E+03  0.10854272656E+04  0.10100000352E+00 0.  1.
</event>
<event>
 5   0  0.1283052E-05  0.2792685E+04  0.7818609E-02  0.8305543E-01
       -2   -1    0    0    0  501  0.00000000000E+00  0.00000000000E+00  0.12311044990E+04  0.12311044990E+04  0.25500000920E-02 0.  1.
        2   -1    0    0  501    0  0.00000000000E+00  0.00000000000E+00 -0.15837591980E+04  0.15837591980E+04  0.25500000920E-02 0. -1.
    10030    2    1    2    0    0  0.00000000000E+00  0.00000000000E+00 -0.35265469899E+03  0.28148636969E+04  0.27926854989E+04 0.  0.
        5    1    3    3  502    0 -0.87548367342E+03  0.13185806695E+03 -0.12646674842E+04  0.15437824160E+04  0.46999998093E+01 0. -1.
       -5    1    3    3    0  502  0.87548367342E+03 -0.13185806695E+03  0.91201278525E+03  0.12710812809E+04  0.46999998093E+01 0.  1.
</event>
<event>
 5   0  0.4447500E-06  0.2807154E+04  0.7818609E-02  0.8301051E-01
        4   -1    0    0  501    0  0.00000000000E+00  0.00000000000E+00  0.18263233497E+04  0.18263237913E+04  0.12699999809E+01 0.  1.
       -4   -1    0    0    0  501  0.00000000000E+00  0.00000000000E+00 -0.10786844631E+04  0.10786852107E+04  0.12699999809E+01 0. -1.
    10030    2    1    2    0    0  0.00000000000E+00  0.00000000000E+00  0.74763888668E+03  0.29050090020E+04  0.28071539674E+04 0.  0.
        3    1    3    3  502    0 -0.24200692308E+02 -0.12077746586E+04 -0.36574151066E+03  0.12621696250E+04  0.10100000352E+00 0. -1.
       -3    1    3    3    0  502  0.24200692308E+02  0.12077746586E+04  0.11133803973E+04  0.16428393770E+04  0.10100000352E+00 0.  1.
</event>
<event>
 5   0  0.4764214E-06  0.2778079E+04  0.7818609E-02  0.8310106E-01
       -1   -1    0    0    0  501  0.00000000000E+00  0.00000000000E+00  0.17186502390E+04  0.17186502390E+04  0.50400001928E-02 0. -1.
        1   -1    0    0  501    0  0.00000000000E+00  0.00000000000E+00 -0.11226430873E+04  0.11226430873E+04  0.50400001928E-02 0.  1.
    10030    2    1    2    0    0  0.00000000000E+00  0.00000000000E+00  0.59600715166E+03  0.28412933263E+04  0.27780790560E+04 0.  0.
        3    1    3    3  502    0  0.55533359932E+03 -0.26313467689E+03  0.15720601699E+04  0.16879006051E+04  0.10100000352E+00 0. -1.
       -3    1    3    3    0  502 -0.55533359932E+03  0.26313467689E+03 -0.97605301827E+03  0.11533927212E+04  0.10100000352E+00 0.  1.
</event>
<event>
 5   0  0.1388269E-05  0.2636742E+04  0.7818609E-02  0.8355827E-01
        2   -1    0    0  501    0  0.00000000000E+00  0.00000000000E+00  0.23342668867E+04  0.23342668867E+04  0.25500000920E-02 0.  1.
       -2   -1    0    0    0  501  0.00000000000E+00  0.00000000000E+00 -0.74460309602E+03  0.74460309602E+03  0.25500000920E-02 0. -1.
    10030    2    1    2    0    0  0.00000000000E+00  0.00000000000E+00  0.15896637906E+04  0.30788699827E+04  0.26367421950E+04 0.  0.
        1    1    3    3  502    0  0.12833282583E+04  0.16564315685E+03  0.10896178614E+04  0.16916371236E+04  0.50400001928E-02 0.  1.
       -1    1    3    3    0  502 -0.12833282583E+04 -0.16564315685E+03  0.50004592928E+03  0.13872328591E+04  0.50400001928E-02 0. -1.
</event>
<event>
 5   0  0.4764214E-06  0.2563828E+04  0.7818609E-02  0.8380593E-01
       -1   -1    0    0    0  501  0.00000000000E+00  0.00000000000E+00  0.11595836127E+04  0.11595836127E+04  0.50400001928E-02 0. -1.
        1   -1    0    0  501    0  0.00000000000E+00  0.00000000000E+00 -0.14171495708E+04  0.14171495708E+04  0.50400001928E-02 0.  1.
    10030    2    1    2    0    0  0.00000000000E+00  0.00000000000E+00 -0.25756595814E+03  0.25767331835E+04  0.25638279342E+04 0.  0.
        3    1    3    3  502    0 -0.41590515639E+03 -0.33610859121E+03  0.10421382252E+04  0.11713232581E+04  0.10100000352E+00 0. -1.
       -3    1    3    3    0  502  0.41590515639E+03  0.33610859121E+03 -0.12997041833E+04  0.14054099255E+04  0.10100000352E+00 0.  1.
</event>
<event>
 5   0  0.5107453E-06  0.2813166E+04  0.7818609E-02  0.8299193E-01
       -1   -1    0    0    0  501  0.00000000000E+00  0.00000000000E+00  0.11790056416E+04  0.11790056417E+04  0.50400001928E-02 0. -1.
        1   -1    0    0  501    0  0.00000000000E+00  0.00000000000E+00 -0.16780881779E+04  0.16780881779E+04  0.50400001928E-02 0.  1.
    10030    2    1    2    0    0  0.00000000000E+00  0.00000000000E+00 -0.49908253621E+03  0.28570938195E+04  0.28131657817E+04 0.  0.
        2    1    3    3  502    0 -0.11904190324E+04 -0.52745417564E+03  0.29090538714E+03  0.13341406689E+04  0.25500000920E-02 0.  1.
       -2    1    3    3    0  502  0.11904190324E+04  0.52745417564E+03 -0.78998792334E+03  0.15229531507E+04  0.25500000920E-02 0. -1.
</event>
<event>
 5   0  0.5281919E-06  0.2011211E+04  0.7818609E-02  0.8601397E-01
       -1   -1    0    0    0  501  0.00000000000E+00  0.00000000000E+00  0.90460723419E+03  0.90460723420E+03  0.50400001928E-02 0. -1.
        1   -1    0    0  501    0  0.00000000000E+00  0.00000000000E+00 -0.11178802942E+04  0.11178802943E+04  0.50400001928E-02 0.  1.
    10030    2    1    2    0    0  0.00000000000E+00  0.00000000000E+00 -0.21327306005E+03  0.20224875285E+04  0.20112111785E+04 0.  0.
        4    1    3    3  502    0  0.87974229751E+03 -0.31181043056E+03 -0.48299247371E+03  0.10509308242E+04  0.12699999809E+01 0.  1.
       -4    1    3    3    0  502 -0.87974229751E+03  0.31181043056E+03  0.26971941366E+03  0.97155670428E+03  0.12699999809E+01 0. -1.
</event>
<event>
 5   0  0.1330962E-05  0.2656744E+04  0.7818609E-02  0.8349178E-01
       -2   -1    0    0    0  501  0.00000000000E+00  0.00000000000E+00  0.93457961873E+03  0.93457961873E+03  0.25500000920E-02 0. -1.
        2   -1    0    0  501    0  0.00000000000E+00  0.00000000000E+00 -0.18880921052E+04  0.18880921052E+04  0.25500000920E-02 0.  1.
    10030    2    1    2    0    0  0.00000000000E+00  0.00000000000E+00 -0.95351248649E+03  0.28226717240E+04  0.26567441727E+04 0.  0.
        4    1    3    3  502    0  0.21558587237E+03 -0.76736200085E+03 -0.16057863121E+04  0.17927278103E+04  0.12699999809E+01 0.  1.
       -4    1    3    3    0  502 -0.21558587237E+03  0.76736200085E+03  0.65227382565E+03  0.10299439136E+04  0.12699999809E+01 0. -1.
</event>
<event>
 5   0  0.5023691E-06  0.2805260E+04  0.7818609E-02  0.8301637E-01
       -1   -1    0    0    0  501  0.00000000000E+00  0.00000000000E+00  0.11981662853E+04  0.11981662853E+04  0.50400001928E-02 0.  1.
        1   -1    0    0  501    0  0.00000000000E+00  0.00000000000E+00 -0.16419848331E+04  0.16419848331E+04  0.50400001928E-02 0. -1.
    10030    2    1    2    0    0  0.00000000000E+00  0.00000000000E+00 -0.44381854782E+03  0.28401511184E+04  0.28052599651E+04 0.  0.
        5    1    3    3  502    0 -0.25788005961E+03  0.63055321921E+03 -0.14632295191E+04  0.16140514871E+04  0.46999998093E+01 0. -1.
       -5    1    3    3    0  502  0.25788005961E+03 -0.63055321921E+03  0.10194109713E+04  0.12260996313E+04  0.46999998093E+01 0.  1.
</event>
<event>
 5   0  0.5023691E-06  0.2794457E+04  0.7818609E-02  0.8304991E-01
       -1   -1    0    0    0  501  0.00000000000E+00  0.00000000000E+00  0.71958243705E+03  0.71958243707E+03  0.50400001928E-02 0. -1.
        1   -1    0    0  501    0  0.00000000000E+00  0.00000000000E+00 -0.27130282213E+04  0.27130282213E+04  0.50400001928E-02 0.  1.
    10030    2    1    2    0    0  0.00000000000E+00  0.00000000000E+00 -0.19934457842E+04  0.34326106584E+04  0.27944569843E+04 0.  0.
        5    1    3    3  502    0  0.29684675316E+03 -0.54235038762E+03  0.54239499763E+03  0.82248183036E+03  0.46999998093E+01 0. -1.
       -5    1    3    3    0  502 -0.29684675316E+03  0.54235038762E+03 -0.25358407819E+04  0.26101288280E+04  0.46999998093E+01 0.  1.
</event>
<event>
 5   0  0.5023691E-06  0.2788339E+04  0.7818609E-02  0.8306898E-01
        1   -1    0    0  501    0  0.00000000000E+00  0.00000000000E+00  0.21670995599E+04  0.21670995599E+04  0.50400001928E-02 0. -1.
       -1   -1    0    0    0  501  0.00000000000E+00  0.00000000000E+00 -0.89691738602E+03  0.89691738604E+03  0.50400001928E-02 0.  1.
    10030    2    1    2    0    0  0.00000000000E+00  0.00000000000E+00  0.12701821739E+04  0.30640169460E+04  0.27883394862E+04 0.  0.
        5    1    3    3  502    0 -0.32089404187E+03  0.13197022654E+04  0.98101662096E+03  0.16754112200E+04  0.46999998093E+01 0. -1.
       -5    1    3    3    0  502  0.32089404187E+03 -0.13197022654E+04  0.28916555296E+03  0.13886057260E+04  0.46999998093E+01 0.  1.
</event>
<event>
 5   0  0.1283052E-05  0.2816065E+04  0.7818609E-02  0.8298298E-01
        2   -1    0    0  501    0  0.00000000000E+00  0.00000000000E+00  0.16372006903E+04  0.16372006903E+04  0.25500000920E-02 0. -1.
       -2   -1    0    0    0  501  0.00000000000E+00  0.00000000000E+00 -0.12109424454E+04  0.12109424454E+04  0.25500000920E-02 0.  1.
    10030    2    1    2    0    0  0.00000000000E+00  0.00000000000E+00  0.42625824494E+03  0.28481431357E+04  0.28160652034E+04 0.  0.
        5    1    3    3  502    0 -0.10003353594E+04 -0.79445819571E+03  0.81207338201E+03  0.15137106473E+04  0.46999998093E+01 0.  1.
       -5    1    3    3    0  502  0.10003353594E+04  0.79445819571E+03 -0.38581513707E+03  0.13344324884E+04  0.46999998093E+01 0. -1.
</event>
<event>
 5   0  0.1388269E-05  0.2847801E+04  0.7818609E-02  0.8288580E-01
        2   -1    0    0  501    0  0.00000000000E+00  0.00000000000E+00  0.18263265890E+04  0.18263265890E+04  0.25500000920E-02 0.  1.
       -2   -1    0    0    0  501  0.00000000000E+00  0.00000000000E+00 -0.11101482835E+04  0.11101482835E+04  0.25500000920E-02 0. -1.
    10030    2    1    2    0    0  0.00000000000E+00  0.00000000000E+00  0.71617830557E+03  0.29364748725E+04  0.28478014874E+04 0.  0.
        1    1    3    3  502    0 -0.19079962152E+03  0.47990791032E+03  0.17263496323E+04  0.18019431597E+04  0.50400001928E-02 0.  1.
       -1    1    3    3    0  502  0.19079962152E+03 -0.47990791032E+03 -0.10101713267E+04  0.11345317128E+04  0.50400001928E-02 0. -1.
</event>
<event>
 5   0  0.5107453E-06  0.2797679E+04  0.7818609E-02  0.8303989E-01
        1   -1    0    0  501    0  0.00000000000E+00  0.00000000000E+00  0.15666458230E+04  0.15666458230E+04  0.50400001928E-02 0. -1.
       -1   -1    0    0    0  501  0.00000000000E+00  0.00000000000E+00 -0.12490072206E+04  0.12490072206E+04  0.50400001928E-02 0.  1.
    10030    2    1    2    0    0  0.00000000000E+00  0.00000000000E+00  0.31763860236E+03  0.28156530436E+04  0.27976789988E+04 0.  0.
        2    1    3    3  502    0 -0.56675356669E+03 -0.10371833239E+04  0.91181938228E+03  0.14927737400E+04  0.25500000920E-02 0. -1.
       -2    1    3    3    0  502  0.56675356669E+03  0.10371833239E+04 -0.59418077992E+03  0.13228793036E+04  0.25500000920E-02 0.  1.
</event>
<event>
 5   0  0.4447500E-06  0.2828441E+04  0.7818609E-02  0.8294493E-01
       -4   -1    0    0    0  501  0.00000000000E+00  0.00000000000E+00  0.16291485151E+04  0.16291490102E+04  0.12699999809E+01 0.  1.
        4   -1    0    0  501    0  0.00000000000E+00  0.00000000000E+00 -0.12276458418E+04  0.12276464987E+04  0.12699999809E+01 0. -1.
    10030    2    1    2    0    0  0.00000000000E+00  0.00000000000E+00  0.40150267330E+03  0.28567955089E+04  0.28284405921E+04 0.  0.
        4    1    3    3  502    0  0.65800680674E+03  0.97459850124E+03 -0.59274666734E+03  0.13168771472E+04  0.12699999809E+01 0. -1.
       -4    1    3    3    0  502 -0.65800680674E+03 -0.97459850124E+03  0.99424934065E+03  0.15399183617E+04  0.12699999809E+01 0.  1.
</event>
<event>
 5   0  0.1388269E-05  0.2821314E+04  0.7818609E-02  0.8296682E-01
        2   -1    0    0  501    0  0.00000000000E+00  0.00000000000E+00  0.24742467230E+04  0.24742467230E+04  0.25500000920E-02 0. -1.
       -2   -1    0    0    0  501  0.00000000000E+00  0.00000000000E+00 -0.80426615977E+03  0.80426615977E+03  0.25500000920E-02 0.  1.
    10030    2    1    2    0    0  0.00000000000E+00  0.00000000000E+00  0.16699805632E+04  0.32785128828E+04  0.28213138147E+04 0.  0.
        1    1    3    3  502    0 -0.39738682824E+03 -0.11044442161E+04  0.17442463428E+04  0.21024054371E+04  0.50400001928E-02 0.  1.
       -1    1    3    3    0  502  0.39738682824E+03  0.11044442161E+04 -0.74265779568E+02  0.11761074456E+04  0.50400001928E-02 0. -1.
</event>
<event>
 5   0  0.1388269E-05  0.2122186E+04  0.7818609E-02  0.8551533E-01
       -2   -1    0    0    0  501  0.00000000000E+00  0.00000000000E+00  0.56156803301E+03  0.56156803302E+03  0.25500000920E-02 0.  1.
        2   -1    0    0  501    0  0.00000000000E+00  0.00000000000E+00 -0.20049548096E+04  0.20049548096E+04  0.25500000920E-02 0. -1.
    10030    2    1    2    0    0  0.00000000000E+00  0.00000000000E+00 -0.14433867766E+04  0.25665228426E+04  0.21221861640E+04 0.  0.
        1    1    3    3  502    0  0.52483332074E+01 -0.61915350137E+03  0.32043580069E+03  0.69717838869E+03  0.50400001928E-02 0.  1.
       -1    1    3    3    0  502 -0.52483332074E+01  0.61915350137E+03 -0.17638225772E+04  0.18693444539E+04  0.50400001928E-02 0. -1.
</event>
<event>
 5   0  0.1350863E-05  0.2875330E+04  0.7818609E-02  0.8280255E-01
        2   -1    0    0  501    0  0.00000000000E+00  0.00000000000E+00  0.12343883041E+04  0.12343883041E+04  0.25500000920E-02 0. -1.
       -2   -1    0    0    0  501  0.00000000000E+00  0.00000000000E+00 -0.16744174487E+04  0.16744174487E+04  0.25500000920E-02 0.  1.
    10030    2    1    2    0    0  0.00000000000E+00  0.00000000000E+00 -0.44002914467E+03  0.29088057528E+04  0.28753304609E+04 0.  0.
        3    1    3    3  502    0  0.12400816893E+03 -0.14316564995E+04 -0.26367893302E+03  0.14610081959E+04  0.10100000352E+00 0.  1.
       -3    1    3    3    0  502 -0.12400816893E+03  0.14316564995E+04 -0.17635021165E+03  0.14477975569E+04  0.10100000352E+00 0. -1.
</event>
<event>
 5   0  0.5281919E-06  0.2757085E+04  0.7818609E-02  0.8316717E-01
        1   -1    0    0  501    0  0.00000000000E+00  0.00000000000E+00  0.21198851379E+04  0.21198851379E+04  0.50400001928E-02 0.  1.
       -1   -1    0    0    0  501  0.00000000000E+00  0.00000000000E+00 -0.89645376618E+03  0.89645376620E+03  0.50400001928E-02 0. -1.
    10030    2    1    2    0    0  0.00000000000E+00  0.00000000000E+00  0.12234313717E+04  0.30163389041E+04  0.27570847037E+04 0.  0.
        4    1    3    3  502    0 -0.11503820374E+04  0.13277082654E+03 -0.20652260256E+03  0.11762908325E+04  0.12699999809E+01 0. -1.
       -4    1    3    3    0  502  0.11503820374E+04 -0.13277082654E+03  0.14299539743E+04  0.18400480716E+04  0.12699999809E+01 0.  1.
</event>
<event>
 5   0  0.5281919E-06  0.2825255E+04  0.7818609E-02  0.8295470E-01
        1   -1    0    0  501    0  0.00000000000E+00  0.00000000000E+00  0.18162555159E+04  0.18162555159E+04  0.50400001928E-02 0.  1.
       -1   -1    0    0    0  501  0.00000000000E+00  0.00000000000E+00 -0.10986980454E+04  0.10986980455E+04  0.50400001928E-02 0. -1.
    10030    2    1    2    0    0  0.00000000000E+00  0.00000000000E+00  0.71755747044E+03  0.29149535614E+04  0.28252549516E+04 0.  0.
        4    1    3    3  502    0  0.71256409164E+03  0.90627315202E+03  0.12010524987E+04  0.16648145027E+04  0.12699999809E+01 0.  1.
       -4    1    3    3    0  502 -0.71256409164E+03 -0.90627315202E+03 -0.48349502828E+03  0.12501390587E+04  0.12699999809E+01 0. -1.
</event>
<event>
 5   0  0.5217999E-06  0.2846541E+04  0.7818609E-02  0.8288963E-01
       -1   -1    0    0    0  501  0.00000000000E+00  0.00000000000E+00  0.14844100533E+04  0.14844100533E+04  0.50400001928E-02 0. -1.
        1   -1    0    0  501    0  0.00000000000E+00  0.00000000000E+00 -0.13646494968E+04  0.13646494968E+04  0.50400001928E-02 0.  1.
    10030    2    1    2    0    0  0.00000000000E+00  0.00000000000E+00  0.11976055649E+03  0.28490595501E+04  0.28465413626E+04 0.  0.
        1    1    3    3  502    0 -0.90425712167E+03  0.61459333763E+03 -0.85213025048E+03  0.13861933042E+04  0.50400001928E-02 0. -1.
       -1    1    3    3    0  502  0.90425712167E+03 -0.61459333763E+03  0.97189080697E+03  0.14628662459E+04  0.50400001928E-02 0.  1.
</event>
<event>
 5   0  0.1283052E-05  0.2841185E+04  0.7818609E-02  0.8290595E-01
       -2   -1    0    0    0  501  0.00000000000E+00  0.00000000000E+00  0.14931009193E+04  0.14931009193E+04  0.25500000920E-02 0. -1.
        2   -1    0    0  501    0  0.00000000000E+00  0.00000000000E+00 -0.13516052595E+04  0.13516052595E+04  0.25500000920E-02 0.  1.
    10030    2    1    2    0    0  0.00000000000E+00  0.00000000000E+00  0.14149565982E+03  0.28447061787E+04  0.28411850031E+04 0.  0.
        5    1    3    3  502    0 -0.50519350507E+03  0.75845117636E+02 -0.12564469338E+04  0.13563384337E+04  0.46999998093E+01 0.  1.
       -5    1    3    3    0  502  0.50519350507E+03 -0.75845117636E+02  0.13979425936E+04  0.14883677450E+04  0.46999998093E+01 0. -1.
</event>
<event>
 5   0  0.4764214E-06  0.2812094E+04  0.7818609E-02  0.8299524E-01
        1   -1    0    0  501    0  0.00000000000E+00  0.00000000000E+00  0.79143835790E+03  0.79143835791E+03  0.50400001928E-02 0.  1.
       -1   -1    0    0    0  501  0.00000000000E+00  0.00000000000E+00 -0.24979427382E+04  0.24979427382E+04  0.50400001928E-02 0. -1.
    10030    2    1    2    0    0  0.00000000000E+00  0.00000000000E+00 -0.17065043803E+04  0.32893810961E+04  0.28120936676E+04 0.  0.
        3    1    3    3  502    0  0.39730981714E+03  0.11658414092E+04 -0.16465359844E+04  0.20562397818E+04  0.10100000352E+00 0. -1.
       -3    1    3    3    0  502 -0.39730981714E+03 -0.11658414092E+04 -0.59968395908E+02  0.12331413143E+04  0.10100000352E+00 0.  1.
</event>
<event>
 5   0  0.1283052E-05  0.2945639E+04  0.7818609E-02  0.8259426E-01
       -2   -1    0    0    0  501  0.00000000000E+00  0.00000000000E+00  0.82467078838E+03  0.82467078839E+03  0.25500000920E-02 0. -1.
        2   -1    0    0  501    0  0.00000000000E+00  0.00000000000E+00 -0.26303804322E+04  0.26303804322E+04  0.25500000920E-02 0.  1.
    10030    2    1    2    0    0  0.00000000000E+00  0.00000000000E+00 -0.18057096439E+04  0.34550512206E+04  0.29456394245E+04 0.  0.
        5    1    3    3  502    0  0.43692863292E+03 -0.95286350080E+03 -0.21163325067E+04  0.23617241267E+04  0.46999998093E+01 0.  1.
       -5    1    3    3    0  502 -0.43692863292E+03  0.95286350080E+03  0.31062286289E+03  0.10933270939E+04  0.46999998093E+01 0. -1.
</event>
<event>
 5   0  0.1388269E-05  0.2693759E+04  0.7818609E-02  0.8337033E-01
       -2   -1    0    0    0  501  0.00000000000E+00  0.00000000000E+00  0.23759594056E+04  0.23759594056E+04  0.25500000920E-02 0.  1.
        2   -1    0    0  501    0  0.00000000000E+00  0.00000000000E+00 -0.76351681628E+03  0.76351681628E+03  0.25500000920E-02 0. -1.
    10030    2    1    2    0    0  0.00000000000E+00  0.00000000000E+00  0.16124425893E+04  0.31394762219E+04  0.26937594258E+04 0.  0.
        1    1    3    3  502    0 -0.48020216792E+03  0.54994633020E+03 -0.51288991148E+03  0.89223940145E+03  0.50400001928E-02 0. -1.
       -1    1    3    3    0  502  0.48020216792E+03 -0.54994633020E+03  0.21253325008E+04  0.22472368204E+04  0.50400001928E-02 0.  1.
</event>
<event>
 5   0  0.1330962E-05  0.2797544E+04  0.7818609E-02  0.8304031E-01
        2   -1    0    0  501    0  0.00000000000E+00  0.00000000000E+00  0.86973365660E+03  0.86973365660E+03  0.25500000920E-02 0.  1.
       -2   -1    0    0    0  501  0.00000000000E+00  0.00000000000E+00 -0.22496113545E+04  0.22496113545E+04  0.25500000920E-02 0. -1.
    10030    2    1    2    0    0  0.00000000000E+00  0.00000000000E+00 -0.13798776979E+04  0.31193450111E+04  0.27975437150E+04 0.  0.
        4    1    3    3  502    0 -0.19322687519E+03  0.34123365748E+03 -0.21870649617E+04  0.22219432472E+04  0.12699999809E+01 0. -1.
       -4    1    3    3    0  502  0.19322687519E+03 -0.34123365748E+03  0.80718726373E+03  0.89740176394E+03  0.12699999809E+01 0.  1.
</event>
<event>
 5   0  0.1283052E-05  0.2833697E+04  0.7818609E-02  0.8292882E-01
        2   -1    0    0  501    0  0.00000000000E+00  0.00000000000E+00  0.23476796947E+04  0.23476796947E+04  0.25500000920E-02 0.  1.
       -2   -1    0    0    0  501  0.00000000000E+00  0.00000000000E+00 -0.85508264678E+03  0.85508264678E+03  0.25500000920E-02 0. -1.
    10030    2    1    2    0    0  0.00000000000E+00  0.00000000000E+00  0.14925970480E+04  0.32027623415E+04  0.28336973495E+04 0.  0.
        5    1    3    3  502    0 -0.27855979560E+02  0.57449717217E+03  0.22097823891E+04  0.22834148229E+04  0.46999998093E+01 0.  1.
       -5    1    3    3    0  502  0.27855979560E+02 -0.57449717217E+03 -0.71718534112E+03  0.91934751860E+03  0.46999998093E+01 0. -1.
</event>
<event>
 5   0  0.5281919E-06  0.2827839E+04  0.7818609E-02  0.8294677E-01
       -1   -1    0    0    0  501  0.00000000000E+00  0.00000000000E+00  0.13048142825E+04  0.13048142826E+04  0.50400001928E-02 0.  1.
        1   -1    0    0  501    0  0.00000000000E+00  0.00000000000E+00 -0.15321477583E+04  0.15321477583E+04  0.50400001928E-02 0. -1.
    10030    2    1    2    0    0  0.00000000000E+00  0.00000000000E+00 -0.22733347573E+03  0.28369620408E+04  0.28278389473E+04 0.  0.
        4    1    3    3  502    0  0.46627619525E+03 -0.78966981052E+03  0.96599050433E+03  0.13319651524E+04  0.12699999809E+01 0.  1.
       -4    1    3    3    0  502 -0.46627619525E+03  0.78966981052E+03 -0.11933239801E+04  0.15049968884E+04  0.12699999809E+01 0. -1.
</event>
<event>
 5   0  0.1388269E-05  0.2795517E+04  0.7818609E-02  0.8304661E-01
        2   -1    0    0  501    0  0.00000000000E+00  0.00000000000E+00  0.11041938917E+04  0.11041938917E+04  0.25500000920E-02 0.  1.
       -2   -1    0    0    0  501  0.00000000000E+00  0.00000000000E+00 -0.17693715751E+04  0.17693715751E+04  0.25500000920E-02 0. -1.
    10030    2    1    2    0    0  0.00000000000E+00  0.00000000000E+00 -0.66517768338E+03  0.28735654668E+04  0.27955173299E+04 0.  0.
        1    1    3    3  502    0 -0.78423832436E+03 -0.54153625005E+02 -0.15206102019E+04  0.17117878813E+04  0.50400001928E-02 0. -1.
       -1    1    3    3    0  502  0.78423832436E+03  0.54153625005E+02  0.85543251848E+03  0.11617775855E+04  0.50400001928E-02 0.  1.
</event>
<event>
 5   0  0.5281919E-06  0.2668662E+04  0.7818609E-02  0.8345245E-01
        1   -1    0    0  501    0  0.00000000000E+00  0.00000000000E+00  0.18115543533E+04  0.18115543533E+04  0.50400001928E-02 0.  1.
       -1   -1    0    0    0  501  0.00000000000E+00  0.00000000000E+00 -0.98282416388E+03  0.98282416389E+03  0.50400001928E-02 0. -1.
    10030    2    1    2    0    0  0.00000000000E+00  0.00000000000E+00  0.82873018945E+03  0.27943785172E+04  0.26686621312E+04 0.  0.
        4    1    3    3  502    0 -0.86377760078E+02  0.97576553794E+03  0.13630581727E+04  0.16785436240E+04  0.12699999809E+01 0.  1.
       -4    1    3    3    0  502  0.86377760078E+02 -0.97576553794E+03 -0.53432798324E+03  0.11158348933E+04  0.12699999809E+01 0. -1.
</event>
<event>
 5   0  0.5107453E-06  0.2512514E+04  0.7818609E-02  0.8398541E-01
        1   -1    0    0  501    0  0.00000000000E+00  0.00000000000E+00  0.10312544179E+04  0.10312544179E+04  0.50400001928E-02 0. -1.
       -1   -1    0    0    0  501  0.00000000000E+00  0.00000000000E+00 -0.15303512212E+04  0.15303512212E+04  0.50400001928E-02 0.  1.
    10030    2    1    2    0    0  0.00000000000E+00  0.00000000000E+00 -0.49909680329E+03  0.25616056392E+04  0.25125138470E+04 0.  0.
        2    1    3    3  502    0  0.18836357382E+03  0.12349673543E+04 -0.11445947357E+03  0.12544824324E+04  0.25500000920E-02 0. -1.
       -2    1    3    3    0  502 -0.18836357382E+03 -0.12349673543E+04 -0.38463732972E+03  0.13071232067E+04  0.25500000920E-02 0.  1.
</event>
<event>
 5   0  0.5107453E-06  0.2739181E+04  0.7818609E-02  0.8322403E-01
       -1   -1    0    0    0  501  0.00000000000E+00  0.00000000000E+00  0.97140018317E+03  0.97140018318E+03  0.50400001928E-02 0. -1.
        1   -1    0    0  501    0  0.00000000000E+00  0.00000000000E+00 -0.19310042765E+04  0.19310042765E+04  0.50400001928E-02 0.  1.
    10030    2    1    2    0    0  0.00000000000E+00  0.00000000000E+00 -0.95960409329E+03  0.29024044597E+04  0.27391808322E+04 0.  0.
        2    1    3    3  502    0  0.89961514417E+03 -0.94469881973E+03 -0.37794053859E+02  0.13050638521E+04  0.25500000920E-02 0. -1.
       -2    1    3    3    0  502 -0.89961514417E+03  0.94469881973E+03 -0.92181003944E+03  0.15973406075E+04  0.25500000920E-02 0.  1.
</event>
<event>
 5   0  0.5217999E-06  0.2871611E+04  0.7818609E-02  0.8281374E-01
       -1   -1    0    0    0  501  0.00000000000E+00  0.00000000000E+00  0.15676751249E+04  0.15676751249E+04  0.50400001928E-02 0.  1.
        1   -1    0    0  501    0  0.00000000000E+00  0.00000000000E+00 -0.13150289289E+04  0.13150289289E+04  0.50400001928E-02 0. -1.
    10030    2    1    2    0    0  0.00000000000E+00  0.00000000000E+00  0.25264619605E+03  0.28827040538E+04  0.28716114921E+04 0.  0.
        1    1    3    3  502    0  0.14072650624E+03  0.78855754692E+03  0.13225263160E+04  0.15461897720E+04  0.50400001928E-02 0.  1.
       -1    1    3    3    0  502 -0.14072650624E+03 -0.78855754692E+03 -0.10698801200E+04  0.13365142818E+04  0.50400001928E-02 0. -1.
</event>
<event>
 5   0  0.5281919E-06  0.3065198E+04  0.7818609E-02  0.8225354E-01
       -1   -1    0    0    0  501  0.00000000000E+00  0.00000000000E+00  0.18608280115E+04  0.18608280115E+04  0.50400001928E-02 0.  1.
        1   -1    0    0  501    0  0.00000000000E+00  0.00000000000E+00 -0.12622662078E+04  0.12622662078E+04  0.50400001928E-02 0. -1.
    10030    2    1    2    0    0  0.00000000000E+00  0.00000000000E+00  0.59856180369E+03  0.31230942194E+04  0.30651984063E+04 0.  0.
        4    1    3    3  502    0 -0.28707694740E+03 -0.68343335894E+03  0.16660213716E+04  0.18234920218E+04  0.12699999809E+01 0.  1.
       -4    1    3    3    0  502  0.28707694740E+03  0.68343335894E+03 -0.10674595680E+04  0.12996021976E+04  0.12699999809E+01 0. -1.
</event>
<event>
 5   0  0.1330962E-05  0.2777628E+04  0.7818609E-02  0.8310248E-01
        2   -1    0    0  501    0  0.00000000000E+00  0.00000000000E+00  0.13111631474E+04  0.13111631474E+04  0.25500000920E-02 0.  1.
       -2   -1    0    0    0  501  0.00000000000E+00  0.00000000000E+00 -0.14710632389E+04  0.14710632389E+04  0.25500000920E-02 0. -1.
    10030    2    1    2    0    0  0.00000000000E+00  0.00000000000E+00 -0.15990009153E+03  0.27822263864E+04  0.27776276975E+04 0.  0.
        4    1    3    3  502    0 -0.18013279257E+03 -0.29867714838E+03  0.12665770693E+04  0.13137255981E+04  0.12699999809E+01 0.  1.
       -4    1    3    3    0  502  0.18013279257E+03  0.29867714838E+03 -0.14264771608E+04  0.14685007882E+04  0.12699999809E+01 0. -1.
</event>
<event>
 5   0  0.1302063E-05  0.2749140E+04  0.7818609E-02  0.8319235E-01
       -2   -1    0    0    0  501  0.00000000000E+00  0.00000000000E+00  0.70821101933E+03  0.70821101933E+03  0.25500000920E-02 0.  1.
        2   -1    0    0  501    0  0.00000000000E+00  0.00000000000E+00 -0.26679083948E+04  0.26679083948E+04  0.25500000920E-02 0. -1.
    10030    2    1    2    0    0  0.00000000000E+00  0.00000000000E+00 -0.19596973754E+04  0.33761194141E+04  0.27491395918E+04 0.  0.
        2    1    3    3  502    0 -0.12273897620E+04  0.59106027561E+03 -0.75472661030E+03  0.15573856727E+04  0.25500000920E-02 0.  1.
       -2    1    3    3    0  502  0.12273897620E+04 -0.59106027561E+03 -0.12049707651E+04  0.18187337414E+04  0.25500000920E-02 0. -1.
</event>
<event>
 5   0  0.5023691E-06  0.2804065E+04  0.7818609E-02  0.8302007E-01
        1   -1    0    0  501    0  0.00000000000E+00  0.00000000000E+00  0.12447926110E+04  0.12447926110E+04  0.50400001928E-02 0.  1.
       -1   -1    0    0    0  501  0.00000000000E+00  0.00000000000E+00 -0.15791351039E+04  0.15791351039E+04  0.50400001928E-02 0. -1.
    10030    2    1    2    0    0  0.00000000000E+00  0.00000000000E+00 -0.33434249288E+03  0.28239277149E+04  0.28040654123E+04 0.  0.
        5    1    3    3  502    0 -0.15213715095E+03 -0.90828091148E+03  0.89746104365E+03  0.12859153711E+04  0.46999998093E+01 0.  1.
       -5    1    3    3    0  502  0.15213715095E+03  0.90828091148E+03 -0.12318035365E+04  0.15380123437E+04  0.46999998093E+01 0. -1.
</event>
<event>
 5   0  0.1302063E-05  0.2753976E+04  0.7818609E-02  0.8317701E-01
        2   -1    0    0  501    0  0.00000000000E+00  0.00000000000E+00  0.12989258696E+04  0.12989258696E+04  0.25500000920E-02 0. -1.
       -2   -1    0    0    0  501  0.00000000000E+00  0.00000000000E+00 -0.14597414730E+04  0.14597414730E+04  0.25500000920E-02 0.  1.
    10030    2    1    2    0    0  0.00000000000E+00  0.00000000000E+00 -0.16081560337E+03  0.27586673426E+04  0.27539760073E+04 0.  0.
        2    1    3    3  502    0 -0.65563090749E+03 -0.48268678397E+03 -0.11928208431E+04  0.14441814229E+04  0.25500000920E-02 0.  1.
       -2    1    3    3    0  502  0.65563090749E+03  0.48268678397E+03  0.10320052398E+04  0.13144859197E+04  0.25500000920E-02 0. -1.
</event>
<event>
 5   0  0.5023691E-06  0.2815575E+04  0.7818609E-02  0.8298449E-01
       -1   -1    0    0    0  501  0.00000000000E+00  0.00000000000E+00  0.11058996942E+04  0.11058996942E+04  0.50400001928E-02 0. -1.
        1   -1    0    0  501    0  0.00000000000E+00  0.00000000000E+00 -0.17920839340E+04  0.17920839340E+04  0.50400001928E-02 0.  1.
    10030    2    1    2    0    0  0.00000000000E+00  0.00000000000E+00 -0.68618423986E+03  0.28979836282E+04  0.28155745947E+04 0.  0.
        5    1    3    3  502    0  0.60652132655E+03  0.36835636583E+03 -0.15945276529E+04  0.17453065798E+04  0.46999998093E+01 0.  1.
       -5    1    3    3    0  502 -0.60652132655E+03 -0.36835636583E+03  0.90834341304E+03  0.11526770484E+04  0.46999998093E+01 0. -1.
</event>
<event>
 5   0  0.1388269E-05  0.2807838E+04  0.7818609E-02  0.8300839E-01
        2   -1    0    0  501    0  0.00000000000E+00  0.00000000000E+00  0.19098325745E+04  0.19098325745E+04  0.25500000920E-02 0.  1.
       -2   -1    0    0    0  501  0.00000000000E+00  0.00000000000E+00 -0.10320218523E+04  0.10320218523E+04  0.25500000920E-02 0. -1.
    10030    2    1    2    0    0  0.00000000000E+00  0.00000000000E+00  0.87781072216E+03  0.29418544268E+04  0.28078382796E+04 0.  0.
        1    1    3    3  502    0  0.79303119134E+03 -0.28241425831E+03 -0.73825600044E+03  0.11196777241E+04  0.50400001928E-02 0. -1.
       -1    1    3    3    0  502 -0.79303119134E+03  0.28241425831E+03  0.16160667226E+04  0.18221767026E+04  0.50400001928E-02 0.  1.
</event>
<event>
 5   0  0.1330962E-05  0.2823123E+04  0.7818609E-02  0.8296125E-01
       -2   -1    0    0    0  501  0.00000000000E+00  0.00000000000E+00  0.98273172237E+03  0.98273172237E+03  0.25500000920E-02 0. -1.
        2   -1    0    0  501    0  0.00000000000E+00  0.00000000000E+00 -0.20275179899E+04  0.20275179899E+04  0.25500000920E-02 0.  1.
    10030    2    1    2    0    0  0.00000000000E+00  0.00000000000E+00 -0.10447862675E+04  0.30102497123E+04  0.28231232678E+04 0.  0.
        4    1    3    3  502    0  0.41747087870E+03 -0.11959683364E+04 -0.11864767106E+04  0.17356125126E+04  0.12699999809E+01 0.  1.
       -4    1    3    3    0  502 -0.41747087870E+03  0.11959683364E+04  0.14169044309E+03  0.12746371997E+04  0.12699999809E+01 0. -1.
</event>
<event>
 5   0  0.5023691E-06  0.2790581E+04  0.7818609E-02  0.8306199E-01
       -1   -1    0    0    0  501  0.00000000000E+00  0.00000000000E+00  0.18099595899E+04  0.18099595899E+04  0.50400001928E-02 0. -1.
        1   -1    0    0  501    0  0.00000000000E+00  0.00000000000E+00 -0.10756238142E+04  0.10756238142E+04  0.50400001928E-02 0.  1.
    10030    2    1    2    0    0  0.00000000000E+00  0.00000000000E+00  0.73433577574E+03  0.28855834041E+04  0.27905810418E+04 0.  0.
        5    1    3    3  502    0 -0.11243089620E+04 -0.48723539612E+01 -0.48722975108E+03  0.12253608865E+04  0.46999998093E+01 0.  1.
       -5    1    3    3    0  502  0.11243089620E+04  0.48723539612E+01  0.12215655268E+04  0.16602225177E+04  0.46999998093E+01 0. -1.
</event>
<event>
 5   0  0.1330962E-05  0.2089905E+04  0.7818609E-02  0.8565703E-01
        2   -1    0    0  501    0  0.00000000000E+00  0.00000000000E+00  0.20449089146E+04  0.20449089146E+04  0.25500000920E-02 0.  1.
       -2   -1    0    0    0  501  0.00000000000E+00  0.00000000000E+00 -0.53397279118E+03  0.53397279119E+03  0.25500000920E-02 0. -1.
    10030    2    1    2    0    0  0.00000000000E+00  0.00000000000E+00  0.15109361234E+04  0.25788817057E+04  0.20899049939E+04 0.  0.
        4    1    3    3  502    0  0.90023098709E+03  0.49422017993E+03  0.51729350596E+03  0.11498972130E+04  0.12699999809E+01 0. -1.
       -4    1    3    3    0  502 -0.90023098709E+03 -0.49422017993E+03  0.99364261741E+03  0.14289844927E+04  0.12699999809E+01 0.  1.
</event>
<event>
 5   0  0.1283052E-05  0.2791285E+04  0.7818609E-02  0.8305979E-01
       -2   -1    0    0    0  501  0.00000000000E+00  0.00000000000E+00  0.16148291148E+04  0.16148291148E+04  0.25500000920E-02 0.  1.
        2   -1    0    0  501    0  0.00000000000E+00  0.00000000000E+00 -0.12062065924E+04  0.12062065924E+04  0.25500000920E-02 0. -1.
    10030    2    1    2    0    0  0.00000000000E+00  0.00000000000E+00  0.40862252237E+03  0.28210357072E+04  0.27912846676E+04 0.  0.
        5    1    3    3  502    0  0.87998059587E+03  0.80987051472E+02 -0.88742017869E+03  0.12523822959E+04  0.46999998093E+01 0. -1.
       -5    1    3    3    0  502 -0.87998059587E+03 -0.80987051472E+02  0.12960427011E+04  0.15686534112E+04  0.46999998093E+01 0.  1.
</event>
<event>
 5   0  0.1388269E-05  0.2813335E+04  0.7818609E-02  0.8299140E-01
       -2   -1    0    0    0  501  0.00000000000E+00  0.00000000000E+00  0.10990468933E+04  0.10990468933E+04  0.25500000920E-02 0.  1.
        2   -1    0    0  501    0  0.00000000000E+00  0.00000000000E+00 -0.18003899022E+04  0.18003899022E+04  0.25500000920E-02 0. -1.
    10030    2    1    2    0    0  0.00000000000E+00  0.00000000000E+00 -0.70134300894E+03  0.28994367955E+04  0.28133346255E+04 0.  0.
        1    1    3    3  502    0 -0.90249420118E+03  0.74814309999E+03  0.45061912707E+03  0.12558946926E+04  0.50400001928E-02 0.  1.
       -1    1    3    3    0  502  0.90249420118E+03 -0.74814309999E+03 -0.11519621360E+04  0.16435421029E+04  0.50400001928E-02 0. -1.
</event>
<event>
 5   0  0.5281919E-06  0.2815563E+04  0.7818609E-02  0.8298453E-01
       -1   -1    0    0    0  501  0.00000000000E+00  0.00000000000E+00  0.13388941995E+04  0.13388941995E+04  0.50400001928E-02 0.  1.
        1   -1    0    0  501    0  0.00000000000E+00  0.00000000000E+00 -0.14802132708E+04  0.14802132708E+04  0.50400001928E-02 0. -1.
    10030    2    1    2    0    0  0.00000000000E+00  0.00000000000E+00 -0.14131907128E+03  0.28191074703E+04  0.28155631496E+04 0.  0.
        4    1    3    3  502    0  0.10265744093E+04 -0.29935622315E+03  0.84612302655E+03  0.13635963314E+04  0.12699999809E+01 0.  1.
       -4    1    3    3    0  502 -0.10265744093E+04  0.29935622315E+03 -0.98744209783E+03  0.14555111389E+04  0.12699999809E+01 0. -1.
</event>
<event>
 5   0  0.1388269E-05  0.2546328E+04  0.7818609E-02  0.8386664E-01
        2   -1    0    0  501    0  0.00000000000E+00  0.00000000000E+00  0.94469719603E+03  0.94469719603E+03  0.25500000920E-02 0. -1.
       -2   -1    0    0    0  501  0.00000000000E+00  0.00000000000E+00 -0.17158373978E+04  0.17158373978E+04  0.25500000920E-02 0.  1.
    10030    2    1    2    0    0  0.00000000000E+00  0.00000000000E+00 -0.77114020179E+03  0.26605345939E+04  0.25463281631E+04 0.  0.
        1    1    3    3  502    0 -0.18243743711E+02 -0.11970919227E+04 -0.83810642365E+03  0.14614322711E+04  0.50400001928E-02 0.  1.
       -1    1    3    3    0  502  0.18243743711E+02  0.11970919227E+04  0.66966221854E+02  0.11991023228E+04  0.50400001928E-02 0. -1.
</event>
<event>
 5   0  0.5107453E-06  0.2663163E+04  0.7818609E-02  0.8347057E-01
       -1   -1    0    0    0  501  0.00000000000E+00  0.00000000000E+00  0.10488079340E+04  0.10488079341E+04  0.50400001928E-02 0. -1.
        1   -1    0    0  501    0  0.00000000000E+00  0.00000000000E+00 -0.16905954362E+04  0.16905954362E+04  0.50400001928E-02 0.  1.
    10030    2    1    2    0    0  0.00000000000E+00  0.00000000000E+00 -0.64178750218E+03  0.27394033703E+04  0.26631634623E+04 0.  0.
        2    1    3    3  502    0  0.28062778388E+02 -0.77957004134E+03 -0.14309506442E+04  0.16297658467E+04  0.25500000920E-02 0.  1.
       -2    1    3    3    0  502 -0.28062778388E+02  0.77957004134E+03  0.78916314207E+03  0.11096375236E+04  0.25500000920E-02 0. -1.
</event>
<event>
 5   0  0.1350863E-05  0.2789808E+04  0.7818609E-02  0.8306440E-01
        2   -1    0    0  501    0  0.00000000000E+00  0.00000000000E+00  0.11367711192E+04  0.11367711192E+04  0.25500000920E-02 0. -1.
       -2   -1    0    0    0  501  0.00000000000E+00  0.00000000000E+00 -0.17116524271E+04  0.17116524271E+04  0.25500000920E-02 0.  1.
    10030    2    1    2    0    0  0.00000000000E+00  0.00000000000E+00 -0.57488130790E+03  0.28484235462E+04  0.27898079110E+04 0.  0.
        3    1    3    3  502    0  0.10974965928E+04 -0.82811740282E+03 -0.52793110112E+03  0.14727486078E+04  0.10100000352E+00 0. -1.
       -3    1    3    3    0  502 -0.10974965928E+04  0.82811740282E+03 -0.46950206783E+02  0.13756749384E+04  0.10100000352E+00 0.  1.
</event>
<event>
 5   0  0.5281919E-06  0.2789839E+04  0.7818609E-02  0.8306430E-01
        1   -1    0    0  501    0  0.00000000000E+00  0.00000000000E+00  0.13842430924E+04  0.13842430924E+04  0.50400001928E-02 0. -1.
       -1   -1    0    0    0  501  0.00000000000E+00  0.00000000000E+00 -0.14056781775E+04  0.14056781775E+04  0.50400001928E-02 0.  1.
    10030    2    1    2    0    0  0.00000000000E+00  0.00000000000E+00 -0.21435085120E+02  0.27899212699E+04  0.27898389254E+04 0.  0.
        4    1    3    3  502    0  0.46007987910E+03 -0.72211194736E+03 -0.11119673428E+04  0.14034215846E+04  0.12699999809E+01 0.  1.
       -4    1    3    3    0  502 -0.46007987910E+03  0.72211194736E+03  0.10905322577E+04  0.13864996854E+04  0.12699999809E+01 0. -1.
</event>
<event>
 5   0  0.5217999E-06  0.2860141E+04  0.7818609E-02  0.8284837E-01
        1   -1    0    0  501    0  0.00000000000E+00  0.00000000000E+00  0.30127695043E+04  0.30127695043E+04  0.50400001928E-02 0.  1.
       -1   -1    0    0    0  501  0.00000000000E+00  0.00000000000E+00 -0.67881106452E+03  0.67881106454E+03  0.50400001928E-02 0. -1.
    10030    2    1    2    0    0  0.00000000000E+00  0.00000000000E+00  0.23339584398E+04  0.36915805688E+04  0.28601407479E+04 0.  0.
        1    1    3    3  502    0 -0.13179475498E+04  0.47713388984E+03  0.15330892874E+04  0.20772590729E+04  0.50400001928E-02 0. -1.
       -1    1    3    3    0  502  0.13179475498E+04 -0.47713388984E+03  0.80086915234E+03  0.16143214959E+04  0.50400001928E-02 0.  1.
</event>
<event>
 5   0  0.1388269E-05  0.2819730E+04  0.7818609E-02  0.8297169E-01
       -2   -1    0    0    0  501  0.00000000000E+00  0.00000000000E+00  0.11939504191E+04  0.11939504191E+04  0.25500000920E-02 0.  1.
        2   -1    0    0  501    0  0.00000000000E+00  0.00000000000E+00 -0.16648251371E+04  0.16648251371E+04  0.25500000920E-02 0. -1.
    10030    2    1    2    0    0  0.00000000000E+00  0.00000000000E+00 -0.47087471796E+03  0.28587755562E+04  0.28197295403E+04 0.  0.
        1    1    3    3  502    0  0.64454382911E+02  0.11726247295E+04 -0.10263134470E+04  0.15596545820E+04  0.50400001928E-02 0. -1.
       -1    1    3    3    0  502 -0.64454382911E+02 -0.11726247295E+04  0.55543872904E+03  0.12991209741E+04  0.50400001928E-02 0.  1.
</event>
<event>
 5   0  0.1330962E-05  0.2596612E+04  0.7818609E-02  0.8369353E-01
       -2   -1    0    0    0  501  0.00000000000E+00  0.00000000000E+00  0.10565517587E+04  0.10565517587E+04  0.25500000920E-02 0. -1.
        2   -1    0    0  501    0  0.00000000000E+00  0.00000000000E+00 -0.15953768889E+04  0.15953768889E+04  0.25500000920E-02 0.  1.
    10030    2    1    2    0    0  0.00000000000E+00  0.00000000000E+00 -0.53882513022E+03  0.26519286475E+04  0.25966118367E+04 0.  0.
        4    1    3    3  502    0 -0.37984016016E+03 -0.58480179411E+03 -0.13878797282E+04  0.15532171254E+04  0.12699999809E+01 0.  1.
       -4    1    3    3    0  502  0.37984016016E+03  0.58480179411E+03  0.84905459799E+03  0.10987115222E+04  0.12699999809E+01 0. -1.
</event>
<event>
 5   0  0.5023691E-06  0.2554030E+04  0.7818609E-02  0.8383986E-01
       -1   -1    0    0    0  501  0.00000000000E+00  0.00000000000E+00  0.14862385445E+04  0.14862385445E+04  0.50400001928E-02 0. -1.
        1   -1    0    0  501    0  0.00000000000E+00  0.00000000000E+00 -0.10972442612E+04  0.10972442612E+04  0.50400001928E-02 0.  1.
    10030    2    1    2    0    0  0.00000000000E+00  0.00000000000E+00  0.38899428333E+03  0.25834828057E+04  0.25540295329E+04 0.  0.
        5    1    3    3  502    0  0.61850209494E+01  0.29566038676E+03 -0.10621218392E+04  0.11025326344E+04  0.46999998093E+01 0.  1.
       -5    1    3    3    0  502 -0.61850209494E+01 -0.29566038676E+03  0.14511161225E+04  0.14809501713E+04  0.46999998093E+01 0. -1.
</event>
<event>
 5   0  0.1388269E-05  0.2789548E+04  0.7818609E-02  0.8306521E-01
       -2   -1    0    0    0  501  0.00000000000E+00  0.00000000000E+00  0.14792812699E+04  0.14792812699E+04  0.25500000920E-02 0. -1.
        2   -1    0    0  501    0  0.00000000000E+00  0.00000000000E+00 -0.13150946863E+04  0.13150946864E+04  0.25500000920E-02 0.  1.
    10030    2    1    2    0    0  0.00000000000E+00  0.00000000000E+00  0.16418658353E+03  0.27943759562E+04  0.27895483058E+04 0.  0.
        1    1    3    3  502    0 -0.79571790718E+03  0.28420353874E+03 -0.10295372019E+04  0.13318729254E+04  0.50400001928E-02 0.  1.
       -1    1    3    3    0  502  0.79571790718E+03 -0.28420353874E+03  0.11937237854E+04  0.14625030308E+04  0.50400001928E-02 0. -1.
</event>
<event>
 5   0  0.1350863E-05  0.2802296E+04  0.7818609E-02  0.8302556E-01
        2   -1    0    0  501    0  0.00000000000E+00  0.00000000000E+00  0.23019197823E+04  0.23019197823E+04  0.25500000920E-02 0.  1.
       -2   -1    0    0    0  501  0.00000000000E+00  0.00000000000E+00 -0.85285993288E+03  0.85285993289E+03  0.25500000920E-02 0. -1.
    10030    2    1    2    0    0  0.00000000000E+00  0.00000000000E+00  0.14490598494E+04  0.31547797151E+04  0.28022955954E+04 0.  0.
        3    1    3    3  502    0 -0.17925629201E+03  0.12083400671E+04  0.14971464337E+04  0.19322696474E+04  0.10100000352E+00 0.  1.
       -3    1    3    3    0  502  0.17925629201E+03 -0.12083400671E+04 -0.48086584349E+02  0.12225100678E+04  0.10100000352E+00 0. -1.
</event>
<event>
 5   0  0.5217999E-06  0.2357813E+04  0.7818609E-02  0.8455469E-01
       -1   -1    0    0    0  501  0.00000000000E+00  0.00000000000E+00  0.11312855972E+04  0.11312855972E+04  0.50400001928E-02 0. -1.
        1   -1    0    0  501    0  0.00000000000E+00  0.00000000000E+00 -0.12285317132E+04  0.12285317132E+04  0.50400001928E-02 0.  1.
    10030    2    1    2    0    0  0.00000000000E+00  0.00000000000E+00 -0.97246116028E+02  0.23598173104E+04  0.23578127431E+04 0.  0.
        1    1    3    3  502    0  0.44396264207E+03  0.82975530226E+03 -0.75931375765E+03  0.12091956301E+04  0.50400001928E-02 0.  1.
       -1    1    3    3    0  502 -0.44396264207E+03 -0.82975530226E+03  0.66206764162E+03  0.11506216803E+04  0.50400001928E-02 0. -1.
</event>
<event>
 5   0  0.5217999E-06  0.2777934E+04  0.7818609E-02  0.8310152E-01
        1   -1    0    0  501    0  0.00000000000E+00  0.00000000000E+00  0.16664485147E+04  0.16664485147E+04  0.50400001928E-02 0.  1.
       -1   -1    0    0    0  501  0.00000000000E+00  0.00000000000E+00 -0.11576889653E+04  0.11576889653E+04  0.50400001928E-02 0. -1.
    10030    2    1    2    0    0  0.00000000000E+00  0.00000000000E+00  0.50875954945E+03  0.28241374800E+04  0.27779338053E+04 0.  0.
        1    1    3    3  502    0 -0.46789149689E+03 -0.95061219498E+03  0.11674509697E+04  0.15765556650E+04  0.50400001928E-02 0.  1.
       -1    1    3    3    0  502  0.46789149689E+03  0.95061219498E+03 -0.65869142024E+03  0.12475818150E+04  0.50400001928E-02 0. -1.
</event>
<event>
 5   0  0.4764214E-06  0.2801159E+04  0.7818609E-02  0.8302909E-01
       -1   -1    0    0    0  501  0.00000000000E+00  0.00000000000E+00  0.70603681608E+03  0.70603681610E+03  0.50400001928E-02 0. -1.
        1   -1    0    0  501    0  0.00000000000E+00  0.00000000000E+00 -0.27783583341E+04  0.27783583341E+04  0.50400001928E-02 0.  1.
    10030    2    1    2    0    0  0.00000000000E+00  0.00000000000E+00 -0.20723215180E+04  0.34843951502E+04  0.28011592401E+04 0.  0.
        3    1    3    3  502    0 -0.33835953420E+02 -0.20708045865E+03  0.68637468991E+03  0.71773073868E+03  0.10100000352E+00 0. -1.
       -3    1    3    3    0  502  0.33835953420E+02  0.20708045865E+03 -0.27586962079E+04  0.27666644115E+04  0.10100000352E+00 0.  1.
</event>
<event>
 5   0  0.5023691E-06  0.2800667E+04  0.7818609E-02  0.8303061E-01
        1   -1    0    0  501    0  0.00000000000E+00  0.00000000000E+00  0.17359541770E+04  0.17359541770E+04  0.50400001928E-02 0. -1.
       -1   -1    0    0    0  501  0.00000000000E+00  0.00000000000E+00 -0.11295998174E+04  0.11295998175E+04  0.50400001928E-02 0.  1.
    10030    2    1    2    0    0  0.00000000000E+00  0.00000000000E+00  0.60635435956E+03  0.28655539945E+04  0.28006667217E+04 0.  0.
        5    1    3    3  502    0 -0.73424147238E+03 -0.42329328013E+03  0.14437341415E+04  0.16741200979E+04  0.46999998093E+01 0. -1.
       -5    1    3    3    0  502  0.73424147238E+03  0.42329328013E+03 -0.83737978193E+03  0.11914338966E+04  0.46999998093E+01 0.  1.
</event>
<event>
 5   0  0.4764214E-06  0.2805721E+04  0.7818609E-02  0.8301494E-01
       -1   -1    0    0    0  501  0.00000000000E+00  0.00000000000E+00  0.10548529474E+04  0.10548529474E+04  0.50400001928E-02 0.  1.
        1   -1    0    0  501    0  0.00000000000E+00  0.00000000000E+00 -0.18656797949E+04  0.18656797950E+04  0.50400001928E-02 0. -1.
    10030    2    1    2    0    0  0.00000000000E+00  0.00000000000E+00 -0.81082684751E+03  0.29205327424E+04  0.28057211770E+04 0.  0.
        3    1    3    3  502    0 -0.80523232302E+03 -0.82064477266E+03  0.43132151014E+03  0.12279638400E+04  0.10100000352E+00 0.  1.
       -3    1    3    3    0  502  0.80523232302E+03  0.82064477266E+03 -0.12421483576E+04  0.16925689024E+04  0.10100000352E+00 0. -1.
</event>
<event>
 5   0  0.1330962E-05  0.2887808E+04  0.7818609E-02  0.8276514E-01
        2   -1    0    0  501    0  0.00000000000E+00  0.00000000000E+00  0.12943208140E+04  0.12943208140E+04  0.25500000920E-02 0. -1.
       -2   -1    0    0    0  501  0.00000000000E+00  0.00000000000E+00 -0.16107748247E+04  0.16107748247E+04  0.25500000920E-02 0.  1.
    10030    2    1    2    0    0  0.00000000000E+00  0.00000000000E+00 -0.31645401066E+03  0.29050956386E+04  0.28878084301E+04 0.  0.
        4    1    3    3  502    0 -0.29337373127E+03 -0.10810068177E+04 -0.10748421959E+04  0.15523953250E+04  0.12699999809E+01 0.  1.
       -4    1    3    3    0  502  0.29337373127E+03  0.10810068177E+04  0.75838818526E+03  0.13527003136E+04  0.12699999809E+01 0. -1.
</event>
<event>
 5   0  0.1388269E-05  0.2804224E+04  0.7818609E-02  0.8301958E-01
        2   -1    0    0  501    0  0.00000000000E+00  0.00000000000E+00  0.22486125538E+04  0.22486125538E+04  0.25500000920E-02 0. -1.
       -2   -1    0    0    0  501  0.00000000000E+00  0.00000000000E+00 -0.87428054860E+03  0.87428054860E+03  0.25500000920E-02 0.  1.
    10030    2    1    2    0    0  0.00000000000E+00  0.00000000000E+00  0.13743320052E+04  0.31228931024E+04  0.28042241117E+04 0.  0.
        1    1    3    3  502    0  0.13355590848E+04 -0.22206631527E+03  0.10931277909E+04  0.17401034121E+04  0.50400001928E-02 0. -1.
       -1    1    3    3    0  502 -0.13355590848E+04  0.22206631527E+03  0.28120421431E+03  0.13827896903E+04  0.50400001928E-02 0.  1.
</event>
<event>
 5   0  0.5107453E-06  0.2768672E+04  0.7818609E-02  0.8313061E-01
       -1   -1    0    0    0  501  0.00000000000E+00  0.00000000000E+00  0.12839617568E+04  0.12839617568E+04  0.50400001928E-02 0. -1.
        1   -1    0    0  501    0  0.00000000000E+00  0.00000000000E+00 -0.14925567984E+04  0.14925567984E+04  0.50400001928E-02 0.  1.
    10030    2    1    2    0    0  0.00000000000E+00  0.00000000000E+00 -0.20859504161E+03  0.27765185553E+04  0.27686717748E+04 0.  0.
        2    1    3    3  502    0 -0.11025510372E+04  0.14921610256E+03 -0.93034412363E+03  0.14503187316E+04  0.25500000920E-02 0.  1.
       -2    1    3    3    0  502  0.11025510372E+04 -0.14921610256E+03  0.72174908201E+03  0.13261998237E+04  0.25500000920E-02 0. -1.
</event>
<event>
 5   0  0.1283052E-05  0.2804552E+04  0.7818609E-02  0.8301857E-01
        2   -1    0    0  501    0  0.00000000000E+00  0.00000000000E+00  0.19458354236E+04  0.19458354236E+04  0.25500000920E-02 0. -1.
       -2   -1    0    0    0  501  0.00000000000E+00  0.00000000000E+00 -0.10105569084E+04  0.10105569084E+04  0.25500000920E-02 0.  1.
    10030    2    1    2    0    0  0.00000000000E+00  0.00000000000E+00  0.93527851517E+03  0.29563923320E+04  0.28045516076E+04 0.  0.
        5    1    3    3  502    0 -0.90941922415E+03  0.68872662729E+03  0.13272441711E+04  0.17501391008E+04  0.46999998093E+01 0. -1.
       -5    1    3    3    0  502  0.90941922415E+03 -0.68872662729E+03 -0.39196565589E+03  0.12062532312E+04  0.46999998093E+01 0.  1.
</event>
<event>
 5   0  0.5107453E-06  0.2843307E+04  0.7818609E-02  0.8289948E-01
       -1   -1    0    0    0  501  0.00000000000E+00  0.00000000000E+00  0.11878277458E+04  0.11878277458E+04  0.50400001928E-02 0.  1.
        1   -1    0    0  501    0  0.00000000000E+00  0.00000000000E+00 -0.17015080443E+04  0.17015080443E+04  0.50400001928E-02 0. -1.
    10030    2    1    2    0    0  0.00000000000E+00  0.00000000000E+00 -0.51368029857E+03  0.28893357901E+04  0.28433068528E+04 0.  0.
        2    1    3    3  502    0  0.36702568283E+03  0.40999050601E+03 -0.15888995077E+04  0.16814879460E+04  0.25500000920E-02 0. -1.
       -2    1    3    3    0  502 -0.36702568283E+03 -0.40999050601E+03  0.10752192091E+04  0.12078478441E+04  0.25500000920E-02 0.  1.
</event>
<event>
 5   0  0.1302063E-05  0.2786227E+04  0.7818609E-02  0.8307557E-01
       -2   -1    0    0    0  501  0.00000000000E+00  0.00000000000E+00  0.81235613622E+03  0.81235613623E+03  0.25500000920E-02 0.  1.
        2   -1    0    0  501    0  0.00000000000E+00  0.00000000000E+00 -0.23890567057E+04  0.23890567057E+04  0.25500000920E-02 0. -1.
    10030    2    1    2    0    0  0.00000000000E+00  0.00000000000E+00 -0.15767005695E+04  0.32014128420E+04  0.27862267494E+04 0.  0.
        2    1    3    3  502    0  0.12729568439E+03 -0.52566347527E+03  0.68679659466E+03  0.87419439654E+03  0.25500000920E-02 0.  1.
       -2    1    3    3    0  502 -0.12729568439E+03  0.52566347527E+03 -0.22634971642E+04  0.23272184454E+04  0.25500000920E-02 0. -1.
</event>
<event>
 5   0  0.1350863E-05  0.2746547E+04  0.7818609E-02  0.8320058E-01
        2   -1    0    0  501    0  0.00000000000E+00  0.00000000000E+00  0.11522588564E+04  0.11522588564E+04  0.25500000920E-02 0. -1.
       -2   -1    0    0    0  501  0.00000000000E+00  0.00000000000E+00 -0.16366813057E+04  0.16366813057E+04  0.25500000920E-02 0.  1.
    10030    2    1    2    0    0  0.00000000000E+00  0.00000000000E+00 -0.48442244930E+03  0.27889401621E+04  0.27465473086E+04 0.  0.
        3    1    3    3  502    0 -0.35050745291E+03 -0.12893019514E+04  0.80060258567E+02  0.13384934261E+04  0.10100000352E+00 0. -1.
       -3    1    3    3    0  502  0.35050745291E+03  0.12893019514E+04 -0.56448270786E+03  0.14504467360E+04  0.10100000352E+00 0.  1.
</event>
<event>
 5   0  0.1388269E-05  0.2856146E+04  0.7818609E-02  0.8286046E-01
       -2   -1    0    0    0  501  0.00000000000E+00  0.00000000000E+00  0.12609803554E+04  0.12609803554E+04  0.25500000920E-02 0.  1.
        2   -1    0    0  501    0  0.00000000000E+00  0.00000000000E+00 -0.16173069781E+04  0.16173069782E+04  0.25500000920E-02 0. -1.
    10030    2    1    2    0    0  0.00000000000E+00  0.00000000000E+00 -0.35632662278E+03  0.28782873335E+04  0.28561458843E+04 0.  0.
        1    1    3    3  502    0 -0.78149721722E+03  0.71273070675E+03 -0.11451168497E+04  0.15588507178E+04  0.50400001928E-02 0. -1.
       -1    1    3    3    0  502  0.78149721722E+03 -0.71273070675E+03  0.78879022691E+03  0.13194366157E+04  0.50400001928E-02 0.  1.
</event>
<event>
 5   0  0.1330962E-05  0.2812439E+04  0.7818609E-02  0.8299417E-01
       -2   -1    0    0    0  501  0.00000000000E+00  0.00000000000E+00  0.74394293540E+03  0.74394293540E+03  0.25500000920E-02 0. -1.
        2   -1    0    0  501    0  0.00000000000E+00  0.00000000000E+00 -0.26580719182E+04  0.26580719182E+04  0.25500000920E-02 0.  1.
    10030    2    1    2    0    0  0.00000000000E+00  0.00000000000E+00 -0.19141289828E+04  0.34020148536E+04  0.28124393863E+04 0.  0.
        4    1    3    3  502    0 -0.12698808582E+04 -0.59071345509E+03 -0.80447616122E+03  0.16151542610E+04  0.12699999809E+01 0. -1.
       -4    1    3    3    0  502  0.12698808582E+04  0.59071345509E+03 -0.11096528216E+04  0.17868605926E+04  0.12699999809E+01 0.  1.
</event>
<event>
 5   0  0.5023691E-06  0.2807258E+04  0.7818609E-02  0.8301019E-01
        1   -1    0    0  501    0  0.00000000000E+00  0.00000000000E+00  0.10673275582E+04  0.10673275582E+04  0.50400001928E-02 0.  1.
       -1   -1    0    0    0  501  0.00000000000E+00  0.00000000000E+00 -0.18458950779E+04  0.18458950779E+04  0.50400001928E-02 0. -1.
    10030    2    1    2    0    0  0.00000000000E+00  0.00000000000E+00 -0.77856751971E+03  0.29132226361E+04  0.28072582255E+04 0.  0.
        5    1    3    3  502    0 -0.10718132181E+04 -0.78481048429E+03 -0.85964922571E+03  0.15823179048E+04  0.46999998093E+01 0.  1.
       -5    1    3    3    0  502  0.10718132181E+04  0.78481048429E+03  0.81081705999E+02  0.13309047313E+04  0.46999998093E+01 0. -1.
</event>
<event>
 5   0  0.5281919E-06  0.2789759E+04  0.7818609E-02  0.8306455E-01
        1   -1    0    0  501    0  0.00000000000E+00  0.00000000000E+00  0.11980210988E+04  0.11980210988E+04  0.50400001928E-02 0. -1.
       -1   -1    0    0    0  501  0.00000000000E+00  0.00000000000E+00 -0.16240857951E+04  0.16240857951E+04  0.50400001928E-02 0.  1.
    10030    2    1    2    0    0  0.00000000000E+00  0.00000000000E+00 -0.42606469634E+03  0.28221068939E+04  0.27897591644E+04 0.  0.
        4    1    3    3  502    0  0.82885774938E+03 -0.10128052902E+04 -0.70123336612E+03  0.14847590954E+04  0.12699999809E+01 0. -1.
       -4    1    3    3    0  502 -0.82885774938E+03  0.10128052902E+04  0.27516866979E+03  0.13373477986E+04  0.12699999809E+01 0.  1.
</event>
<event>
 5   0  0.5023691E-06  0.2878436E+04  0.7818609E-02  0.8279322E-01
        1   -1    0    0  501    0  0.00000000000E+00  0.00000000000E+00  0.12604280946E+04  0.12604280947E+04  0.50400001928E-02 0. -1.
       -1   -1    0    0    0  501  0.00000000000E+00  0.00000000000E+00 -0.16433688104E+04  0.16433688104E+04  0.50400001928E-02 0.  1.
    10030    2    1    2    0    0  0.00000000000E+00  0.00000000000E+00 -0.38294071574E+03  0.29037969051E+04  0.28784358381E+04 0.  0.
        5    1    3    3  502    0 -0.54929163731E+03  0.81475800109E+03  0.86935261504E+03  0.13120015101E+04  0.46999998093E+01 0. -1.
       -5    1    3    3    0  502  0.54929163731E+03 -0.81475800109E+03 -0.12522933308E+04  0.15917953950E+04  0.46999998093E+01 0.  1.
</event>
<event>
 5   0  0.1350863E-05  0.2859511E+04  0.7818609E-02  0.8285027E-01
        2   -1    0    0  501    0  0.00000000000E+00  0.00000000000E+00  0.11367564257E+04  0.11367564257E+04  0.25500000920E-02 0.  1.
       -2   -1    0    0    0  501  0.00000000000E+00  0.00000000000E+00 -0.17982754685E+04  0.17982754685E+04  0.25500000920E-02 0. -1.
    10030    2    1    2    0    0  0.00000000000E+00  0.00000000000E+00 -0.66151904285E+03  0.29350318942E+04  0.28595112827E+04 0.  0.
        3    1    3    3  502    0  0.93119824048E+03  0.10844466579E+04 -0.29755603050E+03  0.14600323005E+04  0.10100000352E+00 0. -1.
       -3    1    3    3    0  502 -0.93119824048E+03 -0.10844466579E+04 -0.36396301235E+03  0.14749995937E+04  0.10100000352E+00 0.  1.
</event>
<event>
 5   0  0.1302063E-05  0.2790498E+04  0.7818609E-02  0.8306224E-01
        2   -1    0    0  501    0  0.00000000000E+00  0.00000000000E+00  0.13947114104E+04  0.13947114104E+04  0.25500000920E-02 0.  1.
       -2   -1    0    0    0  501  0.00000000000E+00  0.00000000000E+00 -0.13957869322E+04  0.13957869322E+04  0.25500000920E-02 0. -1.
    10030    2    1    2    0    0  0.00000000000E+00  0.00000000000E+00 -0.10755218303E+01  0.27904983426E+04  0.27904981354E+04 0.  0.
        2    1    3    3  502    0 -0.13173056776E+04 -0.45729441647E+03 -0.48574514061E+02  0.13952676858E+04  0.25500000920E-02 0. -1.
       -2    1    3    3    0  502  0.13173056776E+04  0.45729441647E+03  0.47498992231E+02  0.13952306569E+04  0.25500000920E-02 0.  1.
</event>
<event>
 5   0  0.1283052E-05  0.2796255E+04  0.7818609E-02  0.8304432E-01
        2   -1    0    0  501    0  0.00000000000E+00  0.00000000000E+00  0.17555563870E+04  0.17555563870E+04  0.25500000920E-02 0.  1.
       -2   -1    0    0    0  501  0.00000000000E+00  0.00000000000E+00 -0.11134708880E+04  0.11134708880E+04  0.25500000920E-02 0. -1.
    10030    2    1    2    0    0  0.00000000000E+00  0.00000000000E+00  0.64208549898E+03  0.28690272750E+04  0.27962553025E+04 0.  0.
        5    1    3    3  502    0  0.13711684358E+04  0.26843137541E+03  0.37316396480E+03  0.14461783145E+04  0.46999998093E+01 0. -1.
       -5    1    3    3    0  502 -0.13711684358E+04 -0.26843137541E+03  0.26892153418E+03  0.14228489605E+04  0.46999998093E+01 0.  1.
</event>
<event>
 5   0  0.5281919E-06  0.2789167E+04  0.7818609E-02  0.8306640E-01
       -1   -1    0    0    0  501  0.00000000000E+00  0.00000000000E+00  0.92623820183E+03  0.92623820185E+03  0.50400001928E-02 0. -1.
        1   -1    0    0  501    0  0.00000000000E+00  0.00000000000E+00 -0.20997438349E+04  0.20997438349E+04  0.50400001928E-02 0.  1.
    10030    2    1    2    0    0  0.00000000000E+00  0.00000000000E+00 -0.11735056330E+04  0.30259820367E+04  0.27891668677E+04 0.  0.
        4    1    3    3  502    0 -0.56581504472E+02 -0.43450117713E+03  0.84961785470E+03  0.95595232700E+03  0.12699999809E+01 0. -1.
       -4    1    3    3    0  502  0.56581504472E+02  0.43450117713E+03 -0.20231234877E+04  0.20700297097E+04  0.12699999809E+01 0.  1.
</event>
<event>
 5   0  0.5217999E-06  0.2786998E+04  0.7818609E-02  0.8307317E-01
        1   -1    0    0  501    0  0.00000000000E+00  0.00000000000E+00  0.16834851777E+04  0.16834851777E+04  0.50400001928E-02 0. -1.
       -1   -1    0    0    0  501  0.00000000000E+00  0.00000000000E+00 -0.11534635426E+04  0.11534635426E+04  0.50400001928E-02 0.  1.
    10030    2    1    2    0    0  0.00000000000E+00  0.00000000000E+00  0.53002163509E+03  0.28369487203E+04  0.27869975077E+04 0.  0.
        1    1    3    3  502    0  0.58933455250E+02  0.10856638853E+04 -0.62221841140E+03  0.12527150416E+04  0.50400001928E-02 0.  1.
       -1    1    3    3    0  502 -0.58933455250E+02 -0.10856638853E+04  0.11522400465E+04  0.15842336787E+04  0.50400001928E-02 0. -1.
</event>
<event>
 5   0  0.1302063E-05  0.2885317E+04  0.7818609E-02  0.8277260E-01
        2   -1    0    0  501    0  0.00000000000E+00  0.00000000000E+00  0.15346466509E+04  0.15346466509E+04  0.25500000920E-02 0. -1.
       -2   -1    0    0    0  501  0.00000000000E+00  0.00000000000E+00 -0.13561840417E+04  0.13561840417E+04  0.25500000920E-02 0.  1.
    10030    2    1    2    0    0  0.00000000000E+00  0.00000000000E+00  0.17846260921E+03  0.28908306926E+04  0.28853168267E+04 0.  0.
        2    1    3    3  502    0  0.54978006670E+03 -0.11453205027E+04 -0.59562901052E+03  0.14031361637E+04  0.25500000920E-02 0.  1.
       -2    1    3    3    0  502 -0.54978006670E+03  0.11453205027E+04  0.77409161973E+03  0.14876945289E+04  0.25500000920E-02 0. -1.
</event>
<event>
 5   0  0.4447500E-06  0.2873637E+04  0.7818609E-02  0.8280765E-01
       -3   -1    0    0    0  501  0.00000000000E+00  0.00000000000E+00  0.19725710189E+04  0.19725710214E+04  0.10100000352E+00 0.  1.
        3   -1    0    0  501    0  0.00000000000E+00  0.00000000000E+00 -0.10465771203E+04  0.10465771252E+04  0.10100000352E+00 0. -1.
    10030    2    1    2    0    0  0.00000000000E+00  0.00000000000E+00  0.92599389856E+03  0.30191481466E+04  0.28736372129E+04 0.  0.
        3    1    3    3  502    0  0.54894030854E+03  0.93427326418E+02 -0.92860414202E+03  0.10827602645E+04  0.10100000352E+00 0. -1.
       -3    1    3    3    0  502 -0.54894030854E+03 -0.93427326418E+02  0.18545980406E+04  0.19363878821E+04  0.10100000352E+00 0.  1.
</event>
<event>
 5   0  0.5281919E-06  0.2697678E+04  0.7818609E-02  0.8335759E-01
       -1   -1    0    0    0  501  0.00000000000E+00  0.00000000000E+00  0.13433657824E+04  0.13433657825E+04  0.50400001928E-02 0.  1.
        1   -1    0    0  501    0  0.00000000000E+00  0.00000000000E+00 -0.13543344325E+04  0.13543344325E+04  0.50400001928E-02 0. -1.
    10030    2    1    2    0    0  0.00000000000E+00  0.00000000000E+00 -0.10968650095E+02  0.26977002150E+04  0.26976779160E+04 0.  0.
        4    1    3    3  502    0 -0.39598779056E+03  0.10601778152E+04 -0.73937157489E+03  0.13518340389E+04  0.12699999809E+01 0. -1.
       -4    1    3    3    0  502  0.39598779056E+03 -0.10601778152E+04  0.72840292479E+03  0.13458661761E+04  0.12699999809E+01 0.  1.
</event>
<event>
 5   0  0.1330962E-05  0.2854660E+04  0.7818609E-02  0.8286497E-01
       -2   -1    0    0    0  501  0.00000000000E+00  0.00000000000E+00  0.91315015875E+03  0.91315015875E+03  0.25500000920E-02 0.  1.
        2   -1    0    0  501    0  0.00000000000E+00  0.00000000000E+00 -0.22310368257E+04  0.22310368257E+04  0.25500000920E-02 0. -1.
    10030    2    1    2    0    0  0.00000000000E+00  0.00000000000E+00 -0.13178866670E+04  0.31441869845E+04  0.28546604923E+04 0.  0.
        4    1    3    3  502    0 -0.36557696573E+03  0.17345966493E+02  0.86058955854E+03  0.93518094591E+03  0.12699999809E+01 0.  1.
       -4    1    3    3    0  502  0.36557696573E+03 -0.17345966493E+02 -0.21784762255E+04  0.22090060386E+04  0.12699999809E+01 0. -1.
</event>
<event>
 5   0  0.5023691E-06  0.2790514E+04  0.7818609E-02  0.8306219E-01
       -1   -1    0    0    0  501  0.00000000000E+00  0.00000000000E+00  0.25178201650E+04  0.25178201650E+04  0.50400001928E-02 0. -1.
        1   -1    0    0  501    0  0.00000000000E+00  0.00000000000E+00 -0.77318561605E+03  0.77318561607E+03  0.50400001928E-02 0.  1.
    10030    2    1    2    0    0  0.00000000000E+00  0.00000000000E+00  0.17446345489E+04  0.32910057811E+04  0.27905141716E+04 0.  0.
        5    1    3    3  502    0 -0.13118819972E+04 -0.23217670483E+03  0.13611165127E+04  0.19046261177E+04  0.46999998093E+01 0. -1.
       -5    1    3    3    0  502  0.13118819972E+04  0.23217670483E+03  0.38351803625E+03  0.13863796634E+04  0.46999998093E+01 0.  1.
</event>
<event>
 5   0  0.1283052E-05  0.2795770E+04  0.7818609E-02  0.8304583E-01
       -2   -1    0    0    0  501  0.00000000000E+00  0.00000000000E+00  0.16080874987E+04  0.16080874987E+04  0.25500000920E-02 0. -1.
        2   -1    0    0  501    0  0.00000000000E+00  0.00000000000E+00 -0.12151597106E+04  0.12151597106E+04  0.25500000920E-02 0.  1.
    10030    2    1    2    0    0  0.00000000000E+00  0.00000000000E+00  0.39292778801E+03  0.28232472093E+04  0.27957704767E+04 0.  0.
        5    1    3    3  502    0 -0.55849751407E+03  0.10223659025E+03  0.14863938249E+04  0.15911506800E+04  0.46999998093E+01 0. -1.
       -5    1    3    3    0  502  0.55849751407E+03 -0.10223659025E+03 -0.10934660369E+04  0.12320965293E+04  0.46999998093E+01 0.  1.
</event>
<event>
 5   0  0.1388269E-05  0.2777644E+04  0.7818609E-02  0.8310243E-01
       -2   -1    0    0    0  501  0.00000000000E+00  0.00000000000E+00  0.13084330280E+04  0.13084330280E+04  0.25500000920E-02 0. -1.
        2   -1    0    0  501    0  0.00000000000E+00  0.00000000000E+00 -0.14741497340E+04  0.14741497340E+04  0.25500000920E-02 0.  1.
    10030    2    1    2    0    0  0.00000000000E+00  0.00000000000E+00 -0.16571670596E+03  0.27825827620E+04  0.27776437498E+04 0.  0.
        1    1    3    3  502    0 -0.24854781223E+03 -0.61079466052E+03  0.11415998021E+04  0.13183687802E+04  0.50400001928E-02 0. -1.
       -1    1    3    3    0  502  0.24854781223E+03  0.61079466052E+03 -0.13073165081E+04  0.14642139818E+04  0.50400001928E-02 0.  1.
</event>
<event>
 5   0  0.4764214E-06  0.3089517E+04  0.7818609E-02  0.8218621E-01
        1   -1    0    0  501    0  0.00000000000E+00  0.00000000000E+00  0.11261530992E+04  0.11261530992E+04  0.50400001928E-02 0. -1.
       -1   -1    0    0    0  501  0.00000000000E+00  0.00000000000E+00 -0.21189648038E+04  0.21189648038E+04  0.50400001928E-02 0.  1.
    10030    2    1    2    0    0  0.00000000000E+00  0.00000000000E+00 -0.99281170460E+03  0.32451179030E+04  0.30895169725E+04 0.  0.
        3    1    3    3  502    0  0.72348627049E+03 -0.13295348097E+04 -0.17234922668E+03  0.15234170342E+04  0.10100000352E+00 0. -1.
       -3    1    3    3    0  502 -0.72348627049E+03  0.13295348097E+04 -0.82046247791E+03  0.17217008688E+04  0.10100000352E+00 0.  1.
</event>
<event>
 5   0  0.5281919E-06  0.2126387E+04  0.7818609E-02  0.8549708E-01
        1   -1    0    0  501    0  0.00000000000E+00  0.00000000000E+00  0.14106339554E+04  0.14106339554E+04  0.50400001928E-02 0.  1.
       -1   -1    0    0    0  501  0.00000000000E+00  0.00000000000E+00 -0.80132814408E+03  0.80132814409E+03  0.50400001928E-02 0. -1.
    10030    2    1    2    0    0  0.00000000000E+00  0.00000000000E+00  0.60930581133E+03  0.22119620995E+04  0.21263872549E+04 0.  0.
        4    1    3    3  502    0  0.64924471505E+02  0.28660861008E+03 -0.75824023414E+03  0.81319711506E+03  0.12699999809E+01 0. -1.
       -4    1    3    3    0  502 -0.64924471505E+02 -0.28660861008E+03  0.13675460455E+04  0.13987649845E+04  0.12699999809E+01 0.  1.
</event>
<event>
 5   0  0.5281919E-06  0.2835968E+04  0.7818609E-02  0.8292188E-01
        1   -1    0    0  501    0  0.00000000000E+00  0.00000000000E+00  0.21743841255E+04  0.21743841255E+04  0.50400001928E-02 0.  1.
       -1   -1    0    0    0  501  0.00000000000E+00  0.00000000000E+00 -0.92471172988E+03  0.92471172989E+03  0.50400001928E-02 0. -1.
    10030    2    1    2    0    0  0.00000000000E+00  0.00000000000E+00  0.12496723956E+04  0.30990958554E+04  0.28359679167E+04 0.  0.
        4    1    3    3  502    0  0.76719472058E+03 -0.35015641779E+03  0.18705504553E+04  0.20518669243E+04  0.12699999809E+01 0.  1.
       -4    1    3    3    0  502 -0.76719472058E+03  0.35015641779E+03 -0.62087805970E+03  0.10472289311E+04  0.12699999809E+01 0. -1.
</event>
<event>
 5   0  0.5281919E-06  0.2770917E+04  0.7818609E-02  0.8312355E-01
       -1   -1    0    0    0  501  0.00000000000E+00  0.00000000000E+00  0.13698180344E+04  0.13698180344E+04  0.50400001928E-02 0.  1.
        1   -1    0    0  501    0  0.00000000000E+00  0.00000000000E+00 -0.14012771887E+04  0.14012771887E+04  0.50400001928E-02 0. -1.
    10030    2    1    2    0    0  0.00000000000E+00  0.00000000000E+00 -0.31459154276E+02  0.27710952231E+04  0.27709166456E+04 0.  0.
        4    1    3    3  502    0 -0.62794383677E+03  0.62453075685E+03 -0.10812282119E+04  0.13976437985E+04  0.12699999809E+01 0. -1.
       -4    1    3    3    0  502  0.62794383677E+03 -0.62453075685E+03  0.10497690576E+04  0.13734514246E+04  0.12699999809E+01 0.  1.
</event>
<event>
 5   0  0.4764214E-06  0.2812024E+04  0.7818609E-02  0.8299545E-01
        1   -1    0    0  501    0  0.00000000000E+00  0.00000000000E+00  0.22081211859E+04  0.22081211859E+04  0.50400001928E-02 0.  1.
       -1   -1    0    0    0  501  0.00000000000E+00  0.00000000000E+00 -0.89527250462E+03  0.89527250463E+03  0.50400001928E-02 0. -1.
    10030    2    1    2    0    0  0.00000000000E+00  0.00000000000E+00  0.13128486813E+04  0.31033936905E+04  0.28120243133E+04 0.  0.
        3    1    3    3  502    0 -0.23211545679E+03  0.68512787163E+03 -0.67414993117E+03  0.98881541536E+03  0.10100000352E+00 0. -1.
       -3    1    3    3    0  502  0.23211545679E+03 -0.68512787163E+03  0.19869986124E+04  0.21145782751E+04  0.10100000352E+00 0.  1.
</event>
<event>
 5   0  0.1283052E-05  0.2821052E+04  0.7818609E-02  0.8296762E-01
        2   -1    0    0  501    0  0.00000000000E+00  0.00000000000E+00  0.13915876820E+04  0.13915876820E+04  0.25500000920E-02 0. -1.
       -2   -1    0    0    0  501  0.00000000000E+00  0.00000000000E+00 -0.14297225476E+04  0.14297225476E+04  0.25500000920E-02 0.  1.
    10030    2    1    2    0    0  0.00000000000E+00  0.00000000000E+00 -0.38134865545E+02  0.28213102296E+04  0.28210524887E+04 0.  0.
        5    1    3    3  502    0  0.72277261589E+03  0.75587845612E+03  0.92749128023E+03  0.13978607440E+04  0.46999998093E+01 0. -1.
       -5    1    3    3    0  502 -0.72277261589E+03 -0.75587845612E+03 -0.96562614578E+03  0.14234494856E+04  0.46999998093E+01 0.  1.
</event>
<event>
 5   0  0.1302063E-05  0.2822284E+04  0.7818609E-02  0.8296383E-01
        2   -1    0    0  501    0  0.00000000000E+00  0.00000000000E+00  0.20556871119E+04  0.20556871119E+04  0.25500000920E-02 0.  1.
       -2   -1    0    0    0  501  0.00000000000E+00  0.00000000000E+00 -0.96868916574E+03  0.96868916575E+03  0.25500000920E-02 0. -1.
    10030    2    1    2    0    0  0.00000000000E+00  0.00000000000E+00  0.10869979461E+04  0.30243762776E+04  0.28222840633E+04 0.  0.
        2    1    3    3  502    0 -0.32421341969E+03  0.10933113326E+04 -0.34720979041E+03  0.11920564794E+04  0.25500000920E-02 0. -1.
       -2    1    3    3    0  502  0.32421341969E+03 -0.10933113326E+04  0.14342077365E+04  0.18323197982E+04  0.25500000920E-02 0.  1.
</event>
<event>
 5   0  0.5107453E-06  0.2774998E+04  0.7818609E-02  0.8311073E-01
        1   -1    0    0  501    0  0.00000000000E+00  0.00000000000E+00  0.23494200732E+04  0.23494200732E+04  0.50400001928E-02 0. -1.
       -1   -1    0    0    0  501  0.00000000000E+00  0.00000000000E+00 -0.81941673227E+03  0.81941673229E+03  0.50400001928E-02 0.  1.
    10030    2    1    2    0    0  0.00000000000E+00  0.00000000000E+00  0.15300033409E+04  0.31688368055E+04  0.27749984642E+04 0.  0.
        2    1    3    3  502    0 -0.33460144874E+03 -0.37757540982E+03 -0.71096866303E+03  0.87177850364E+03  0.25500000920E-02 0.  1.
       -2    1    3    3    0  502  0.33460144874E+03  0.37757540982E+03  0.22409720039E+04  0.22970583018E+04  0.25500000920E-02 0. -1.
</event>
<event>
 5   0  0.5217999E-06  0.2787341E+04  0.7818609E-02  0.8307209E-01
       -1   -1    0    0    0  501  0.00000000000E+00  0.00000000000E+00  0.84263096184E+03  0.84263096185E+03  0.50400001928E-02 0.  1.
        1   -1    0    0  501    0  0.00000000000E+00  0.00000000000E+00 -0.23050627580E+04  0.23050627580E+04  0.50400001928E-02 0. -1.
    10030    2    1    2    0    0  0.00000000000E+00  0.00000000000E+00 -0.14624317961E+04  0.31476937198E+04  0.27873408467E+04 0.  0.
        1    1    3    3  502    0 -0.27398561278E+02 -0.13823634651E+04 -0.92888159372E+03  0.16656831769E+04  0.50400001928E-02 0.  1.
       -1    1    3    3    0  502  0.27398561278E+02  0.13823634651E+04 -0.53355020239E+03  0.14820105429E+04  0.50400001928E-02 0. -1.
</event>
<event>
 5   0  0.4764214E-06  0.2816654E+04  0.7818609E-02  0.8298117E-01
        1   -1    0    0  501    0  0.00000000000E+00  0.00000000000E+00  0.15941904245E+04  0.15941904245E+04  0.50400001928E-02 0. -1.
       -1   -1    0    0    0  501  0.00000000000E+00  0.00000000000E+00 -0.12441329926E+04  0.12441329926E+04  0.50400001928E-02 0.  1.
    10030    2    1    2    0    0  0.00000000000E+00  0.00000000000E+00  0.35005743195E+03  0.28383234171E+04  0.28166539750E+04 0.  0.
        3    1    3    3  502    0 -0.51209659169E+03  0.28900086310E+03 -0.11145118626E+04  0.12601194865E+04  0.10100000352E+00 0.  1.
       -3    1    3    3    0  502  0.51209659169E+03 -0.28900086310E+03  0.14645692945E+04  0.15782039307E+04  0.10100000352E+00 0. -1.
</event>
<event>
 5   0  0.5217999E-06  0.2775733E+04  0.7818609E-02  0.8310842E-01
        1   -1    0    0  501    0  0.00000000000E+00  0.00000000000E+00  0.14072070617E+04  0.14072070617E+04  0.50400001928E-02 0.  1.
       -1   -1    0    0    0  501  0.00000000000E+00  0.00000000000E+00 -0.13687921508E+04  0.13687921508E+04  0.50400001928E-02 0. -1.
    10030    2    1    2    0    0  0.00000000000E+00  0.00000000000E+00  0.38414910970E+02  0.27759992125E+04  0.27757334026E+04 0.  0.
        1    1    3    3  502    0  0.70156347561E+03 -0.10205561962E+04  0.64572392571E+03  0.13966694842E+04  0.50400001928E-02 0. -1.
       -1    1    3    3    0  502 -0.70156347561E+03  0.10205561962E+04 -0.60730901474E+03  0.13793297283E+04  0.50400001928E-02 0.  1.
</event>
<event>
 5   0  0.5281919E-06  0.2807842E+04  0.7818609E-02  0.8300838E-01
       -1   -1    0    0    0  501  0.00000000000E+00  0.00000000000E+00  0.13187442693E+04  0.13187442693E+04  0.50400001928E-02 0. -1.
        1   -1    0    0  501    0  0.00000000000E+00  0.00000000000E+00 -0.14945995766E+04  0.14945995766E+04  0.50400001928E-02 0.  1.
    10030    2    1    2    0    0  0.00000000000E+00  0.00000000000E+00 -0.17585530730E+03  0.28133438460E+04  0.28078423222E+04 0.  0.
        4    1    3    3  502    0  0.91231812280E+02 -0.13283207943E+04 -0.53403438277E+03  0.14345569737E+04  0.12699999809E+01 0.  1.
       -4    1    3    3    0  502 -0.91231812280E+02  0.13283207943E+04  0.35817907547E+03  0.13787868722E+04  0.12699999809E+01 0. -1.
</event>
<event>
 5   0  0.5281919E-06  0.2888214E+04  0.7818609E-02  0.8276393E-01
        1   -1    0    0  501    0  0.00000000000E+00  0.00000000000E+00  0.23059613293E+04  0.23059613293E+04  0.50400001928E-02 0.  1.
       -1   -1    0    0    0  501  0.00000000000E+00  0.00000000000E+00 -0.90437102187E+03  0.90437102188E+03  0.50400001928E-02 0. -1.
    10030    2    1    2    0    0  0.00000000000E+00  0.00000000000E+00  0.14015903074E+04  0.32103323512E+04  0.28882137066E+04 0.  0.
        4    1    3    3  502    0  0.21698876861E+03  0.62511258283E+03 -0.72594753595E+03  0.98226844842E+03  0.12699999809E+01 0. -1.
       -4    1    3    3    0  502 -0.21698876861E+03 -0.62511258283E+03  0.21275378433E+04  0.22280639027E+04  0.12699999809E+01 0.  1.
</event>
<event>
 5   0  0.4764214E-06  0.2825663E+04  0.7818609E-02  0.8295345E-01
       -1   -1    0    0    0  501  0.00000000000E+00  0.00000000000E+00  0.13738828356E+04  0.13738828356E+04  0.50400001928E-02 0. -1.
        1   -1    0    0  501    0  0.00000000000E+00  0.00000000000E+00 -0.14528846950E+04  0.14528846951E+04  0.50400001928E-02 0.  1.
    10030    2    1    2    0    0  0.00000000000E+00  0.00000000000E+00 -0.79001859419E+02  0.28267675307E+04  0.28256633520E+04 0.  0.
        3    1    3    3  502    0  0.15053667614E+03 -0.12960748888E+04 -0.58158159461E+03  0.14285337131E+04  0.10100000352E+00 0.  1.
       -3    1    3    3    0  502 -0.15053667614E+03  0.12960748888E+04  0.50257973519E+03  0.13982338176E+04  0.10100000352E+00 0. -1.
</event>
<event>
 5   0  0.1302063E-05  0.2765693E+04  0.7818609E-02  0.8313999E-01
        2   -1    0    0  501    0  0.00000000000E+00  0.00000000000E+00  0.17768525900E+04  0.17768525900E+04  0.25500000920E-02 0. -1.
       -2   -1    0    0    0  501  0.00000000000E+00  0.00000000000E+00 -0.10762085226E+04  0.10762085226E+04  0.25500000920E-02 0.  1.
    10030    2    1    2    0    0  0.00000000000E+00  0.00000000000E+00  0.70064406737E+03  0.28530611126E+04  0.27656926082E+04 0.  0.
        2    1    3    3  502    0 -0.18357456301E+03 -0.13428612969E+04  0.63337617960E+03  0.14960419338E+04  0.25500000920E-02 0.  1.
       -2    1    3    3    0  502  0.18357456301E+03  0.13428612969E+04  0.67267887770E+02  0.13570191788E+04  0.25500000920E-02 0. -1.
</event>
<event>
 5   0  0.5023691E-06  0.2775215E+04  0.7818609E-02  0.8311005E-01
        1   -1    0    0  501    0  0.00000000000E+00  0.00000000000E+00  0.11135316725E+04  0.11135316725E+04  0.50400001928E-02 0.  1.
       -1   -1    0    0    0  501  0.00000000000E+00  0.00000000000E+00 -0.17291423634E+04  0.17291423634E+04  0.50400001928E-02 0. -1.
    10030    2    1    2    0    0  0.00000000000E+00  0.00000000000E+00 -0.61561069083E+03  0.28426740359E+04  0.27752151542E+04 0.  0.
        5    1    3    3  502    0 -0.17631683946E+03 -0.10385945016E+04  0.61729048984E+03  0.12209978728E+04  0.46999998093E+01 0.  1.
       -5    1    3    3    0  502  0.17631683946E+03  0.10385945016E+04 -0.12329011807E+04  0.16216761631E+04  0.46999998093E+01 0. -1.
</event>
<event>
 5   0  0.1388269E-05  0.2771403E+04  0.7818609E-02  0.8312202E-01
        2   -1    0    0  501    0  0.00000000000E+00  0.00000000000E+00  0.15049218408E+04  0.15049218408E+04  0.25500000920E-02 0.  1.
       -2   -1    0    0    0  501  0.00000000000E+00  0.00000000000E+00 -0.12759255914E+04  0.12759255914E+04  0.25500000920E-02 0. -1.
    10030    2    1    2    0    0  0.00000000000E+00  0.00000000000E+00  0.22899624942E+03  0.27808474321E+04  0.27714027420E+04 0.  0.
        1    1    3    3  502    0 -0.11658433359E+04 -0.73102752058E+03  0.27807629677E+03  0.14038939940E+04  0.50400001928E-02 0.  1.
       -1    1    3    3    0  502  0.11658433359E+04  0.73102752058E+03 -0.49080047353E+02  0.13769534381E+04  0.50400001928E-02 0. -1.
</event>
<event>
 5   0  0.4764214E-06  0.2715064E+04  0.7818609E-02  0.8330134E-01
       -1   -1    0    0    0  501  0.00000000000E+00  0.00000000000E+00  0.16057344333E+04  0.16057344333E+04  0.50400001928E-02 0. -1.
        1   -1    0    0  501    0  0.00000000000E+00  0.00000000000E+00 -0.11476946423E+04  0.11476946423E+04  0.50400001928E-02 0.  1.
    10030    2    1    2    0    0  0.00000000000E+00  0.00000000000E+00  0.45803979095E+03  0.27534290756E+04  0.27150637607E+04 0.  0.
        3    1    3    3  502    0 -0.13256825067E+04  0.21181787415E+03  0.24698700258E+02  0.13427251976E+04  0.10100000352E+00 0.  1.
       -3    1    3    3    0  502  0.13256825067E+04 -0.21181787415E+03  0.43334109069E+03  0.14107038780E+04  0.10100000352E+00 0. -1.
</event>
<event>
 5   0  0.1388269E-05  0.2784701E+04  0.7818609E-02  0.8308034E-01
       -2   -1    0    0    0  501  0.00000000000E+00  0.00000000000E+00  0.14429413107E+04  0.14429413107E+04  0.25500000920E-02 0. -1.
        2   -1    0    0  501    0  0.00000000000E+00  0.00000000000E+00 -0.13435331166E+04  0.13435331166E+04  0.25500000920E-02 0.  1.
    10030    2    1    2    0    0  0.00000000000E+00  0.00000000000E+00  0.99408194129E+02  0.27864744273E+04  0.27847006563E+04 0.  0.
        1    1    3    3  502    0 -0.33461686991E+03 -0.85413690246E+02 -0.12999973521E+04  0.13450862662E+04  0.50400001928E-02 0.  1.
       -1    1    3    3    0  502  0.33461686991E+03  0.85413690246E+02  0.13994055462E+04  0.14413881611E+04  0.50400001928E-02 0. -1.
</event>
<event>
 5   0  0.5217999E-06  0.2955980E+04  0.7818609E-02  0.8256414E-01
       -1   -1    0    0    0  501  0.00000000000E+00  0.00000000000E+00  0.14156489184E+04  0.14156489184E+04  0.50400001928E-02 0.  1.
        1   -1    0    0  501    0  0.00000000000E+00  0.00000000000E+00 -0.15430768667E+04  0.15430768667E+04  0.50400001928E-02 0. -1.
    10030    2    1    2    0    0  0.00000000000E+00  0.00000000000E+00 -0.12742794830E+03  0.29587257852E+04  0.29559804448E+04 0.  0.
        1    1    3    3  502    0 -0.74599943255E+02  0.11879081444E+04  0.81332134831E+03  0.14415902770E+04  0.50400001928E-02 0.  1.
       -1    1    3    3    0  502  0.74599943255E+02 -0.11879081444E+04 -0.94074929661E+03  0.15171355082E+04  0.50400001928E-02 0. -1.
</event>
<event>
 5   0  0.1283052E-05  0.2888069E+04  0.7818609E-02  0.8276436E-01
        2   -1    0    0  501    0  0.00000000000E+00  0.00000000000E+00  0.17821194532E+04  0.17821194532E+04  0.25500000920E-02 0. -1.
       -2   -1    0    0    0  501  0.00000000000E+00  0.00000000000E+00 -0.11700872889E+04  0.11700872889E+04  0.25500000920E-02 0.  1.
    10030    2    1    2    0    0  0.00000000000E+00  0.00000000000E+00  0.61203216425E+03  0.29522067421E+04  0.28880687800E+04 0.  0.
        5    1    3    3  502    0 -0.96803141602E+03  0.87359270751E+03 -0.32821774465E+03  0.13446181684E+04  0.46999998093E+01 0.  1.
       -5    1    3    3    0  502  0.96803141602E+03 -0.87359270751E+03  0.94024990891E+03  0.16075885737E+04  0.46999998093E+01 0. -1.
</event>
<event>
 5   0  0.5107453E-06  0.2833716E+04  0.7818609E-02  0.8292877E-01
       -1   -1    0    0    0  501  0.00000000000E+00  0.00000000000E+00  0.72827557191E+03  0.72827557193E+03  0.50400001928E-02 0.  1.
        1   -1    0    0  501    0  0.00000000000E+00  0.00000000000E+00 -0.27564932193E+04  0.27564932193E+04  0.50400001928E-02 0. -1.
    10030    2    1    2    0    0  0.00000000000E+00  0.00000000000E+00 -0.20282176474E+04  0.34847687912E+04  0.28337160590E+04 0.  0.
        2    1    3    3  502    0  0.13622841108E+04 -0.53613719490E+02 -0.14884717136E+04  0.20184747884E+04  0.25500000920E-02 0.  1.
       -2    1    3    3    0  502 -0.13622841108E+04  0.53613719490E+02 -0.53974593382E+03  0.14662940028E+04  0.25500000920E-02 0. -1.
</event>
<event>
 5   0  0.1350863E-05  0.2802747E+04  0.7818609E-02  0.8302416E-01
        2   -1    0    0  501    0  0.00000000000E+00  0.00000000000E+00  0.20216131871E+04  0.20216131871E+04  0.25500000920E-02 0. -1.
       -2   -1    0    0    0  501  0.00000000000E+00  0.00000000000E+00 -0.97142582937E+03  0.97142582937E+03  0.25500000920E-02 0.  1.
    10030    2    1    2    0    0  0.00000000000E+00  0.00000000000E+00  0.10501873577E+04  0.29930390165E+04  0.28027467006E+04 0.  0.
        3    1    3    3  502    0 -0.15381891762E+03  0.51103702359E+03  0.19088433095E+04  0.19820448757E+04  0.10100000352E+00 0. -1.
       -3    1    3    3    0  502  0.15381891762E+03 -0.51103702359E+03 -0.85865595178E+03  0.10109941407E+04  0.10100000352E+00 0.  1.
</event>
<event>
 5   0  0.1302063E-05  0.2794643E+04  0.7818609E-02  0.8304933E-01
       -2   -1    0    0    0  501  0.00000000000E+00  0.00000000000E+00  0.11055921619E+04  0.11055921619E+04  0.25500000920E-02 0.  1.
        2   -1    0    0  501    0  0.00000000000E+00  0.00000000000E+00 -0.17660284440E+04  0.17660284440E+04  0.25500000920E-02 0. -1.
    10030    2    1    2    0    0  0.00000000000E+00  0.00000000000E+00 -0.66043628217E+03  0.28716206059E+04  0.27946428791E+04 0.  0.
        2    1    3    3  502    0  0.88476195734E+03 -0.71084492075E+03 -0.11677793008E+04  0.16284387363E+04  0.25500000920E-02 0. -1.
       -2    1    3    3    0  502 -0.88476195734E+03  0.71084492075E+03  0.50734301860E+03  0.12431818697E+04  0.25500000920E-02 0.  1.
</event>
<event>
 5   0  0.5107453E-06  0.2822247E+04  0.7818609E-02  0.8296395E-01
       -1   -1    0    0    0  501  0.00000000000E+00  0.00000000000E+00  0.17964055073E+04  0.17964055073E+04  0.50400001928E-02 0. -1.
        1   -1    0    0  501    0  0.00000000000E+00  0.00000000000E+00 -0.11084741964E+04  0.11084741964E+04  0.50400001928E-02 0.  1.
    10030    2    1    2    0    0  0.00000000000E+00  0.00000000000E+00  0.68793131088E+03  0.29048797037E+04  0.28222467299E+04 0.  0.
        2    1    3    3  502    0 -0.74829245247E+03 -0.10732126969E+03 -0.88247981442E+03  0.11619940070E+04  0.25500000920E-02 0.  1.
       -2    1    3    3    0  502  0.74829245247E+03  0.10732126969E+03  0.15704111253E+04  0.17428856967E+04  0.25500000920E-02 0. -1.
</event>
<event>
 5   0  0.1283052E-05  0.2802424E+04  0.7818609E-02  0.8302516E-01
        2   -1    0    0  501    0  0.00000000000E+00  0.00000000000E+00  0.16153367810E+04  0.16153367810E+04  0.25500000920E-02 0. -1.
       -2   -1    0    0    0  501  0.00000000000E+00  0.00000000000E+00 -0.12154708249E+04  0.12154708249E+04  0.25500000920E-02 0.  1.
    10030    2    1    2    0    0  0.00000000000E+00  0.00000000000E+00  0.39986595608E+03  0.28308076059E+04  0.28024237579E+04 0.  0.
        5    1    3    3  502    0  0.24284701964E+03 -0.10735141802E+04 -0.67600920038E+03  0.12916725201E+04  0.46999998093E+01 0.  1.
       -5    1    3    3    0  502 -0.24284701964E+03  0.10735141802E+04  0.10758751565E+04  0.15391350858E+04  0.46999998093E+01 0. -1.
</event>
<event>
 5   0  0.1283052E-05  0.2796638E+04  0.7818609E-02  0.8304313E-01
       -2   -1    0    0    0  501  0.00000000000E+00  0.00000000000E+00  0.15415040145E+04  0.15415040145E+04  0.25500000920E-02 0.  1.
        2   -1    0    0  501    0  0.00000000000E+00  0.00000000000E+00 -0.12684335783E+04  0.12684335783E+04  0.25500000920E-02 0. -1.
    10030    2    1    2    0    0  0.00000000000E+00  0.00000000000E+00  0.27307043627E+03  0.28099375928E+04  0.27966375905E+04 0.  0.
        5    1    3    3  502    0 -0.14696874545E+03 -0.30789990474E+03 -0.12259636156E+04  0.12725608198E+04  0.46999998093E+01 0. -1.
       -5    1    3    3    0  502  0.14696874545E+03  0.30789990474E+03  0.14990340519E+04  0.15373767730E+04  0.46999998093E+01 0.  1.
</event>
<event>
 5   0  0.1350863E-05  0.2774636E+04  0.7818609E-02  0.8311186E-01
       -2   -1    0    0    0  501  0.00000000000E+00  0.00000000000E+00  0.10351708099E+04  0.10351708099E+04  0.25500000920E-02 0.  1.
        2   -1    0    0  501    0  0.00000000000E+00  0.00000000000E+00 -0.18592598836E+04  0.18592598836E+04  0.25500000920E-02 0. -1.
    10030    2    1    2    0    0  0.00000000000E+00  0.00000000000E+00 -0.82408907366E+03  0.28944306935E+04  0.27746362353E+04 0.  0.
        3    1    3    3  502    0 -0.69566867201E+03  0.11792554015E+04 -0.17865915027E+03  0.13807669266E+04  0.10100000352E+00 0.  1.
       -3    1    3    3    0  502  0.69566867201E+03 -0.11792554015E+04 -0.64542992339E+03  0.15136637670E+04  0.10100000352E+00 0. -1.
</event>
<event>
 5   0  0.1388269E-05  0.2782643E+04  0.7818609E-02  0.8308677E-01
        2   -1    0    0  501    0  0.00000000000E+00  0.00000000000E+00  0.19854709978E+04  0.19854709978E+04  0.25500000920E-02 0. -1.
       -2   -1    0    0    0  501  0.00000000000E+00  0.00000000000E+00 -0.97497018136E+03  0.97497018136E+03  0.25500000920E-02 0.  1.
    10030    2    1    2    0    0  0.00000000000E+00  0.00000000000E+00  0.10105008164E+04  0.29604411791E+04  0.27826426424E+04 0.  0.
        1    1    3    3  502    0  0.76042000973E+03  0.68326391933E+03  0.15093146929E+04  0.18229424064E+04  0.50400001928E-02 0. -1.
       -1    1    3    3    0  502 -0.76042000973E+03 -0.68326391933E+03 -0.49881387649E+03  0.11374987728E+04  0.50400001928E-02 0.  1.
</event>
<event>
 5   0  0.5023691E-06  0.2800928E+04  0.7818609E-02  0.8302980E-01
        1   -1    0    0  501    0  0.00000000000E+00  0.00000000000E+00  0.10181782603E+04  0.10181782603E+04  0.50400001928E-02 0.  1.
       -1   -1    0    0    0  501  0.00000000000E+00  0.00000000000E+00 -0.19262828831E+04  0.19262828831E+04  0.50400001928E-02 0. -1.
    10030    2    1    2    0    0  0.00000000000E+00  0.00000000000E+00 -0.90810462287E+03  0.29444611434E+04  0.28009279567E+04 0.  0.
        5    1    3    3  502    0 -0.12401485413E+04  0.61810380371E+03 -0.24052652349E+03  0.14063768397E+04  0.46999998093E+01 0.  1.
       -5    1    3    3    0  502  0.12401485413E+04 -0.61810380371E+03 -0.66757809938E+03  0.15380843037E+04  0.46999998093E+01 0. -1.
</event>
<event>
 5   0  0.5217999E-06  0.3188629E+04  0.7818609E-02  0.8191827E-01
       -1   -1    0    0    0  501  0.00000000000E+00  0.00000000000E+00  0.12124999252E+04  0.12124999252E+04  0.50400001928E-02 0.  1.
        1   -1    0    0  501    0  0.00000000000E+00  0.00000000000E+00 -0.20963624632E+04  0.20963624633E+04  0.50400001928E-02 0. -1.
    10030    2    1    2    0    0  0.00000000000E+00  0.00000000000E+00 -0.88386253806E+03  0.33088623885E+04  0.31886293795E+04 0.  0.
        1    1    3    3  502    0  0.74270193479E+03 -0.13894506170E+04 -0.69539558694E+03  0.17221365228E+04  0.50400001928E-02 0. -1.
       -1    1    3    3    0  502 -0.74270193479E+03  0.13894506170E+04 -0.18846695111E+03  0.15867258656E+04  0.50400001928E-02 0.  1.
</event>
<event>
 5   0  0.1302063E-05  0.2791019E+04  0.7818609E-02  0.8306062E-01
        2   -1    0    0  501    0  0.00000000000E+00  0.00000000000E+00  0.17158463630E+04  0.17158463630E+04  0.25500000920E-02 0.  1.
       -2   -1    0    0    0  501  0.00000000000E+00  0.00000000000E+00 -0.11349772786E+04  0.11349772786E+04  0.25500000920E-02 0. -1.
    10030    2    1    2    0    0  0.00000000000E+00  0.00000000000E+00  0.58086908447E+03  0.28508236416E+04  0.27910189076E+04 0.  0.
        2    1    3    3  502    0 -0.92286375609E+03  0.45993543535E+03  0.12509178730E+04  0.16211149379E+04  0.25500000920E-02 0.  1.
       -2    1    3    3    0  502  0.92286375609E+03 -0.45993543535E+03 -0.67004878850E+03  0.12297087037E+04  0.25500000920E-02 0. -1.
</event>
<event>
 5   0  0.5107453E-06  0.2786109E+04  0.7818609E-02  0.8307594E-01
       -1   -1    0    0    0  501  0.00000000000E+00  0.00000000000E+00  0.78310300256E+03  0.78310300258E+03  0.50400001928E-02 0. -1.
        1   -1    0    0  501    0  0.00000000000E+00  0.00000000000E+00 -0.24780921316E+04  0.24780921316E+04  0.50400001928E-02 0.  1.
    10030    2    1    2    0    0  0.00000000000E+00  0.00000000000E+00 -0.16949891291E+04  0.32611951342E+04  0.27861093941E+04 0.  0.
        2    1    3    3  502    0 -0.15497054045E+03 -0.28539626752E+03 -0.24331636894E+04  0.24547408086E+04  0.25500000920E-02 0.  1.
       -2    1    3    3    0  502  0.15497054045E+03  0.28539626752E+03  0.73817456029E+03  0.80645432567E+03  0.25500000920E-02 0. -1.
</event>
<event>
 5   0  0.1388269E-05  0.2783784E+04  0.7818609E-02  0.8308320E-01
       -2   -1    0    0    0  501  0.00000000000E+00  0.00000000000E+00  0.96705546577E+03  0.96705546577E+03  0.25500000920E-02 0. -1.
        2   -1    0    0  501    0  0.00000000000E+00  0.00000000000E+00 -0.20033636427E+04  0.20033636427E+04  0.25500000920E-02 0.  1.
    10030    2    1    2    0    0  0.00000000000E+00  0.00000000000E+00 -0.10363081769E+04  0.29704191085E+04  0.27837843024E+04 0.  0.
        1    1    3    3  502    0 -0.80553029803E+03  0.11106763932E+04 -0.76813087520E+03  0.15724204759E+04  0.50400001928E-02 0. -1.
       -1    1    3    3    0  502  0.80553029803E+03 -0.11106763932E+04 -0.26817730172E+03  0.13979986326E+04  0.50400001928E-02 0.  1.
</event>
<event>
 5   0  0.1283052E-05  0.2847556E+04  0.7818609E-02  0.8288654E-01
        2   -1    0    0  501    0  0.00000000000E+00  0.00000000000E+00  0.16194403740E+04  0.16194403740E+04  0.25500000920E-02 0. -1.
       -2   -1    0    0    0  501  0.00000000000E+00  0.00000000000E+00 -0.12517553450E+04  0.12517553450E+04  0.25500000920E-02 0.  1.
    10030    2    1    2    0    0  0.00000000000E+00  0.00000000000E+00  0.36768502905E+03  0.28711957190E+04  0.28475555441E+04 0.  0.
        5    1    3    3  502    0 -0.11462255536E+04  0.79632114406E+03 -0.99848332450E+02  0.13992684388E+04  0.46999998093E+01 0.  1.
       -5    1    3    3    0  502  0.11462255536E+04 -0.79632114406E+03  0.46753336150E+03  0.14719272803E+04  0.46999998093E+01 0. -1.
</event>
<event>
 5   0  0.4764214E-06  0.3032086E+04  0.7818609E-02  0.8234627E-01
        1   -1    0    0  501    0  0.00000000000E+00  0.00000000000E+00  0.23243497945E+04  0.23243497946E+04  0.50400001928E-02 0.  1.
       -1   -1    0    0    0  501  0.00000000000E+00  0.00000000000E+00 -0.98882993413E+03  0.98882993414E+03  0.50400001928E-02 0. -1.
    10030    2    1    2    0    0  0.00000000000E+00  0.00000000000E+00  0.13355198604E+04  0.33131797287E+04  0.30320861823E+04 0.  0.
        3    1    3    3  502    0  0.14954783766E+03 -0.39447830774E+03  0.22589177917E+04  0.22979746062E+04  0.10100000352E+00 0.  1.
       -3    1    3    3    0  502 -0.14954783766E+03  0.39447830774E+03 -0.92339793127E+03  0.10152051225E+04  0.10100000352E+00 0. -1.
</event>
<event>
 5   0  0.5023691E-06  0.2805860E+04  0.7818609E-02  0.8301451E-01
        1   -1    0    0  501    0  0.00000000000E+00  0.00000000000E+00  0.18451933891E+04  0.18451933891E+04  0.50400001928E-02 0. -1.
       -1   -1    0    0    0  501  0.00000000000E+00  0.00000000000E+00 -0.10666701783E+04  0.10666701783E+04  0.50400001928E-02 0.  1.
    10030    2    1    2    0    0  0.00000000000E+00  0.00000000000E+00  0.77852321082E+03  0.29118635673E+04  0.28058601257E+04 0.  0.
        5    1    3    3  502    0 -0.90297350626E+03 -0.10588405838E+04  0.57399254922E+03  0.15053219162E+04  0.46999998093E+01 0.  1.
       -5    1    3    3    0  502  0.90297350626E+03  0.10588405838E+04  0.20453066160E+03  0.14065416511E+04  0.46999998093E+01 0. -1.
</event>
<event>
 5   0  0.1388269E-05  0.2779229E+04  0.7818609E-02  0.8309746E-01
       -2   -1    0    0    0  501  0.00000000000E+00  0.00000000000E+00  0.17531824117E+04  0.17531824117E+04  0.25500000920E-02 0. -1.
        2   -1    0    0  501    0  0.00000000000E+00  0.00000000000E+00 -0.11014421832E+04  0.11014421832E+04  0.25500000920E-02 0.  1.
    10030    2    1    2    0    0  0.00000000000E+00  0.00000000000E+00  0.65174022845E+03  0.28546245949E+04  0.27792294350E+04 0.  0.
        1    1    3    3  502    0  0.13825737546E+04  0.12372689971E+03  0.39251901889E+03  0.14425289296E+04  0.50400001928E-02 0. -1.
       -1    1    3    3    0  502 -0.13825737546E+04 -0.12372689971E+03  0.25922120957E+03  0.14120956653E+04  0.50400001928E-02 0.  1.
</event>
<event>
 5   0  0.1330962E-05  0.2612160E+04  0.7818609E-02  0.8364082E-01
       -2   -1    0    0    0  501  0.00000000000E+00  0.00000000000E+00  0.98729469525E+03  0.98729469525E+03  0.25500000920E-02 0. -1.
        2   -1    0    0  501    0  0.00000000000E+00  0.00000000000E+00 -0.17277975332E+04  0.17277975332E+04  0.25500000920E-02 0.  1.
    10030    2    1    2    0    0  0.00000000000E+00  0.00000000000E+00 -0.74050283797E+03  0.27150922285E+04  0.26121602853E+04 0.  0.
        4    1    3    3  502    0  0.43451614754E+03  0.21770728927E+03  0.88980701806E+03  0.10138830744E+04  0.12699999809E+01 0. -1.
       -4    1    3    3    0  502 -0.43451614754E+03 -0.21770728927E+03 -0.16303098560E+04  0.17012091541E+04  0.12699999809E+01 0.  1.
</event>
<event>
 5   0  0.5107453E-06  0.2782121E+04  0.7818609E-02  0.8308841E-01
       -1   -1    0    0    0  501  0.00000000000E+00  0.00000000000E+00  0.15514362254E+04  0.15514362254E+04  0.50400001928E-02 0.  1.
        1   -1    0    0  501    0  0.00000000000E+00  0.00000000000E+00 -0.12472628415E+04  0.12472628415E+04  0.50400001928E-02 0. -1.
    10030    2    1    2    0    0  0.00000000000E+00  0.00000000000E+00  0.30417338393E+03  0.27986990669E+04  0.27821205976E+04 0.  0.
        2    1    3    3  502    0  0.11065772469E+04 -0.29479077709E+03  0.94649746687E+03  0.14856891534E+04  0.25500000920E-02 0.  1.
       -2    1    3    3    0  502 -0.11065772469E+04  0.29479077709E+03 -0.64232408294E+03  0.13130099136E+04  0.25500000920E-02 0. -1.
</event>
<event>
 5   0  0.5281919E-06  0.2880277E+04  0.7818609E-02  0.8278770E-01
       -1   -1    0    0    0  501  0.00000000000E+00  0.00000000000E+00  0.14847696776E+04  0.14847696776E+04  0.50400001928E-02 0.  1.
        1   -1    0    0  501    0  0.00000000000E+00  0.00000000000E+00 -0.13968488695E+04  0.13968488695E+04  0.50400001928E-02 0. -1.
    10030    2    1    2    0    0  0.00000000000E+00  0.00000000000E+00  0.87920808050E+02  0.28816185471E+04  0.28802769628E+04 0.  0.
        4    1    3    3  502    0  0.50431118227E+03 -0.27966234243E+03 -0.12762968050E+04  0.14005270229E+04  0.12699999809E+01 0. -1.
       -4    1    3    3    0  502 -0.50431118227E+03  0.27966234243E+03  0.13642176131E+04  0.14810915242E+04  0.12699999809E+01 0.  1.
</event>
<event>
 5   0  0.1350863E-05  0.2772247E+04  0.7818609E-02  0.8311937E-01
        2   -1    0    0  501    0  0.00000000000E+00  0.00000000000E+00  0.17103959712E+04  0.17103959712E+04  0.25500000920E-02 0.  1.
       -2   -1    0    0    0  501  0.00000000000E+00  0.00000000000E+00 -0.11233294739E+04  0.11233294739E+04  0.25500000920E-02 0. -1.
    10030    2    1    2    0    0  0.00000000000E+00  0.00000000000E+00  0.58706649729E+03  0.28337254450E+04  0.27722468912E+04 0.  0.
        3    1    3    3  502    0  0.73654073258E+03 -0.48933989243E+03 -0.79756165382E+03  0.11908192066E+04  0.10100000352E+00 0. -1.
       -3    1    3    3    0  502 -0.73654073258E+03  0.48933989243E+03  0.13846281511E+04  0.16429062384E+04  0.10100000352E+00 0.  1.
</event>
<event>
 5   0  0.5217999E-06  0.2809282E+04  0.7818609E-02  0.8300392E-01
       -1   -1    0    0    0  501  0.00000000000E+00  0.00000000000E+00  0.12668208858E+04  0.12668208858E+04  0.50400001928E-02 0.  1.
        1   -1    0    0  501    0  0.00000000000E+00  0.00000000000E+00 -0.15574552395E+04  0.15574552395E+04  0.50400001928E-02 0. -1.
    10030    2    1    2    0    0  0.00000000000E+00  0.00000000000E+00 -0.29063435370E+03  0.28242761254E+04  0.28092823469E+04 0.  0.
        1    1    3    3  502    0 -0.12211547835E+04 -0.69411167618E+03 -0.14269519390E+03  0.14118682455E+04  0.50400001928E-02 0. -1.
       -1    1    3    3    0  502  0.12211547835E+04  0.69411167618E+03 -0.14793915980E+03  0.14124078799E+04  0.50400001928E-02 0.  1.
</event>
<event>
 5   0  0.1283052E-05  0.2782011E+04  0.7818609E-02  0.8308875E-01
        2   -1    0    0  501    0  0.00000000000E+00  0.00000000000E+00  0.24968739522E+04  0.24968739522E+04  0.25500000920E-02 0. -1.
       -2   -1    0    0    0  501  0.00000000000E+00  0.00000000000E+00 -0.77492759952E+03  0.77492759953E+03  0.25500000920E-02 0.  1.
    10030    2    1    2    0    0  0.00000000000E+00  0.00000000000E+00  0.17219463527E+04  0.32718015517E+04  0.27820111704E+04 0.  0.
        5    1    3    3  502    0  0.11843319368E+04 -0.72808357491E+03  0.91520734388E+03  0.16644441718E+04  0.46999998093E+01 0. -1.
       -5    1    3    3    0  502 -0.11843319368E+04  0.72808357491E+03  0.80673900877E+03  0.16073573799E+04  0.46999998093E+01 0.  1.
</event>
<event>
 5   0  0.5107453E-06  0.2692777E+04  0.7818609E-02  0.8337352E-01
        1   -1    0    0  501    0  0.00000000000E+00  0.00000000000E+00  0.21218331233E+04  0.21218331233E+04  0.50400001928E-02 0. -1.
       -1   -1    0    0    0  501  0.00000000000E+00  0.00000000000E+00 -0.85433761191E+03  0.85433761192E+03  0.50400001928E-02 0.  1.
    10030    2    1    2    0    0  0.00000000000E+00  0.00000000000E+00  0.12674955114E+04  0.29761707352E+04  0.26927768890E+04 0.  0.
        2    1    3    3  502    0  0.25827753548E+03 -0.81152568736E+03  0.17863202022E+04  0.19789444387E+04  0.25500000920E-02 0. -1.
       -2    1    3    3    0  502 -0.25827753548E+03  0.81152568736E+03 -0.51882469087E+03  0.99722629650E+03  0.25500000920E-02 0.  1.
</event>
<event>
 5   0  0.1388269E-05  0.3076813E+04  0.7818609E-02  0.8222130E-01
        2   -1    0    0  501    0  0.00000000000E+00  0.00000000000E+00  0.22262804611E+04  0.22262804611E+04  0.25500000920E-02 0. -1.
       -2   -1    0    0    0  501  0.00000000000E+00  0.00000000000E+00 -0.10630708615E+04  0.10630708615E+04  0.25500000920E-02 0.  1.
    10030    2    1    2    0    0  0.00000000000E+00  0.00000000000E+00  0.11632095996E+04  0.32893513226E+04  0.30768125636E+04 0.  0.
        1    1    3    3  502    0 -0.24801445645E+03 -0.11552782383E+04  0.16348035298E+04  0.20171171408E+04  0.50400001928E-02 0. -1.
       -1    1    3    3    0  502  0.24801445645E+03  0.11552782383E+04 -0.47159393028E+03  0.12722341819E+04  0.50400001928E-02 0.  1.
</event>
<event>
 5   0  0.1302063E-05  0.2854422E+04  0.7818609E-02  0.8286569E-01
        2   -1    0    0  501    0  0.00000000000E+00  0.00000000000E+00  0.14206720985E+04  0.14206720985E+04  0.25500000920E-02 0. -1.
       -2   -1    0    0    0  501  0.00000000000E+00  0.00000000000E+00 -0.14337804233E+04  0.14337804233E+04  0.25500000920E-02 0.  1.
    10030    2    1    2    0    0  0.00000000000E+00  0.00000000000E+00 -0.13108324746E+02  0.28544525218E+04  0.28544224234E+04 0.  0.
        2    1    3    3  502    0 -0.79996179238E+03  0.95939846851E+03 -0.69688567846E+03  0.14303964274E+04  0.25500000920E-02 0.  1.
       -2    1    3    3    0  502  0.79996179238E+03 -0.95939846851E+03  0.68377735372E+03  0.14240560944E+04  0.25500000920E-02 0. -1.
</event>
<event>
 5   0  0.4447500E-06  0.2817933E+04  0.7818609E-02  0.8297722E-01
       -3   -1    0    0    0  501  0.00000000000E+00  0.00000000000E+00  0.16595489455E+04  0.16595489486E+04  0.10100000352E+00 0.  1.
        3   -1    0    0  501    0  0.00000000000E+00  0.00000000000E+00 -0.11962209154E+04  0.11962209196E+04  0.10100000352E+00 0. -1.
    10030    2    1    2    0    0  0.00000000000E+00  0.00000000000E+00  0.46332803014E+03  0.28557698682E+04  0.28179334053E+04 0.  0.
        4    1    3    3  502    0  0.10383690120E+03  0.19178005441E+03 -0.11790117941E+04  0.11990129752E+04  0.12699999809E+01 0. -1.
       -4    1    3    3    0  502 -0.10383690120E+03 -0.19178005441E+03  0.16423398242E+04  0.16567568930E+04  0.12699999809E+01 0.  1.
</event>
<event>
 5   0  0.5281919E-06  0.2831641E+04  0.7818609E-02  0.8293512E-01
        1   -1    0    0  501    0  0.00000000000E+00  0.00000000000E+00  0.97065840730E+03  0.97065840731E+03  0.50400001928E-02 0.  1.
       -1   -1    0    0    0  501  0.00000000000E+00  0.00000000000E+00 -0.20651416904E+04  0.20651416905E+04  0.50400001928E-02 0. -1.
    10030    2    1    2    0    0  0.00000000000E+00  0.00000000000E+00 -0.10944832831E+04  0.30358000978E+04  0.28316406157E+04 0.  0.
        4    1    3    3  502    0  0.78796979170E+03 -0.98364252802E+03 -0.12388051631E+04  0.17672263185E+04  0.12699999809E+01 0. -1.
       -4    1    3    3    0  502 -0.78796979170E+03  0.98364252802E+03  0.14432188000E+03  0.12685737793E+04  0.12699999809E+01 0.  1.
</event>
<event>
 5   0  0.1330962E-05  0.2898401E+04  0.7818609E-02  0.8273353E-01
       -2   -1    0    0    0  501  0.00000000000E+00  0.00000000000E+00  0.14215517871E+04  0.14215517871E+04  0.25500000920E-02 0. -1.
        2   -1    0    0  501    0  0.00000000000E+00  0.00000000000E+00 -0.14773868913E+04  0.14773868913E+04  0.25500000920E-02 0.  1.
    10030    2    1    2    0    0  0.00000000000E+00  0.00000000000E+00 -0.55835104235E+02  0.28989386784E+04  0.28984009216E+04 0.  0.
        4    1    3    3  502    0  0.38100020524E+02  0.52633672160E+03  0.13220359469E+04  0.14234685152E+04  0.12699999809E+01 0. -1.
       -4    1    3    3    0  502 -0.38100020524E+02 -0.52633672160E+03 -0.13778710511E+04  0.14754701632E+04  0.12699999809E+01 0.  1.
</event>
<event>
 5   0  0.1283052E-05  0.2809148E+04  0.7818609E-02  0.8300434E-01
        2   -1    0    0  501    0  0.00000000000E+00  0.00000000000E+00  0.22379916140E+04  0.22379916140E+04  0.25500000920E-02 0.  1.
       -2   -1    0    0    0  501  0.00000000000E+00  0.00000000000E+00 -0.88151740978E+03  0.88151740978E+03  0.25500000920E-02 0. -1.
    10030    2    1    2    0    0  0.00000000000E+00  0.00000000000E+00  0.13564742042E+04  0.31195090238E+04  0.28091483198E+04 0.  0.
        5    1    3    3  502    0  0.13605867931E+04 -0.61308293831E+02  0.29701430704E+03  0.13939851925E+04  0.46999998093E+01 0. -1.
       -5    1    3    3    0  502 -0.13605867931E+04  0.61308293831E+02  0.10594598972E+04  0.17255238313E+04  0.46999998093E+01 0.  1.
</event>
<event>
 5   0  0.5217999E-06  0.2792377E+04  0.7818609E-02  0.8305639E-01
        1   -1    0    0  501    0  0.00000000000E+00  0.00000000000E+00  0.19753083977E+04  0.19753083977E+04  0.50400001928E-02 0. -1.
       -1   -1    0    0    0  501  0.00000000000E+00  0.00000000000E+00 -0.98685481040E+03  0.98685481041E+03  0.50400001928E-02 0.  1.
    10030    2    1    2    0    0  0.00000000000E+00  0.00000000000E+00  0.98845358726E+03  0.29621632081E+04  0.27923771911E+04 0.  0.
        1    1    3    3  502    0 -0.18275794677E+03 -0.52328575288E+03  0.18535933247E+04  0.19346929109E+04  0.50400001928E-02 0. -1.
       -1    1    3    3    0  502  0.18275794677E+03  0.52328575288E+03 -0.86513973741E+03  0.10274702972E+04  0.50400001928E-02 0.  1.
</event>
<event>
 5   0  0.1330962E-05  0.2836765E+04  0.7818609E-02  0.8291944E-01
       -2   -1    0    0    0  501  0.00000000000E+00  0.00000000000E+00  0.15737353385E+04  0.15737353385E+04  0.25500000920E-02 0. -1.
        2   -1    0    0  501    0  0.00000000000E+00  0.00000000000E+00 -0.12783658990E+04  0.12783658990E+04  0.25500000920E-02 0.  1.
    10030    2    1    2    0    0  0.00000000000E+00  0.00000000000E+00  0.29536943947E+03  0.28521012375E+04  0.28367654755E+04 0.  0.
        4    1    3    3  502    0  0.12184553835E+04 -0.68838436351E+03  0.37980383748E+03  0.14500893495E+04  0.12699999809E+01 0. -1.
       -4    1    3    3    0  502 -0.12184553835E+04  0.68838436351E+03 -0.84434398000E+02  0.14020118880E+04  0.12699999809E+01 0.  1.
</event>
<event>
 5   0  0.4764214E-06  0.2804529E+04  0.7818609E-02  0.8301864E-01
        1   -1    0    0  501    0  0.00000000000E+00  0.00000000000E+00  0.13964521191E+04  0.13964521191E+04  0.50400001928E-02 0.  1.
       -1   -1    0    0    0  501  0.00000000000E+00  0.00000000000E+00 -0.14081013404E+04  0.14081013404E+04  0.50400001928E-02 0. -1.
    10030    2    1    2    0    0  0.00000000000E+00  0.00000000000E+00 -0.11649221245E+02  0.28045534595E+04  0.28045292659E+04 0.  0.
        3    1    3    3  502    0  0.11532421529E+04  0.41305516997E+03  0.67665036319E+03  0.13994419462E+04  0.10100000352E+00 0.  1.
       -3    1    3    3    0  502 -0.11532421529E+04 -0.41305516997E+03 -0.68829958443E+03  0.14051115133E+04  0.10100000352E+00 0. -1.
</event>
<event>
 5   0  0.5107453E-06  0.2783181E+04  0.7818609E-02  0.8308509E-01
       -1   -1    0    0    0  501  0.00000000000E+00  0.00000000000E+00  0.14583469486E+04  0.14583469487E+04  0.50400001928E-02 0. -1.
        1   -1    0    0  501    0  0.00000000000E+00  0.00000000000E+00 -0.13278894515E+04  0.13278894515E+04  0.50400001928E-02 0.  1.
    10030    2    1    2    0    0  0.00000000000E+00  0.00000000000E+00  0.13045749719E+03  0.27862364001E+04  0.27831805760E+04 0.  0.
        2    1    3    3  502    0 -0.59447270957E+03  0.35899740826E+03 -0.11420167748E+04  0.13365924044E+04  0.25500000920E-02 0.  1.
       -2    1    3    3    0  502  0.59447270957E+03 -0.35899740826E+03  0.12724742720E+04  0.14496439957E+04  0.25500000920E-02 0. -1.
</event>
<event>
 5   0  0.5107453E-06  0.2828197E+04  0.7818609E-02  0.8294567E-01
        1   -1    0    0  501    0  0.00000000000E+00  0.00000000000E+00  0.20977276253E+04  0.20977276253E+04  0.50400001928E-02 0. -1.
       -1   -1    0    0    0  501  0.00000000000E+00  0.00000000000E+00 -0.95325736497E+03  0.95325736499E+03  0.50400001928E-02 0.  1.
    10030    2    1    2    0    0  0.00000000000E+00  0.00000000000E+00  0.11444702604E+04  0.30509849903E+04  0.28281968168E+04 0.  0.
        2    1    3    3  502    0 -0.10720151228E+04 -0.91008331614E+03  0.41147883700E+03  0.14651903969E+04  0.25500000920E-02 0.  1.
       -2    1    3    3    0  502  0.10720151228E+04  0.91008331614E+03  0.73299142335E+03  0.15857945934E+04  0.25500000920E-02 0. -1.
</event>
<event>
 5   0  0.5217999E-06  0.2823581E+04  0.7818609E-02  0.8295985E-01
       -1   -1    0    0    0  501  0.00000000000E+00  0.00000000000E+00  0.88026031714E+03  0.88026031715E+03  0.50400001928E-02 0.  1.
        1   -1    0    0  501    0  0.00000000000E+00  0.00000000000E+00 -0.22642759157E+04  0.22642759157E+04  0.50400001928E-02 0. -1.
    10030    2    1    2    0    0  0.00000000000E+00  0.00000000000E+00 -0.13840155986E+04  0.31445362329E+04  0.28235808724E+04 0.  0.
        1    1    3    3  502    0 -0.96866530840E+03 -0.51801763582E+03 -0.16796622863E+04  0.20069678988E+04  0.50400001928E-02 0.  1.
       -1    1    3    3    0  502  0.96866530840E+03  0.51801763582E+03  0.29564668772E+03  0.11375683341E+04  0.50400001928E-02 0. -1.
</event>
<event>
 5   0  0.5023691E-06  0.2815334E+04  0.7818609E-02  0.8298523E-01
        1   -1    0    0  501    0  0.00000000000E+00  0.00000000000E+00  0.23445297038E+04  0.23445297038E+04  0.50400001928E-02 0. -1.
       -1   -1    0    0    0  501  0.00000000000E+00  0.00000000000E+00 -0.84517033089E+03  0.84517033091E+03  0.50400001928E-02 0.  1.
    10030    2    1    2    0    0  0.00000000000E+00  0.00000000000E+00  0.14993593729E+04  0.31897000347E+04  0.28153343997E+04 0.  0.
        5    1    3    3  502    0  0.66993161478E+03 -0.10561814676E+04  0.17900360322E+02  0.12508677684E+04  0.46999998093E+01 0.  1.
       -5    1    3    3    0  502 -0.66993161478E+03  0.10561814676E+04  0.14814590125E+04  0.19388322663E+04  0.46999998093E+01 0. -1.
</event>
<event>
 5   0  0.5107453E-06  0.2818014E+04  0.7818609E-02  0.8297698E-01
        1   -1    0    0  501    0  0.00000000000E+00  0.00000000000E+00  0.11175316773E+04  0.11175316773E+04  0.50400001928E-02 0.  1.
       -1   -1    0    0    0  501  0.00000000000E+00  0.00000000000E+00 -0.17765048984E+04  0.17765048984E+04  0.50400001928E-02 0. -1.
    10030    2    1    2    0    0  0.00000000000E+00  0.00000000000E+00 -0.65897322116E+03  0.28940365757E+04  0.28180138388E+04 0.  0.
        2    1    3    3  502    0 -0.11828853356E+04 -0.18353462217E+03 -0.10927718670E+04  0.16208186290E+04  0.25500000920E-02 0. -1.
       -2    1    3    3    0  502  0.11828853356E+04  0.18353462217E+03  0.43379864582E+03  0.12732179467E+04  0.25500000920E-02 0.  1.
</event>
<event>
 5   0  0.1330962E-05  0.2884763E+04  0.7818609E-02  0.8277425E-01
       -2   -1    0    0    0  501  0.00000000000E+00  0.00000000000E+00  0.10845045949E+04  0.10845045949E+04  0.25500000920E-02 0. -1.
        2   -1    0    0  501    0  0.00000000000E+00  0.00000000000E+00 -0.19183546426E+04  0.19183546426E+04  0.25500000920E-02 0.  1.
    10030    2    1    2    0    0  0.00000000000E+00  0.00000000000E+00 -0.83385004777E+03  0.30028592375E+04  0.28847630228E+04 0.  0.
        4    1    3    3  502    0  0.75597549542E+03 -0.92916306448E+03  0.41947352988E+03  0.12691739854E+04  0.12699999809E+01 0. -1.
       -4    1    3    3    0  502 -0.75597549542E+03  0.92916306448E+03 -0.12533235776E+04  0.17336852521E+04  0.12699999809E+01 0.  1.
</event>
<event>
 5   0  0.1330962E-05  0.2798250E+04  0.7818609E-02  0.8303812E-01
       -2   -1    0    0    0  501  0.00000000000E+00  0.00000000000E+00  0.10926543039E+04  0.10926543039E+04  0.25500000920E-02 0.  1.
        2   -1    0    0  501    0  0.00000000000E+00  0.00000000000E+00 -0.17915559623E+04  0.17915559623E+04  0.25500000920E-02 0. -1.
    10030    2    1    2    0    0  0.00000000000E+00  0.00000000000E+00 -0.69890165834E+03  0.28842102662E+04  0.27982504054E+04 0.  0.
        4    1    3    3  502    0 -0.32930023776E+03  0.13034336854E+04  0.49973388656E+02  0.13453166806E+04  0.12699999809E+01 0.  1.
       -4    1    3    3    0  502  0.32930023776E+03 -0.13034336854E+04 -0.74887504700E+03  0.15388935856E+04  0.12699999809E+01 0. -1.
</event>
<event>
 5   0  0.1388269E-05  0.2813235E+04  0.7818609E-02  0.8299171E-01
       -2   -1    0    0    0  501  0.00000000000E+00  0.00000000000E+00  0.12718536650E+04  0.12718536650E+04  0.25500000920E-02 0. -1.
        2   -1    0    0  501    0  0.00000000000E+00  0.00000000000E+00 -0.15556606958E+04  0.15556606958E+04  0.25500000920E-02 0.  1.
    10030    2    1    2    0    0  0.00000000000E+00  0.00000000000E+00 -0.28380703079E+03  0.28275143607E+04  0.28132349759E+04 0.  0.
        1    1    3    3  502    0 -0.82954042720E+03  0.54096676937E+03 -0.11458682775E+04  0.15145284663E+04  0.50400001928E-02 0.  1.
       -1    1    3    3    0  502  0.82954042720E+03 -0.54096676937E+03  0.86206124668E+03  0.13129858944E+04  0.50400001928E-02 0. -1.
</event>
<event>
 5   0  0.5281919E-06  0.2905191E+04  0.7818609E-02  0.8271335E-01
        1   -1    0    0  501    0  0.00000000000E+00  0.00000000000E+00  0.19898691175E+04  0.19898691175E+04  0.50400001928E-02 0.  1.
       -1   -1    0    0    0  501  0.00000000000E+00  0.00000000000E+00 -0.10603883100E+04  0.10603883100E+04  0.50400001928E-02 0. -1.
    10030    2    1    2    0    0  0.00000000000E+00  0.00000000000E+00  0.92948080747E+03  0.30502574275E+04  0.29051911818E+04 0.  0.
        4    1    3    3  502    0 -0.39408256867E+03 -0.13724103546E+04  0.74493907414E+03  0.16105114372E+04  0.12699999809E+01 0. -1.
       -4    1    3    3    0  502  0.39408256867E+03  0.13724103546E+04  0.18454173333E+03  0.14397459903E+04  0.12699999809E+01 0.  1.
</event>
<event>
 5   0  0.5281919E-06  0.2820381E+04  0.7818609E-02  0.8296969E-01
        1   -1    0    0  501    0  0.00000000000E+00  0.00000000000E+00  0.25937016804E+04  0.25937016804E+04  0.50400001928E-02 0.  1.
       -1   -1    0    0    0  501  0.00000000000E+00  0.00000000000E+00 -0.76671758693E+03  0.76671758695E+03  0.50400001928E-02 0. -1.
    10030    2    1    2    0    0  0.00000000000E+00  0.00000000000E+00  0.18269840935E+04  0.33604192673E+04  0.28203806081E+04 0.  0.
        4    1    3    3  502    0  0.14238996937E+03  0.13600207404E+04  0.50298748311E+03  0.14570275697E+04  0.12699999809E+01 0. -1.
       -4    1    3    3    0  502 -0.14238996937E+03 -0.13600207404E+04  0.13239966103E+04  0.19033916977E+04  0.12699999809E+01 0.  1.
</event>
<event>
 5   0  0.1283052E-05  0.2759957E+04  0.7818609E-02  0.8315809E-01
       -2   -1    0    0    0  501  0.00000000000E+00  0.00000000000E+00  0.21527175315E+04  0.21527175315E+04  0.25500000920E-02 0.  1.
        2   -1    0    0  501    0  0.00000000000E+00  0.00000000000E+00 -0.88462193872E+03  0.88462193873E+03  0.25500000920E-02 0. -1.
    10030    2    1    2    0    0  0.00000000000E+00  0.00000000000E+00  0.12680955928E+04  0.30373394702E+04  0.27599573593E+04 0.  0.
        5    1    3    3  502    0 -0.13717621145E+03  0.13397101121E+04  0.96544076556E+03  0.16570269941E+04  0.46999998093E+01 0.  1.
       -5    1    3    3    0  502  0.13717621145E+03 -0.13397101121E+04  0.30265482720E+03  0.13803124761E+04  0.46999998093E+01 0. -1.
</event>
<event>
 5   0  0.5023691E-06  0.2780941E+04  0.7818609E-02  0.8309210E-01
       -1   -1    0    0    0  501  0.00000000000E+00  0.00000000000E+00  0.13977368790E+04  0.13977368790E+04  0.50400001928E-02 0.  1.
        1   -1    0    0  501    0  0.00000000000E+00  0.00000000000E+00 -0.13832423190E+04  0.13832423190E+04  0.50400001928E-02 0. -1.
    10030    2    1    2    0    0  0.00000000000E+00  0.00000000000E+00  0.14494560029E+02  0.27809791980E+04  0.27809414246E+04 0.  0.
        5    1    3    3  502    0  0.54580070194E+03 -0.37464263046E+03 -0.12155249072E+04  0.13841164679E+04  0.46999998093E+01 0. -1.
       -5    1    3    3    0  502 -0.54580070194E+03  0.37464263046E+03  0.12300194672E+04  0.13968627300E+04  0.46999998093E+01 0.  1.
</event>
<event>
 5   0  0.5023691E-06  0.2824026E+04  0.7818609E-02  0.8295848E-01
        1   -1    0    0  501    0  0.00000000000E+00  0.00000000000E+00  0.10650556883E+04  0.10650556883E+04  0.50400001928E-02 0.  1.
       -1   -1    0    0    0  501  0.00000000000E+00  0.00000000000E+00 -0.18719966741E+04  0.18719966741E+04  0.50400001928E-02 0. -1.
    10030    2    1    2    0    0  0.00000000000E+00  0.00000000000E+00 -0.80694098586E+03  0.29370523624E+04  0.28240259958E+04 0.  0.
        5    1    3    3  502    0 -0.12610677667E+04 -0.51148032809E+03 -0.79518050941E+03  0.15761466210E+04  0.46999998093E+01 0.  1.
       -5    1    3    3    0  502  0.12610677667E+04  0.51148032809E+03 -0.11760476450E+02  0.13609057414E+04  0.46999998093E+01 0. -1.
</event>
<event>
 5   0  0.1302063E-05  0.2784348E+04  0.7818609E-02  0.8308144E-01
       -2   -1    0    0    0  501  0.00000000000E+00  0.00000000000E+00  0.83830562290E+03  0.83830562290E+03  0.25500000920E-02 0. -1.
        2   -1    0    0  501    0  0.00000000000E+00  0.00000000000E+00 -0.23119833813E+04  0.23119833813E+04  0.25500000920E-02 0.  1.
    10030    2    1    2    0    0  0.00000000000E+00  0.00000000000E+00 -0.14736777584E+04  0.31502890042E+04  0.27843481597E+04 0.  0.
        2    1    3    3  502    0 -0.12712548359E+04  0.15789556722E+03 -0.13535747844E+04  0.18636481870E+04  0.25500000920E-02 0.  1.
       -2    1    3    3    0  502  0.12712548359E+04 -0.15789556722E+03 -0.12010297393E+03  0.12866408171E+04  0.25500000920E-02 0. -1.
</event>
<event>
 5   0  0.4764214E-06  0.2837795E+04  0.7818609E-02  0.8291630E-01
       -1   -1    0    0    0  501  0.00000000000E+00  0.00000000000E+00  0.20550924695E+04  0.20550924695E+04  0.50400001928E-02 0.  1.
        1   -1    0    0  501    0  0.00000000000E+00  0.00000000000E+00 -0.97964933195E+03  0.97964933196E+03  0.50400001928E-02 0. -1.
    10030    2    1    2    0    0  0.00000000000E+00  0.00000000000E+00  0.10754431376E+04  0.30347418015E+04  0.28377948939E+04 0.  0.
        3    1    3    3  502    0  0.43582373125E+03  0.13501410748E+04  0.56032387000E+03  0.15253806397E+04  0.10100000352E+00 0. -1.
       -3    1    3    3    0  502 -0.43582373125E+03 -0.13501410748E+04  0.51511926757E+03  0.15093611618E+04  0.10100000352E+00 0.  1.
</event>
<event>
 5   0  0.1350863E-05  0.2785806E+04  0.7818609E-02  0.8307689E-01
        2   -1    0    0  501    0  0.00000000000E+00  0.00000000000E+00  0.15257385519E+04  0.15257385519E+04  0.25500000920E-02 0. -1.
       -2   -1    0    0    0  501  0.00000000000E+00  0.00000000000E+00 -0.12716323345E+04  0.12716323345E+04  0.25500000920E-02 0.  1.
    10030    2    1    2    0    0  0.00000000000E+00  0.00000000000E+00  0.25410621737E+03  0.27973708864E+04  0.27858057912E+04 0.  0.
        3    1    3    3  502    0 -0.25586488251E+03 -0.13330231804E+04 -0.18691219090E+03  0.13701656158E+04  0.10100000352E+00 0. -1.
       -3    1    3    3    0  502  0.25586488251E+03  0.13330231804E+04  0.44101840827E+03  0.14272052705E+04  0.10100000352E+00 0.  1.
</event>
<event>
 5   0  0.1330962E-05  0.2620755E+04  0.7818609E-02  0.8361185E-01
       -2   -1    0    0    0  501  0.00000000000E+00  0.00000000000E+00  0.11778763469E+04  0.11778763469E+04  0.25500000920E-02 0.  1.
        2   -1    0    0  501    0  0.00000000000E+00  0.00000000000E+00 -0.14577844025E+04  0.14577844025E+04  0.25500000920E-02 0. -1.
    10030    2    1    2    0    0  0.00000000000E+00  0.00000000000E+00 -0.27990805556E+03  0.26356607494E+04  0.26207554381E+04 0.  0.
        4    1    3    3  502    0  0.80016809190E+03 -0.10247675437E+04  0.24286334134E+02  0.13003879932E+04  0.12699999809E+01 0.  1.
       -4    1    3    3    0  502 -0.80016809190E+03  0.10247675437E+04 -0.30419438969E+03  0.13352727562E+04  0.12699999809E+01 0. -1.
</event>
<event>
 5   0  0.1330962E-05  0.2791919E+04  0.7818609E-02  0.8305782E-01
       -2   -1    0    0    0  501  0.00000000000E+00  0.00000000000E+00  0.10636284369E+04  0.10636284369E+04  0.25500000920E-02 0. -1.
        2   -1    0    0  501    0  0.00000000000E+00  0.00000000000E+00 -0.18321271518E+04  0.18321271518E+04  0.25500000920E-02 0.  1.
    10030    2    1    2    0    0  0.00000000000E+00  0.00000000000E+00 -0.76849871493E+03  0.28957555886E+04  0.27919187227E+04 0.  0.
        4    1    3    3  502    0 -0.68990540895E+02 -0.13877651285E+04 -0.24490549045E+03  0.14108976075E+04  0.12699999809E+01 0. -1.
       -4    1    3    3    0  502  0.68990540895E+02  0.13877651285E+04 -0.52359322448E+03  0.14848579812E+04  0.12699999809E+01 0.  1.
</event>
<event>
 5   0  0.5107453E-06  0.2767030E+04  0.7818609E-02  0.8313578E-01
        1   -1    0    0  501    0  0.00000000000E+00  0.00000000000E+00  0.26070273525E+04  0.26070273525E+04  0.50400001928E-02 0. -1.
       -1   -1    0    0    0  501  0.00000000000E+00  0.00000000000E+00 -0.73421327809E+03  0.73421327811E+03  0.50400001928E-02 0.  1.
    10030    2    1    2    0    0  0.00000000000E+00  0.00000000000E+00  0.18728140744E+04  0.33412406306E+04  0.27670302482E+04 0.  0.
        2    1    3    3  502    0 -0.24786450644E+03 -0.36312295209E+03 -0.64761582088E+03  0.78275241510E+03  0.25500000920E-02 0.  1.
       -2    1    3    3    0  502  0.24786450644E+03  0.36312295209E+03  0.25204298953E+04  0.25584882155E+04  0.25500000920E-02 0. -1.
</event>
<event>
 5   0  0.1388269E-05  0.2789201E+04  0.7818609E-02  0.8306629E-01
       -2   -1    0    0    0  501  0.00000000000E+00  0.00000000000E+00  0.17776499981E+04  0.17776499981E+04  0.25500000920E-02 0.  1.
        2   -1    0    0  501    0  0.00000000000E+00  0.00000000000E+00 -0.10940910901E+04  0.10940910901E+04  0.25500000920E-02 0. -1.
    10030    2    1    2    0    0  0.00000000000E+00  0.00000000000E+00  0.68355890797E+03  0.28717410882E+04  0.27892013367E+04 0.  0.
        1    1    3    3  502    0  0.11161451831E+04  0.20489305433E+03 -0.49285749010E+03  0.12372023841E+04  0.50400001928E-02 0. -1.
       -1    1    3    3    0  502 -0.11161451831E+04 -0.20489305433E+03  0.11764163981E+04  0.16345387041E+04  0.50400001928E-02 0.  1.
</event>
<event>
 5   0  0.5217999E-06  0.2983931E+04  0.7818609E-02  0.8248334E-01
       -1   -1    0    0    0  501  0.00000000000E+00  0.00000000000E+00  0.17064806972E+04  0.17064806972E+04  0.50400001928E-02 0.  1.
        1   -1    0    0  501    0  0.00000000000E+00  0.00000000000E+00 -0.13044163338E+04  0.13044163339E+04  0.50400001928E-02 0. -1.
    10030    2    1    2    0    0  0.00000000000E+00  0.00000000000E+00  0.40206436332E+03  0.30108970310E+04  0.29839311619E+04 0.  0.
        1    1    3    3  502    0 -0.43579061253E+03 -0.46778754647E+03 -0.11591941379E+04  0.13238087837E+04  0.50400001928E-02 0. -1.
       -1    1    3    3    0  502  0.43579061253E+03  0.46778754647E+03  0.15612585012E+04  0.16870882473E+04  0.50400001928E-02 0.  1.
</event>
<event>
 5   0  0.5023691E-06  0.2798993E+04  0.7818609E-02  0.8303581E-01
        1   -1    0    0  501    0  0.00000000000E+00  0.00000000000E+00  0.19243036409E+04  0.19243036409E+04  0.50400001928E-02 0.  1.
       -1   -1    0    0    0  501  0.00000000000E+00  0.00000000000E+00 -0.10178180157E+04  0.10178180157E+04  0.50400001928E-02 0. -1.
    10030    2    1    2    0    0  0.00000000000E+00  0.00000000000E+00  0.90648562522E+03  0.29421216566E+04  0.27989933286E+04 0.  0.
        5    1    3    3  502    0 -0.44772820345E+03 -0.10589363519E+03  0.18425303557E+04  0.18991087930E+04  0.46999998093E+01 0.  1.
       -5    1    3    3    0  502  0.44772820345E+03  0.10589363519E+03 -0.93604473047E+03  0.10430128636E+04  0.46999998093E+01 0. -1.
</event>
<event>
 5   0  0.1388269E-05  0.2778466E+04  0.7818609E-02  0.8309985E-01
        2   -1    0    0  501    0  0.00000000000E+00  0.00000000000E+00  0.15228227644E+04  0.15228227644E+04  0.25500000920E-02 0.  1.
       -2   -1    0    0    0  501  0.00000000000E+00  0.00000000000E+00 -0.12673626924E+04  0.12673626925E+04  0.25500000920E-02 0. -1.
    10030    2    1    2    0    0  0.00000000000E+00  0.00000000000E+00  0.25546007197E+03  0.27901854569E+04  0.27784663099E+04 0.  0.
        1    1    3    3  502    0 -0.10589613515E+04 -0.34627343319E+03 -0.70562819304E+03  0.13187932292E+04  0.50400001928E-02 0. -1.
       -1    1    3    3    0  502  0.10589613515E+04  0.34627343319E+03  0.96108826501E+03  0.14713922277E+04  0.50400001928E-02 0.  1.
</event>
<event>
 5   0  0.5023691E-06  0.2780162E+04  0.7818609E-02  0.8309454E-01
        1   -1    0    0  501    0  0.00000000000E+00  0.00000000000E+00  0.20333590970E+04  0.20333590970E+04  0.50400001928E-02 0. -1.
       -1   -1    0    0    0  501  0.00000000000E+00  0.00000000000E+00 -0.95031201419E+03  0.95031201420E+03  0.50400001928E-02 0.  1.
    10030    2    1    2    0    0  0.00000000000E+00  0.00000000000E+00  0.10830470828E+04  0.29836711112E+04  0.27801622824E+04 0.  0.
        5    1    3    3  502    0 -0.79229133940E+02  0.13644143348E+04  0.26917634148E+03  0.13929758524E+04  0.46999998093E+01 0. -1.
       -5    1    3    3    0  502  0.79229133940E+02 -0.13644143348E+04  0.81387074134E+03  0.15906952588E+04  0.46999998093E+01 0.  1.
</event>
<event>
 5   0  0.4764214E-06  0.2786865E+04  0.7818609E-02  0.8307358E-01
       -1   -1    0    0    0  501  0.00000000000E+00  0.00000000000E+00  0.20368527488E+04  0.20368527488E+04  0.50400001928E-02 0. -1.
        1   -1    0    0  501    0  0.00000000000E+00  0.00000000000E+00 -0.95326169915E+03  0.95326169916E+03  0.50400001928E-02 0.  1.
    10030    2    1    2    0    0  0.00000000000E+00  0.00000000000E+00  0.10835910497E+04  0.29901144480E+04  0.27868646988E+04 0.  0.
        3    1    3    3  502    0 -0.10415788958E+04 -0.40879847679E+03 -0.34922269407E+03  0.11721600962E+04  0.10100000352E+00 0.  1.
       -3    1    3    3    0  502  0.10415788958E+04  0.40879847679E+03  0.14328137438E+04  0.18179543518E+04  0.10100000352E+00 0. -1.
</event>
<event>
 5   0  0.5281919E-06  0.2782812E+04  0.7818609E-02  0.8308624E-01
        1   -1    0    0  501    0  0.00000000000E+00  0.00000000000E+00  0.11218011023E+04  0.11218011023E+04  0.50400001928E-02 0.  1.
       -1   -1    0    0    0  501  0.00000000000E+00  0.00000000000E+00 -0.17258057919E+04  0.17258057919E+04  0.50400001928E-02 0. -1.
    10030    2    1    2    0    0  0.00000000000E+00  0.00000000000E+00 -0.60400468963E+03  0.28476068942E+04  0.27828121315E+04 0.  0.
        4    1    3    3  502    0 -0.25572948623E+03  0.27011757929E+03  0.10699799087E+04  0.11327928737E+04  0.12699999809E+01 0.  1.
       -4    1    3    3    0  502  0.25572948623E+03 -0.27011757929E+03 -0.16739845983E+04  0.17148140206E+04  0.12699999809E+01 0. -1.
</event>
<event>
 5   0  0.1283052E-05  0.3284563E+04  0.7818609E-02  0.8166834E-01
        2   -1    0    0  501    0  0.00000000000E+00  0.00000000000E+00  0.21527144310E+04  0.21527144310E+04  0.25500000920E-02 0. -1.
       -2   -1    0    0    0  501  0.00000000000E+00  0.00000000000E+00 -0.12528782333E+04  0.12528782333E+04  0.25500000920E-02 0.  1.
    10030    2    1    2    0    0  0.00000000000E+00  0.00000000000E+00  0.89983619771E+03  0.34055926644E+04  0.32845633215E+04 0.  0.
        5    1    3    3  502    0 -0.12418262130E+04 -0.10336196586E+04  0.75497881337E+03  0.17834004151E+04  0.46999998093E+01 0.  1.
       -5    1    3    3    0  502  0.12418262130E+04  0.10336196586E+04  0.14485738434E+03  0.16221922493E+04  0.46999998093E+01 0. -1.
</event>
<event>
 5   0  0.1388269E-05  0.2851412E+04  0.7818609E-02  0.8287482E-01
       -2   -1    0    0    0  501  0.00000000000E+00  0.00000000000E+00  0.73974950214E+03  0.73974950215E+03  0.25500000920E-02 0.  1.
        2   -1    0    0  501    0  0.00000000000E+00  0.00000000000E+00 -0.27477384759E+04  0.27477384759E+04  0.25500000920E-02 0. -1.
    10030    2    1    2    0    0  0.00000000000E+00  0.00000000000E+00 -0.20079889738E+04  0.34874879780E+04  0.28514124006E+04 0.  0.
        1    1    3    3  502    0  0.10528014675E+03  0.91839235326E+03 -0.23315282018E+04  0.25080973226E+04  0.50400001928E-02 0. -1.
       -1    1    3    3    0  502 -0.10528014675E+03 -0.91839235326E+03  0.32353922806E+03  0.97939065543E+03  0.50400001928E-02 0.  1.
</event>
<event>
 5   0  0.5107453E-06  0.2351428E+04  0.7818609E-02  0.8457915E-01
        1   -1    0    0  501    0  0.00000000000E+00  0.00000000000E+00  0.10426072826E+04  0.10426072826E+04  0.50400001928E-02 0.  1.
       -1   -1    0    0    0  501  0.00000000000E+00  0.00000000000E+00 -0.13258141187E+04  0.13258141187E+04  0.50400001928E-02 0. -1.
    10030    2    1    2    0    0  0.00000000000E+00  0.00000000000E+00 -0.28320683607E+03  0.23684214013E+04  0.23514280389E+04 0.  0.
        2    1    3    3  502    0  0.43783973181E+03 -0.19584761672E+03 -0.12227869557E+04  0.13134945218E+04  0.25500000920E-02 0. -1.
       -2    1    3    3    0  502 -0.43783973181E+03  0.19584761672E+03  0.93958011965E+03  0.10549268794E+04  0.25500000920E-02 0.  1.
</event>
<event>
 5   0  0.5023691E-06  0.2785619E+04  0.7818609E-02  0.8307747E-01
       -1   -1    0    0    0  501  0.00000000000E+00  0.00000000000E+00  0.26950889811E+04  0.26950889811E+04  0.50400001928E-02 0. -1.
        1   -1    0    0  501    0  0.00000000000E+00  0.00000000000E+00 -0.71979724267E+03  0.71979724268E+03  0.50400001928E-02 0.  1.
    10030    2    1    2    0    0  0.00000000000E+00  0.00000000000E+00  0.19752917385E+04  0.34148862238E+04  0.27856185075E+04 0.  0.
        5    1    3    3  502    0 -0.78226624406E+03 -0.81410418736E+03  0.19874784089E+04  0.22857818401E+04  0.46999998093E+01 0. -1.
       -5    1    3    3    0  502  0.78226624406E+03  0.81410418736E+03 -0.12186670448E+02  0.11291043838E+04  0.46999998093E+01 0.  1.
</event>
<event>
 5   0  0.1350863E-05  0.2797312E+04  0.7818609E-02  0.8304103E-01
       -2   -1    0    0    0  501  0.00000000000E+00  0.00000000000E+00  0.10850024092E+04  0.10850024092E+04  0.25500000920E-02 0. -1.
        2   -1    0    0  501    0  0.00000000000E+00  0.00000000000E+00 -0.18029811979E+04  0.18029811979E+04  0.25500000920E-02 0.  1.
    10030    2    1    2    0    0  0.00000000000E+00  0.00000000000E+00 -0.71797878870E+03  0.28879836072E+04  0.27973122411E+04 0.  0.
        3    1    3    3  502    0  0.55387237951E+03 -0.40501671188E+03  0.89929629385E+03  0.11311706255E+04  0.10100000352E+00 0. -1.
       -3    1    3    3    0  502 -0.55387237951E+03  0.40501671188E+03 -0.16172750826E+04  0.17568129817E+04  0.10100000352E+00 0.  1.
</event>
<event>
 5   0  0.1388269E-05  0.2789857E+04  0.7818609E-02  0.8306424E-01
        2   -1    0    0  501    0  0.00000000000E+00  0.00000000000E+00  0.13418892975E+04  0.13418892975E+04  0.25500000920E-02 0.  1.
       -2   -1    0    0    0  501  0.00000000000E+00  0.00000000000E+00 -0.14500639295E+04  0.14500639295E+04  0.25500000920E-02 0. -1.
    10030    2    1    2    0    0  0.00000000000E+00  0.00000000000E+00 -0.10817463198E+03  0.27919532270E+04  0.27898568191E+04 0.  0.
        1    1    3    3  502    0  0.12733724525E+04 -0.55188478766E+03  0.86627895857E+02  0.13905245823E+04  0.50400001928E-02 0.  1.
       -1    1    3    3    0  502 -0.12733724525E+04  0.55188478766E+03 -0.19480252784E+03  0.14014286448E+04  0.50400001928E-02 0. -1.
</event>
<event>
 5   0  0.4447500E-06  0.2793032E+04  0.7818609E-02  0.8305435E-01
        3   -1    0    0  501    0  0.00000000000E+00  0.00000000000E+00  0.18422773036E+04  0.18422773063E+04  0.10100000352E+00 0.  1.
       -3   -1    0    0    0  501  0.00000000000E+00  0.00000000000E+00 -0.10586121752E+04  0.10586121801E+04  0.10100000352E+00 0. -1.
    10030    2    1    2    0    0  0.00000000000E+00  0.00000000000E+00  0.78366512832E+03  0.29008894864E+04  0.27930321837E+04 0.  0.
        2    1    3    3  502    0  0.81431604604E+03  0.98743732269E+03  0.97207827961E+03  0.16071960897E+04  0.25500000920E-02 0.  1.
       -2    1    3    3    0  502 -0.81431604604E+03 -0.98743732269E+03 -0.18841315128E+03  0.12936933967E+04  0.25500000920E-02 0. -1.
</event>
<event>
 5   0  0.5107453E-06  0.2814274E+04  0.7818609E-02  0.8298850E-01
        1   -1    0    0  501    0  0.00000000000E+00  0.00000000000E+00  0.16706066702E+04  0.16706066702E+04  0.50400001928E-02 0. -1.
       -1   -1    0    0    0  501  0.00000000000E+00  0.00000000000E+00 -0.11852191892E+04  0.11852191892E+04  0.50400001928E-02 0.  1.
    10030    2    1    2    0    0  0.00000000000E+00  0.00000000000E+00  0.48538748101E+03  0.28558258594E+04  0.28142743883E+04 0.  0.
        2    1    3    3  502    0  0.58714515135E+03 -0.84033120968E+03 -0.73545669937E+03  0.12616626044E+04  0.25500000920E-02 0.  1.
       -2    1    3    3    0  502 -0.58714515135E+03  0.84033120968E+03  0.12208441804E+04  0.15941632550E+04  0.25500000920E-02 0. -1.
</event>
<event>
 5   0  0.5023691E-06  0.2849194E+04  0.7818609E-02  0.8288156E-01
       -1   -1    0    0    0  501  0.00000000000E+00  0.00000000000E+00  0.10458969574E+04  0.10458969574E+04  0.50400001928E-02 0.  1.
        1   -1    0    0  501    0  0.00000000000E+00  0.00000000000E+00 -0.19404167918E+04  0.19404167918E+04  0.50400001928E-02 0. -1.
    10030    2    1    2    0    0  0.00000000000E+00  0.00000000000E+00 -0.89451983444E+03  0.29863137493E+04  0.28491935832E+04 0.  0.
        5    1    3    3  502    0  0.19842210985E+03 -0.35770328511E+03  0.98301191594E+03  0.10647335304E+04  0.46999998093E+01 0.  1.
       -5    1    3    3    0  502 -0.19842210985E+03  0.35770328511E+03 -0.18775317504E+04  0.19215802189E+04  0.46999998093E+01 0. -1.
</event>
<event>
 5   0  0.5107453E-06  0.2819700E+04  0.7818609E-02  0.8297178E-01
       -1   -1    0    0    0  501  0.00000000000E+00  0.00000000000E+00  0.12605117307E+04  0.12605117307E+04  0.50400001928E-02 0.  1.
        1   -1    0    0  501    0  0.00000000000E+00  0.00000000000E+00 -0.15768815430E+04  0.15768815430E+04  0.50400001928E-02 0. -1.
    10030    2    1    2    0    0  0.00000000000E+00  0.00000000000E+00 -0.31636981236E+03  0.28373932737E+04  0.28197004684E+04 0.  0.
        2    1    3    3  502    0 -0.52341170468E+03 -0.10537272755E+03  0.11548452995E+04  0.12722935550E+04  0.25500000920E-02 0.  1.
       -2    1    3    3    0  502  0.52341170468E+03  0.10537272755E+03 -0.14712151118E+04  0.15650997187E+04  0.25500000920E-02 0. -1.
</event>
<event>
 5   0  0.5023691E-06  0.2804476E+04  0.7818609E-02  0.8301880E-01
       -1   -1    0    0    0  501  0.00000000000E+00  0.00000000000E+00  0.17931919192E+04  0.17931919193E+04  0.50400001928E-02 0.  1.
        1   -1    0    0  501    0  0.00000000000E+00  0.00000000000E+00 -0.10965206401E+04  0.10965206401E+04  0.50400001928E-02 0. -1.
    10030    2    1    2    0    0  0.00000000000E+00  0.00000000000E+00  0.69667127916E+03  0.28897125594E+04  0.28044763869E+04 0.  0.
        5    1    3    3  502    0 -0.23713620103E+02 -0.11433620893E+04  0.11844222800E+04  0.16464256529E+04  0.46999998093E+01 0. -1.
       -5    1    3    3    0  502  0.23713620103E+02  0.11433620893E+04 -0.48775100085E+03  0.12432869065E+04  0.46999998093E+01 0.  1.
</event>
<event>
 5   0  0.5107453E-06  0.2774023E+04  0.7818609E-02  0.8311379E-01
        1   -1    0    0  501    0  0.00000000000E+00  0.00000000000E+00  0.13720846689E+04  0.13720846689E+04  0.50400001928E-02 0. -1.
       -1   -1    0    0    0  501  0.00000000000E+00  0.00000000000E+00 -0.14021006380E+04  0.14021006380E+04  0.50400001928E-02 0.  1.
    10030    2    1    2    0    0  0.00000000000E+00  0.00000000000E+00 -0.30015969082E+02  0.27741853069E+04  0.27740229196E+04 0.  0.
        2    1    3    3  502    0 -0.76383104032E+03 -0.95390798598E+03 -0.67111230542E+03  0.13941915329E+04  0.25500000920E-02 0.  1.
       -2    1    3    3    0  502  0.76383104032E+03  0.95390798598E+03  0.64109633634E+03  0.13799937740E+04  0.25500000920E-02 0. -1.
</event>
<event>
 5   0  0.1350863E-05  0.2747713E+04  0.7818609E-02  0.8319688E-01
        2   -1    0    0  501    0  0.00000000000E+00  0.00000000000E+00  0.18941121119E+04  0.18941121119E+04  0.25500000920E-02 0. -1.
       -2   -1    0    0    0  501  0.00000000000E+00  0.00000000000E+00 -0.99649924696E+03  0.99649924696E+03  0.25500000920E-02 0.  1.
    10030    2    1    2    0    0  0.00000000000E+00  0.00000000000E+00  0.89761286490E+03  0.28906113588E+04  0.27477127165E+04 0.  0.
        3    1    3    3  502    0  0.59829646958E+03 -0.33635606147E+03  0.17008209958E+04  0.18340900020E+04  0.10100000352E+00 0. -1.
       -3    1    3    3    0  502 -0.59829646958E+03  0.33635606147E+03 -0.80320813090E+03  0.10565213568E+04  0.10100000352E+00 0.  1.
</event>
<event>
 5   0  0.1302063E-05  0.2743519E+04  0.7818609E-02  0.8321021E-01
        2   -1    0    0  501    0  0.00000000000E+00  0.00000000000E+00  0.16184917896E+04  0.16184917896E+04  0.25500000920E-02 0.  1.
       -2   -1    0    0    0  501  0.00000000000E+00  0.00000000000E+00 -0.11626403899E+04  0.11626403899E+04  0.25500000920E-02 0. -1.
    10030    2    1    2    0    0  0.00000000000E+00  0.00000000000E+00  0.45585139972E+03  0.27811321795E+04  0.27435188539E+04 0.  0.
        2    1    3    3  502    0 -0.15195432680E+03 -0.11808533257E+04  0.91860309912E+03  0.15037740349E+04  0.25500000920E-02 0.  1.
       -2    1    3    3    0  502  0.15195432680E+03  0.11808533257E+04 -0.46275169940E+03  0.12773581446E+04  0.25500000920E-02 0. -1.
</event>
<event>
 5   0  0.1388269E-05  0.2810868E+04  0.7818609E-02  0.8299902E-01
       -2   -1    0    0    0  501  0.00000000000E+00  0.00000000000E+00  0.12330979336E+04  0.12330979336E+04  0.25500000920E-02 0.  1.
        2   -1    0    0  501    0  0.00000000000E+00  0.00000000000E+00 -0.16018549947E+04  0.16018549947E+04  0.25500000920E-02 0. -1.
    10030    2    1    2    0    0  0.00000000000E+00  0.00000000000E+00 -0.36875706112E+03  0.28349529283E+04  0.28108675415E+04 0.  0.
        1    1    3    3  502    0 -0.22617646351E+03 -0.57686090187E+03 -0.14566629353E+04  0.15829691090E+04  0.50400001928E-02 0. -1.
       -1    1    3    3    0  502  0.22617646351E+03  0.57686090187E+03  0.10879058742E+04  0.12519838194E+04  0.50400001928E-02 0.  1.
</event>
<event>
 5   0  0.5107453E-06  0.2615831E+04  0.7818609E-02  0.8362844E-01
        1   -1    0    0  501    0  0.00000000000E+00  0.00000000000E+00  0.11561667078E+04  0.11561667078E+04  0.50400001928E-02 0. -1.
       -1   -1    0    0    0  501  0.00000000000E+00  0.00000000000E+00 -0.14795814245E+04  0.14795814245E+04  0.50400001928E-02 0.  1.
    10030    2    1    2    0    0  0.00000000000E+00  0.00000000000E+00 -0.32341471673E+03  0.26357481323E+04  0.26158308695E+04 0.  0.
        2    1    3    3  502    0 -0.25810176450E+03  0.63579521367E+03 -0.12836442680E+04  0.14555393094E+04  0.25500000920E-02 0.  1.
       -2    1    3    3    0  502  0.25810176450E+03 -0.63579521367E+03  0.96022955124E+03  0.11802088229E+04  0.25500000920E-02 0. -1.
</event>
<event>
 5   0  0.1330962E-05  0.2831364E+04  0.7818609E-02  0.8293597E-01
       -2   -1    0    0    0  501  0.00000000000E+00  0.00000000000E+00  0.12567716126E+04  0.12567716126E+04  0.25500000920E-02 0. -1.
        2   -1    0    0  501    0  0.00000000000E+00  0.00000000000E+00 -0.15946860048E+04  0.15946860048E+04  0.25500000920E-02 0.  1.
    10030    2    1    2    0    0  0.00000000000E+00  0.00000000000E+00 -0.33791439215E+03  0.28514576174E+04  0.28313644074E+04 0.  0.
        4    1    3    3  502    0 -0.11390235811E+04  0.27993367416E+03 -0.96731042022E+03  0.15203383315E+04  0.12699999809E+01 0.  1.
       -4    1    3    3    0  502  0.11390235811E+04 -0.27993367416E+03  0.62939602807E+03  0.13311192859E+04  0.12699999809E+01 0. -1.
</event>
<event>
 5   0  0.5217999E-06  0.2809877E+04  0.7818609E-02  0.8300208E-01
       -1   -1    0    0    0  501  0.00000000000E+00  0.00000000000E+00  0.16024297934E+04  0.16024297934E+04  0.50400001928E-02 0. -1.
        1   -1    0    0  501    0  0.00000000000E+00  0.00000000000E+00 -0.12317872819E+04  0.12317872819E+04  0.50400001928E-02 0.  1.
    10030    2    1    2    0    0  0.00000000000E+00  0.00000000000E+00  0.37064251155E+03  0.28342170753E+04  0.28098773209E+04 0.  0.
        1    1    3    3  502    0 -0.80801290953E+03 -0.72087541337E+03 -0.71758998800E+03  0.12990310291E+04  0.50400001928E-02 0.  1.
       -1    1    3    3    0  502  0.80801290953E+03  0.72087541337E+03  0.10882324995E+04  0.15351860463E+04  0.50400001928E-02 0. -1.
</event>
<event>
 5   0  0.5281919E-06  0.2773000E+04  0.7818609E-02  0.8311700E-01
        1   -1    0    0  501    0  0.00000000000E+00  0.00000000000E+00  0.19712505462E+04  0.19712505462E+04  0.50400001928E-02 0.  1.
       -1   -1    0    0    0  501  0.00000000000E+00  0.00000000000E+00 -0.97520917149E+03  0.97520917150E+03  0.50400001928E-02 0. -1.
    10030    2    1    2    0    0  0.00000000000E+00  0.00000000000E+00  0.99604137472E+03  0.29464597177E+04  0.27729995398E+04 0.  0.
        4    1    3    3  502    0 -0.12965146634E+04  0.79613060565E+02 -0.17171374070E+02  0.12990708144E+04  0.12699999809E+01 0.  1.
       -4    1    3    3    0  502  0.12965146634E+04 -0.79613060565E+02  0.10132127488E+04  0.16473889034E+04  0.12699999809E+01 0. -1.
</event>
<event>
 5   0  0.1350863E-05  0.2797610E+04  0.7818609E-02  0.8304011E-01
        2   -1    0    0  501    0  0.00000000000E+00  0.00000000000E+00  0.12071077732E+04  0.12071077732E+04  0.25500000920E-02 0. -1.
       -2   -1    0    0    0  501  0.00000000000E+00  0.00000000000E+00 -0.16209452954E+04  0.16209452954E+04  0.25500000920E-02 0.  1.
    10030    2    1    2    0    0  0.00000000000E+00  0.00000000000E+00 -0.41383752220E+03  0.28280530686E+04  0.27976101702E+04 0.  0.
        3    1    3    3  502    0  0.98076334133E+03 -0.31586945941E+02 -0.12146422287E+04  0.15614897441E+04  0.10100000352E+00 0.  1.
       -3    1    3    3    0  502 -0.98076334133E+03  0.31586945941E+02  0.80080470654E+03  0.12665633245E+04  0.10100000352E+00 0. -1.
</event>
<event>
 5   0  0.5023691E-06  0.2563894E+04  0.7818609E-02  0.8380570E-01
        1   -1    0    0  501    0  0.00000000000E+00  0.00000000000E+00  0.19784946189E+04  0.19784946189E+04  0.50400001928E-02 0. -1.
       -1   -1    0    0    0  501  0.00000000000E+00  0.00000000000E+00 -0.83062571377E+03  0.83062571378E+03  0.50400001928E-02 0.  1.
    10030    2    1    2    0    0  0.00000000000E+00  0.00000000000E+00  0.11478689051E+04  0.28091203327E+04  0.25638943075E+04 0.  0.
        5    1    3    3  502    0  0.66286351782E+03  0.29599513687E+03  0.17315740671E+04  0.18775974020E+04  0.46999998093E+01 0. -1.
       -5    1    3    3    0  502 -0.66286351782E+03 -0.29599513687E+03 -0.58370516194E+03  0.93152293067E+03  0.46999998093E+01 0.  1.
</event>
<event>
 5   0  0.1350863E-05  0.2802499E+04  0.7818609E-02  0.8302493E-01
        2   -1    0    0  501    0  0.00000000000E+00  0.00000000000E+00  0.14827800639E+04  0.14827800639E+04  0.25500000920E-02 0.  1.
       -2   -1    0    0    0  501  0.00000000000E+00  0.00000000000E+00 -0.13242020118E+04  0.13242020118E+04  0.25500000920E-02 0. -1.
    10030    2    1    2    0    0  0.00000000000E+00  0.00000000000E+00  0.15857805206E+03  0.28069820757E+04  0.28024991302E+04 0.  0.
        3    1    3    3  502    0  0.43162865595E+03 -0.13258324307E+04  0.21867125840E+03  0.14113653179E+04  0.10100000352E+00 0. -1.
       -3    1    3    3    0  502 -0.43162865595E+03  0.13258324307E+04 -0.60093206338E+02  0.13956167578E+04  0.10100000352E+00 0.  1.
</event>
<event>
 5   0  0.5281919E-06  0.2820484E+04  0.7818609E-02  0.8296937E-01
        1   -1    0    0  501    0  0.00000000000E+00  0.00000000000E+00  0.24972028172E+04  0.24972028172E+04  0.50400001928E-02 0.  1.
       -1   -1    0    0    0  501  0.00000000000E+00  0.00000000000E+00 -0.79640416284E+03  0.79640416286E+03  0.50400001928E-02 0. -1.
    10030    2    1    2    0    0  0.00000000000E+00  0.00000000000E+00  0.17007986543E+04  0.32936069800E+04  0.28204841564E+04 0.  0.
        4    1    3    3  502    0  0.10748083750E+04 -0.87405195988E+03  0.54232423859E+03  0.14877153841E+04  0.12699999809E+01 0.  1.
       -4    1    3    3    0  502 -0.10748083750E+04  0.87405195988E+03  0.11584744158E+04  0.18058915959E+04  0.12699999809E+01 0. -1.
</event>
<event>
 5   0  0.5023691E-06  0.2809940E+04  0.7818609E-02  0.8300189E-01
        1   -1    0    0  501    0  0.00000000000E+00  0.00000000000E+00  0.10713769407E+04  0.10713769407E+04  0.50400001928E-02 0.  1.
       -1   -1    0    0    0  501  0.00000000000E+00  0.00000000000E+00 -0.18424328080E+04  0.18424328080E+04  0.50400001928E-02 0. -1.
    10030    2    1    2    0    0  0.00000000000E+00  0.00000000000E+00 -0.77105586725E+03  0.29138097487E+04  0.28099395191E+04 0.  0.
        5    1    3    3  502    0  0.10410065745E+04 -0.89516244043E+03 -0.76332335179E+02  0.13750851603E+04  0.46999998093E+01 0.  1.
       -5    1    3    3    0  502 -0.10410065745E+04  0.89516244043E+03 -0.69472353207E+03  0.15387245884E+04  0.46999998093E+01 0. -1.
</event>
<event>
 5   0  0.1283052E-05  0.2806822E+04  0.7818609E-02  0.8301153E-01
       -2   -1    0    0    0  501  0.00000000000E+00  0.00000000000E+00  0.11242475856E+04  0.11242475856E+04  0.25500000920E-02 0. -1.
        2   -1    0    0  501    0  0.00000000000E+00  0.00000000000E+00 -0.17518943703E+04  0.17518943703E+04  0.25500000920E-02 0.  1.
    10030    2    1    2    0    0  0.00000000000E+00  0.00000000000E+00 -0.62764678469E+03  0.28761419560E+04  0.28068224141E+04 0.  0.
        5    1    3    3  502    0  0.69718286892E+03  0.81393790983E+03 -0.12422812862E+04  0.16406839299E+04  0.46999998093E+01 0.  1.
       -5    1    3    3    0  502 -0.69718286892E+03 -0.81393790983E+03  0.61463450150E+03  0.12354580261E+04  0.46999998093E+01 0. -1.
</event>
<event>
 5   0  0.5217999E-06  0.2951376E+04  0.7818609E-02  0.8257754E-01
        1   -1    0    0  501    0  0.00000000000E+00  0.00000000000E+00  0.19947355845E+04  0.19947355845E+04  0.50400001928E-02 0.  1.
       -1   -1    0    0    0  501  0.00000000000E+00  0.00000000000E+00 -0.10917013145E+04  0.10917013145E+04  0.50400001928E-02 0. -1.
    10030    2    1    2    0    0  0.00000000000E+00  0.00000000000E+00  0.90303426998E+03  0.30864368990E+04  0.29513762618E+04 0.  0.
        1    1    3    3  502    0  0.42995595869E+03  0.38419984381E+02 -0.10241997592E+04  0.11114510194E+04  0.50400001928E-02 0. -1.
       -1    1    3    3    0  502 -0.42995595869E+03 -0.38419984381E+02  0.19272340292E+04  0.19749858797E+04  0.50400001928E-02 0.  1.
</event>
<event>
 5   0  0.1283052E-05  0.2790902E+04  0.7818609E-02  0.8306098E-01
       -2   -1    0    0    0  501  0.00000000000E+00  0.00000000000E+00  0.12186581072E+04  0.12186581072E+04  0.25500000920E-02 0. -1.
        2   -1    0    0  501    0  0.00000000000E+00  0.00000000000E+00 -0.15978920768E+04  0.15978920768E+04  0.25500000920E-02 0.  1.
    10030    2    1    2    0    0  0.00000000000E+00  0.00000000000E+00 -0.37923396965E+03  0.28165501840E+04  0.27909024590E+04 0.  0.
        5    1    3    3  502    0  0.86583039793E+03  0.45135703724E+02 -0.12930830550E+04  0.15568511126E+04  0.46999998093E+01 0.  1.
       -5    1    3    3    0  502 -0.86583039793E+03 -0.45135703724E+02  0.91384908535E+03  0.12596990714E+04  0.46999998093E+01 0. -1.
</event>
<event>
 5   0  0.5107453E-06  0.2905336E+04  0.7818609E-02  0.8271292E-01
        1   -1    0    0  501    0  0.00000000000E+00  0.00000000000E+00  0.97457448638E+03  0.97457448639E+03  0.50400001928E-02 0. -1.
       -1   -1    0    0    0  501  0.00000000000E+00  0.00000000000E+00 -0.21652976274E+04  0.21652976274E+04  0.50400001928E-02 0.  1.
    10030    2    1    2    0    0  0.00000000000E+00  0.00000000000E+00 -0.11907231410E+04  0.31398721137E+04  0.29053356591E+04 0.  0.
        2    1    3    3  502    0 -0.68106928258E+02 -0.80989897753E+03  0.70585641816E+03  0.10764795356E+04  0.25500000920E-02 0. -1.
       -2    1    3    3    0  502  0.68106928258E+02  0.80989897753E+03 -0.18965795591E+04  0.20633925782E+04  0.25500000920E-02 0.  1.
</event>
<event>
 5   0  0.4764214E-06  0.2778275E+04  0.7818609E-02  0.8310045E-01
       -1   -1    0    0    0  501  0.00000000000E+00  0.00000000000E+00  0.24481305521E+04  0.24481305521E+04  0.50400001928E-02 0. -1.
        1   -1    0    0  501    0  0.00000000000E+00  0.00000000000E+00 -0.78823535122E+03  0.78823535124E+03  0.50400001928E-02 0.  1.
    10030    2    1    2    0    0  0.00000000000E+00  0.00000000000E+00  0.16598952009E+04  0.32363659033E+04  0.27782750372E+04 0.  0.
        3    1    3    3  502    0 -0.12576125276E+04  0.50961612700E+03  0.48359280153E+03  0.14405415212E+04  0.10100000352E+00 0.  1.
       -3    1    3    3    0  502  0.12576125276E+04 -0.50961612700E+03  0.11763023993E+04  0.17958243821E+04  0.10100000352E+00 0. -1.
</event>
<event>
 5   0  0.5023691E-06  0.2526907E+04  0.7818609E-02  0.8393462E-01
        1   -1    0    0  501    0  0.00000000000E+00  0.00000000000E+00  0.15354214530E+04  0.15354214530E+04  0.50400001928E-02 0.  1.
       -1   -1    0    0    0  501  0.00000000000E+00  0.00000000000E+00 -0.10396588233E+04  0.10396588233E+04  0.50400001928E-02 0. -1.
    10030    2    1    2    0    0  0.00000000000E+00  0.00000000000E+00  0.49576262970E+03  0.25750802763E+04  0.25269067739E+04 0.  0.
        5    1    3    3  502    0  0.62351225990E+03  0.61405625227E+03 -0.68078746883E+03  0.11087498757E+04  0.46999998093E+01 0. -1.
       -5    1    3    3    0  502 -0.62351225990E+03 -0.61405625227E+03  0.11765500985E+04  0.14663304005E+04  0.46999998093E+01 0.  1.
</event>
<event>
 5   0  0.1302063E-05  0.2836217E+04  0.7818609E-02  0.8292112E-01
        2   -1    0    0  501    0  0.00000000000E+00  0.00000000000E+00  0.14454238683E+04  0.14454238683E+04  0.25500000920E-02 0.  1.
       -2   -1    0    0    0  501  0.00000000000E+00  0.00000000000E+00 -0.13913095840E+04  0.13913095840E+04  0.25500000920E-02 0. -1.
    10030    2    1    2    0    0  0.00000000000E+00  0.00000000000E+00  0.54114284271E+02  0.28367334523E+04  0.28362172561E+04 0.  0.
        2    1    3    3  502    0  0.23937711683E+03 -0.13815790227E+04  0.23915724017E+03  0.14224128042E+04  0.25500000920E-02 0. -1.
       -2    1    3    3    0  502 -0.23937711683E+03  0.13815790227E+04 -0.18504295590E+03  0.14143206481E+04  0.25500000920E-02 0.  1.
</event>
<event>
 5   0  0.1388269E-05  0.2800024E+04  0.7818609E-02  0.8303261E-01
        2   -1    0    0  501    0  0.00000000000E+00  0.00000000000E+00  0.17919597554E+04  0.17919597554E+04  0.25500000920E-02 0.  1.
       -2   -1    0    0    0  501  0.00000000000E+00  0.00000000000E+00 -0.10937932970E+04  0.10937932970E+04  0.25500000920E-02 0. -1.
    10030    2    1    2    0    0  0.00000000000E+00  0.00000000000E+00  0.69816645842E+03  0.28857530524E+04  0.28000239777E+04 0.  0.
        1    1    3    3  502    0  0.82841584358E+03 -0.10975214915E+04  0.62021067061E+03  0.15084719123E+04  0.50400001928E-02 0. -1.
       -1    1    3    3    0  502 -0.82841584358E+03  0.10975214915E+04  0.77955787808E+02  0.13772811401E+04  0.50400001928E-02 0.  1.
</event>
<event>
 5   0  0.5217999E-06  0.2787228E+04  0.7818609E-02  0.8307244E-01
        1   -1    0    0  501    0  0.00000000000E+00  0.00000000000E+00  0.11020754951E+04  0.11020754951E+04  0.50400001928E-02 0.  1.
       -1   -1    0    0    0  501  0.00000000000E+00  0.00000000000E+00 -0.17622750947E+04  0.17622750947E+04  0.50400001928E-02 0. -1.
    10030    2    1    2    0    0  0.00000000000E+00  0.00000000000E+00 -0.66019959958E+03  0.28643505897E+04  0.27872281553E+04 0.  0.
        1    1    3    3  502    0 -0.16964922848E+03  0.56638768793E+03 -0.16269949654E+04  0.17310945934E+04  0.50400001928E-02 0. -1.
       -1    1    3    3    0  502  0.16964922848E+03 -0.56638768793E+03  0.96679536585E+03  0.11332559963E+04  0.50400001928E-02 0.  1.
</event>
<event>
 5   0  0.4764214E-06  0.2796424E+04  0.7818609E-02  0.8304379E-01
        1   -1    0    0  501    0  0.00000000000E+00  0.00000000000E+00  0.19840408607E+04  0.19840408607E+04  0.50400001928E-02 0.  1.
       -1   -1    0    0    0  501  0.00000000000E+00  0.00000000000E+00 -0.98536116645E+03  0.98536116646E+03  0.50400001928E-02 0. -1.
    10030    2    1    2    0    0  0.00000000000E+00  0.00000000000E+00  0.99867969425E+03  0.29694020272E+04  0.27964240142E+04 0.  0.
        3    1    3    3  502    0 -0.10944228235E+03 -0.77060502377E+03 -0.73405481992E+03  0.10698813975E+04  0.10100000352E+00 0. -1.
       -3    1    3    3    0  502  0.10944228235E+03  0.77060502377E+03  0.17327345142E+04  0.18995206297E+04  0.10100000352E+00 0.  1.
</event>
<event>
 5   0  0.4764214E-06  0.2833605E+04  0.7818609E-02  0.8292911E-01
        1   -1    0    0  501    0  0.00000000000E+00  0.00000000000E+00  0.10177439338E+04  0.10177439339E+04  0.50400001928E-02 0.  1.
       -1   -1    0    0    0  501  0.00000000000E+00  0.00000000000E+00 -0.19723318234E+04  0.19723318234E+04  0.50400001928E-02 0. -1.
    10030    2    1    2    0    0  0.00000000000E+00  0.00000000000E+00 -0.95458788959E+03  0.29900757573E+04  0.28336045940E+04 0.  0.
        3    1    3    3  502    0  0.13934624707E+04  0.14624985600E+03 -0.69914638179E+03  0.15658647295E+04  0.10100000352E+00 0.  1.
       -3    1    3    3    0  502 -0.13934624707E+04 -0.14624985600E+03 -0.25544150780E+03  0.14242110278E+04  0.10100000352E+00 0. -1.
</event>
<event>
 5   0  0.5107453E-06  0.2692831E+04  0.7818609E-02  0.8337335E-01
        1   -1    0    0  501    0  0.00000000000E+00  0.00000000000E+00  0.17776619549E+04  0.17776619549E+04  0.50400001928E-02 0. -1.
       -1   -1    0    0    0  501  0.00000000000E+00  0.00000000000E+00 -0.10197860699E+04  0.10197860699E+04  0.50400001928E-02 0.  1.
    10030    2    1    2    0    0  0.00000000000E+00  0.00000000000E+00  0.75787588498E+03  0.27974480248E+04  0.26928311485E+04 0.  0.
        2    1    3    3  502    0 -0.74283790534E+03  0.39362022963E+02  0.15448024719E+04  0.17145763908E+04  0.25500000920E-02 0. -1.
       -2    1    3    3    0  502  0.74283790534E+03 -0.39362022963E+02 -0.78692658695E+03  0.10828716340E+04  0.25500000920E-02 0.  1.
</event>
<event>
 5   0  0.1388269E-05  0.2712482E+04  0.7818609E-02  0.8330966E-01
        2   -1    0    0  501    0  0.00000000000E+00  0.00000000000E+00  0.22589797700E+04  0.22589797700E+04  0.25500000920E-02 0.  1.
       -2   -1    0    0    0  501  0.00000000000E+00  0.00000000000E+00 -0.81425697180E+03  0.81425697180E+03  0.25500000920E-02 0. -1.
    10030    2    1    2    0    0  0.00000000000E+00  0.00000000000E+00  0.14447227982E+04  0.30732367418E+04  0.27124822778E+04 0.  0.
        1    1    3    3  502    0  0.62158457060E+03 -0.93277484919E+03 -0.14269843929E+03  0.11299553718E+04  0.50400001928E-02 0. -1.
       -1    1    3    3    0  502 -0.62158457060E+03  0.93277484919E+03  0.15874212375E+04  0.19432813700E+04  0.50400001928E-02 0.  1.
</event>
<event>
 5   0  0.1350863E-05  0.2773387E+04  0.7818609E-02  0.8311579E-01
       -2   -1    0    0    0  501  0.00000000000E+00  0.00000000000E+00  0.18490412161E+04  0.18490412161E+04  0.25500000920E-02 0. -1.
        2   -1    0    0  501    0  0.00000000000E+00  0.00000000000E+00 -0.10399542713E+04  0.10399542713E+04  0.25500000920E-02 0.  1.
    10030    2    1    2    0    0  0.00000000000E+00  0.00000000000E+00  0.80908694475E+03  0.28889954874E+04  0.27733866016E+04 0.  0.
        3    1    3    3  502    0 -0.91685586147E+03 -0.86318318265E+03 -0.20035941467E+03  0.12750897156E+04  0.10100000352E+00 0.  1.
       -3    1    3    3    0  502  0.91685586147E+03  0.86318318265E+03  0.10094463594E+04  0.16139057718E+04  0.10100000352E+00 0. -1.
</event>
<event>
 5   0  0.4764214E-06  0.2717793E+04  0.7818609E-02  0.8329255E-01
        1   -1    0    0  501    0  0.00000000000E+00  0.00000000000E+00  0.15981765590E+04  0.15981765590E+04  0.50400001928E-02 0. -1.
       -1   -1    0    0    0  501  0.00000000000E+00  0.00000000000E+00 -0.11554413487E+04  0.11554413487E+04  0.50400001928E-02 0.  1.
    10030    2    1    2    0    0  0.00000000000E+00  0.00000000000E+00  0.44273521032E+03  0.27536179077E+04  0.27177926917E+04 0.  0.
        3    1    3    3  502    0 -0.11680184469E+04 -0.54396304258E+03 -0.21610683800E+03  0.13064704588E+04  0.10100000352E+00 0.  1.
       -3    1    3    3    0  502  0.11680184469E+04  0.54396304258E+03  0.65884204832E+03  0.14471474489E+04  0.10100000352E+00 0. -1.
</event>
<event>
 5   0  0.1330962E-05  0.2799314E+04  0.7818609E-02  0.8303481E-01
       -2   -1    0    0    0  501  0.00000000000E+00  0.00000000000E+00  0.14297609516E+04  0.14297609516E+04  0.25500000920E-02 0.  1.
        2   -1    0    0  501    0  0.00000000000E+00  0.00000000000E+00 -0.13701867636E+04  0.13701867636E+04  0.25500000920E-02 0. -1.
    10030    2    1    2    0    0  0.00000000000E+00  0.00000000000E+00  0.59574187918E+02  0.27999477152E+04  0.27993138667E+04 0.  0.
        4    1    3    3  502    0  0.33458561806E+02  0.92569848788E+03 -0.10197363254E+04  0.13776432601E+04  0.12699999809E+01 0. -1.
       -4    1    3    3    0  502 -0.33458561806E+02 -0.92569848788E+03  0.10793105134E+04  0.14223044551E+04  0.12699999809E+01 0.  1.
</event>
<event>
 5   0  0.4764214E-06  0.2753260E+04  0.7818609E-02  0.8317928E-01
        1   -1    0    0  501    0  0.00000000000E+00  0.00000000000E+00  0.19420266344E+04  0.19420266344E+04  0.50400001928E-02 0.  1.
       -1   -1    0    0    0  501  0.00000000000E+00  0.00000000000E+00 -0.97584170618E+03  0.97584170619E+03  0.50400001928E-02 0. -1.
    10030    2    1    2    0    0  0.00000000000E+00  0.00000000000E+00  0.96618492820E+03  0.29178683406E+04  0.27532603105E+04 0.  0.
        3    1    3    3  502    0  0.57440719355E+03 -0.37678765663E+03  0.17473952119E+04  0.18775789195E+04  0.10100000352E+00 0.  1.
       -3    1    3    3    0  502 -0.57440719355E+03  0.37678765663E+03 -0.78121028365E+03  0.10402894211E+04  0.10100000352E+00 0. -1.
</event>
<event>
 5   0  0.4764214E-06  0.2808444E+04  0.7818609E-02  0.8300652E-01
        1   -1    0    0  501    0  0.00000000000E+00  0.00000000000E+00  0.17720979810E+04  0.17720979810E+04  0.50400001928E-02 0.  1.
       -1   -1    0    0    0  501  0.00000000000E+00  0.00000000000E+00 -0.11127147204E+04  0.11127147204E+04  0.50400001928E-02 0. -1.
    10030    2    1    2    0    0  0.00000000000E+00  0.00000000000E+00  0.65938326065E+03  0.28848127014E+04  0.28084440599E+04 0.  0.
        3    1    3    3  502    0 -0.75010159508E+03 -0.29522858327E+03 -0.85136857258E+03  0.11724507563E+04  0.10100000352E+00 0. -1.
       -3    1    3    3    0  502  0.75010159508E+03  0.29522858327E+03  0.15107518332E+04  0.17123619451E+04  0.10100000352E+00 0.  1.
</event>
<event>
 5   0  0.1283052E-05  0.2790813E+04  0.7818609E-02  0.8306126E-01
       -2   -1    0    0    0  501  0.00000000000E+00  0.00000000000E+00  0.12239057089E+04  0.12239057089E+04  0.25500000920E-02 0.  1.
        2   -1    0    0  501    0  0.00000000000E+00  0.00000000000E+00 -0.15909393078E+04  0.15909393078E+04  0.25500000920E-02 0. -1.
    10030    2    1    2    0    0  0.00000000000E+00  0.00000000000E+00 -0.36703359897E+03  0.28148450167E+04  0.27908132874E+04 0.  0.
        5    1    3    3  502    0  0.87862150484E+01 -0.11032062322E+04  0.67823871636E+03  0.12950563828E+04  0.46999998093E+01 0.  1.
       -5    1    3    3    0  502 -0.87862150484E+01  0.11032062322E+04 -0.10452723153E+04  0.15197886338E+04  0.46999998093E+01 0. -1.
</event>
<event>
 5   0  0.5281919E-06  0.2789197E+04  0.7818609E-02  0.8306630E-01
        1   -1    0    0  501    0  0.00000000000E+00  0.00000000000E+00  0.23209029048E+04  0.23209029048E+04  0.50400001928E-02 0. -1.
       -1   -1    0    0    0  501  0.00000000000E+00  0.00000000000E+00 -0.83799521985E+03  0.83799521986E+03  0.50400001928E-02 0.  1.
    10030    2    1    2    0    0  0.00000000000E+00  0.00000000000E+00  0.14829076849E+04  0.31588981246E+04  0.27891974042E+04 0.  0.
        4    1    3    3  502    0 -0.57055113518E+03 -0.46865138935E+03 -0.59847038960E+03  0.95043734287E+03  0.12699999809E+01 0.  1.
       -4    1    3    3    0  502  0.57055113518E+03  0.46865138935E+03  0.20813780745E+04  0.22084607818E+04  0.12699999809E+01 0. -1.
</event>
<event>
 5   0  0.4764214E-06  0.2726811E+04  0.7818609E-02  0.8326358E-01
        1   -1    0    0  501    0  0.00000000000E+00  0.00000000000E+00  0.13773589730E+04  0.13773589730E+04  0.50400001928E-02 0. -1.
       -1   -1    0    0    0  501  0.00000000000E+00  0.00000000000E+00 -0.13495931688E+04  0.13495931688E+04  0.50400001928E-02 0.  1.
    10030    2    1    2    0    0  0.00000000000E+00  0.00000000000E+00  0.27765804198E+02  0.27269521419E+04  0.27268107826E+04 0.  0.
        3    1    3    3  502    0 -0.18495571777E+03  0.17965152587E+03 -0.13249885646E+04  0.13498436927E+04  0.10100000352E+00 0.  1.
       -3    1    3    3    0  502  0.18495571777E+03 -0.17965152587E+03  0.13527543688E+04  0.13771084491E+04  0.10100000352E+00 0. -1.
</event>
<event>
 5   0  0.1302063E-05  0.2782628E+04  0.7818609E-02  0.8308682E-01
        2   -1    0    0  501    0  0.00000000000E+00  0.00000000000E+00  0.21055929387E+04  0.21055929387E+04  0.25500000920E-02 0. -1.
       -2   -1    0    0    0  501  0.00000000000E+00  0.00000000000E+00 -0.91933967300E+03  0.91933967300E+03  0.25500000920E-02 0.  1.
    10030    2    1    2    0    0  0.00000000000E+00  0.00000000000E+00  0.11862532657E+04  0.30249326117E+04  0.27826283430E+04 0.  0.
        2    1    3    3  502    0 -0.26563449136E+02  0.13899626063E+04  0.65319649324E+03  0.15360232168E+04  0.25500000920E-02 0.  1.
       -2    1    3    3    0  502  0.26563449136E+02 -0.13899626063E+04  0.53305677247E+03  0.14889093949E+04  0.25500000920E-02 0. -1.
</event>
<event>
 5   0  0.5281919E-06  0.2948546E+04  0.7818609E-02  0.8258578E-01
       -1   -1    0    0    0  501  0.00000000000E+00  0.00000000000E+00  0.15085539685E+04  0.15085539685E+04  0.50400001928E-02 0. -1.
        1   -1    0    0  501    0  0.00000000000E+00  0.00000000000E+00 -0.14407714692E+04  0.14407714692E+04  0.50400001928E-02 0.  1.
    10030    2    1    2    0    0  0.00000000000E+00  0.00000000000E+00  0.67782499326E+02  0.29493254378E+04  0.29485464335E+04 0.  0.
        4    1    3    3  502    0 -0.92267024435E+03 -0.54767123819E+03 -0.97742272174E+03  0.14514203233E+04  0.12699999809E+01 0. -1.
       -4    1    3    3    0  502  0.92267024435E+03  0.54767123819E+03  0.10452052211E+04  0.14979051145E+04  0.12699999809E+01 0.  1.
</event>
<event>
 5   0  0.1388269E-05  0.2845335E+04  0.7818609E-02  0.8289330E-01
       -2   -1    0    0    0  501  0.00000000000E+00  0.00000000000E+00  0.74325466770E+03  0.74325466771E+03  0.25500000920E-02 0.  1.
        2   -1    0    0  501    0  0.00000000000E+00  0.00000000000E+00 -0.27231348073E+04  0.27231348073E+04  0.25500000920E-02 0. -1.
    10030    2    1    2    0    0  0.00000000000E+00  0.00000000000E+00 -0.19798801396E+04  0.34663894750E+04  0.28453348881E+04 0.  0.
        1    1    3    3  502    0  0.14417026150E+03 -0.10608937043E+04  0.15140652400E+03  0.10812975777E+04  0.50400001928E-02 0.  1.
       -1    1    3    3    0  502 -0.14417026150E+03  0.10608937043E+04 -0.21312866636E+04  0.23850918973E+04  0.50400001928E-02 0. -1.
</event>
<event>
 5   0  0.5107453E-06  0.2793261E+04  0.7818609E-02  0.8305364E-01
       -1   -1    0    0    0  501  0.00000000000E+00  0.00000000000E+00  0.89175952136E+03  0.89175952138E+03  0.50400001928E-02 0. -1.
        1   -1    0    0  501    0  0.00000000000E+00  0.00000000000E+00 -0.21873353590E+04  0.21873353590E+04  0.50400001928E-02 0.  1.
    10030    2    1    2    0    0  0.00000000000E+00  0.00000000000E+00 -0.12955758376E+04  0.30790948804E+04  0.27932612716E+04 0.  0.
        2    1    3    3  502    0 -0.91068876772E+03 -0.10588050121E+04 -0.63406191780E+03  0.15337720172E+04  0.25500000920E-02 0.  1.
       -2    1    3    3    0  502  0.91068876772E+03  0.10588050121E+04 -0.66151391983E+03  0.15453228631E+04  0.25500000920E-02 0. -1.
</event>
<event>
 5   0  0.5281919E-06  0.2765304E+04  0.7818609E-02  0.8314122E-01
       -1   -1    0    0    0  501  0.00000000000E+00  0.00000000000E+00  0.17374407838E+04  0.17374407838E+04  0.50400001928E-02 0.  1.
        1   -1    0    0  501    0  0.00000000000E+00  0.00000000000E+00 -0.11003118501E+04  0.11003118501E+04  0.50400001928E-02 0. -1.
    10030    2    1    2    0    0  0.00000000000E+00  0.00000000000E+00  0.63712893371E+03  0.28377526339E+04  0.27653040942E+04 0.  0.
        4    1    3    3  502    0 -0.65003462346E+03  0.94807318709E+03  0.11070282467E+04  0.15959012913E+04  0.12699999809E+01 0. -1.
       -4    1    3    3    0  502  0.65003462346E+03 -0.94807318709E+03 -0.46989931302E+03  0.12418513426E+04  0.12699999809E+01 0.  1.
</event>
<event>
 5   0  0.1350863E-05  0.2297542E+04  0.7818609E-02  0.8478891E-01
        2   -1    0    0  501    0  0.00000000000E+00  0.00000000000E+00  0.12522822818E+04  0.12522822819E+04  0.25500000920E-02 0.  1.
       -2   -1    0    0    0  501  0.00000000000E+00  0.00000000000E+00 -0.10538158830E+04  0.10538158830E+04  0.25500000920E-02 0. -1.
    10030    2    1    2    0    0  0.00000000000E+00  0.00000000000E+00  0.19846639884E+03  0.23060981649E+04  0.22975421290E+04 0.  0.
        3    1    3    3  502    0 -0.45068851237E+03 -0.80845440393E+03 -0.58370955393E+03  0.10942739657E+04  0.10100000352E+00 0. -1.
       -3    1    3    3    0  502  0.45068851237E+03  0.80845440393E+03  0.78217595277E+03  0.12118241992E+04  0.10100000352E+00 0.  1.
</event>
<event>
 5   0  0.4764214E-06  0.2538364E+04  0.7818609E-02  0.8389444E-01
        1   -1    0    0  501    0  0.00000000000E+00  0.00000000000E+00  0.23755908704E+04  0.23755908704E+04  0.50400001928E-02 0. -1.
       -1   -1    0    0    0  501  0.00000000000E+00  0.00000000000E+00 -0.67807239785E+03  0.67807239787E+03  0.50400001928E-02 0.  1.
    10030    2    1    2    0    0  0.00000000000E+00  0.00000000000E+00  0.16975184725E+04  0.30536632682E+04  0.25383637232E+04 0.  0.
        3    1    3    3  502    0 -0.10390175133E+04 -0.46891864933E+03  0.17746488147E+03  0.11536619466E+04  0.10100000352E+00 0.  1.
       -3    1    3    3    0  502  0.10390175133E+04  0.46891864933E+03  0.15200535910E+04  0.19000013217E+04  0.10100000352E+00 0. -1.
</event>
<event>
 5   0  0.1302063E-05  0.2827309E+04  0.7818609E-02  0.8294840E-01
        2   -1    0    0  501    0  0.00000000000E+00  0.00000000000E+00  0.13655043617E+04  0.13655043617E+04  0.25500000920E-02 0.  1.
       -2   -1    0    0    0  501  0.00000000000E+00  0.00000000000E+00 -0.14635024435E+04  0.14635024435E+04  0.25500000920E-02 0. -1.
    10030    2    1    2    0    0  0.00000000000E+00  0.00000000000E+00 -0.97998081884E+02  0.28290068052E+04  0.28273089466E+04 0.  0.
        2    1    3    3  502    0 -0.69129606179E+02 -0.69954783833E+02 -0.14600751130E+04  0.14633837192E+04  0.25500000920E-02 0. -1.
       -2    1    3    3    0  502  0.69129606179E+02  0.69954783833E+02  0.13620770311E+04  0.13656230859E+04  0.25500000920E-02 0.  1.
</event>
<event>
 5   0  0.1350863E-05  0.2832294E+04  0.7818609E-02  0.8293312E-01
       -2   -1    0    0    0  501  0.00000000000E+00  0.00000000000E+00  0.11061671825E+04  0.11061671825E+04  0.25500000920E-02 0. -1.
        2   -1    0    0  501    0  0.00000000000E+00  0.00000000000E+00 -0.18129922849E+04  0.18129922849E+04  0.25500000920E-02 0.  1.
    10030    2    1    2    0    0  0.00000000000E+00  0.00000000000E+00 -0.70682510234E+03  0.29191594674E+04  0.28322941709E+04 0.  0.
        3    1    3    3  502    0  0.14080832246E+04 -0.60422463842E+02 -0.21088426491E+03  0.14250689193E+04  0.10100000352E+00 0.  1.
       -3    1    3    3    0  502 -0.14080832246E+04  0.60422463842E+02 -0.49594083743E+03  0.14940905481E+04  0.10100000352E+00 0. -1.
</event>
<event>
 5   0  0.1302063E-05  0.3202342E+04  0.7818609E-02  0.8188199E-01
        2   -1    0    0  501    0  0.00000000000E+00  0.00000000000E+00  0.24018066073E+04  0.24018066073E+04  0.25500000920E-02 0. -1.
       -2   -1    0    0    0  501  0.00000000000E+00  0.00000000000E+00 -0.10674248789E+04  0.10674248789E+04  0.25500000920E-02 0.  1.
    10030    2    1    2    0    0  0.00000000000E+00  0.00000000000E+00  0.13343817284E+04  0.34692314862E+04  0.32023417225E+04 0.  0.
        2    1    3    3  502    0  0.75976448394E+03  0.10545629145E+04  0.16802188744E+04  0.21242599835E+04  0.25500000920E-02 0. -1.
       -2    1    3    3    0  502 -0.75976448394E+03 -0.10545629145E+04 -0.34583714593E+03  0.13449715027E+04  0.25500000920E-02 0.  1.
</event>
<event>
 5   0  0.1302063E-05  0.2846152E+04  0.7818609E-02  0.8289082E-01
        2   -1    0    0  501    0  0.00000000000E+00  0.00000000000E+00  0.18327823874E+04  0.18327823874E+04  0.25500000920E-02 0.  1.
       -2   -1    0    0    0  501  0.00000000000E+00  0.00000000000E+00 -0.11049565229E+04  0.11049565229E+04  0.25500000920E-02 0. -1.
    10030    2    1    2    0    0  0.00000000000E+00  0.00000000000E+00  0.72782586454E+03  0.29377389103E+04  0.28461516853E+04 0.  0.
        2    1    3    3  502    0  0.11281435961E+03  0.13961346291E+04  0.10437396861E+03  0.14045685842E+04  0.25500000920E-02 0.  1.
       -2    1    3    3    0  502 -0.11281435961E+03 -0.13961346291E+04  0.62345189593E+03  0.15331703261E+04  0.25500000920E-02 0. -1.
</event>
<event>
 5   0  0.5023691E-06  0.2828312E+04  0.7818609E-02  0.8294532E-01
       -1   -1    0    0    0  501  0.00000000000E+00  0.00000000000E+00  0.17688306720E+04  0.17688306720E+04  0.50400001928E-02 0.  1.
        1   -1    0    0  501    0  0.00000000000E+00  0.00000000000E+00 -0.11305986058E+04  0.11305986058E+04  0.50400001928E-02 0. -1.
    10030    2    1    2    0    0  0.00000000000E+00  0.00000000000E+00  0.63823206620E+03  0.28994292779E+04  0.28283122117E+04 0.  0.
        5    1    3    3  502    0 -0.11677031164E+04 -0.26712160515E+01  0.11368433802E+04  0.16297155164E+04  0.46999998093E+01 0.  1.
       -5    1    3    3    0  502  0.11677031164E+04  0.26712160515E+01 -0.49861131402E+03  0.12697137614E+04  0.46999998093E+01 0. -1.
</event>
<event>
 5   0  0.5217999E-06  0.2804333E+04  0.7818609E-02  0.8301924E-01
       -1   -1    0    0    0  501  0.00000000000E+00  0.00000000000E+00  0.14714690620E+04  0.14714690620E+04  0.50400001928E-02 0. -1.
        1   -1    0    0  501    0  0.00000000000E+00  0.00000000000E+00 -0.13361281433E+04  0.13361281433E+04  0.50400001928E-02 0.  1.
    10030    2    1    2    0    0  0.00000000000E+00  0.00000000000E+00  0.13534091869E+03  0.28075972052E+04  0.28043332367E+04 0.  0.
        1    1    3    3  502    0  0.75441471236E+03 -0.11724259759E+04  0.21733357444E+03  0.14110131501E+04  0.50400001928E-02 0. -1.
       -1    1    3    3    0  502 -0.75441471236E+03  0.11724259759E+04 -0.81992655752E+02  0.13965840551E+04  0.50400001928E-02 0.  1.
</event>
<event>
 5   0  0.1302063E-05  0.2795599E+04  0.7818609E-02  0.8304636E-01
        2   -1    0    0  501    0  0.00000000000E+00  0.00000000000E+00  0.23209004577E+04  0.23209004577E+04  0.25500000920E-02 0. -1.
       -2   -1    0    0    0  501  0.00000000000E+00  0.00000000000E+00 -0.84184724851E+03  0.84184724852E+03  0.25500000920E-02 0.  1.
    10030    2    1    2    0    0  0.00000000000E+00  0.00000000000E+00  0.14790532092E+04  0.31627477062E+04  0.27955991589E+04 0.  0.
        2    1    3    3  502    0  0.52411588286E+03  0.12234200363E+03  0.21989779458E+04  0.22638836169E+04  0.25500000920E-02 0. -1.
       -2    1    3    3    0  502 -0.52411588286E+03 -0.12234200363E+03 -0.71992473669E+03  0.89886408930E+03  0.25500000920E-02 0.  1.
</event>
<event>
 5   0  0.1302063E-05  0.2794576E+04  0.7818609E-02  0.8304954E-01
       -2   -1    0    0    0  501  0.00000000000E+00  0.00000000000E+00  0.72172374081E+03  0.72172374081E+03  0.25500000920E-02 0. -1.
        2   -1    0    0  501    0  0.00000000000E+00  0.00000000000E+00 -0.27052087190E+04  0.27052087190E+04  0.25500000920E-02 0.  1.
    10030    2    1    2    0    0  0.00000000000E+00  0.00000000000E+00 -0.19834849781E+04  0.34269324598E+04  0.27945757147E+04 0.  0.
        2    1    3    3  502    0 -0.51031732273E+03 -0.19376865676E+03  0.58556224819E+03  0.80053307784E+03  0.25500000920E-02 0. -1.
       -2    1    3    3    0  502  0.51031732273E+03  0.19376865676E+03 -0.25690472263E+04  0.26263993819E+04  0.25500000920E-02 0.  1.
</event>
<event>
 5   0  0.4447500E-06  0.2798265E+04  0.7818609E-02  0.8303807E-01
       -3   -1    0    0    0  501  0.00000000000E+00  0.00000000000E+00  0.10359078717E+04  0.10359078766E+04  0.10100000352E+00 0. -1.
        3   -1    0    0  501    0  0.00000000000E+00  0.00000000000E+00 -0.18897156485E+04  0.18897156512E+04  0.10100000352E+00 0.  1.
    10030    2    1    2    0    0  0.00000000000E+00  0.00000000000E+00 -0.85380777685E+03  0.29256235278E+04  0.27982646956E+04 0.  0.
        5    1    3    3  502    0  0.77706420994E+03 -0.83911293753E+03  0.41576308627E+03  0.12168896179E+04  0.46999998093E+01 0. -1.
       -5    1    3    3    0  502 -0.77706420994E+03  0.83911293753E+03 -0.12695708631E+04  0.17087339099E+04  0.46999998093E+01 0.  1.
</event>
<event>
 5   0  0.1350863E-05  0.2784352E+04  0.7818609E-02  0.8308143E-01
       -2   -1    0    0    0  501  0.00000000000E+00  0.00000000000E+00  0.19309414160E+04  0.19309414161E+04  0.25500000920E-02 0. -1.
        2   -1    0    0  501    0  0.00000000000E+00  0.00000000000E+00 -0.10037352523E+04  0.10037352523E+04  0.25500000920E-02 0.  1.
    10030    2    1    2    0    0  0.00000000000E+00  0.00000000000E+00  0.92720616375E+03  0.29346766684E+04  0.27843519673E+04 0.  0.
        3    1    3    3  502    0  0.46127174174E+03 -0.12171809076E+04 -0.56872258173E+02  0.13028950248E+04  0.10100000352E+00 0.  1.
       -3    1    3    3    0  502 -0.46127174174E+03  0.12171809076E+04  0.98407842192E+03  0.16317816436E+04  0.10100000352E+00 0. -1.
</event>
<event>
 5   0  0.5107453E-06  0.2788215E+04  0.7818609E-02  0.8306936E-01
       -1   -1    0    0    0  501  0.00000000000E+00  0.00000000000E+00  0.90123787782E+03  0.90123787783E+03  0.50400001928E-02 0. -1.
        1   -1    0    0  501    0  0.00000000000E+00  0.00000000000E+00 -0.21565187712E+04  0.21565187712E+04  0.50400001928E-02 0.  1.
    10030    2    1    2    0    0  0.00000000000E+00  0.00000000000E+00 -0.12552808934E+04  0.30577566490E+04  0.27882154872E+04 0.  0.
        2    1    3    3  502    0 -0.10792576753E+04 -0.16846003582E+02  0.33995424044E+03  0.11316579886E+04  0.25500000920E-02 0. -1.
       -2    1    3    3    0  502  0.10792576753E+04  0.16846003582E+02 -0.15952351338E+04  0.19260986604E+04  0.25500000920E-02 0.  1.
</event>
<event>
 5   0  0.5217999E-06  0.2758433E+04  0.7818609E-02  0.8316291E-01
        1   -1    0    0  501    0  0.00000000000E+00  0.00000000000E+00  0.10723188124E+04  0.10723188124E+04  0.50400001928E-02 0.  1.
       -1   -1    0    0    0  501  0.00000000000E+00  0.00000000000E+00 -0.17739486911E+04  0.17739486911E+04  0.50400001928E-02 0. -1.
    10030    2    1    2    0    0  0.00000000000E+00  0.00000000000E+00 -0.70162987871E+03  0.28462675036E+04  0.27584332900E+04 0.  0.
        1    1    3    3  502    0  0.10563460204E+04  0.63193742787E+03  0.29110919952E+03  0.12648938270E+04  0.50400001928E-02 0.  1.
       -1    1    3    3    0  502 -0.10563460204E+04 -0.63193742787E+03 -0.99273907823E+03  0.15813736766E+04  0.50400001928E-02 0. -1.
</event>
<event>
 5   0  0.1302063E-05  0.2861034E+04  0.7818609E-02  0.8284566E-01
       -2   -1    0    0    0  501  0.00000000000E+00  0.00000000000E+00  0.98529720131E+03  0.98529720131E+03  0.25500000920E-02 0.  1.
        2   -1    0    0  501    0  0.00000000000E+00  0.00000000000E+00 -0.20769157810E+04  0.20769157810E+04  0.25500000920E-02 0. -1.
    10030    2    1    2    0    0  0.00000000000E+00  0.00000000000E+00 -0.10916185797E+04  0.30622129823E+04  0.28610342930E+04 0.  0.
        2    1    3    3  502    0 -0.11137662427E+04  0.51917146981E+03 -0.13296766205E+04  0.18105397465E+04  0.25500000920E-02 0. -1.
       -2    1    3    3    0  502  0.11137662427E+04 -0.51917146981E+03  0.23805804086E+03  0.12516732358E+04  0.25500000920E-02 0.  1.
</event>
<event>
 5   0  0.1283052E-05  0.2772280E+04  0.7818609E-02  0.8311926E-01
        2   -1    0    0  501    0  0.00000000000E+00  0.00000000000E+00  0.23382693792E+04  0.23382693792E+04  0.25500000920E-02 0.  1.
       -2   -1    0    0    0  501  0.00000000000E+00  0.00000000000E+00 -0.82171178368E+03  0.82171178369E+03  0.25500000920E-02 0. -1.
    10030    2    1    2    0    0  0.00000000000E+00  0.00000000000E+00  0.15165575955E+04  0.31599811629E+04  0.27722795691E+04 0.  0.
        5    1    3    3  502    0 -0.74525583919E+03 -0.33665588115E+03  0.20340029779E+04  0.21922439765E+04  0.46999998093E+01 0.  1.
       -5    1    3    3    0  502  0.74525583919E+03  0.33665588115E+03 -0.51744538242E+03  0.96773718640E+03  0.46999998093E+01 0. -1.
</event>
<event>
 5   0  0.5107453E-06  0.2786388E+04  0.7818609E-02  0.8307507E-01
        1   -1    0    0  501    0  0.00000000000E+00  0.00000000000E+00  0.58731825600E+03  0.58731825602E+03  0.50400001928E-02 0. -1.
       -1   -1    0    0    0  501  0.00000000000E+00  0.00000000000E+00 -0.33048337965E+04  0.33048337965E+04  0.50400001928E-02 0.  1.
    10030    2    1    2    0    0  0.00000000000E+00  0.00000000000E+00 -0.27175155405E+04  0.38921520525E+04  0.27863877848E+04 0.  0.
        2    1    3    3  502    0 -0.46408826582E+03 -0.88194533799E+03  0.11293607601E+01  0.99659759840E+03  0.25500000920E-02 0. -1.
       -2    1    3    3    0  502  0.46408826582E+03  0.88194533799E+03 -0.27186449012E+04  0.28955544541E+04  0.25500000920E-02 0.  1.
</event>
<event>
 5   0  0.5023691E-06  0.2781906E+04  0.7818609E-02  0.8308908E-01
       -1   -1    0    0    0  501  0.00000000000E+00  0.00000000000E+00  0.85228688241E+03  0.85228688243E+03  0.50400001928E-02 0.  1.
        1   -1    0    0  501    0  0.00000000000E+00  0.00000000000E+00 -0.22700699337E+04  0.22700699337E+04  0.50400001928E-02 0. -1.
    10030    2    1    2    0    0  0.00000000000E+00  0.00000000000E+00 -0.14177830513E+04  0.31223568162E+04  0.27819064159E+04 0.  0.
        5    1    3    3  502    0 -0.25677466866E+03  0.40744677929E+03  0.75571046847E+03  0.89613978295E+03  0.46999998093E+01 0.  1.
       -5    1    3    3    0  502  0.25677466866E+03 -0.40744677929E+03 -0.21734935198E+04  0.22262170332E+04  0.46999998093E+01 0. -1.
</event>
<event>
 5   0  0.1330962E-05  0.2820339E+04  0.7818609E-02  0.8296982E-01
        2   -1    0    0  501    0  0.00000000000E+00  0.00000000000E+00  0.10774025418E+04  0.10774025418E+04  0.25500000920E-02 0.  1.
       -2   -1    0    0    0  501  0.00000000000E+00  0.00000000000E+00 -0.18457147127E+04  0.18457147127E+04  0.25500000920E-02 0. -1.
    10030    2    1    2    0    0  0.00000000000E+00  0.00000000000E+00 -0.76831217095E+03  0.29231172545E+04  0.28203387902E+04 0.  0.
        4    1    3    3  502    0  0.78960119866E+03 -0.91313341051E+03  0.37130514079E+03  0.12629931903E+04  0.12699999809E+01 0. -1.
       -4    1    3    3    0  502 -0.78960119866E+03  0.91313341051E+03 -0.11396173117E+04  0.16601240642E+04  0.12699999809E+01 0.  1.
</event>
<event>
 5   0  0.4764214E-06  0.2870414E+04  0.7818609E-02  0.8281735E-01
       -1   -1    0    0    0  501  0.00000000000E+00  0.00000000000E+00  0.12404295074E+04  0.12404295074E+04  0.50400001928E-02 0. -1.
        1   -1    0    0  501    0  0.00000000000E+00  0.00000000000E+00 -0.16605698487E+04  0.16605698487E+04  0.50400001928E-02 0.  1.
    10030    2    1    2    0    0  0.00000000000E+00  0.00000000000E+00 -0.42014034133E+03  0.29009993561E+04  0.28704144923E+04 0.  0.
        3    1    3    3  502    0  0.84472799935E+02  0.85057025551E+03  0.95513000033E+03  0.12817483143E+04  0.10100000352E+00 0. -1.
       -3    1    3    3    0  502 -0.84472799935E+02 -0.85057025551E+03 -0.13752703417E+04  0.16192510418E+04  0.10100000352E+00 0.  1.
</event>
<event>
 5   0  0.5107453E-06  0.2847378E+04  0.7818609E-02  0.8288709E-01
       -1   -1    0    0    0  501  0.00000000000E+00  0.00000000000E+00  0.89477676142E+03  0.89477676143E+03  0.50400001928E-02 0.  1.
        1   -1    0    0  501    0  0.00000000000E+00  0.00000000000E+00 -0.22652465348E+04  0.22652465348E+04  0.50400001928E-02 0. -1.
    10030    2    1    2    0    0  0.00000000000E+00  0.00000000000E+00 -0.13704697734E+04  0.31600232962E+04  0.28473777117E+04 0.  0.
        2    1    3    3  502    0  0.11083095427E+04 -0.78174805755E+03 -0.11656774289E+04  0.17883746633E+04  0.25500000920E-02 0. -1.
       -2    1    3    3    0  502 -0.11083095427E+04  0.78174805755E+03 -0.20479234450E+03  0.13716486330E+04  0.25500000920E-02 0.  1.
</event>
<event>
 5   0  0.1302063E-05  0.2789608E+04  0.7818609E-02  0.8306502E-01
        2   -1    0    0  501    0  0.00000000000E+00  0.00000000000E+00  0.17515626163E+04  0.17515626163E+04  0.25500000920E-02 0.  1.
       -2   -1    0    0    0  501  0.00000000000E+00  0.00000000000E+00 -0.11107101657E+04  0.11107101657E+04  0.25500000920E-02 0. -1.
    10030    2    1    2    0    0  0.00000000000E+00  0.00000000000E+00  0.64085245066E+03  0.28622727820E+04  0.27896081473E+04 0.  0.
        2    1    3    3  502    0  0.74455626232E+03  0.11634824907E+04  0.12193726250E+03  0.13866954352E+04  0.25500000920E-02 0.  1.
       -2    1    3    3    0  502 -0.74455626232E+03 -0.11634824907E+04  0.51891518817E+03  0.14755773468E+04  0.25500000920E-02 0. -1.
</event>
<event>
 5   0  0.1283052E-05  0.2856538E+04  0.7818609E-02  0.8285927E-01
        2   -1    0    0  501    0  0.00000000000E+00  0.00000000000E+00  0.23571951767E+04  0.23571951767E+04  0.25500000920E-02 0. -1.
       -2   -1    0    0    0  501  0.00000000000E+00  0.00000000000E+00 -0.86541523147E+03  0.86541523147E+03  0.25500000920E-02 0.  1.
    10030    2    1    2    0    0  0.00000000000E+00  0.00000000000E+00  0.14917799452E+04  0.32226104081E+04  0.28565381912E+04 0.  0.
        5    1    3    3  502    0  0.43404946926E+03 -0.57489472562E+03  0.21372397488E+04  0.22553755166E+04  0.46999998093E+01 0. -1.
       -5    1    3    3    0  502 -0.43404946926E+03  0.57489472562E+03 -0.64545980358E+03  0.96723489150E+03  0.46999998093E+01 0.  1.
</event>
<event>
 5   0  0.5281919E-06  0.2859818E+04  0.7818609E-02  0.8284934E-01
        1   -1    0    0  501    0  0.00000000000E+00  0.00000000000E+00  0.22477626681E+04  0.22477626681E+04  0.50400001928E-02 0.  1.
       -1   -1    0    0    0  501  0.00000000000E+00  0.00000000000E+00 -0.90963309109E+03  0.90963309111E+03  0.50400001928E-02 0. -1.
    10030    2    1    2    0    0  0.00000000000E+00  0.00000000000E+00  0.13381295770E+04  0.31573957592E+04  0.28598176892E+04 0.  0.
        4    1    3    3  502    0 -0.72778548924E+03 -0.86223046743E+03  0.16388276774E+04  0.19896911485E+04  0.12699999809E+01 0. -1.
       -4    1    3    3    0  502  0.72778548924E+03  0.86223046743E+03 -0.30069810042E+03  0.11677046107E+04  0.12699999809E+01 0.  1.
</event>
<event>
 5   0  0.1283052E-05  0.2786788E+04  0.7818609E-02  0.8307382E-01
        2   -1    0    0  501    0  0.00000000000E+00  0.00000000000E+00  0.12921693960E+04  0.12921693960E+04  0.25500000920E-02 0.  1.
       -2   -1    0    0    0  501  0.00000000000E+00  0.00000000000E+00 -0.15025482533E+04  0.15025482533E+04  0.25500000920E-02 0. -1.
    10030    2    1    2    0    0  0.00000000000E+00  0.00000000000E+00 -0.21037885727E+03  0.27947176493E+04  0.27867880213E+04 0.  0.
        5    1    3    3  502    0 -0.11718493920E+04 -0.67937534190E+03 -0.43283443611E+03  0.14220230630E+04  0.46999998093E+01 0.  1.
       -5    1    3    3    0  502  0.11718493920E+04  0.67937534190E+03  0.22245557884E+03  0.13726945863E+04  0.46999998093E+01 0. -1.
</event>
<event>
 5   0  0.4764214E-06  0.2283854E+04  0.7818609E-02  0.8484315E-01
       -1   -1    0    0    0  501  0.00000000000E+00  0.00000000000E+00  0.46103527756E+03  0.46103527758E+03  0.50400001928E-02 0. -1.
        1   -1    0    0  501    0  0.00000000000E+00  0.00000000000E+00 -0.28284111595E+04  0.28284111595E+04  0.50400001928E-02 0.  1.
    10030    2    1    2    0    0  0.00000000000E+00  0.00000000000E+00 -0.23673758820E+04  0.32894464371E+04  0.22838540444E+04 0.  0.
        3    1    3    3  502    0 -0.56806485598E+03 -0.33347725146E+03  0.15981060226E+03  0.67782313080E+03  0.10100000352E+00 0. -1.
       -3    1    3    3    0  502  0.56806485598E+03  0.33347725146E+03 -0.25271864842E+04  0.26116233063E+04  0.10100000352E+00 0.  1.
</event>
<event>
 5   0  0.1302063E-05  0.2813737E+04  0.7818609E-02  0.8299016E-01
       -2   -1    0    0    0  501  0.00000000000E+00  0.00000000000E+00  0.14005385988E+04  0.14005385988E+04  0.25500000920E-02 0. -1.
        2   -1    0    0  501    0  0.00000000000E+00  0.00000000000E+00 -0.14132274201E+04  0.14132274201E+04  0.25500000920E-02 0.  1.
    10030    2    1    2    0    0  0.00000000000E+00  0.00000000000E+00 -0.12688821316E+02  0.28137660189E+04  0.28137374083E+04 0.  0.
        2    1    3    3  502    0  0.70973256104E+03 -0.13241698207E+03 -0.12138437425E+04  0.14123282892E+04  0.25500000920E-02 0.  1.
       -2    1    3    3    0  502 -0.70973256104E+03  0.13241698207E+03  0.12011549212E+04  0.14014377296E+04  0.25500000920E-02 0. -1.
</event>
<event>
 5   0  0.1350863E-05  0.2805016E+04  0.7818609E-02  0.8301713E-01
        2   -1    0    0  501    0  0.00000000000E+00  0.00000000000E+00  0.24553933644E+04  0.24553933644E+04  0.25500000920E-02 0. -1.
       -2   -1    0    0    0  501  0.00000000000E+00  0.00000000000E+00 -0.80110532574E+03  0.80110532574E+03  0.25500000920E-02 0.  1.
    10030    2    1    2    0    0  0.00000000000E+00  0.00000000000E+00  0.16542880386E+04  0.32564986901E+04  0.28050160078E+04 0.  0.
        3    1    3    3  502    0 -0.56885923495E+03  0.12049196957E+04  0.31897378499E+03  0.13701009408E+04  0.10100000352E+00 0. -1.
       -3    1    3    3    0  502  0.56885923495E+03 -0.12049196957E+04  0.13353142536E+04  0.18863977493E+04  0.10100000352E+00 0.  1.
</event>
<event>
 5   0  0.1388269E-05  0.2784725E+04  0.7818609E-02  0.8308026E-01
       -2   -1    0    0    0  501  0.00000000000E+00  0.00000000000E+00  0.15235241154E+04  0.15235241154E+04  0.25500000920E-02 0.  1.
        2   -1    0    0  501    0  0.00000000000E+00  0.00000000000E+00 -0.12724926293E+04  0.12724926293E+04  0.25500000920E-02 0. -1.
    10030    2    1    2    0    0  0.00000000000E+00  0.00000000000E+00  0.25103148611E+03  0.27960167447E+04  0.27847249109E+04 0.  0.
        1    1    3    3  502    0 -0.55005188813E+03 -0.26840129057E+03  0.13812175396E+04  0.15107475713E+04  0.50400001928E-02 0.  1.
       -1    1    3    3    0  502  0.55005188813E+03  0.26840129057E+03 -0.11301860535E+04  0.12852691734E+04  0.50400001928E-02 0. -1.
</event>
<event>
 5   0  0.5217999E-06  0.2713794E+04  0.7818609E-02  0.8330543E-01
        1   -1    0    0  501    0  0.00000000000E+00  0.00000000000E+00  0.14916109848E+04  0.14916109848E+04  0.50400001928E-02 0.  1.
       -1   -1    0    0    0  501  0.00000000000E+00  0.00000000000E+00 -0.12343499066E+04  0.12343499066E+04  0.50400001928E-02 0. -1.
    10030    2    1    2    0    0  0.00000000000E+00  0.00000000000E+00  0.25726107819E+03  0.27259608915E+04  0.27137943031E+04 0.  0.
        1    1    3    3  502    0 -0.12140019233E+04 -0.58572444276E+03  0.28520137260E+03  0.13777567331E+04  0.50400001928E-02 0. -1.
       -1    1    3    3    0  502  0.12140019233E+04  0.58572444276E+03 -0.27940294404E+02  0.13482041584E+04  0.50400001928E-02 0.  1.
</event>
<event>
 5   0  0.1350863E-05  0.2806744E+04  0.7818609E-02  0.8301178E-01
        2   -1    0    0  501    0  0.00000000000E+00  0.00000000000E+00  0.15352059443E+04  0.15352059443E+04  0.25500000920E-02 0. -1.
       -2   -1    0    0    0  501  0.00000000000E+00  0.00000000000E+00 -0.12828590008E+04  0.12828590008E+04  0.25500000920E-02 0.  1.
    10030    2    1    2    0    0  0.00000000000E+00  0.00000000000E+00  0.25234694347E+03  0.28180649452E+04  0.28067438528E+04 0.  0.
        3    1    3    3  502    0  0.50197508916E+03  0.10466009252E+03 -0.11854340916E+04  0.12915830290E+04  0.10100000352E+00 0.  1.
       -3    1    3    3    0  502 -0.50197508916E+03 -0.10466009252E+03  0.14377810351E+04  0.15264819161E+04  0.10100000352E+00 0. -1.
</event>
<event>
 5   0  0.5281919E-06  0.2828801E+04  0.7818609E-02  0.8294382E-01
        1   -1    0    0  501    0  0.00000000000E+00  0.00000000000E+00  0.17010816142E+04  0.17010816142E+04  0.50400001928E-02 0.  1.
       -1   -1    0    0    0  501  0.00000000000E+00  0.00000000000E+00 -0.11760333915E+04  0.11760333915E+04  0.50400001928E-02 0. -1.
    10030    2    1    2    0    0  0.00000000000E+00  0.00000000000E+00  0.52504822262E+03  0.28771150057E+04  0.28288010040E+04 0.  0.
        4    1    3    3  502    0  0.24526144129E+03  0.10958172375E+04 -0.61213960884E+03  0.12789390550E+04  0.12699999809E+01 0. -1.
       -4    1    3    3    0  502 -0.24526144129E+03 -0.10958172375E+04  0.11371878315E+04  0.15981759508E+04  0.12699999809E+01 0.  1.
</event>
<event>
 5   0  0.1283052E-05  0.2668142E+04  0.7818609E-02  0.8345416E-01
       -2   -1    0    0    0  501  0.00000000000E+00  0.00000000000E+00  0.14468927053E+04  0.14468927053E+04  0.25500000920E-02 0. -1.
        2   -1    0    0  501    0  0.00000000000E+00  0.00000000000E+00 -0.12300464126E+04  0.12300464126E+04  0.25500000920E-02 0.  1.
    10030    2    1    2    0    0  0.00000000000E+00  0.00000000000E+00  0.21684629262E+03  0.26769391179E+04  0.26681418115E+04 0.  0.
        5    1    3    3  502    0  0.51486820790E+03  0.14187609407E+03  0.13349534163E+04  0.14378250281E+04  0.46999998093E+01 0. -1.
       -5    1    3    3    0  502 -0.51486820790E+03 -0.14187609407E+03 -0.11181071237E+04  0.12391140898E+04  0.46999998093E+01 0.  1.
</event>
<event>
 5   0  0.5281919E-06  0.2800504E+04  0.7818609E-02  0.8303112E-01
       -1   -1    0    0    0  501  0.00000000000E+00  0.00000000000E+00  0.11495899550E+04  0.11495899550E+04  0.50400001928E-02 0.  1.
        1   -1    0    0  501    0  0.00000000000E+00  0.00000000000E+00 -0.17055693407E+04  0.17055693407E+04  0.50400001928E-02 0. -1.
    10030    2    1    2    0    0  0.00000000000E+00  0.00000000000E+00 -0.55597938576E+03  0.28551592957E+04  0.28005037987E+04 0.  0.
        4    1    3    3  502    0 -0.90660471874E+03 -0.36175567888E+03  0.74554805864E+03  0.12282682150E+04  0.12699999809E+01 0.  1.
       -4    1    3    3    0  502  0.90660471874E+03  0.36175567888E+03 -0.13015274444E+04  0.16268910808E+04  0.12699999809E+01 0. -1.
</event>
<event>
 5   0  0.4764214E-06  0.2809259E+04  0.7818609E-02  0.8300400E-01
       -1   -1    0    0    0  501  0.00000000000E+00  0.00000000000E+00  0.94178374041E+03  0.94178374042E+03  0.50400001928E-02 0.  1.
        1   -1    0    0  501    0  0.00000000000E+00  0.00000000000E+00 -0.20949433641E+04  0.20949433641E+04  0.50400001928E-02 0. -1.
    10030    2    1    2    0    0  0.00000000000E+00  0.00000000000E+00 -0.11531596237E+04  0.30367271045E+04  0.28092586904E+04 0.  0.
        3    1    3    3  502    0  0.13326782091E+03  0.25560046623E+02  0.93468177133E+03  0.94448062549E+03  0.10100000352E+00 0.  1.
       -3    1    3    3    0  502 -0.13326782091E+03 -0.25560046623E+02 -0.20878413950E+04  0.20922464790E+04  0.10100000352E+00 0. -1.
</event>
<event>
 5   0  0.1388269E-05  0.2783659E+04  0.7818609E-02  0.8308360E-01
        2   -1    0    0  501    0  0.00000000000E+00  0.00000000000E+00  0.21531834861E+04  0.21531834861E+04  0.25500000920E-02 0.  1.
       -2   -1    0    0    0  501  0.00000000000E+00  0.00000000000E+00 -0.89968590901E+03  0.89968590901E+03  0.25500000920E-02 0. -1.
    10030    2    1    2    0    0  0.00000000000E+00  0.00000000000E+00  0.12534975771E+04  0.30528693951E+04  0.27836586299E+04 0.  0.
        1    1    3    3  502    0 -0.80612984415E+03 -0.57953724867E+03  0.16965229483E+04  0.19656802543E+04  0.50400001928E-02 0.  1.
       -1    1    3    3    0  502  0.80612984415E+03  0.57953724867E+03 -0.44302537121E+03  0.10871891408E+04  0.50400001928E-02 0. -1.
</event>
<event>
 5   0  0.1330962E-05  0.2798033E+04  0.7818609E-02  0.8303879E-01
        2   -1    0    0  501    0  0.00000000000E+00  0.00000000000E+00  0.23478475093E+04  0.23478475093E+04  0.25500000920E-02 0.  1.
       -2   -1    0    0    0  501  0.00000000000E+00  0.00000000000E+00 -0.83363490512E+03  0.83363490512E+03  0.25500000920E-02 0. -1.
    10030    2    1    2    0    0  0.00000000000E+00  0.00000000000E+00  0.15142126042E+04  0.31814824145E+04  0.27980333348E+04 0.  0.
        4    1    3    3  502    0  0.13127582654E+04 -0.39483126528E+03  0.43950688008E+03  0.14395811550E+04  0.12699999809E+01 0. -1.
       -4    1    3    3    0  502 -0.13127582654E+04  0.39483126528E+03  0.10747057241E+04  0.17419012594E+04  0.12699999809E+01 0.  1.
</event>
<event>
 5   0  0.1350863E-05  0.2828993E+04  0.7818609E-02  0.8294323E-01
        2   -1    0    0  501    0  0.00000000000E+00  0.00000000000E+00  0.17348343403E+04  0.17348343403E+04  0.25500000920E-02 0. -1.
       -2   -1    0    0    0  501  0.00000000000E+00  0.00000000000E+00 -0.11533088672E+04  0.11533088672E+04  0.25500000920E-02 0.  1.
    10030    2    1    2    0    0  0.00000000000E+00  0.00000000000E+00  0.58152547316E+03  0.28881432075E+04  0.28289926318E+04 0.  0.
        3    1    3    3  502    0  0.95524060050E+00  0.43865718144E+02 -0.11526139736E+04  0.11534487835E+04  0.10100000352E+00 0.  1.
       -3    1    3    3    0  502 -0.95524060050E+00 -0.43865718144E+02  0.17341394468E+04  0.17346944240E+04  0.10100000352E+00 0. -1.
</event>
<event>
 5   0  0.5281919E-06  0.2834989E+04  0.7818609E-02  0.8292487E-01
        1   -1    0    0  501    0  0.00000000000E+00  0.00000000000E+00  0.10366383982E+04  0.10366383982E+04  0.50400001928E-02 0. -1.
       -1   -1    0    0    0  501  0.00000000000E+00  0.00000000000E+00 -0.19382753109E+04  0.19382753109E+04  0.50400001928E-02 0.  1.
    10030    2    1    2    0    0  0.00000000000E+00  0.00000000000E+00 -0.90163691274E+03  0.29749137091E+04  0.28349889690E+04 0.  0.
        4    1    3    3  502    0 -0.50965600387E+03  0.10896105424E+04  0.33605092844E+03  0.12489724640E+04  0.12699999809E+01 0. -1.
       -4    1    3    3    0  502  0.50965600387E+03 -0.10896105424E+04 -0.12376878412E+04  0.17259412451E+04  0.12699999809E+01 0.  1.
</event>
<event>
 5   0  0.5107453E-06  0.2789142E+04  0.7818609E-02  0.8306647E-01
        1   -1    0    0  501    0  0.00000000000E+00  0.00000000000E+00  0.17822361745E+04  0.17822361745E+04  0.50400001928E-02 0.  1.
       -1   -1    0    0    0  501  0.00000000000E+00  0.00000000000E+00 -0.10912292105E+04  0.10912292105E+04  0.50400001928E-02 0. -1.
    10030    2    1    2    0    0  0.00000000000E+00  0.00000000000E+00  0.69100696397E+03  0.28734653850E+04  0.27891419280E+04 0.  0.
        2    1    3    3  502    0 -0.11973347430E+03 -0.11481631889E+04  0.11515994652E+04  0.16305815347E+04  0.25500000920E-02 0. -1.
       -2    1    3    3    0  502  0.11973347430E+03  0.11481631889E+04 -0.46059250118E+03  0.12428838503E+04  0.25500000920E-02 0.  1.
</event>
<event>
 5   0  0.1283052E-05  0.2804817E+04  0.7818609E-02  0.8301775E-01
        2   -1    0    0  501    0  0.00000000000E+00  0.00000000000E+00  0.12904963043E+04  0.12904963043E+04  0.25500000920E-02 0. -1.
       -2   -1    0    0    0  501  0.00000000000E+00  0.00000000000E+00 -0.15240255072E+04  0.15240255072E+04  0.25500000920E-02 0.  1.
    10030    2    1    2    0    0  0.00000000000E+00  0.00000000000E+00 -0.23352920284E+03  0.28145218115E+04  0.28048167746E+04 0.  0.
        5    1    3    3  502    0  0.38665495677E+03 -0.10432851670E+04  0.73987609547E+03  0.13361828924E+04  0.46999998093E+01 0. -1.
       -5    1    3    3    0  502 -0.38665495677E+03  0.10432851670E+04 -0.97340529831E+03  0.14783389192E+04  0.46999998093E+01 0.  1.
</event>
<event>
 5   0  0.5217999E-06  0.2718677E+04  0.7818609E-02  0.8328970E-01
       -1   -1    0    0    0  501  0.00000000000E+00  0.00000000000E+00  0.10287831661E+04  0.10287831661E+04  0.50400001928E-02 0. -1.
        1   -1    0    0  501    0  0.00000000000E+00  0.00000000000E+00 -0.17961035889E+04  0.17961035889E+04  0.50400001928E-02 0.  1.
    10030    2    1    2    0    0  0.00000000000E+00  0.00000000000E+00 -0.76732042278E+03  0.28248867551E+04  0.27186769848E+04 0.  0.
        1    1    3    3  502    0  0.11403560378E+03 -0.12307598058E+04  0.20414977209E+03  0.12527772938E+04  0.50400001928E-02 0. -1.
       -1    1    3    3    0  502 -0.11403560378E+03  0.12307598058E+04 -0.97147019488E+03  0.15721094612E+04  0.50400001928E-02 0.  1.
</event>
<event>
 5   0  0.1350863E-05  0.2730668E+04  0.7818609E-02  0.8325122E-01
        2   -1    0    0  501    0  0.00000000000E+00  0.00000000000E+00  0.15022134734E+04  0.15022134734E+04  0.25500000920E-02 0.  1.
       -2   -1    0    0    0  501  0.00000000000E+00  0.00000000000E+00 -0.12409266178E+04  0.12409266178E+04  0.25500000920E-02 0. -1.
    10030    2    1    2    0    0  0.00000000000E+00  0.00000000000E+00  0.26128685560E+03  0.27431400912E+04  0.27306678192E+04 0.  0.
        3    1    3    3  502    0 -0.10045051784E+04  0.60694954867E+03  0.83148190615E+03  0.14383256163E+04  0.10100000352E+00 0.  1.
       -3    1    3    3    0  502  0.10045051784E+04 -0.60694954867E+03 -0.57019505055E+03  0.13048144749E+04  0.10100000352E+00 0. -1.
</event>
<event>
 5   0  0.5107453E-06  0.2790571E+04  0.7818609E-02  0.8306202E-01
        1   -1    0    0  501    0  0.00000000000E+00  0.00000000000E+00  0.14752201941E+04  0.14752201942E+04  0.50400001928E-02 0.  1.
       -1   -1    0    0    0  501  0.00000000000E+00  0.00000000000E+00 -0.13196820226E+04  0.13196820226E+04  0.50400001928E-02 0. -1.
    10030    2    1    2    0    0  0.00000000000E+00  0.00000000000E+00  0.15553817151E+03  0.27949022168E+04  0.27905709593E+04 0.  0.
        2    1    3    3  502    0 -0.10087749242E+02 -0.12805427449E+03 -0.13137475984E+04  0.13200122773E+04  0.25500000920E-02 0. -1.
       -2    1    3    3    0  502  0.10087749242E+02  0.12805427449E+03  0.14692857699E+04  0.14748899395E+04  0.25500000920E-02 0.  1.
</event>
<event>
 5   0  0.5281919E-06  0.2752841E+04  0.7818609E-02  0.8318061E-01
       -1   -1    0    0    0  501  0.00000000000E+00  0.00000000000E+00  0.14563587827E+04  0.14563587827E+04  0.50400001928E-02 0.  1.
        1   -1    0    0  501    0  0.00000000000E+00  0.00000000000E+00 -0.13008704245E+04  0.13008704245E+04  0.50400001928E-02 0. -1.
    10030    2    1    2    0    0  0.00000000000E+00  0.00000000000E+00  0.15548835816E+03  0.27572292072E+04  0.27528414904E+04 0.  0.
        4    1    3    3  502    0 -0.72159459221E+03  0.76562539807E+03 -0.81116768621E+03  0.13284862189E+04  0.12699999809E+01 0. -1.
       -4    1    3    3    0  502  0.72159459221E+03 -0.76562539807E+03  0.96665604437E+03  0.14287429883E+04  0.12699999809E+01 0.  1.
</event>
<event>
 5   0  0.4447500E-06  0.2777734E+04  0.7818609E-02  0.8310215E-01
       -3   -1    0    0    0  501  0.00000000000E+00  0.00000000000E+00  0.91704236153E+03  0.91704236709E+03  0.10100000352E+00 0. -1.
        3   -1    0    0  501    0  0.00000000000E+00  0.00000000000E+00 -0.21034483815E+04  0.21034483840E+04  0.10100000352E+00 0.  1.
    10030    2    1    2    0    0  0.00000000000E+00  0.00000000000E+00 -0.11864060200E+04  0.30204907510E+04  0.27777338125E+04 0.  0.
        2    1    3    3  502    0 -0.54185378654E+02  0.13823830404E+04 -0.45988143541E+03  0.14578785478E+04  0.25500000920E-02 0. -1.
       -2    1    3    3    0  502  0.54185378654E+02 -0.13823830404E+04 -0.72652458459E+03  0.15626122032E+04  0.25500000920E-02 0.  1.
</event>
<event>
 5   0  0.1330962E-05  0.2801614E+04  0.7818609E-02  0.8302767E-01
       -2   -1    0    0    0  501  0.00000000000E+00  0.00000000000E+00  0.71814493831E+03  0.71814493832E+03  0.25500000920E-02 0.  1.
        2   -1    0    0  501    0  0.00000000000E+00  0.00000000000E+00 -0.27324022060E+04  0.27324022060E+04  0.25500000920E-02 0. -1.
    10030    2    1    2    0    0  0.00000000000E+00  0.00000000000E+00 -0.20142572676E+04  0.34505471443E+04  0.28016144015E+04 0.  0.
        4    1    3    3  502    0  0.13670232212E+03 -0.12955488284E+04 -0.16412974324E+04  0.20954696767E+04  0.12699999809E+01 0. -1.
       -4    1    3    3    0  502 -0.13670232212E+03  0.12955488284E+04 -0.37295983526E+03  0.13550774676E+04  0.12699999809E+01 0.  1.
</event>
<event>
 5   0  0.5023691E-06  0.2914937E+04  0.7818609E-02  0.8268447E-01
        1   -1    0    0  501    0  0.00000000000E+00  0.00000000000E+00  0.15666625875E+04  0.15666625875E+04  0.50400001928E-02 0. -1.
       -1   -1    0    0    0  501  0.00000000000E+00  0.00000000000E+00 -0.13558850963E+04  0.13558850963E+04  0.50400001928E-02 0.  1.
    10030    2    1    2    0    0  0.00000000000E+00  0.00000000000E+00  0.21077749122E+03  0.29225476838E+04  0.29149370171E+04 0.  0.
        5    1    3    3  502    0 -0.10422286236E+04  0.13067792999E+03 -0.90763294393E+03  0.13882135557E+04  0.46999998093E+01 0.  1.
       -5    1    3    3    0  502  0.10422286236E+04 -0.13067792999E+03  0.11184104352E+04  0.15343341281E+04  0.46999998093E+01 0. -1.
</event>
<event>
 5   0  0.1302063E-05  0.2834483E+04  0.7818609E-02  0.8292642E-01
        2   -1    0    0  501    0  0.00000000000E+00  0.00000000000E+00  0.10434838492E+04  0.10434838492E+04  0.25500000920E-02 0. -1.
       -2   -1    0    0    0  501  0.00000000000E+00  0.00000000000E+00 -0.19248719267E+04  0.19248719267E+04  0.25500000920E-02 0.  1.
    10030    2    1    2    0    0  0.00000000000E+00  0.00000000000E+00 -0.88138807747E+03  0.29683557759E+04  0.28344825047E+04 0.  0.
        2    1    3    3  502    0  0.11761997890E+04  0.77918756934E+03 -0.58116956457E+03  0.15258890112E+04  0.25500000920E-02 0. -1.
       -2    1    3    3    0  502 -0.11761997890E+04 -0.77918756934E+03 -0.30021851290E+03  0.14424667647E+04  0.25500000920E-02 0.  1.
</event>
<event>
 5   0  0.5281919E-06  0.2658758E+04  0.7818609E-02  0.8348512E-01
       -1   -1    0    0    0  501  0.00000000000E+00  0.00000000000E+00  0.85367415949E+03  0.85367415950E+03  0.50400001928E-02 0. -1.
        1   -1    0    0  501    0  0.00000000000E+00  0.00000000000E+00 -0.20701682498E+04  0.20701682498E+04  0.50400001928E-02 0.  1.
    10030    2    1    2    0    0  0.00000000000E+00  0.00000000000E+00 -0.12164940904E+04  0.29238424094E+04  0.26587584627E+04 0.  0.
        4    1    3    3  502    0 -0.76434277935E+03  0.58607039980E+02 -0.18026232517E+04  0.19588534580E+04  0.12699999809E+01 0.  1.
       -4    1    3    3    0  502  0.76434277935E+03 -0.58607039980E+02  0.58612916136E+03  0.96498895133E+03  0.12699999809E+01 0. -1.
</event>
<event>
 5   0  0.5217999E-06  0.2819475E+04  0.7818609E-02  0.8297248E-01
        1   -1    0    0  501    0  0.00000000000E+00  0.00000000000E+00  0.23839700855E+04  0.23839700855E+04  0.50400001928E-02 0. -1.
       -1   -1    0    0    0  501  0.00000000000E+00  0.00000000000E+00 -0.83363444108E+03  0.83363444109E+03  0.50400001928E-02 0.  1.
    10030    2    1    2    0    0  0.00000000000E+00  0.00000000000E+00  0.15503356444E+04  0.32176045266E+04  0.28194748233E+04 0.  0.
        1    1    3    3  502    0 -0.91630563796E+03 -0.71103552892E+03  0.16896813504E+04  0.20494415365E+04  0.50400001928E-02 0. -1.
       -1    1    3    3    0  502  0.91630563796E+03  0.71103552892E+03 -0.13934570602E+03  0.11681629901E+04  0.50400001928E-02 0.  1.
</event>
<event>
 5   0  0.1302063E-05  0.2134403E+04  0.7818609E-02  0.8546238E-01
        2   -1    0    0  501    0  0.00000000000E+00  0.00000000000E+00  0.11354278872E+04  0.11354278872E+04  0.25500000920E-02 0. -1.
       -2   -1    0    0    0  501  0.00000000000E+00  0.00000000000E+00 -0.10030746879E+04  0.10030746879E+04  0.25500000920E-02 0.  1.
    10030    2    1    2    0    0  0.00000000000E+00  0.00000000000E+00  0.13235319926E+03  0.21385025752E+04  0.21344029363E+04 0.  0.
        2    1    3    3  502    0 -0.40102581041E+03 -0.19739309594E+03  0.10371268404E+04  0.11293439768E+04  0.25500000920E-02 0. -1.
       -2    1    3    3    0  502  0.40102581041E+03  0.19739309594E+03 -0.90477364112E+03  0.10091585983E+04  0.25500000920E-02 0.  1.
</event>
<event>
 5   0  0.1330962E-05  0.2800889E+04  0.7818609E-02  0.8302993E-01
       -2   -1    0    0    0  501  0.00000000000E+00  0.00000000000E+00  0.11429444260E+04  0.11429444260E+04  0.25500000920E-02 0. -1.
        2   -1    0    0  501    0  0.00000000000E+00  0.00000000000E+00 -0.17159575839E+04  0.17159575839E+04  0.25500000920E-02 0.  1.
    10030    2    1    2    0    0  0.00000000000E+00  0.00000000000E+00 -0.57301315789E+03  0.28589020099E+04  0.28008885417E+04 0.  0.
        4    1    3    3  502    0  0.45532058561E+03 -0.96113548411E+02 -0.16347313952E+04  0.16996773215E+04  0.12699999809E+01 0.  1.
       -4    1    3    3    0  502 -0.45532058561E+03  0.96113548411E+02  0.10617182373E+04  0.11592246884E+04  0.12699999809E+01 0. -1.
</event>
<event>
 5   0  0.5107453E-06  0.2587807E+04  0.7818609E-02  0.8372355E-01
       -1   -1    0    0    0  501  0.00000000000E+00  0.00000000000E+00  0.18266615430E+04  0.18266615430E+04  0.50400001928E-02 0. -1.
        1   -1    0    0  501    0  0.00000000000E+00  0.00000000000E+00 -0.91652777746E+03  0.91652777747E+03  0.50400001928E-02 0.  1.
    10030    2    1    2    0    0  0.00000000000E+00  0.00000000000E+00  0.91013376557E+03  0.27431893205E+04  0.25878068276E+04 0.  0.
        2    1    3    3  502    0  0.77119062096E+03 -0.88374201961E+03 -0.12404240272E+03  0.11794581166E+04  0.25500000920E-02 0. -1.
       -2    1    3    3    0  502 -0.77119062096E+03  0.88374201961E+03  0.10341761683E+04  0.15637312039E+04  0.25500000920E-02 0.  1.
</event>
<event>
 5   0  0.5217999E-06  0.2813442E+04  0.7818609E-02  0.8299107E-01
        1   -1    0    0  501    0  0.00000000000E+00  0.00000000000E+00  0.18772362805E+04  0.18772362805E+04  0.50400001928E-02 0. -1.
       -1   -1    0    0    0  501  0.00000000000E+00  0.00000000000E+00 -0.10541365663E+04  0.10541365663E+04  0.50400001928E-02 0.  1.
    10030    2    1    2    0    0  0.00000000000E+00  0.00000000000E+00  0.82309971420E+03  0.29313728467E+04  0.28134415983E+04 0.  0.
        1    1    3    3  502    0  0.13669200585E+04  0.40712593453E+02  0.67977096462E+02  0.13692146827E+04  0.50400001928E-02 0.  1.
       -1    1    3    3    0  502 -0.13669200585E+04 -0.40712593453E+02  0.75512261773E+03  0.15621581640E+04  0.50400001928E-02 0. -1.
</event>
<event>
 5   0  0.5217999E-06  0.2770481E+04  0.7818609E-02  0.8312492E-01
        1   -1    0    0  501    0  0.00000000000E+00  0.00000000000E+00  0.14360894653E+04  0.14360894653E+04  0.50400001928E-02 0.  1.
       -1   -1    0    0    0  501  0.00000000000E+00  0.00000000000E+00 -0.13361920264E+04  0.13361920264E+04  0.50400001928E-02 0. -1.
    10030    2    1    2    0    0  0.00000000000E+00  0.00000000000E+00  0.99897438874E+02  0.27722814917E+04  0.27704810360E+04 0.  0.
        1    1    3    3  502    0 -0.74001519207E+03  0.19740482751E+03 -0.11050544632E+04  0.13445209247E+04  0.50400001928E-02 0. -1.
       -1    1    3    3    0  502  0.74001519207E+03 -0.19740482751E+03  0.12049519020E+04  0.14277605670E+04  0.50400001928E-02 0.  1.
</event>
<event>
 5   0  0.1330962E-05  0.2791569E+04  0.7818609E-02  0.8305891E-01
       -2   -1    0    0    0  501  0.00000000000E+00  0.00000000000E+00  0.17244055069E+04  0.17244055069E+04  0.25500000920E-02 0. -1.
        2   -1    0    0  501    0  0.00000000000E+00  0.00000000000E+00 -0.11297888165E+04  0.11297888165E+04  0.25500000920E-02 0.  1.
    10030    2    1    2    0    0  0.00000000000E+00  0.00000000000E+00  0.59461669044E+03  0.28541943234E+04  0.27915687753E+04 0.  0.
        4    1    3    3  502    0 -0.22451044250E+03 -0.95340649431E+03 -0.71939583511E+03  0.12152863295E+04  0.12699999809E+01 0.  1.
       -4    1    3    3    0  502  0.22451044250E+03  0.95340649431E+03  0.13140125256E+04  0.16389079939E+04  0.12699999809E+01 0. -1.
</event>
<event>
 5   0  0.4764214E-06  0.2735301E+04  0.7818609E-02  0.8323641E-01
        1   -1    0    0  501    0  0.00000000000E+00  0.00000000000E+00  0.13157694760E+04  0.13157694760E+04  0.50400001928E-02 0. -1.
       -1   -1    0    0    0  501  0.00000000000E+00  0.00000000000E+00 -0.14215775189E+04  0.14215775189E+04  0.50400001928E-02 0.  1.
    10030    2    1    2    0    0  0.00000000000E+00  0.00000000000E+00 -0.10580804289E+03  0.27373469948E+04  0.27353013048E+04 0.  0.
        3    1    3    3  502    0 -0.32885739991E+03 -0.66504307219E+03 -0.12026927114E+04  0.14131168549E+04  0.10100000352E+00 0.  1.
       -3    1    3    3    0  502  0.32885739991E+03  0.66504307219E+03  0.10968846685E+04  0.13242301399E+04  0.10100000352E+00 0. -1.
</event>
<event>
 5   0  0.5217999E-06  0.2783350E+04  0.7818609E-02  0.8308456E-01
        1   -1    0    0  501    0  0.00000000000E+00  0.00000000000E+00  0.23966398687E+04  0.23966398687E+04  0.50400001928E-02 0.  1.
       -1   -1    0    0    0  501  0.00000000000E+00  0.00000000000E+00 -0.80811430662E+03  0.80811430664E+03  0.50400001928E-02 0. -1.
    10030    2    1    2    0    0  0.00000000000E+00  0.00000000000E+00  0.15885255621E+04  0.32047541754E+04  0.27833497558E+04 0.  0.
        1    1    3    3  502    0  0.46062133781E+03 -0.82133638597E+02  0.23033641830E+04  0.23504051802E+04  0.50400001928E-02 0.  1.
       -1    1    3    3    0  502 -0.46062133781E+03  0.82133638597E+02 -0.71483862096E+03  0.85434899513E+03  0.50400001928E-02 0. -1.
</event>
<event>
 5   0  0.5217999E-06  0.2814792E+04  0.7818609E-02  0.8298691E-01
       -1   -1    0    0    0  501  0.00000000000E+00  0.00000000000E+00  0.12927818864E+04  0.12927818864E+04  0.50400001928E-02 0. -1.
        1   -1    0    0  501    0  0.00000000000E+00  0.00000000000E+00 -0.15321713368E+04  0.15321713369E+04  0.50400001928E-02 0.  1.
    10030    2    1    2    0    0  0.00000000000E+00  0.00000000000E+00 -0.23938945041E+03  0.28249532233E+04  0.28147918937E+04 0.  0.
        1    1    3    3  502    0  0.68137996011E+02  0.12368343552E+04 -0.79020935331E+03  0.14692967130E+04  0.50400001928E-02 0.  1.
       -1    1    3    3    0  502 -0.68137996011E+02 -0.12368343552E+04  0.55081990290E+03  0.13556565104E+04  0.50400001928E-02 0. -1.
</event>
<event>
 5   0  0.1330962E-05  0.2741328E+04  0.7818609E-02  0.8321719E-01
        2   -1    0    0  501    0  0.00000000000E+00  0.00000000000E+00  0.27651026717E+04  0.27651026717E+04  0.25500000920E-02 0.  1.
       -2   -1    0    0    0  501  0.00000000000E+00  0.00000000000E+00 -0.67943958513E+03  0.67943958513E+03  0.25500000920E-02 0. -1.
    10030    2    1    2    0    0  0.00000000000E+00  0.00000000000E+00  0.20856630866E+04  0.34445422569E+04  0.27413283000E+04 0.  0.
        4    1    3    3  502    0  0.55774575317E+03 -0.51943948055E+03 -0.38862394926E+03  0.85552784056E+03  0.12699999809E+01 0. -1.
       -4    1    3    3    0  502 -0.55774575317E+03  0.51943948055E+03  0.24742870359E+04  0.25890144163E+04  0.12699999809E+01 0.  1.
</event>
<event>
 5   0  0.1350863E-05  0.2796720E+04  0.7818609E-02  0.8304287E-01
       -2   -1    0    0    0  501  0.00000000000E+00  0.00000000000E+00  0.89663312273E+03  0.89663312273E+03  0.25500000920E-02 0.  1.
        2   -1    0    0  501    0  0.00000000000E+00  0.00000000000E+00 -0.21808368336E+04  0.21808368336E+04  0.25500000920E-02 0. -1.
    10030    2    1    2    0    0  0.00000000000E+00  0.00000000000E+00 -0.12842037109E+04  0.30774699563E+04  0.27967198932E+04 0.  0.
        3    1    3    3  502    0 -0.75610338521E+03  0.10347121781E+04 -0.26388332458E+02  0.12818026272E+04  0.10100000352E+00 0.  1.
       -3    1    3    3    0  502  0.75610338521E+03 -0.10347121781E+04 -0.12578153784E+04  0.17956673292E+04  0.10100000352E+00 0. -1.
</event>
<event>
 5   0  0.1283052E-05  0.2898950E+04  0.7818609E-02  0.8273190E-01
       -2   -1    0    0    0  501  0.00000000000E+00  0.00000000000E+00  0.12513856245E+04  0.12513856245E+04  0.25500000920E-02 0. -1.
        2   -1    0    0  501    0  0.00000000000E+00  0.00000000000E+00 -0.16789213984E+04  0.16789213984E+04  0.25500000920E-02 0.  1.
    10030    2    1    2    0    0  0.00000000000E+00  0.00000000000E+00 -0.42753577386E+03  0.29303070229E+04  0.28989502256E+04 0.  0.
        5    1    3    3  502    0  0.86464411554E+03  0.40336336795E+03 -0.13167372091E+04  0.16260782333E+04  0.46999998093E+01 0.  1.
       -5    1    3    3    0  502 -0.86464411554E+03 -0.40336336795E+03  0.88920143524E+03  0.13042287896E+04  0.46999998093E+01 0. -1.
</event>
<event>
 5   0  0.1350863E-05  0.2027340E+04  0.7818609E-02  0.8593944E-01
       -2   -1    0    0    0  501  0.00000000000E+00  0.00000000000E+00  0.10924470154E+04  0.10924470154E+04  0.25500000920E-02 0. -1.
        2   -1    0    0  501    0  0.00000000000E+00  0.00000000000E+00 -0.94057358200E+03  0.94057358201E+03  0.25500000920E-02 0.  1.
    10030    2    1    2    0    0  0.00000000000E+00  0.00000000000E+00  0.15187343335E+03  0.20330205974E+04  0.20273399344E+04 0.  0.
        3    1    3    3  502    0 -0.87066840019E+02  0.87191630255E+03  0.58698033196E+03  0.10546869647E+04  0.10100000352E+00 0. -1.
       -3    1    3    3    0  502  0.87066840019E+02 -0.87191630255E+03 -0.43510689861E+03  0.97833363262E+03  0.10100000352E+00 0.  1.
</event>
<event>
 5   0  0.5023691E-06  0.2779632E+04  0.7818609E-02  0.8309620E-01
        1   -1    0    0  501    0  0.00000000000E+00  0.00000000000E+00  0.21827583448E+04  0.21827583448E+04  0.50400001928E-02 0.  1.
       -1   -1    0    0    0  501  0.00000000000E+00  0.00000000000E+00 -0.88493015201E+03  0.88493015202E+03  0.50400001928E-02 0. -1.
    10030    2    1    2    0    0  0.00000000000E+00  0.00000000000E+00  0.12978281927E+04  0.30676884968E+04  0.27796321151E+04 0.  0.
        5    1    3    3  502    0 -0.40793408366E+03 -0.76217998684E+03 -0.55208709937E+03  0.10257440247E+04  0.46999998093E+01 0. -1.
       -5    1    3    3    0  502  0.40793408366E+03  0.76217998684E+03  0.18499152921E+04  0.20419444721E+04  0.46999998093E+01 0.  1.
</event>
<event>
 5   0  0.1283052E-05  0.2983666E+04  0.7818609E-02  0.8248411E-01
        2   -1    0    0  501    0  0.00000000000E+00  0.00000000000E+00  0.17605890183E+04  0.17605890183E+04  0.25500000920E-02 0.  1.
       -2   -1    0    0    0  501  0.00000000000E+00  0.00000000000E+00 -0.12641024891E+04  0.12641024891E+04  0.25500000920E-02 0. -1.
    10030    2    1    2    0    0  0.00000000000E+00  0.00000000000E+00  0.49648652921E+03  0.30246915074E+04  0.29836655042E+04 0.  0.
        5    1    3    3  502    0 -0.14171793682E+04 -0.22880604025E+03 -0.16328601043E+03  0.14447954792E+04  0.46999998093E+01 0.  1.
       -5    1    3    3    0  502  0.14171793682E+04  0.22880604025E+03  0.65977253964E+03  0.15798960281E+04  0.46999998093E+01 0. -1.
</event>
<event>
 5   0  0.1302063E-05  0.2824600E+04  0.7818609E-02  0.8295671E-01
       -2   -1    0    0    0  501  0.00000000000E+00  0.00000000000E+00  0.11540943402E+04  0.11540943402E+04  0.25500000920E-02 0.  1.
        2   -1    0    0  501    0  0.00000000000E+00  0.00000000000E+00 -0.17282746508E+04  0.17282746508E+04  0.25500000920E-02 0. -1.
    10030    2    1    2    0    0  0.00000000000E+00  0.00000000000E+00 -0.57418031063E+03  0.28823689911E+04  0.28246004977E+04 0.  0.
        2    1    3    3  502    0 -0.22920273764E+03  0.69605668323E+03  0.94489717567E+03  0.11957673159E+04  0.25500000920E-02 0.  1.
       -2    1    3    3    0  502  0.22920273764E+03 -0.69605668323E+03 -0.15190774863E+04  0.16866016751E+04  0.25500000920E-02 0. -1.
</event>
<event>
 5   0  0.1283052E-05  0.2790735E+04  0.7818609E-02  0.8306150E-01
        2   -1    0    0  501    0  0.00000000000E+00  0.00000000000E+00  0.11194576700E+04  0.11194576700E+04  0.25500000920E-02 0. -1.
       -2   -1    0    0    0  501  0.00000000000E+00  0.00000000000E+00 -0.17392804528E+04  0.17392804528E+04  0.25500000920E-02 0.  1.
    10030    2    1    2    0    0  0.00000000000E+00  0.00000000000E+00 -0.61982278272E+03  0.28587381228E+04  0.27907352746E+04 0.  0.
        5    1    3    3  502    0 -0.78378725119E+03  0.10214047220E+04 -0.86101597712E+03  0.15488578579E+04  0.46999998093E+01 0.  1.
       -5    1    3    3    0  502  0.78378725119E+03 -0.10214047220E+04  0.24119319440E+03  0.13098802649E+04  0.46999998093E+01 0. -1.
</event>
<event>
 5   0  0.5217999E-06  0.2195921E+04  0.7818609E-02  0.8520128E-01
        1   -1    0    0  501    0  0.00000000000E+00  0.00000000000E+00  0.21435984112E+04  0.21435984112E+04  0.50400001928E-02 0. -1.
       -1   -1    0    0    0  501  0.00000000000E+00  0.00000000000E+00 -0.56238008703E+03  0.56238008705E+03  0.50400001928E-02 0.  1.
    10030    2    1    2    0    0  0.00000000000E+00  0.00000000000E+00  0.15812183242E+04  0.27059784983E+04  0.21959208193E+04 0.  0.
        1    1    3    3  502    0 -0.93659584960E+03  0.46646889966E+03  0.38058911215E+03  0.11133970954E+04  0.50400001928E-02 0. -1.
       -1    1    3    3    0  502  0.93659584960E+03 -0.46646889966E+03  0.12006292120E+04  0.15925814028E+04  0.50400001928E-02 0.  1.
</event>
<event>
 5   0  0.1302063E-05  0.2822872E+04  0.7818609E-02  0.8296203E-01
       -2   -1    0    0    0  501  0.00000000000E+00  0.00000000000E+00  0.11262570752E+04  0.11262570752E+04  0.25500000920E-02 0.  1.
        2   -1    0    0  501    0  0.00000000000E+00  0.00000000000E+00 -0.17688246227E+04  0.17688246227E+04  0.25500000920E-02 0. -1.
    10030    2    1    2    0    0  0.00000000000E+00  0.00000000000E+00 -0.64256754748E+03  0.28950816979E+04  0.28228717620E+04 0.  0.
        2    1    3    3  502    0  0.75051839990E+03  0.89727051187E+03 -0.11312838346E+04  0.16273215277E+04  0.25500000920E-02 0. -1.
       -2    1    3    3    0  502 -0.75051839990E+03 -0.89727051187E+03  0.48871628709E+03  0.12677601703E+04  0.25500000920E-02 0.  1.
</event>
<event>
 5   0  0.5023691E-06  0.2833768E+04  0.7818609E-02  0.8292861E-01
        1   -1    0    0  501    0  0.00000000000E+00  0.00000000000E+00  0.16435925243E+04  0.16435925243E+04  0.50400001928E-02 0.  1.
       -1   -1    0    0    0  501  0.00000000000E+00  0.00000000000E+00 -0.12214465682E+04  0.12214465682E+04  0.50400001928E-02 0. -1.
    10030    2    1    2    0    0  0.00000000000E+00  0.00000000000E+00  0.42214595611E+03  0.28650390925E+04  0.28337681262E+04 0.  0.
        5    1    3    3  502    0  0.12455797973E+04 -0.13198171897E+02  0.89372396111E+03  0.15331039860E+04  0.46999998093E+01 0.  1.
       -5    1    3    3    0  502 -0.12455797973E+04  0.13198171897E+02 -0.47157800500E+03  0.13319351065E+04  0.46999998093E+01 0. -1.
</event>
<event>
 5   0  0.4764214E-06  0.2807731E+04  0.7818609E-02  0.8300872E-01
        1   -1    0    0  501    0  0.00000000000E+00  0.00000000000E+00  0.21390999784E+04  0.21390999784E+04  0.50400001928E-02 0.  1.
       -1   -1    0    0    0  501  0.00000000000E+00  0.00000000000E+00 -0.92134000646E+03  0.92134000648E+03  0.50400001928E-02 0. -1.
    10030    2    1    2    0    0  0.00000000000E+00  0.00000000000E+00  0.12177599720E+04  0.30604399849E+04  0.28077310327E+04 0.  0.
        3    1    3    3  502    0  0.40951997457E+03 -0.14924167006E+03 -0.84571838044E+03  0.95143012085E+03  0.10100000352E+00 0. -1.
       -3    1    3    3    0  502 -0.40951997457E+03  0.14924167006E+03  0.20634783524E+04  0.21090098641E+04  0.10100000352E+00 0.  1.
</event>
<event>
 5   0  0.1330962E-05  0.2509205E+04  0.7818609E-02  0.8399714E-01
       -2   -1    0    0    0  501  0.00000000000E+00  0.00000000000E+00  0.78500677370E+03  0.78500677371E+03  0.25500000920E-02 0. -1.
        2   -1    0    0  501    0  0.00000000000E+00  0.00000000000E+00 -0.20051125551E+04  0.20051125551E+04  0.25500000920E-02 0.  1.
    10030    2    1    2    0    0  0.00000000000E+00  0.00000000000E+00 -0.12201057814E+04  0.27901193288E+04  0.25092046053E+04 0.  0.
        4    1    3    3  502    0 -0.13311463465E+03 -0.77278176105E+03 -0.16990377840E+04  0.18712675278E+04  0.12699999809E+01 0.  1.
       -4    1    3    3    0  502  0.13311463465E+03  0.77278176105E+03  0.47893200262E+03  0.91885180100E+03  0.12699999809E+01 0. -1.
</event>
<event>
 5   0  0.5023691E-06  0.2798644E+04  0.7818609E-02  0.8303690E-01
        1   -1    0    0  501    0  0.00000000000E+00  0.00000000000E+00  0.12669547487E+04  0.12669547487E+04  0.50400001928E-02 0.  1.
       -1   -1    0    0    0  501  0.00000000000E+00  0.00000000000E+00 -0.15455183595E+04  0.15455183595E+04  0.50400001928E-02 0. -1.
    10030    2    1    2    0    0  0.00000000000E+00  0.00000000000E+00 -0.27856361076E+03  0.28124731082E+04  0.27986438321E+04 0.  0.
        5    1    3    3  502    0 -0.10180093816E+04 -0.71897677730E+03  0.50010819703E+03  0.13429076685E+04  0.46999998093E+01 0.  1.
       -5    1    3    3    0  502  0.10180093816E+04  0.71897677730E+03 -0.77867180780E+03  0.14695654397E+04  0.46999998093E+01 0. -1.
</event>
<event>
 5   0  0.5217999E-06  0.2762518E+04  0.7818609E-02  0.8315000E-01
        1   -1    0    0  501    0  0.00000000000E+00  0.00000000000E+00  0.11185687765E+04  0.11185687765E+04  0.50400001928E-02 0.  1.
       -1   -1    0    0    0  501  0.00000000000E+00  0.00000000000E+00 -0.17056412218E+04  0.17056412218E+04  0.50400001928E-02 0. -1.
    10030    2    1    2    0    0  0.00000000000E+00  0.00000000000E+00 -0.58707244532E+03  0.28242099983E+04  0.27625184268E+04 0.  0.
        1    1    3    3  502    0 -0.96318838859E+03  0.86771051998E+02 -0.13017728981E+04  0.16216885538E+04  0.50400001928E-02 0. -1.
       -1    1    3    3    0  502  0.96318838859E+03 -0.86771051998E+02  0.71470045273E+03  0.12025214445E+04  0.50400001928E-02 0.  1.
</event>
<event>
 5   0  0.4764214E-06  0.2913768E+04  0.7818609E-02  0.8268793E-01
       -1   -1    0    0    0  501  0.00000000000E+00  0.00000000000E+00  0.84431102751E+03  0.84431102752E+03  0.50400001928E-02 0.  1.
        1   -1    0    0  501    0  0.00000000000E+00  0.00000000000E+00 -0.25138967305E+04  0.25138967305E+04  0.50400001928E-02 0. -1.
    10030    2    1    2    0    0  0.00000000000E+00  0.00000000000E+00 -0.16695857029E+04  0.33582077580E+04  0.29137678230E+04 0.  0.
        3    1    3    3  502    0 -0.26099050045E+03 -0.52925946084E+03 -0.23699879896E+04  0.24423502409E+04  0.10100000352E+00 0. -1.
       -3    1    3    3    0  502  0.26099050045E+03  0.52925946084E+03  0.70040228666E+03  0.91585751707E+03  0.10100000352E+00 0.  1.
</event>
<event>
 5   0  0.1283052E-05  0.2769372E+04  0.7818609E-02  0.8312841E-01
       -2   -1    0    0    0  501  0.00000000000E+00  0.00000000000E+00  0.10872285286E+04  0.10872285286E+04  0.25500000920E-02 0.  1.
        2   -1    0    0  501    0  0.00000000000E+00  0.00000000000E+00 -0.17635253295E+04  0.17635253295E+04  0.25500000920E-02 0. -1.
    10030    2    1    2    0    0  0.00000000000E+00  0.00000000000E+00 -0.67629680088E+03  0.28507538580E+04  0.27693718053E+04 0.  0.
        5    1    3    3  502    0  0.49168220942E+01 -0.40872604954E+03 -0.16999966624E+04  0.17484541460E+04  0.46999998093E+01 0. -1.
       -5    1    3    3    0  502 -0.49168220942E+01  0.40872604954E+03  0.10236998615E+04  0.11022997120E+04  0.46999998093E+01 0.  1.
</event>
<event>
 5   0  0.5281919E-06  0.2814991E+04  0.7818609E-02  0.8298629E-01
        1   -1    0    0  501    0  0.00000000000E+00  0.00000000000E+00  0.15396544376E+04  0.15396544376E+04  0.50400001928E-02 0.  1.
       -1   -1    0    0    0  501  0.00000000000E+00  0.00000000000E+00 -0.12866803614E+04  0.12866803614E+04  0.50400001928E-02 0. -1.
    10030    2    1    2    0    0  0.00000000000E+00  0.00000000000E+00  0.25297407620E+03  0.28263347991E+04  0.28149906773E+04 0.  0.
        4    1    3    3  502    0 -0.80993982129E+03 -0.11231357736E+04  0.37970376683E+03  0.14358318298E+04  0.12699999809E+01 0.  1.
       -4    1    3    3    0  502  0.80993982129E+03  0.11231357736E+04 -0.12672969063E+03  0.13905029692E+04  0.12699999809E+01 0. -1.
</event>
<event>
 5   0  0.5023691E-06  0.2818567E+04  0.7818609E-02  0.8297527E-01
        1   -1    0    0  501    0  0.00000000000E+00  0.00000000000E+00  0.24716242083E+04  0.24716242083E+04  0.50400001928E-02 0. -1.
       -1   -1    0    0    0  501  0.00000000000E+00  0.00000000000E+00 -0.80355241606E+03  0.80355241607E+03  0.50400001928E-02 0.  1.
    10030    2    1    2    0    0  0.00000000000E+00  0.00000000000E+00  0.16680717923E+04  0.32751766244E+04  0.28185667310E+04 0.  0.
        5    1    3    3  502    0  0.65714817121E+03 -0.78581284145E+03 -0.29059352318E+03  0.10648061920E+04  0.46999998093E+01 0.  1.
       -5    1    3    3    0  502 -0.65714817121E+03  0.78581284145E+03  0.19586653155E+04  0.22103704325E+04  0.46999998093E+01 0. -1.
</event>
<event>
 5   0  0.1283052E-05  0.2580858E+04  0.7818609E-02  0.8374732E-01
        2   -1    0    0  501    0  0.00000000000E+00  0.00000000000E+00  0.54209060950E+03  0.54209060951E+03  0.25500000920E-02 0.  1.
       -2   -1    0    0    0  501  0.00000000000E+00  0.00000000000E+00 -0.30718241985E+04  0.30718241985E+04  0.25500000920E-02 0. -1.
    10030    2    1    2    0    0  0.00000000000E+00  0.00000000000E+00 -0.25297335890E+04  0.36139148080E+04  0.25808580372E+04 0.  0.
        5    1    3    3  502    0 -0.15486503571E+03  0.12571621859E+04 -0.91974758123E+03  0.15653746019E+04  0.46999998093E+01 0. -1.
       -5    1    3    3    0  502  0.15486503571E+03 -0.12571621859E+04 -0.16099860078E+04  0.20485402061E+04  0.46999998093E+01 0.  1.
</event>
<event>
 5   0  0.5023691E-06  0.2728613E+04  0.7818609E-02  0.8325780E-01
       -1   -1    0    0    0  501  0.00000000000E+00  0.00000000000E+00  0.17261142211E+04  0.17261142211E+04  0.50400001928E-02 0.  1.
        1   -1    0    0  501    0  0.00000000000E+00  0.00000000000E+00 -0.10783362987E+04  0.10783362987E+04  0.50400001928E-02 0. -1.
    10030    2    1    2    0    0  0.00000000000E+00  0.00000000000E+00  0.64777792246E+03  0.28044505198E+04  0.27286125561E+04 0.  0.
        5    1    3    3  502    0  0.75780773533E+03 -0.75645961352E+03 -0.54507136514E+03  0.12015109628E+04  0.46999998093E+01 0. -1.
       -5    1    3    3    0  502 -0.75780773533E+03  0.75645961352E+03  0.11928492876E+04  0.16029395570E+04  0.46999998093E+01 0.  1.
</event>
<event>
 5   0  0.1330962E-05  0.2819442E+04  0.7818609E-02  0.8297258E-01
        2   -1    0    0  501    0  0.00000000000E+00  0.00000000000E+00  0.18645463447E+04  0.18645463447E+04  0.25500000920E-02 0.  1.
       -2   -1    0    0    0  501  0.00000000000E+00  0.00000000000E+00 -0.10658426361E+04  0.10658426361E+04  0.25500000920E-02 0. -1.
    10030    2    1    2    0    0  0.00000000000E+00  0.00000000000E+00  0.79870370856E+03  0.29303889808E+04  0.28194417825E+04 0.  0.
        4    1    3    3  502    0  0.12634022409E+04 -0.38835585360E+02  0.10481082039E+04  0.16420188321E+04  0.12699999809E+01 0.  1.
       -4    1    3    3    0  502 -0.12634022409E+04  0.38835585360E+02 -0.24940449529E+03  0.12883701487E+04  0.12699999809E+01 0. -1.
</event>
<event>
 5   0  0.5281919E-06  0.2244323E+04  0.7818609E-02  0.8500203E-01
       -1   -1    0    0    0  501  0.00000000000E+00  0.00000000000E+00  0.13766155056E+04  0.13766155056E+04  0.50400001928E-02 0. -1.
        1   -1    0    0  501    0  0.00000000000E+00  0.00000000000E+00 -0.91474106751E+03  0.91474106753E+03  0.50400001928E-02 0.  1.
    10030    2    1    2    0    0  0.00000000000E+00  0.00000000000E+00  0.46187443812E+03  0.22913565732E+04  0.22443232719E+04 0.  0.
        4    1    3    3  502    0 -0.81251816611E+03  0.77331697128E+03  0.26386549747E+03  0.11523157215E+04  0.12699999809E+01 0.  1.
       -4    1    3    3    0  502  0.81251816611E+03 -0.77331697128E+03  0.19800894065E+03  0.11390408517E+04  0.12699999809E+01 0. -1.
</event>
<event>
 5   0  0.5107453E-06  0.2793287E+04  0.7818609E-02  0.8305355E-01
       -1   -1    0    0    0  501  0.00000000000E+00  0.00000000000E+00  0.13602561961E+04  0.13602561961E+04  0.50400001928E-02 0.  1.
        1   -1    0    0  501    0  0.00000000000E+00  0.00000000000E+00 -0.14340042302E+04  0.14340042302E+04  0.50400001928E-02 0. -1.
    10030    2    1    2    0    0  0.00000000000E+00  0.00000000000E+00 -0.73748034052E+02  0.27942604263E+04  0.27932870525E+04 0.  0.
        2    1    3    3  502    0 -0.32324443758E+03 -0.43953746593E+03  0.12492384125E+04  0.13631862535E+04  0.25500000920E-02 0.  1.
       -2    1    3    3    0  502  0.32324443758E+03  0.43953746593E+03 -0.13229864465E+04  0.14310741728E+04  0.25500000920E-02 0. -1.
</event>
<event>
 5   0  0.4764214E-06  0.2080922E+04  0.7818609E-02  0.8569694E-01
        1   -1    0    0  501    0  0.00000000000E+00  0.00000000000E+00  0.84414820207E+03  0.84414820209E+03  0.50400001928E-02 0. -1.
       -1   -1    0    0    0  501  0.00000000000E+00  0.00000000000E+00 -0.12824275604E+04  0.12824275604E+04  0.50400001928E-02 0.  1.
    10030    2    1    2    0    0  0.00000000000E+00  0.00000000000E+00 -0.43827935832E+03  0.21265757625E+04  0.20809218336E+04 0.  0.
        3    1    3    3  502    0 -0.11970056152E+03 -0.88794447554E+03  0.32141238966E+03  0.95188210956E+03  0.10100000352E+00 0. -1.
       -3    1    3    3    0  502  0.11970056152E+03  0.88794447554E+03 -0.75969174799E+03  0.11746936529E+04  0.10100000352E+00 0.  1.
</event>
<event>
 5   0  0.1350863E-05  0.2737033E+04  0.7818609E-02  0.8323088E-01
        2   -1    0    0  501    0  0.00000000000E+00  0.00000000000E+00  0.21612594340E+04  0.21612594340E+04  0.25500000920E-02 0.  1.
       -2   -1    0    0    0  501  0.00000000000E+00  0.00000000000E+00 -0.86654924099E+03  0.86654924099E+03  0.25500000920E-02 0. -1.
    10030    2    1    2    0    0  0.00000000000E+00  0.00000000000E+00  0.12947101931E+04  0.30278086750E+04  0.27370332275E+04 0.  0.
        3    1    3    3  502    0  0.11136076893E+04 -0.41004397031E+02  0.15261243036E+04  0.18896716240E+04  0.10100000352E+00 0.  1.
       -3    1    3    3    0  502 -0.11136076893E+04  0.41004397031E+02 -0.23141411054E+03  0.11381370511E+04  0.10100000352E+00 0. -1.
</event>
<event>
 5   0  0.5107453E-06  0.2839984E+04  0.7818609E-02  0.8290961E-01
        1   -1    0    0  501    0  0.00000000000E+00  0.00000000000E+00  0.76929326795E+03  0.76929326797E+03  0.50400001928E-02 0. -1.
       -1   -1    0    0    0  501  0.00000000000E+00  0.00000000000E+00 -0.26210772995E+04  0.26210772995E+04  0.50400001928E-02 0.  1.
    10030    2    1    2    0    0  0.00000000000E+00  0.00000000000E+00 -0.18517840315E+04  0.33903705674E+04  0.28399838882E+04 0.  0.
        2    1    3    3  502    0 -0.11324119207E+04 -0.47707108829E+03 -0.76343402526E+02  0.12311709453E+04  0.25500000920E-02 0. -1.
       -2    1    3    3    0  502  0.11324119207E+04  0.47707108829E+03 -0.17754406290E+04  0.21591996222E+04  0.25500000920E-02 0.  1.
</event>
<event>
 5   0  0.5107453E-06  0.2804035E+04  0.7818609E-02  0.8302017E-01
       -1   -1    0    0    0  501  0.00000000000E+00  0.00000000000E+00  0.12478460804E+04  0.12478460804E+04  0.50400001928E-02 0.  1.
        1   -1    0    0  501    0  0.00000000000E+00  0.00000000000E+00 -0.15752364395E+04  0.15752364395E+04  0.50400001928E-02 0. -1.
    10030    2    1    2    0    0  0.00000000000E+00  0.00000000000E+00 -0.32739035911E+03  0.28230825199E+04  0.28040346765E+04 0.  0.
        2    1    3    3  502    0 -0.50799991979E+02 -0.31867430118E+03 -0.15373382217E+04  0.15708414170E+04  0.25500000920E-02 0. -1.
       -2    1    3    3    0  502  0.50799991979E+02  0.31867430118E+03  0.12099478626E+04  0.12522411029E+04  0.25500000920E-02 0.  1.
</event>
<event>
 5   0  0.1283052E-05  0.2791100E+04  0.7818609E-02  0.8306037E-01
       -2   -1    0    0    0  501  0.00000000000E+00  0.00000000000E+00  0.85640902100E+03  0.85640902101E+03  0.25500000920E-02 0.  1.
        2   -1    0    0  501    0  0.00000000000E+00  0.00000000000E+00 -0.22741007772E+04  0.22741007772E+04  0.25500000920E-02 0. -1.
    10030    2    1    2    0    0  0.00000000000E+00  0.00000000000E+00 -0.14176917562E+04  0.31305097982E+04  0.27911004427E+04 0.  0.
        5    1    3    3  502    0 -0.26496281486E+03  0.69850302410E+03  0.61323310212E+03  0.96653437366E+03  0.46999998093E+01 0.  1.
       -5    1    3    3    0  502  0.26496281486E+03 -0.69850302410E+03 -0.20309248583E+04  0.21639754245E+04  0.46999998093E+01 0. -1.
</event>
<event>
 5   0  0.1330962E-05  0.2742919E+04  0.7818609E-02  0.8321212E-01
       -2   -1    0    0    0  501  0.00000000000E+00  0.00000000000E+00  0.13890424383E+04  0.13890424383E+04  0.25500000920E-02 0. -1.
        2   -1    0    0  501    0  0.00000000000E+00  0.00000000000E+00 -0.13540986803E+04  0.13540986803E+04  0.25500000920E-02 0.  1.
    10030    2    1    2    0    0  0.00000000000E+00  0.00000000000E+00  0.34943757966E+02  0.27431411186E+04  0.27429185424E+04 0.  0.
        4    1    3    3  502    0  0.12110608598E+04 -0.59663988247E+03  0.25884465755E+03  0.13746453088E+04  0.12699999809E+01 0.  1.
       -4    1    3    3    0  502 -0.12110608598E+04  0.59663988247E+03 -0.22390089958E+03  0.13684958097E+04  0.12699999809E+01 0. -1.
</event>
<event>
 5   0  0.5107453E-06  0.2785898E+04  0.7818609E-02  0.8307660E-01
        1   -1    0    0  501    0  0.00000000000E+00  0.00000000000E+00  0.17086465419E+04  0.17086465419E+04  0.50400001928E-02 0.  1.
       -1   -1    0    0    0  501  0.00000000000E+00  0.00000000000E+00 -0.11355810024E+04  0.11355810024E+04  0.50400001928E-02 0. -1.
    10030    2    1    2    0    0  0.00000000000E+00  0.00000000000E+00  0.57306553947E+03  0.28442275443E+04  0.27858977388E+04 0.  0.
        2    1    3    3  502    0  0.11764815035E+04  0.24211536989E+03 -0.43362846484E+03  0.12770130093E+04  0.25500000920E-02 0. -1.
       -2    1    3    3    0  502 -0.11764815035E+04 -0.24211536989E+03  0.10066940043E+04  0.15672145350E+04  0.25500000920E-02 0.  1.
</event>
<event>
 5   0  0.4764214E-06  0.2744057E+04  0.7818609E-02  0.8320850E-01
        1   -1    0    0  501    0  0.00000000000E+00  0.00000000000E+00  0.24613105449E+04  0.24613105449E+04  0.50400001928E-02 0.  1.
       -1   -1    0    0    0  501  0.00000000000E+00  0.00000000000E+00 -0.76482081111E+03  0.76482081112E+03  0.50400001928E-02 0. -1.
    10030    2    1    2    0    0  0.00000000000E+00  0.00000000000E+00  0.16964897338E+04  0.32261313561E+04  0.27440565063E+04 0.  0.
        3    1    3    3  502    0  0.20623134494E+02 -0.95440561323E+03 -0.31034916681E+03  0.10038087486E+04  0.10100000352E+00 0. -1.
       -3    1    3    3    0  502 -0.20623134494E+02  0.95440561323E+03  0.20068389006E+04  0.22223226074E+04  0.10100000352E+00 0.  1.
</event>
<event>
 5   0  0.4764214E-06  0.2812897E+04  0.7818609E-02  0.8299276E-01
        1   -1    0    0  501    0  0.00000000000E+00  0.00000000000E+00  0.18730409976E+04  0.18730409976E+04  0.50400001928E-02 0.  1.
       -1   -1    0    0    0  501  0.00000000000E+00  0.00000000000E+00 -0.10560883967E+04  0.10560883967E+04  0.50400001928E-02 0. -1.
    10030    2    1    2    0    0  0.00000000000E+00  0.00000000000E+00  0.81695260094E+03  0.29291293943E+04  0.28128966309E+04 0.  0.
        3    1    3    3  502    0  0.63071117490E+03 -0.50333890201E+03 -0.79105642037E+03  0.11300074809E+04  0.10100000352E+00 0. -1.
       -3    1    3    3    0  502 -0.63071117490E+03  0.50333890201E+03  0.16080090213E+04  0.17991219134E+04  0.10100000352E+00 0.  1.
</event>
<event>
 5   0  0.1302063E-05  0.2831632E+04  0.7818609E-02  0.8293515E-01
       -2   -1    0    0    0  501  0.00000000000E+00  0.00000000000E+00  0.15065723642E+04  0.15065723642E+04  0.25500000920E-02 0.  1.
        2   -1    0    0  501    0  0.00000000000E+00  0.00000000000E+00 -0.13305271854E+04  0.13305271854E+04  0.25500000920E-02 0. -1.
    10030    2    1    2    0    0  0.00000000000E+00  0.00000000000E+00  0.17604517877E+03  0.28370995497E+04  0.28316323825E+04 0.  0.
        2    1    3    3  502    0  0.37116530785E+03  0.77835551862E+03 -0.10370588659E+04  0.13487372207E+04  0.25500000920E-02 0. -1.
       -2    1    3    3    0  502 -0.37116530785E+03 -0.77835551862E+03  0.12131040447E+04  0.14883623290E+04  0.25500000920E-02 0.  1.
</event>
<event>
 5   0  0.5217999E-06  0.2501095E+04  0.7818609E-02  0.8402596E-01
        1   -1    0    0  501    0  0.00000000000E+00  0.00000000000E+00  0.19885205893E+04  0.19885205893E+04  0.50400001928E-02 0.  1.
       -1   -1    0    0    0  501  0.00000000000E+00  0.00000000000E+00 -0.78644853013E+03  0.78644853014E+03  0.50400001928E-02 0. -1.
    10030    2    1    2    0    0  0.00000000000E+00  0.00000000000E+00  0.12020720591E+04  0.27749691194E+04  0.25010950358E+04 0.  0.
        1    1    3    3  502    0 -0.35986050415E+03 -0.50840836017E+03  0.18041628054E+04  0.19086597579E+04  0.50400001928E-02 0.  1.
       -1    1    3    3    0  502  0.35986050415E+03  0.50840836017E+03 -0.60209074622E+03  0.86630936152E+03  0.50400001928E-02 0. -1.
</event>
<event>
 5   0  0.1283052E-05  0.2798872E+04  0.7818609E-02  0.8303619E-01
       -2   -1    0    0    0  501  0.00000000000E+00  0.00000000000E+00  0.11811917541E+04  0.11811917541E+04  0.25500000920E-02 0. -1.
        2   -1    0    0  501    0  0.00000000000E+00  0.00000000000E+00 -0.16580046871E+04  0.16580046871E+04  0.25500000920E-02 0.  1.
    10030    2    1    2    0    0  0.00000000000E+00  0.00000000000E+00 -0.47681293301E+03  0.28391964412E+04  0.27988722477E+04 0.  0.
        5    1    3    3  502    0  0.67129583252E+03  0.96845320397E+03 -0.10041729039E+04  0.15482005729E+04  0.46999998093E+01 0. -1.
       -5    1    3    3    0  502 -0.67129583252E+03 -0.96845320397E+03  0.52735997089E+03  0.12909958683E+04  0.46999998093E+01 0.  1.
</event>
<event>
 5   0  0.4764214E-06  0.2837877E+04  0.7818609E-02  0.8291605E-01
        1   -1    0    0  501    0  0.00000000000E+00  0.00000000000E+00  0.22399714215E+04  0.22399714215E+04  0.50400001928E-02 0. -1.
       -1   -1    0    0    0  501  0.00000000000E+00  0.00000000000E+00 -0.89884464557E+03  0.89884464559E+03  0.50400001928E-02 0.  1.
    10030    2    1    2    0    0  0.00000000000E+00  0.00000000000E+00  0.13411267759E+04  0.31388160671E+04  0.28378768955E+04 0.  0.
        3    1    3    3  502    0  0.74546902672E+03  0.51745201077E+02  0.20047037524E+04  0.21394482421E+04  0.10100000352E+00 0. -1.
       -3    1    3    3    0  502 -0.74546902672E+03 -0.51745201077E+02 -0.66357697649E+03  0.99936782496E+03  0.10100000352E+00 0.  1.
</event>
<event>
 5   0  0.1302063E-05  0.2770655E+04  0.7818609E-02  0.8312437E-01
        2   -1    0    0  501    0  0.00000000000E+00  0.00000000000E+00  0.18270924350E+04  0.18270924350E+04  0.25500000920E-02 0. -1.
       -2   -1    0    0    0  501  0.00000000000E+00  0.00000000000E+00 -0.10503749692E+04  0.10503749692E+04  0.25500000920E-02 0.  1.
    10030    2    1    2    0    0  0.00000000000E+00  0.00000000000E+00  0.77671746579E+03  0.28774674042E+04  0.27706549118E+04 0.  0.
        2    1    3    3  502    0  0.61352550609E+03 -0.97585504571E+03 -0.40965532925E+03  0.12233250204E+04  0.25500000920E-02 0.  1.
       -2    1    3    3    0  502 -0.61352550609E+03  0.97585504571E+03  0.11863727950E+04  0.16541423837E+04  0.25500000920E-02 0. -1.
</event>
<event>
 5   0  0.4447500E-06  0.2800822E+04  0.7818609E-02  0.8303013E-01
        3   -1    0    0  501    0  0.00000000000E+00  0.00000000000E+00  0.16548656351E+04  0.16548656382E+04  0.10100000352E+00 0. -1.
       -3   -1    0    0    0  501  0.00000000000E+00  0.00000000000E+00 -0.11850817088E+04  0.11850817131E+04  0.10100000352E+00 0.  1.
    10030    2    1    2    0    0  0.00000000000E+00  0.00000000000E+00  0.46978392628E+03  0.28399473513E+04  0.28008220259E+04 0.  0.
        3    1    3    3  502    0 -0.11018399485E+04 -0.51219818825E+03 -0.47107586733E+03  0.13031925180E+04  0.10100000352E+00 0.  1.
       -3    1    3    3    0  502  0.11018399485E+04  0.51219818825E+03  0.94085979361E+03  0.15367548332E+04  0.10100000352E+00 0. -1.
</event>
<event>
 5   0  0.1283052E-05  0.2882490E+04  0.7818609E-02  0.8278106E-01
       -2   -1    0    0    0  501  0.00000000000E+00  0.00000000000E+00  0.12971754685E+04  0.12971754685E+04  0.25500000920E-02 0.  1.
        2   -1    0    0  501    0  0.00000000000E+00  0.00000000000E+00 -0.16013156155E+04  0.16013156155E+04  0.25500000920E-02 0. -1.
    10030    2    1    2    0    0  0.00000000000E+00  0.00000000000E+00 -0.30414014701E+03  0.28984910841E+04  0.28824901275E+04 0.  0.
        5    1    3    3  502    0 -0.11477409962E+04 -0.22065407979E+03 -0.10000588995E+04  0.15382254418E+04  0.46999998093E+01 0. -1.
       -5    1    3    3    0  502  0.11477409962E+04  0.22065407979E+03  0.69591875251E+03  0.13602656422E+04  0.46999998093E+01 0.  1.
</event>
<event>
 5   0  0.5217999E-06  0.2015534E+04  0.7818609E-02  0.8599392E-01
        1   -1    0    0  501    0  0.00000000000E+00  0.00000000000E+00  0.65379127091E+03  0.65379127093E+03  0.50400001928E-02 0. -1.
       -1   -1    0    0    0  501  0.00000000000E+00  0.00000000000E+00 -0.15533926063E+04  0.15533926063E+04  0.50400001928E-02 0.  1.
    10030    2    1    2    0    0  0.00000000000E+00  0.00000000000E+00 -0.89960133538E+03  0.22071838772E+04  0.20155341985E+04 0.  0.
        1    1    3    3  502    0 -0.80324423142E+03  0.55677795858E+03 -0.71891472309E+03  0.12132771199E+04  0.50400001928E-02 0. -1.
       -1    1    3    3    0  502  0.80324423142E+03 -0.55677795858E+03 -0.18068661230E+03  0.99390675737E+03  0.50400001928E-02 0.  1.
</event>
<event>
 5   0  0.5281919E-06  0.2820090E+04  0.7818609E-02  0.8297058E-01
        1   -1    0    0  501    0  0.00000000000E+00  0.00000000000E+00  0.18043056791E+04  0.18043056791E+04  0.50400001928E-02 0. -1.
       -1   -1    0    0    0  501  0.00000000000E+00  0.00000000000E+00 -0.11019347081E+04  0.11019347081E+04  0.50400001928E-02 0.  1.
    10030    2    1    2    0    0  0.00000000000E+00  0.00000000000E+00  0.70237097105E+03  0.29062403872E+04  0.28200901062E+04 0.  0.
        4    1    3    3  502    0 -0.77915254998E+03 -0.22313326687E+03  0.15402790316E+04  0.17404965553E+04  0.12699999809E+01 0. -1.
       -4    1    3    3    0  502  0.77915254998E+03  0.22313326687E+03 -0.83790806050E+03  0.11657438319E+04  0.12699999809E+01 0.  1.
</event>
<event>
 5   0  0.1350863E-05  0.2792488E+04  0.7818609E-02  0.8305604E-01
        2   -1    0    0  501    0  0.00000000000E+00  0.00000000000E+00  0.19317882981E+04  0.19317882981E+04  0.25500000920E-02 0. -1.
       -2   -1    0    0    0  501  0.00000000000E+00  0.00000000000E+00 -0.10091673344E+04  0.10091673344E+04  0.25500000920E-02 0.  1.
    10030    2    1    2    0    0  0.00000000000E+00  0.00000000000E+00  0.92262096371E+03  0.29409556325E+04  0.27924882434E+04 0.  0.
        3    1    3    3  502    0 -0.37025001673E+03 -0.68454712029E+02  0.18773112319E+04  0.19146980426E+04  0.10100000352E+00 0. -1.
       -3    1    3    3    0  502  0.37025001673E+03  0.68454712029E+02 -0.95469026821E+03  0.10262575899E+04  0.10100000352E+00 0.  1.
</event>
<event>
 5   0  0.5023691E-06  0.3046664E+04  0.7818609E-02  0.8230530E-01
        1   -1    0    0  501    0  0.00000000000E+00  0.00000000000E+00  0.19651574548E+04  0.19651574548E+04  0.50400001928E-02 0.  1.
       -1   -1    0    0    0  501  0.00000000000E+00  0.00000000000E+00 -0.11808419882E+04  0.11808419882E+04  0.50400001928E-02 0. -1.
    10030    2    1    2    0    0  0.00000000000E+00  0.00000000000E+00  0.78431546659E+03  0.31459994431E+04  0.30466640354E+04 0.  0.
        5    1    3    3  502    0  0.54005142370E+03  0.32453361280E+03 -0.10399799422E+04  0.12159596935E+04  0.46999998093E+01 0. -1.
       -5    1    3    3    0  502 -0.54005142370E+03 -0.32453361280E+03  0.18242954088E+04  0.19300397495E+04  0.46999998093E+01 0.  1.
</event>
<event>
 5   0  0.1388269E-05  0.2663003E+04  0.7818609E-02  0.8347110E-01
        2   -1    0    0  501    0  0.00000000000E+00  0.00000000000E+00  0.16093933042E+04  0.16093933043E+04  0.25500000920E-02 0.  1.
       -2   -1    0    0    0  501  0.00000000000E+00  0.00000000000E+00 -0.11015925163E+04  0.11015925163E+04  0.25500000920E-02 0. -1.
    10030    2    1    2    0    0  0.00000000000E+00  0.00000000000E+00  0.50780078792E+03  0.27109858206E+04  0.26630025308E+04 0.  0.
        1    1    3    3  502    0 -0.11613533221E+04  0.54545781894E+03  0.61616317003E+03  0.14233491572E+04  0.50400001928E-02 0.  1.
       -1    1    3    3    0  502  0.11613533221E+04 -0.54545781894E+03 -0.10836238211E+03  0.12876366634E+04  0.50400001928E-02 0. -1.
</event>
<event>
 5   0  0.5217999E-06  0.2688850E+04  0.7818609E-02  0.8338632E-01
        1   -1    0    0  501    0  0.00000000000E+00  0.00000000000E+00  0.13107727869E+04  0.13107727869E+04  0.50400001928E-02 0. -1.
       -1   -1    0    0    0  501  0.00000000000E+00  0.00000000000E+00 -0.13789412265E+04  0.13789412265E+04  0.50400001928E-02 0.  1.
    10030    2    1    2    0    0  0.00000000000E+00  0.00000000000E+00 -0.68168439590E+02  0.26897140133E+04  0.26888500400E+04 0.  0.
        1    1    3    3  502    0 -0.40754032526E+03  0.98797489654E+03 -0.85000255606E+03  0.13655357404E+04  0.50400001928E-02 0.  1.
       -1    1    3    3    0  502  0.40754032526E+03 -0.98797489654E+03  0.78183411647E+03  0.13241782730E+04  0.50400001928E-02 0. -1.
</event>
<event>
 5   0  0.1302063E-05  0.2829475E+04  0.7818609E-02  0.8294176E-01
        2   -1    0    0  501    0  0.00000000000E+00  0.00000000000E+00  0.13460813114E+04  0.13460813114E+04  0.25500000920E-02 0.  1.
       -2   -1    0    0    0  501  0.00000000000E+00  0.00000000000E+00 -0.14868951519E+04  0.14868951519E+04  0.25500000920E-02 0. -1.
    10030    2    1    2    0    0  0.00000000000E+00  0.00000000000E+00 -0.14081384046E+03  0.28329764633E+04  0.28294747046E+04 0.  0.
        2    1    3    3  502    0  0.90907599959E+03  0.13771560649E+03  0.10061432910E+04  0.13629780201E+04  0.25500000920E-02 0.  1.
       -2    1    3    3    0  502 -0.90907599959E+03 -0.13771560649E+03 -0.11469571315E+04  0.14699984431E+04  0.25500000920E-02 0. -1.
</event>
<event>
 5   0  0.4764214E-06  0.2783366E+04  0.7818609E-02  0.8308451E-01
       -1   -1    0    0    0  501  0.00000000000E+00  0.00000000000E+00  0.86809784881E+03  0.86809784882E+03  0.50400001928E-02 0.  1.
        1   -1    0    0  501    0  0.00000000000E+00  0.00000000000E+00 -0.22310638028E+04  0.22310638028E+04  0.50400001928E-02 0. -1.
    10030    2    1    2    0    0  0.00000000000E+00  0.00000000000E+00 -0.13629659540E+04  0.30991616516E+04  0.27833660828E+04 0.  0.
        3    1    3    3  502    0 -0.21158791074E+03  0.13285217361E+04 -0.10783526865E+04  0.17241183179E+04  0.10100000352E+00 0.  1.
       -3    1    3    3    0  502  0.21158791074E+03 -0.13285217361E+04 -0.28461326747E+03  0.13750433337E+04  0.10100000352E+00 0. -1.
</event>
<event>
 5   0  0.1330962E-05  0.2793862E+04  0.7818609E-02  0.8305176E-01
        2   -1    0    0  501    0  0.00000000000E+00  0.00000000000E+00  0.11272003533E+04  0.11272003533E+04  0.25500000920E-02 0. -1.
       -2   -1    0    0    0  501  0.00000000000E+00  0.00000000000E+00 -0.17312065778E+04  0.17312065778E+04  0.25500000920E-02 0.  1.
    10030    2    1    2    0    0  0.00000000000E+00  0.00000000000E+00 -0.60400622452E+03  0.28584069311E+04  0.27938623203E+04 0.  0.
        4    1    3    3  502    0  0.13797782231E+04 -0.57240958183E+02 -0.51746413307E+03  0.14747322517E+04  0.12699999809E+01 0.  1.
       -4    1    3    3    0  502 -0.13797782231E+04  0.57240958183E+02 -0.86542091450E+02  0.13836746795E+04  0.12699999809E+01 0. -1.
</event>
<event>
 5   0  0.1388269E-05  0.2850015E+04  0.7818609E-02  0.8287907E-01
       -2   -1    0    0    0  501  0.00000000000E+00  0.00000000000E+00  0.15511118882E+04  0.15511118882E+04  0.25500000920E-02 0. -1.
        2   -1    0    0  501    0  0.00000000000E+00  0.00000000000E+00 -0.13091555070E+04  0.13091555071E+04  0.25500000920E-02 0.  1.
    10030    2    1    2    0    0  0.00000000000E+00  0.00000000000E+00  0.24195638112E+03  0.28602673952E+04  0.28500152073E+04 0.  0.
        1    1    3    3  502    0  0.36937379160E+03  0.94017132851E+03  0.11297244975E+04  0.15154657915E+04  0.50400001928E-02 0. -1.
       -1    1    3    3    0  502 -0.36937379160E+03 -0.94017132851E+03 -0.88776811640E+03  0.13448016037E+04  0.50400001928E-02 0.  1.
</event>
<event>
 5   0  0.4764214E-06  0.2835403E+04  0.7818609E-02  0.8292361E-01
        1   -1    0    0  501    0  0.00000000000E+00  0.00000000000E+00  0.18408353650E+04  0.18408353650E+04  0.50400001928E-02 0. -1.
       -1   -1    0    0    0  501  0.00000000000E+00  0.00000000000E+00 -0.10918292782E+04  0.10918292782E+04  0.50400001928E-02 0.  1.
    10030    2    1    2    0    0  0.00000000000E+00  0.00000000000E+00  0.74900608685E+03  0.29326646432E+04  0.28354032855E+04 0.  0.
        3    1    3    3  502    0 -0.10883013272E+04  0.75681173959E+03  0.89445395575E+03  0.15991284117E+04  0.10100000352E+00 0. -1.
       -3    1    3    3    0  502  0.10883013272E+04 -0.75681173959E+03 -0.14544786890E+03  0.13335362315E+04  0.10100000352E+00 0.  1.
</event>
<event>
 5   0  0.5023691E-06  0.2784359E+04  0.7818609E-02  0.8308141E-01
        1   -1    0    0  501    0  0.00000000000E+00  0.00000000000E+00  0.11570605492E+04  0.11570605492E+04  0.50400001928E-02 0.  1.
       -1   -1    0    0    0  501  0.00000000000E+00  0.00000000000E+00 -0.16750753873E+04  0.16750753873E+04  0.50400001928E-02 0. -1.
    10030    2    1    2    0    0  0.00000000000E+00  0.00000000000E+00 -0.51801483806E+03  0.28321359365E+04  0.27843589191E+04 0.  0.
        5    1    3    3  502    0 -0.36209886602E+03  0.50617753998E+03  0.10076763656E+04  0.11843838223E+04  0.46999998093E+01 0.  1.
       -5    1    3    3    0  502  0.36209886602E+03 -0.50617753998E+03 -0.15256912037E+04  0.16477521142E+04  0.46999998093E+01 0. -1.
</event>
<event>
 5   0  0.4764214E-06  0.2800590E+04  0.7818609E-02  0.8303085E-01
       -1   -1    0    0    0  501  0.00000000000E+00  0.00000000000E+00  0.10377895914E+04  0.10377895914E+04  0.50400001928E-02 0. -1.
        1   -1    0    0  501    0  0.00000000000E+00  0.00000000000E+00 -0.18894251326E+04  0.18894251327E+04  0.50400001928E-02 0.  1.
    10030    2    1    2    0    0  0.00000000000E+00  0.00000000000E+00 -0.85163554121E+03  0.29272147241E+04  0.28005897497E+04 0.  0.
        3    1    3    3  502    0  0.34377763288E+03  0.90177786638E+03 -0.14863050599E+04  0.17721425232E+04  0.10100000352E+00 0.  1.
       -3    1    3    3    0  502 -0.34377763288E+03 -0.90177786638E+03  0.63466951870E+03  0.11550722009E+04  0.10100000352E+00 0. -1.
</event>
<event>
 5   0  0.5023691E-06  0.2762260E+04  0.7818609E-02  0.8315082E-01
        1   -1    0    0  501    0  0.00000000000E+00  0.00000000000E+00  0.89486130621E+03  0.89486130623E+03  0.50400001928E-02 0. -1.
       -1   -1    0    0    0  501  0.00000000000E+00  0.00000000000E+00 -0.21316371984E+04  0.21316371984E+04  0.50400001928E-02 0.  1.
    10030    2    1    2    0    0  0.00000000000E+00  0.00000000000E+00 -0.12367758922E+04  0.30264985047E+04  0.27622596893E+04 0.  0.
        5    1    3    3  502    0 -0.82698776351E+03  0.40460830744E+03 -0.17463759836E+04  0.19742005494E+04  0.46999998093E+01 0.  1.
       -5    1    3    3    0  502  0.82698776351E+03 -0.40460830744E+03  0.50960009135E+03  0.10522979552E+04  0.46999998093E+01 0. -1.
</event>
<event>
 5   0  0.1302063E-05  0.2730989E+04  0.7818609E-02  0.8325020E-01
       -2   -1    0    0    0  501  0.00000000000E+00  0.00000000000E+00  0.83494774534E+03  0.83494774535E+03  0.25500000920E-02 0. -1.
        2   -1    0    0  501    0  0.00000000000E+00  0.00000000000E+00 -0.22331633003E+04  0.22331633003E+04  0.25500000920E-02 0.  1.
    10030    2    1    2    0    0  0.00000000000E+00  0.00000000000E+00 -0.13982155549E+04  0.30681110456E+04  0.27309885848E+04 0.  0.
        2    1    3    3  502    0  0.17645115073E+03  0.79775345206E+02 -0.22176589871E+04  0.22260975939E+04  0.25500000920E-02 0.  1.
       -2    1    3    3    0  502 -0.17645115073E+03 -0.79775345206E+02  0.81944343221E+03  0.84201345173E+03  0.25500000920E-02 0. -1.
</event>
<event>
 5   0  0.4764214E-06  0.2791745E+04  0.7818609E-02  0.8305836E-01
       -1   -1    0    0    0  501  0.00000000000E+00  0.00000000000E+00  0.25878137981E+04  0.25878137981E+04  0.50400001928E-02 0.  1.
        1   -1    0    0  501    0  0.00000000000E+00  0.00000000000E+00 -0.75293695979E+03  0.75293695981E+03  0.50400001928E-02 0. -1.
    10030    2    1    2    0    0  0.00000000000E+00  0.00000000000E+00  0.18348768383E+04  0.33407507579E+04  0.27917454423E+04 0.  0.
        3    1    3    3  502    0  0.11369542877E+04  0.80403134058E+03  0.80185638485E+03  0.16068930024E+04  0.10100000352E+00 0. -1.
       -3    1    3    3    0  502 -0.11369542877E+04 -0.80403134058E+03  0.10330204535E+04  0.17338577555E+04  0.10100000352E+00 0.  1.
</event>
<event>
 5   0  0.1388269E-05  0.2604975E+04  0.7818609E-02  0.8366513E-01
       -2   -1    0    0    0  501  0.00000000000E+00  0.00000000000E+00  0.99951968004E+03  0.99951968005E+03  0.25500000920E-02 0.  1.
        2   -1    0    0  501    0  0.00000000000E+00  0.00000000000E+00 -0.16972889884E+04  0.16972889884E+04  0.25500000920E-02 0. -1.
    10030    2    1    2    0    0  0.00000000000E+00  0.00000000000E+00 -0.69776930834E+03  0.26968086684E+04  0.26049750453E+04 0.  0.
        1    1    3    3  502    0  0.11194036327E+04  0.41098708670E+03  0.19351180703E+03  0.12080652705E+04  0.50400001928E-02 0.  1.
       -1    1    3    3    0  502 -0.11194036327E+04 -0.41098708670E+03 -0.89128111537E+03  0.14887433979E+04  0.50400001928E-02 0. -1.
</event>
<event>
 5   0  0.1330962E-05  0.2904502E+04  0.7818609E-02  0.8271539E-01
        2   -1    0    0  501    0  0.00000000000E+00  0.00000000000E+00  0.26447685088E+04  0.26447685088E+04  0.25500000920E-02 0.  1.
       -2   -1    0    0    0  501  0.00000000000E+00  0.00000000000E+00 -0.79743574079E+03  0.79743574080E+03  0.25500000920E-02 0. -1.
    10030    2    1    2    0    0  0.00000000000E+00  0.00000000000E+00  0.18473327680E+04  0.34422042496E+04  0.29045019780E+04 0.  0.
        4    1    3    3  502    0  0.23571544801E+03 -0.98054751541E+03  0.21621079145E+04  0.23857383447E+04  0.12699999809E+01 0.  1.
       -4    1    3    3    0  502 -0.23571544801E+03  0.98054751541E+03 -0.31477514653E+03  0.10564659049E+04  0.12699999809E+01 0. -1.
</event>
<event>
 5   0  0.4764214E-06  0.2859034E+04  0.7818609E-02  0.8285172E-01
        1   -1    0    0  501    0  0.00000000000E+00  0.00000000000E+00  0.86745602358E+03  0.86745602360E+03  0.50400001928E-02 0.  1.
       -1   -1    0    0    0  501  0.00000000000E+00  0.00000000000E+00 -0.23557602477E+04  0.23557602477E+04  0.50400001928E-02 0. -1.
    10030    2    1    2    0    0  0.00000000000E+00  0.00000000000E+00 -0.14883042241E+04  0.32232162713E+04  0.28590336948E+04 0.  0.
        3    1    3    3  502    0  0.53599332505E+03 -0.36856174207E+03 -0.21792455945E+04  0.22742554767E+04  0.10100000352E+00 0. -1.
       -3    1    3    3    0  502 -0.53599332505E+03  0.36856174207E+03  0.69094137034E+03  0.94896079459E+03  0.10100000352E+00 0.  1.
</event>
<event>
 5   0  0.1350863E-05  0.2723139E+04  0.7818609E-02  0.8327536E-01
       -2   -1    0    0    0  501  0.00000000000E+00  0.00000000000E+00  0.15382980065E+04  0.15382980065E+04  0.25500000920E-02 0.  1.
        2   -1    0    0  501    0  0.00000000000E+00  0.00000000000E+00 -0.12051445354E+04  0.12051445354E+04  0.25500000920E-02 0. -1.
    10030    2    1    2    0    0  0.00000000000E+00  0.00000000000E+00  0.33315347111E+03  0.27434425418E+04  0.27231389507E+04 0.  0.
        3    1    3    3  502    0 -0.39087958050E+03  0.10388952028E+04 -0.62783364043E+03  0.12752510259E+04  0.10100000352E+00 0. -1.
       -3    1    3    3    0  502  0.39087958050E+03 -0.10388952028E+04  0.96098711153E+03  0.14681915160E+04  0.10100000352E+00 0.  1.
</event>
<event>
 5   0  0.1350863E-05  0.2624067E+04  0.7818609E-02  0.8360072E-01
        2   -1    0    0  501    0  0.00000000000E+00  0.00000000000E+00  0.11922083808E+04  0.11922083808E+04  0.25500000920E-02 0. -1.
       -2   -1    0    0    0  501  0.00000000000E+00  0.00000000000E+00 -0.14439020132E+04  0.14439020132E+04  0.25500000920E-02 0.  1.
    10030    2    1    2    0    0  0.00000000000E+00  0.00000000000E+00 -0.25169363248E+03  0.26361103940E+04  0.26240671342E+04 0.  0.
        3    1    3    3  502    0 -0.40774974882E+03  0.97286542520E+03  0.65792946017E+03  0.12432208886E+04  0.10100000352E+00 0. -1.
       -3    1    3    3    0  502  0.40774974882E+03 -0.97286542520E+03 -0.90962309266E+03  0.13928895053E+04  0.10100000352E+00 0.  1.
</event>
<event>
 5   0  0.5107453E-06  0.2774859E+04  0.7818609E-02  0.8311116E-01
        1   -1    0    0  501    0  0.00000000000E+00  0.00000000000E+00  0.10783426885E+04  0.10783426885E+04  0.50400001928E-02 0.  1.
       -1   -1    0    0    0  501  0.00000000000E+00  0.00000000000E+00 -0.17851104669E+04  0.17851104669E+04  0.50400001928E-02 0. -1.
    10030    2    1    2    0    0  0.00000000000E+00  0.00000000000E+00 -0.70676777840E+03  0.28634531555E+04  0.27748591462E+04 0.  0.
        2    1    3    3  502    0 -0.92165149585E+03  0.10299562001E+04 -0.47853914030E+03  0.14626178457E+04  0.25500000920E-02 0. -1.
       -2    1    3    3    0  502  0.92165149585E+03 -0.10299562001E+04 -0.22822863811E+03  0.14008353098E+04  0.25500000920E-02 0.  1.
</event>
<event>
 5   0  0.5023691E-06  0.2788587E+04  0.7818609E-02  0.8306820E-01
        1   -1    0    0  501    0  0.00000000000E+00  0.00000000000E+00  0.21672405660E+04  0.21672405660E+04  0.50400001928E-02 0.  1.
       -1   -1    0    0    0  501  0.00000000000E+00  0.00000000000E+00 -0.89701811236E+03  0.89701811237E+03  0.50400001928E-02 0. -1.
    10030    2    1    2    0    0  0.00000000000E+00  0.00000000000E+00  0.12702224536E+04  0.30642586784E+04  0.27885867686E+04 0.  0.
        5    1    3    3  502    0 -0.89362452153E+03  0.46036435222E+03  0.16968210300E+04  0.19722382767E+04  0.46999998093E+01 0.  1.
       -5    1    3    3    0  502  0.89362452153E+03 -0.46036435222E+03 -0.42659857637E+03  0.10920204017E+04  0.46999998093E+01 0. -1.
</event>
<event>
 5   0  0.5217999E-06  0.2597205E+04  0.7818609E-02  0.8369151E-01
        1   -1    0    0  501    0  0.00000000000E+00  0.00000000000E+00  0.95992080645E+03  0.95992080646E+03  0.50400001928E-02 0. -1.
       -1   -1    0    0    0  501  0.00000000000E+00  0.00000000000E+00 -0.17567792061E+04  0.17567792061E+04  0.50400001928E-02 0.  1.
    10030    2    1    2    0    0  0.00000000000E+00  0.00000000000E+00 -0.79685839966E+03  0.27167000126E+04  0.25972053537E+04 0.  0.
        1    1    3    3  502    0 -0.48513222971E+03  0.11008376945E+04 -0.90998211626E+03  0.15083979455E+04  0.50400001928E-02 0. -1.
       -1    1    3    3    0  502  0.48513222971E+03 -0.11008376945E+04  0.11312371660E+03  0.12083020671E+04  0.50400001928E-02 0.  1.
</event>
<event>
 5   0  0.1283052E-05  0.2428508E+04  0.7818609E-02  0.8428907E-01
        2   -1    0    0  501    0  0.00000000000E+00  0.00000000000E+00  0.17408569047E+04  0.17408569047E+04  0.25500000920E-02 0.  1.
       -2   -1    0    0    0  501  0.00000000000E+00  0.00000000000E+00 -0.84694647876E+03  0.84694647876E+03  0.25500000920E-02 0. -1.
    10030    2    1    2    0    0  0.00000000000E+00  0.00000000000E+00  0.89391042597E+03  0.25878033835E+04  0.24285078756E+04 0.  0.
        5    1    3    3  502    0  0.84208785066E+03 -0.68107343406E+03 -0.13807196006E+03  0.10918145112E+04  0.46999998093E+01 0. -1.
       -5    1    3    3    0  502 -0.84208785066E+03  0.68107343406E+03  0.10319823860E+04  0.14959888722E+04  0.46999998093E+01 0.  1.
</event>
<event>
 5   0  0.1350863E-05  0.2779047E+04  0.7818609E-02  0.8309803E-01
        2   -1    0    0  501    0  0.00000000000E+00  0.00000000000E+00  0.17066299027E+04  0.17066299027E+04  0.25500000920E-02 0.  1.
       -2   -1    0    0    0  501  0.00000000000E+00  0.00000000000E+00 -0.11313385079E+04  0.11313385079E+04  0.25500000920E-02 0. -1.
    10030    2    1    2    0    0  0.00000000000E+00  0.00000000000E+00  0.57529139477E+03  0.28379684107E+04  0.27790474107E+04 0.  0.
        3    1    3    3  502    0  0.72766385623E+03  0.11623164417E+04  0.58609629437E+02  0.13725557537E+04  0.10100000352E+00 0. -1.
       -3    1    3    3    0  502 -0.72766385623E+03 -0.11623164417E+04  0.51668176533E+03  0.14654126569E+04  0.10100000352E+00 0.  1.
</event>
<event>
 5   0  0.1330962E-05  0.2776081E+04  0.7818609E-02  0.8310733E-01
        2   -1    0    0  501    0  0.00000000000E+00  0.00000000000E+00  0.23380603541E+04  0.23380603541E+04  0.25500000920E-02 0. -1.
       -2   -1    0    0    0  501  0.00000000000E+00  0.00000000000E+00 -0.82404077968E+03  0.82404077969E+03  0.25500000920E-02 0.  1.
    10030    2    1    2    0    0  0.00000000000E+00  0.00000000000E+00  0.15140195744E+04  0.31621011338E+04  0.27760814665E+04 0.  0.
        4    1    3    3  502    0 -0.91035846405E+03 -0.92974626060E+03  0.13073909682E+04  0.18445740426E+04  0.12699999809E+01 0. -1.
       -4    1    3    3    0  502  0.91035846405E+03  0.92974626060E+03  0.20662860626E+03  0.13175270912E+04  0.12699999809E+01 0.  1.
</event>
<event>
 5   0  0.1350863E-05  0.2831391E+04  0.7818609E-02  0.8293589E-01
       -2   -1    0    0    0  501  0.00000000000E+00  0.00000000000E+00  0.11041895599E+04  0.11041895599E+04  0.25500000920E-02 0.  1.
        2   -1    0    0  501    0  0.00000000000E+00  0.00000000000E+00 -0.18150810298E+04  0.18150810298E+04  0.25500000920E-02 0. -1.
    10030    2    1    2    0    0  0.00000000000E+00  0.00000000000E+00 -0.71089146993E+03  0.29192705897E+04  0.28313908409E+04 0.  0.
        3    1    3    3  502    0  0.53923770660E+03 -0.11665911274E+04  0.25668276618E+03  0.13105717132E+04  0.10100000352E+00 0.  1.
       -3    1    3    3    0  502 -0.53923770660E+03  0.11665911274E+04 -0.96757423612E+03  0.16086988765E+04  0.10100000352E+00 0. -1.
</event>
<event>
 5   0  0.5023691E-06  0.2690522E+04  0.7818609E-02  0.8338087E-01
        1   -1    0    0  501    0  0.00000000000E+00  0.00000000000E+00  0.18373904150E+04  0.18373904150E+04  0.50400001928E-02 0.  1.
       -1   -1    0    0    0  501  0.00000000000E+00  0.00000000000E+00 -0.98494404866E+03  0.98494404867E+03  0.50400001928E-02 0. -1.
    10030    2    1    2    0    0  0.00000000000E+00  0.00000000000E+00  0.85244636635E+03  0.28223344637E+04  0.26905216999E+04 0.  0.
        5    1    3    3  502    0  0.32370916065E+03  0.32604213397E+03 -0.90008279619E+03  0.10105751945E+04  0.46999998093E+01 0. -1.
       -5    1    3    3    0  502 -0.32370916065E+03 -0.32604213397E+03  0.17525291625E+04  0.18117592692E+04  0.46999998093E+01 0.  1.
</event>
<event>
 5   0  0.5281919E-06  0.2894325E+04  0.7818609E-02  0.8274568E-01
        1   -1    0    0  501    0  0.00000000000E+00  0.00000000000E+00  0.15658590702E+04  0.15658590702E+04  0.50400001928E-02 0.  1.
       -1   -1    0    0    0  501  0.00000000000E+00  0.00000000000E+00 -0.13374631678E+04  0.13374631678E+04  0.50400001928E-02 0. -1.
    10030    2    1    2    0    0  0.00000000000E+00  0.00000000000E+00  0.22839590235E+03  0.29033222380E+04  0.28943246759E+04 0.  0.
        4    1    3    3  502    0  0.11987807087E+04 -0.36064910179E+03 -0.61409920454E+03  0.13943681035E+04  0.12699999809E+01 0. -1.
       -4    1    3    3    0  502 -0.11987807087E+04  0.36064910179E+03  0.84249510689E+03  0.15089541345E+04  0.12699999809E+01 0.  1.
</event>
<event>
 5   0  0.5023691E-06  0.2799939E+04  0.7818609E-02  0.8303287E-01
       -1   -1    0    0    0  501  0.00000000000E+00  0.00000000000E+00  0.90393992444E+03  0.90393992446E+03  0.50400001928E-02 0.  1.
        1   -1    0    0  501    0  0.00000000000E+00  0.00000000000E+00 -0.21681907188E+04  0.21681907188E+04  0.50400001928E-02 0. -1.
    10030    2    1    2    0    0  0.00000000000E+00  0.00000000000E+00 -0.12642507943E+04  0.30721306432E+04  0.27999386811E+04 0.  0.
        5    1    3    3  502    0  0.80570872866E+03  0.11237749999E+04 -0.87215012949E+03  0.16348408926E+04  0.46999998093E+01 0.  1.
       -5    1    3    3    0  502 -0.80570872866E+03 -0.11237749999E+04 -0.39210066482E+03  0.14372897506E+04  0.46999998093E+01 0. -1.
</event>
<event>
 5   0  0.5281919E-06  0.2743140E+04  0.7818609E-02  0.8321142E-01
        1   -1    0    0  501    0  0.00000000000E+00  0.00000000000E+00  0.19776787730E+04  0.19776787730E+04  0.50400001928E-02 0.  1.
       -1   -1    0    0    0  501  0.00000000000E+00  0.00000000000E+00 -0.95121851214E+03  0.95121851216E+03  0.50400001928E-02 0. -1.
    10030    2    1    2    0    0  0.00000000000E+00  0.00000000000E+00  0.10264602608E+04  0.29288972851E+04  0.27431402880E+04 0.  0.
        4    1    3    3  502    0  0.28152687212E+03 -0.41836398006E+03 -0.84864990865E+03  0.98716466706E+03  0.12699999809E+01 0. -1.
       -4    1    3    3    0  502 -0.28152687212E+03  0.41836398006E+03  0.18751101695E+04  0.19417326181E+04  0.12699999809E+01 0.  1.
</event>
<event>
 5   0  0.1350863E-05  0.2815109E+04  0.7818609E-02  0.8298593E-01
       -2   -1    0    0    0  501  0.00000000000E+00  0.00000000000E+00  0.14396021325E+04  0.14396021325E+04  0.25500000920E-02 0. -1.
        2   -1    0    0  501    0  0.00000000000E+00  0.00000000000E+00 -0.13762207330E+04  0.13762207330E+04  0.25500000920E-02 0.  1.
    10030    2    1    2    0    0  0.00000000000E+00  0.00000000000E+00  0.63381399498E+02  0.28158228654E+04  0.28151094486E+04 0.  0.
        3    1    3    3  502    0  0.18299026620E+03 -0.16846162832E+03 -0.13540648611E+04  0.13767194398E+04  0.10100000352E+00 0.  1.
       -3    1    3    3    0  502 -0.18299026620E+03  0.16846162832E+03  0.14174462606E+04  0.14391034256E+04  0.10100000352E+00 0. -1.
</event>
<event>
 5   0  0.4764214E-06  0.2859721E+04  0.7818609E-02  0.8284963E-01
        1   -1    0    0  501    0  0.00000000000E+00  0.00000000000E+00  0.66792599822E+03  0.66792599824E+03  0.50400001928E-02 0.  1.
       -1   -1    0    0    0  501  0.00000000000E+00  0.00000000000E+00 -0.30609697193E+04  0.30609697193E+04  0.50400001928E-02 0. -1.
    10030    2    1    2    0    0  0.00000000000E+00  0.00000000000E+00 -0.23930437211E+04  0.37288957175E+04  0.28597211440E+04 0.  0.
        3    1    3    3  502    0  0.48816257142E+03  0.43980201403E+02  0.55496397115E+03  0.74042013325E+03  0.10100000352E+00 0.  1.
       -3    1    3    3    0  502 -0.48816257142E+03 -0.43980201403E+02 -0.29480076922E+04  0.29884755843E+04  0.10100000352E+00 0. -1.
</event>
<event>
 5   0  0.1283052E-05  0.2820899E+04  0.7818609E-02  0.8296809E-01
       -2   -1    0    0    0  501  0.00000000000E+00  0.00000000000E+00  0.16034376342E+04  0.16034376342E+04  0.25500000920E-02 0.  1.
        2   -1    0    0  501    0  0.00000000000E+00  0.00000000000E+00 -0.12406892484E+04  0.12406892484E+04  0.25500000920E-02 0. -1.
    10030    2    1    2    0    0  0.00000000000E+00  0.00000000000E+00  0.36274838573E+03  0.28441268826E+04  0.28208990292E+04 0.  0.
        5    1    3    3  502    0  0.60215288516E+03 -0.12368665687E+04 -0.13250700377E+03  0.13820301017E+04  0.46999998093E+01 0. -1.
       -5    1    3    3    0  502 -0.60215288516E+03  0.12368665687E+04  0.49525538950E+03  0.14620967809E+04  0.46999998093E+01 0.  1.
</event>
<event>
 5   0  0.1350863E-05  0.2782912E+04  0.7818609E-02  0.8308593E-01
       -2   -1    0    0    0  501  0.00000000000E+00  0.00000000000E+00  0.21211322536E+04  0.21211322536E+04  0.25500000920E-02 0.  1.
        2   -1    0    0  501    0  0.00000000000E+00  0.00000000000E+00 -0.91279098460E+03  0.91279098460E+03  0.25500000920E-02 0. -1.
    10030    2    1    2    0    0  0.00000000000E+00  0.00000000000E+00  0.12083412690E+04  0.30339232382E+04  0.27829124300E+04 0.  0.
        3    1    3    3  502    0  0.10614359317E+04 -0.65602976457E+03 -0.67101481148E+02  0.12496095023E+04  0.10100000352E+00 0. -1.
       -3    1    3    3    0  502 -0.10614359317E+04  0.65602976457E+03  0.12754427501E+04  0.17843137359E+04  0.10100000352E+00 0.  1.
</event>
<event>
 5   0  0.4764214E-06  0.2818310E+04  0.7818609E-02  0.8297606E-01
        1   -1    0    0  501    0  0.00000000000E+00  0.00000000000E+00  0.29331550942E+04  0.29331550943E+04  0.50400001928E-02 0.  1.
       -1   -1    0    0    0  501  0.00000000000E+00  0.00000000000E+00 -0.67699029419E+03  0.67699029421E+03  0.50400001928E-02 0. -1.
    10030    2    1    2    0    0  0.00000000000E+00  0.00000000000E+00  0.22561648001E+04  0.36101453885E+04  0.28183097986E+04 0.  0.
        3    1    3    3  502    0  0.68264569856E+03 -0.63769193668E+03 -0.22335369978E+03  0.96049104175E+03  0.10100000352E+00 0. -1.
       -3    1    3    3    0  502 -0.68264569856E+03  0.63769193668E+03  0.24795184998E+04  0.26496543467E+04  0.10100000352E+00 0.  1.
</event>
<event>
 5   0  0.1330962E-05  0.2680024E+04  0.7818609E-02  0.8341516E-01
        2   -1    0    0  501    0  0.00000000000E+00  0.00000000000E+00  0.13197291270E+04  0.13197291270E+04  0.25500000920E-02 0.  1.
       -2   -1    0    0    0  501  0.00000000000E+00  0.00000000000E+00 -0.13606064412E+04  0.13606064412E+04  0.25500000920E-02 0. -1.
    10030    2    1    2    0    0  0.00000000000E+00  0.00000000000E+00 -0.40877314238E+02  0.26803355681E+04  0.26800238437E+04 0.  0.
        4    1    3    3  502    0  0.67482092084E+03 -0.91114049700E+03  0.69383630458E+03  0.13292745055E+04  0.12699999809E+01 0.  1.
       -4    1    3    3    0  502 -0.67482092084E+03  0.91114049700E+03 -0.73471361882E+03  0.13510610627E+04  0.12699999809E+01 0. -1.
</event>
<event>
 5   0  0.4447500E-06  0.2781441E+04  0.7818609E-02  0.8309053E-01
       -4   -1    0    0    0  501  0.00000000000E+00  0.00000000000E+00  0.15095812022E+04  0.15095817364E+04  0.12699999809E+01 0. -1.
        4   -1    0    0  501    0  0.00000000000E+00  0.00000000000E+00 -0.12812173369E+04  0.12812179664E+04  0.12699999809E+01 0.  1.
    10030    2    1    2    0    0  0.00000000000E+00  0.00000000000E+00  0.22836386527E+03  0.27907997028E+04  0.27814408004E+04 0.  0.
        2    1    3    3  502    0  0.79575581740E+03 -0.10646292094E+04  0.52475378984E+03  0.14289958763E+04  0.25500000920E-02 0. -1.
       -2    1    3    3    0  502 -0.79575581740E+03  0.10646292094E+04 -0.29638992457E+03  0.13618038265E+04  0.25500000920E-02 0.  1.
</event>
<event>
 5   0  0.5107453E-06  0.2812158E+04  0.7818609E-02  0.8299504E-01
        1   -1    0    0  501    0  0.00000000000E+00  0.00000000000E+00  0.22804622395E+04  0.22804622395E+04  0.50400001928E-02 0. -1.
       -1   -1    0    0    0  501  0.00000000000E+00  0.00000000000E+00 -0.86695473339E+03  0.86695473340E+03  0.50400001928E-02 0.  1.
    10030    2    1    2    0    0  0.00000000000E+00  0.00000000000E+00  0.14135075061E+04  0.31474169729E+04  0.28121575581E+04 0.  0.
        2    1    3    3  502    0 -0.97298632980E+03 -0.65698478380E+03 -0.15926787600E+03  0.11847774730E+04  0.25500000920E-02 0.  1.
       -2    1    3    3    0  502  0.97298632980E+03  0.65698478380E+03  0.15727753821E+04  0.19626394999E+04  0.25500000920E-02 0. -1.
</event>
<event>
 5   0  0.5281919E-06  0.2717283E+04  0.7818609E-02  0.8329419E-01
       -1   -1    0    0    0  501  0.00000000000E+00  0.00000000000E+00  0.14659170539E+04  0.14659170539E+04  0.50400001928E-02 0. -1.
        1   -1    0    0  501    0  0.00000000000E+00  0.00000000000E+00 -0.12592165244E+04  0.12592165244E+04  0.50400001928E-02 0.  1.
    10030    2    1    2    0    0  0.00000000000E+00  0.00000000000E+00  0.20670052951E+03  0.27251335783E+04  0.27172831856E+04 0.  0.
        4    1    3    3  502    0  0.56919633118E+03 -0.51066900596E+03 -0.10228981979E+04  0.12771411955E+04  0.12699999809E+01 0.  1.
       -4    1    3    3    0  502 -0.56919633118E+03  0.51066900596E+03  0.12295987274E+04  0.14479923828E+04  0.12699999809E+01 0. -1.
</event>
<event>
 5   0  0.4764214E-06  0.2818005E+04  0.7818609E-02  0.8297700E-01
       -1   -1    0    0    0  501  0.00000000000E+00  0.00000000000E+00  0.21884585376E+04  0.21884585376E+04  0.50400001928E-02 0.  1.
        1   -1    0    0  501    0  0.00000000000E+00  0.00000000000E+00 -0.90716242075E+03  0.90716242076E+03  0.50400001928E-02 0. -1.
    10030    2    1    2    0    0  0.00000000000E+00  0.00000000000E+00  0.12812961168E+04  0.30956209584E+04  0.28180045030E+04 0.  0.
        3    1    3    3  502    0  0.38955721883E+03  0.71411678609E+01 -0.84680874712E+03  0.93214316896E+03  0.10100000352E+00 0. -1.
       -3    1    3    3    0  502 -0.38955721883E+03 -0.71411678609E+01  0.21281048640E+04  0.21634777894E+04  0.10100000352E+00 0.  1.
</event>
<event>
 5   0  0.5023691E-06  0.3132748E+04  0.7818609E-02  0.8206808E-01
        1   -1    0    0  501    0  0.00000000000E+00  0.00000000000E+00  0.14089933283E+04  0.14089933283E+04  0.50400001928E-02 0.  1.
       -1   -1    0    0    0  501  0.00000000000E+00  0.00000000000E+00 -0.17413333974E+04  0.17413333974E+04  0.50400001928E-02 0. -1.
    10030    2    1    2    0    0  0.00000000000E+00  0.00000000000E+00 -0.33234006909E+03  0.31503267257E+04  0.31327477647E+04 0.  0.
        5    1    3    3  502    0 -0.12607835093E+04 -0.22807378695E+03 -0.10722879971E+04  0.16707532278E+04  0.46999998093E+01 0. -1.
       -5    1    3    3    0  502  0.12607835093E+04  0.22807378695E+03  0.73994792798E+03  0.14795734979E+04  0.46999998093E+01 0.  1.
</event>
<event>
 5   0  0.1350863E-05  0.2942363E+04  0.7818609E-02  0.8260384E-01
       -2   -1    0    0    0  501  0.00000000000E+00  0.00000000000E+00  0.12482942077E+04  0.12482942077E+04  0.25500000920E-02 0.  1.
        2   -1    0    0  501    0  0.00000000000E+00  0.00000000000E+00 -0.17338664878E+04  0.17338664878E+04  0.25500000920E-02 0. -1.
    10030    2    1    2    0    0  0.00000000000E+00  0.00000000000E+00 -0.48557228010E+03  0.29821606954E+04  0.29423633314E+04 0.  0.
        3    1    3    3  502    0 -0.39061039174E+03  0.13471221673E+04 -0.69270577005E+03  0.15643388079E+04  0.10100000352E+00 0. -1.
       -3    1    3    3    0  502  0.39061039174E+03 -0.13471221673E+04  0.20713348995E+03  0.14178218875E+04  0.10100000352E+00 0.  1.
</event>
<event>
 5   0  0.5217999E-06  0.2792814E+04  0.7818609E-02  0.8305503E-01
        1   -1    0    0  501    0  0.00000000000E+00  0.00000000000E+00  0.81862709019E+03  0.81862709020E+03  0.50400001928E-02 0. -1.
       -1   -1    0    0    0  501  0.00000000000E+00  0.00000000000E+00 -0.23819793133E+04  0.23819793133E+04  0.50400001928E-02 0.  1.
    10030    2    1    2    0    0  0.00000000000E+00  0.00000000000E+00 -0.15633522231E+04  0.32006064035E+04  0.27928142037E+04 0.  0.
        1    1    3    3  502    0 -0.14322532060E+03 -0.20607621878E+03 -0.23559233530E+04  0.23692521490E+04  0.50400001928E-02 0.  1.
       -1    1    3    3    0  502  0.14322532060E+03  0.20607621878E+03  0.79257112991E+03  0.83135425446E+03  0.50400001928E-02 0. -1.
</event>
<event>
 5   0  0.1388269E-05  0.2688750E+04  0.7818609E-02  0.8338664E-01
       -2   -1    0    0    0  501  0.00000000000E+00  0.00000000000E+00  0.13386480097E+04  0.13386480097E+04  0.25500000920E-02 0.  1.
        2   -1    0    0  501    0  0.00000000000E+00  0.00000000000E+00 -0.13501265301E+04  0.13501265301E+04  0.25500000920E-02 0. -1.
    10030    2    1    2    0    0  0.00000000000E+00  0.00000000000E+00 -0.11478520386E+02  0.26887745397E+04  0.26887500384E+04 0.  0.
        1    1    3    3  502    0  0.70869137274E+03  0.73500286565E+03 -0.88031656256E+03  0.13481208865E+04  0.50400001928E-02 0. -1.
       -1    1    3    3    0  502 -0.70869137274E+03 -0.73500286565E+03  0.86883804218E+03  0.13406536532E+04  0.50400001928E-02 0.  1.
</event>
<event>
 5   0  0.4764214E-06  0.2803046E+04  0.7818609E-02  0.8302323E-01
       -1   -1    0    0    0  501  0.00000000000E+00  0.00000000000E+00  0.11147324417E+04  0.11147324417E+04  0.50400001928E-02 0.  1.
        1   -1    0    0  501    0  0.00000000000E+00  0.00000000000E+00 -0.17620970888E+04  0.17620970888E+04  0.50400001928E-02 0. -1.
    10030    2    1    2    0    0  0.00000000000E+00  0.00000000000E+00 -0.64736464711E+03  0.28768295306E+04  0.28030460506E+04 0.  0.
        3    1    3    3  502    0 -0.40122937305E+03  0.86441583995E+02  0.10516702441E+04  0.11289231461E+04  0.10100000352E+00 0.  1.
       -3    1    3    3    0  502  0.40122937305E+03 -0.86441583995E+02 -0.16990348912E+04  0.17479063845E+04  0.10100000352E+00 0. -1.
</event>
<event>
 5   0  0.5107453E-06  0.2787898E+04  0.7818609E-02  0.8307035E-01
        1   -1    0    0  501    0  0.00000000000E+00  0.00000000000E+00  0.14937210836E+04  0.14937210836E+04  0.50400001928E-02 0.  1.
       -1   -1    0    0    0  501  0.00000000000E+00  0.00000000000E+00 -0.13008412729E+04  0.13008412729E+04  0.50400001928E-02 0. -1.
    10030    2    1    2    0    0  0.00000000000E+00  0.00000000000E+00  0.19287981063E+03  0.27945623565E+04  0.27878981586E+04 0.  0.
        2    1    3    3  502    0  0.13874071356E+04 -0.13454841934E+03  0.10606487403E+03  0.13979454905E+04  0.25500000920E-02 0. -1.
       -2    1    3    3    0  502 -0.13874071356E+04  0.13454841934E+03  0.86814936604E+02  0.13966168659E+04  0.25500000920E-02 0.  1.
</event>
<event>
 5   0  0.5023691E-06  0.2822664E+04  0.7818609E-02  0.8296266E-01
       -1   -1    0    0    0  501  0.00000000000E+00  0.00000000000E+00  0.12143824150E+04  0.12143824150E+04  0.50400001928E-02 0.  1.
        1   -1    0    0  501    0  0.00000000000E+00  0.00000000000E+00 -0.16402232421E+04  0.16402232421E+04  0.50400001928E-02 0. -1.
    10030    2    1    2    0    0  0.00000000000E+00  0.00000000000E+00 -0.42584082715E+03  0.28546056571E+04  0.28226641754E+04 0.  0.
        5    1    3    3  502    0 -0.11901716435E+04  0.31702709188E+03  0.48395008191E+03  0.13233459449E+04  0.46999998093E+01 0.  1.
       -5    1    3    3    0  502  0.11901716435E+04 -0.31702709188E+03 -0.90979090906E+03  0.15312597122E+04  0.46999998093E+01 0. -1.
</event>
<event>
 5   0  0.1283052E-05  0.2896256E+04  0.7818609E-02  0.8273992E-01
       -2   -1    0    0    0  501  0.00000000000E+00  0.00000000000E+00  0.11346457961E+04  0.11346457961E+04  0.25500000920E-02 0.  1.
        2   -1    0    0  501    0  0.00000000000E+00  0.00000000000E+00 -0.18482199124E+04  0.18482199124E+04  0.25500000920E-02 0. -1.
    10030    2    1    2    0    0  0.00000000000E+00  0.00000000000E+00 -0.71357411624E+03  0.29828657085E+04  0.28962561723E+04 0.  0.
        5    1    3    3  502    0 -0.10777979393E+04 -0.61924954589E+03 -0.11219263179E+04  0.16744727979E+04  0.46999998093E+01 0. -1.
       -5    1    3    3    0  502  0.10777979393E+04  0.61924954589E+03  0.40835220170E+03  0.13083929106E+04  0.46999998093E+01 0.  1.
</event>
<event>
 5   0  0.1283052E-05  0.2782986E+04  0.7818609E-02  0.8308570E-01
        2   -1    0    0  501    0  0.00000000000E+00  0.00000000000E+00  0.19499764598E+04  0.19499764598E+04  0.25500000920E-02 0.  1.
       -2   -1    0    0    0  501  0.00000000000E+00  0.00000000000E+00 -0.99296206979E+03  0.99296206980E+03  0.25500000920E-02 0. -1.
    10030    2    1    2    0    0  0.00000000000E+00  0.00000000000E+00  0.95701439001E+03  0.29429385296E+04  0.27829859228E+04 0.  0.
        5    1    3    3  502    0 -0.40487392314E+03 -0.60383547734E+03  0.17331605576E+04  0.18794700811E+04  0.46999998093E+01 0.  1.
       -5    1    3    3    0  502  0.40487392314E+03  0.60383547734E+03 -0.77614616763E+03  0.10634684485E+04  0.46999998093E+01 0. -1.
</event>
<event>
 5   0  0.1283052E-05  0.2686076E+04  0.7818609E-02  0.8339537E-01
       -2   -1    0    0    0  501  0.00000000000E+00  0.00000000000E+00  0.16476239845E+04  0.16476239845E+04  0.25500000920E-02 0.  1.
        2   -1    0    0  501    0  0.00000000000E+00  0.00000000000E+00 -0.10947589793E+04  0.10947589793E+04  0.25500000920E-02 0. -1.
    10030    2    1    2    0    0  0.00000000000E+00  0.00000000000E+00  0.55286500518E+03  0.27423829637E+04  0.26860760611E+04 0.  0.
        5    1    3    3  502    0 -0.53260879038E+03  0.61221483298E+03 -0.81616432229E+03  0.11509237231E+04  0.46999998093E+01 0. -1.
       -5    1    3    3    0  502  0.53260879038E+03 -0.61221483298E+03  0.13690293275E+04  0.15914592407E+04  0.46999998093E+01 0.  1.
</event>
<event>
 5   0  0.5281919E-06  0.2839681E+04  0.7818609E-02  0.8291054E-01
       -1   -1    0    0    0  501  0.00000000000E+00  0.00000000000E+00  0.21062606135E+04  0.21062606135E+04  0.50400001928E-02 0. -1.
        1   -1    0    0  501    0  0.00000000000E+00  0.00000000000E+00 -0.95712133439E+03  0.95712133441E+03  0.50400001928E-02 0.  1.
    10030    2    1    2    0    0  0.00000000000E+00  0.00000000000E+00  0.11491392791E+04  0.30633819479E+04  0.28396809462E+04 0.  0.
        4    1    3    3  502    0 -0.30338389403E+03 -0.21071185229E+03 -0.90437949740E+03  0.97690591157E+03  0.12699999809E+01 0.  1.
       -4    1    3    3    0  502  0.30338389403E+03  0.21071185229E+03  0.20535187765E+04  0.20864760364E+04  0.12699999809E+01 0. -1.
</event>
<event>
 5   0  0.1302063E-05  0.2565975E+04  0.7818609E-02  0.8379851E-01
       -2   -1    0    0    0  501  0.00000000000E+00  0.00000000000E+00  0.67448567064E+03  0.67448567064E+03  0.25500000920E-02 0. -1.
        2   -1    0    0  501    0  0.00000000000E+00  0.00000000000E+00 -0.24404631222E+04  0.24404631222E+04  0.25500000920E-02 0.  1.
    10030    2    1    2    0    0  0.00000000000E+00  0.00000000000E+00 -0.17659774515E+04  0.31149487928E+04  0.25659753745E+04 0.  0.
        2    1    3    3  502    0 -0.77664707277E+03 -0.69794227432E+03  0.21992265446E+02  0.10444078483E+04  0.25500000920E-02 0. -1.
       -2    1    3    3    0  502  0.77664707277E+03  0.69794227432E+03 -0.17879697170E+04  0.20705409445E+04  0.25500000920E-02 0.  1.
</event>
<event>
 5   0  0.1350863E-05  0.2849260E+04  0.7818609E-02  0.8288136E-01
       -2   -1    0    0    0  501  0.00000000000E+00  0.00000000000E+00  0.13168161912E+04  0.13168161912E+04  0.25500000920E-02 0. -1.
        2   -1    0    0  501    0  0.00000000000E+00  0.00000000000E+00 -0.15412715457E+04  0.15412715457E+04  0.25500000920E-02 0.  1.
    10030    2    1    2    0    0  0.00000000000E+00  0.00000000000E+00 -0.22445535446E+03  0.28580877369E+04  0.28492604840E+04 0.  0.
        3    1    3    3  502    0  0.21112171884E+03  0.55781498310E+03 -0.14100061076E+04  0.15309628242E+04  0.10100000352E+00 0.  1.
       -3    1    3    3    0  502 -0.21112171884E+03 -0.55781498310E+03  0.11855507531E+04  0.13271249127E+04  0.10100000352E+00 0. -1.
</event>
<event>
 5   0  0.4764214E-06  0.2867636E+04  0.7818609E-02  0.8282572E-01
        1   -1    0    0  501    0  0.00000000000E+00  0.00000000000E+00  0.23371979618E+04  0.23371979618E+04  0.50400001928E-02 0.  1.
       -1   -1    0    0    0  501  0.00000000000E+00  0.00000000000E+00 -0.87961480964E+03  0.87961480965E+03  0.50400001928E-02 0. -1.
    10030    2    1    2    0    0  0.00000000000E+00  0.00000000000E+00  0.14575831521E+04  0.32168127714E+04  0.28676359185E+04 0.  0.
        3    1    3    3  502    0 -0.27399625166E+03 -0.12611831154E+03  0.23012056876E+04  0.23208893557E+04  0.10100000352E+00 0.  1.
       -3    1    3    3    0  502  0.27399625166E+03  0.12611831154E+03 -0.84362253544E+03  0.89592341578E+03  0.10100000352E+00 0. -1.
</event>
<event>
 5   0  0.1350863E-05  0.2799459E+04  0.7818609E-02  0.8303436E-01
        2   -1    0    0  501    0  0.00000000000E+00  0.00000000000E+00  0.19759932915E+04  0.19759932916E+04  0.25500000920E-02 0.  1.
       -2   -1    0    0    0  501  0.00000000000E+00  0.00000000000E+00 -0.99152299862E+03  0.99152299862E+03  0.25500000920E-02 0. -1.
    10030    2    1    2    0    0  0.00000000000E+00  0.00000000000E+00  0.98447029293E+03  0.29675162902E+04  0.27994590861E+04 0.  0.
        3    1    3    3  502    0  0.94920007962E+03 -0.95771516546E+03  0.89033843274E+03  0.16158284761E+04  0.10100000352E+00 0.  1.
       -3    1    3    3    0  502 -0.94920007962E+03  0.95771516546E+03  0.94131860194E+02  0.13516878140E+04  0.10100000352E+00 0. -1.
</event>
<event>
 5   0  0.5281919E-06  0.2789347E+04  0.7818609E-02  0.8306583E-01
       -1   -1    0    0    0  501  0.00000000000E+00  0.00000000000E+00  0.10640168296E+04  0.10640168296E+04  0.50400001928E-02 0. -1.
        1   -1    0    0  501    0  0.00000000000E+00  0.00000000000E+00 -0.18280861464E+04  0.18280861465E+04  0.50400001928E-02 0.  1.
    10030    2    1    2    0    0  0.00000000000E+00  0.00000000000E+00 -0.76406931683E+03  0.28921029761E+04  0.27893471823E+04 0.  0.
        4    1    3    3  502    0  0.80938381160E+03  0.12725963625E+03  0.78817712884E+03  0.11368913619E+04  0.12699999809E+01 0. -1.
       -4    1    3    3    0  502 -0.80938381160E+03 -0.12725963625E+03 -0.15522464457E+04  0.17552116142E+04  0.12699999809E+01 0.  1.
</event>
<event>
 5   0  0.1283052E-05  0.2793074E+04  0.7818609E-02  0.8305422E-01
       -2   -1    0    0    0  501  0.00000000000E+00  0.00000000000E+00  0.16339650176E+04  0.16339650176E+04  0.25500000920E-02 0.  1.
        2   -1    0    0  501    0  0.00000000000E+00  0.00000000000E+00 -0.11936095698E+04  0.11936095699E+04  0.25500000920E-02 0. -1.
    10030    2    1    2    0    0  0.00000000000E+00  0.00000000000E+00  0.44035544776E+03  0.28275745875E+04  0.27930744937E+04 0.  0.
        5    1    3    3  502    0 -0.12695559197E+03 -0.13906768993E+04  0.23428655766E+03  0.14159845485E+04  0.46999998093E+01 0. -1.
       -5    1    3    3    0  502  0.12695559197E+03  0.13906768993E+04  0.20606889011E+03  0.14115900389E+04  0.46999998093E+01 0.  1.
</event>
<event>
 5   0  0.4764214E-06  0.2742102E+04  0.7818609E-02  0.8321472E-01
       -1   -1    0    0    0  501  0.00000000000E+00  0.00000000000E+00  0.71855033488E+03  0.71855033490E+03  0.50400001928E-02 0.  1.
        1   -1    0    0  501    0  0.00000000000E+00  0.00000000000E+00 -0.26160746374E+04  0.26160746374E+04  0.50400001928E-02 0. -1.
    10030    2    1    2    0    0  0.00000000000E+00  0.00000000000E+00 -0.18975243025E+04  0.33346249723E+04  0.27421023371E+04 0.  0.
        3    1    3    3  502    0 -0.11721115927E+04  0.71119012546E+03 -0.96337116986E+03  0.16756255553E+04  0.10100000352E+00 0. -1.
       -3    1    3    3    0  502  0.11721115927E+04 -0.71119012546E+03 -0.93415313264E+03  0.16589994170E+04  0.10100000352E+00 0.  1.
</event>
<event>
 5   0  0.1302063E-05  0.2827939E+04  0.7818609E-02  0.8294646E-01
        2   -1    0    0  501    0  0.00000000000E+00  0.00000000000E+00  0.13095062064E+04  0.13095062064E+04  0.25500000920E-02 0. -1.
       -2   -1    0    0    0  501  0.00000000000E+00  0.00000000000E+00 -0.15267665013E+04  0.15267665013E+04  0.25500000920E-02 0.  1.
    10030    2    1    2    0    0  0.00000000000E+00  0.00000000000E+00 -0.21726029491E+03  0.28362727077E+04  0.28279393269E+04 0.  0.
        2    1    3    3  502    0  0.13789309146E+04  0.36645032969E+02  0.20295700589E+03  0.13942685796E+04  0.25500000920E-02 0. -1.
       -2    1    3    3    0  502 -0.13789309146E+04 -0.36645032969E+02 -0.42021730079E+03  0.14420041282E+04  0.25500000920E-02 0.  1.
</event>
<event>
 5   0  0.5023691E-06  0.2794412E+04  0.7818609E-02  0.8305005E-01
        1   -1    0    0  501    0  0.00000000000E+00  0.00000000000E+00  0.23478685098E+04  0.23478685098E+04  0.50400001928E-02 0.  1.
       -1   -1    0    0    0  501  0.00000000000E+00  0.00000000000E+00 -0.83147113810E+03  0.83147113811E+03  0.50400001928E-02 0. -1.
    10030    2    1    2    0    0  0.00000000000E+00  0.00000000000E+00  0.15163973717E+04  0.31793396479E+04  0.27944122115E+04 0.  0.
        5    1    3    3  502    0 -0.13728051713E+04 -0.17475453365E+03  0.97713667386E+03  0.16940930773E+04  0.46999998093E+01 0.  1.
       -5    1    3    3    0  502  0.13728051713E+04  0.17475453365E+03  0.53926069788E+03  0.14852465706E+04  0.46999998093E+01 0. -1.
</event>
<event>
 5   0  0.5107453E-06  0.2812453E+04  0.7818609E-02  0.8299413E-01
        1   -1    0    0  501    0  0.00000000000E+00  0.00000000000E+00  0.15281865610E+04  0.15281865610E+04  0.50400001928E-02 0.  1.
       -1   -1    0    0    0  501  0.00000000000E+00  0.00000000000E+00 -0.12939996872E+04  0.12939996873E+04  0.50400001928E-02 0. -1.
    10030    2    1    2    0    0  0.00000000000E+00  0.00000000000E+00  0.23418687377E+03  0.28221862483E+04  0.28124529735E+04 0.  0.
        2    1    3    3  502    0  0.96146592488E+03  0.67301097406E+03  0.89444363804E+03  0.14755981558E+04  0.25500000920E-02 0.  1.
       -2    1    3    3    0  502 -0.96146592488E+03 -0.67301097406E+03 -0.66025676426E+03  0.13465880924E+04  0.25500000920E-02 0. -1.
</event>
<event>
 5   0  0.5023691E-06  0.2809850E+04  0.7818609E-02  0.8300217E-01
       -1   -1    0    0    0  501  0.00000000000E+00  0.00000000000E+00  0.10201208708E+04  0.10201208708E+04  0.50400001928E-02 0.  1.
        1   -1    0    0  501    0  0.00000000000E+00  0.00000000000E+00 -0.19348822563E+04  0.19348822563E+04  0.50400001928E-02 0. -1.
    10030    2    1    2    0    0  0.00000000000E+00  0.00000000000E+00 -0.91476138548E+03  0.29550031271E+04  0.28098496559E+04 0.  0.
        5    1    3    3  502    0 -0.10018197857E+04  0.73863539569E+03  0.22786726483E+03  0.12653737437E+04  0.46999998093E+01 0.  1.
       -5    1    3    3    0  502  0.10018197857E+04 -0.73863539569E+03 -0.11426286503E+04  0.16896293834E+04  0.46999998093E+01 0. -1.
</event>
<event>
 5   0  0.1283052E-05  0.2802278E+04  0.7818609E-02  0.8302561E-01
       -2   -1    0    0    0  501  0.00000000000E+00  0.00000000000E+00  0.17795735929E+04  0.17795735929E+04  0.25500000920E-02 0.  1.
        2   -1    0    0  501    0  0.00000000000E+00  0.00000000000E+00 -0.11031804535E+04  0.11031804535E+04  0.25500000920E-02 0. -1.
    10030    2    1    2    0    0  0.00000000000E+00  0.00000000000E+00  0.67639313932E+03  0.28827540464E+04  0.28022782184E+04 0.  0.
        5    1    3    3  502    0  0.10407763620E+04  0.65056374220E+03  0.10334151962E+04  0.16044991980E+04  0.46999998093E+01 0.  1.
       -5    1    3    3    0  502 -0.10407763620E+04 -0.65056374220E+03 -0.35702205693E+03  0.12782548484E+04  0.46999998093E+01 0. -1.
</event>
<event>
 5   0  0.5023691E-06  0.2621722E+04  0.7818609E-02  0.8360860E-01
        1   -1    0    0  501    0  0.00000000000E+00  0.00000000000E+00  0.12051282479E+04  0.12051282479E+04  0.50400001928E-02 0. -1.
       -1   -1    0    0    0  501  0.00000000000E+00  0.00000000000E+00 -0.14258705114E+04  0.14258705115E+04  0.50400001928E-02 0.  1.
    10030    2    1    2    0    0  0.00000000000E+00  0.00000000000E+00 -0.22074226360E+03  0.26309987593E+04  0.26217222058E+04 0.  0.
        5    1    3    3  502    0 -0.90031772529E+03  0.30595771887E+03  0.79512558551E+03  0.12395277000E+04  0.46999998093E+01 0. -1.
       -5    1    3    3    0  502  0.90031772529E+03 -0.30595771887E+03 -0.10158678491E+04  0.13914710594E+04  0.46999998093E+01 0.  1.
</event>
<event>
 5   0  0.1388269E-05  0.2805956E+04  0.7818609E-02  0.8301422E-01
        2   -1    0    0  501    0  0.00000000000E+00  0.00000000000E+00  0.20253673082E+04  0.20253673082E+04  0.25500000920E-02 0.  1.
       -2   -1    0    0    0  501  0.00000000000E+00  0.00000000000E+00 -0.97184733269E+03  0.97184733269E+03  0.25500000920E-02 0. -1.
    10030    2    1    2    0    0  0.00000000000E+00  0.00000000000E+00  0.10535199756E+04  0.29972146409E+04  0.28059563904E+04 0.  0.
        1    1    3    3  502    0  0.16679459752E+03 -0.45579294337E+03  0.19328355594E+04  0.19928424285E+04  0.50400001928E-02 0.  1.
       -1    1    3    3    0  502 -0.16679459752E+03  0.45579294337E+03 -0.87931558389E+03  0.10043722124E+04  0.50400001928E-02 0. -1.
</event>
<event>
 5   0  0.1283052E-05  0.2780681E+04  0.7818609E-02  0.8309291E-01
       -2   -1    0    0    0  501  0.00000000000E+00  0.00000000000E+00  0.23844837485E+04  0.23844837485E+04  0.25500000920E-02 0. -1.
        2   -1    0    0  501    0  0.00000000000E+00  0.00000000000E+00 -0.81067740645E+03  0.81067740646E+03  0.25500000920E-02 0.  1.
    10030    2    1    2    0    0  0.00000000000E+00  0.00000000000E+00  0.15738063421E+04  0.31951611550E+04  0.27806812841E+04 0.  0.
        5    1    3    3  502    0 -0.82246127803E+03  0.32889650120E+03  0.20182770914E+04  0.22041052538E+04  0.46999998093E+01 0. -1.
       -5    1    3    3    0  502  0.82246127803E+03 -0.32889650120E+03 -0.44447074926E+03  0.99105590120E+03  0.46999998093E+01 0.  1.
</event>
<event>
 5   0  0.1283052E-05  0.2807682E+04  0.7818609E-02  0.8300887E-01
       -2   -1    0    0    0  501  0.00000000000E+00  0.00000000000E+00  0.11045709347E+04  0.11045709347E+04  0.25500000920E-02 0. -1.
        2   -1    0    0  501    0  0.00000000000E+00  0.00000000000E+00 -0.17841950841E+04  0.17841950841E+04  0.25500000920E-02 0.  1.
    10030    2    1    2    0    0  0.00000000000E+00  0.00000000000E+00 -0.67962414944E+03  0.28887660188E+04  0.28076823408E+04 0.  0.
        5    1    3    3  502    0  0.70455120587E+02  0.94387673619E+03  0.72689342378E+03  0.11934250528E+04  0.46999998093E+01 0. -1.
       -5    1    3    3    0  502 -0.70455120587E+02 -0.94387673619E+03 -0.14065175732E+04  0.16953409660E+04  0.46999998093E+01 0.  1.
</event>
<event>
 5   0  0.5023691E-06  0.2804783E+04  0.7818609E-02  0.8301785E-01
       -1   -1    0    0    0  501  0.00000000000E+00  0.00000000000E+00  0.17666067807E+04  0.17666067807E+04  0.50400001928E-02 0.  1.
        1   -1    0    0  501    0  0.00000000000E+00  0.00000000000E+00 -0.11132653804E+04  0.11132653804E+04  0.50400001928E-02 0. -1.
    10030    2    1    2    0    0  0.00000000000E+00  0.00000000000E+00  0.65334140025E+03  0.28798721611E+04  0.28047831786E+04 0.  0.
        5    1    3    3  502    0 -0.21234958069E+03  0.22698836563E+03  0.17307839981E+04  0.17584798550E+04  0.46999998093E+01 0.  1.
       -5    1    3    3    0  502  0.21234958069E+03 -0.22698836563E+03 -0.10774425978E+04  0.11213923061E+04  0.46999998093E+01 0. -1.
</event>
<event>
 5   0  0.5023691E-06  0.2777016E+04  0.7818609E-02  0.8310440E-01
       -1   -1    0    0    0  501  0.00000000000E+00  0.00000000000E+00  0.14015709384E+04  0.14015709384E+04  0.50400001928E-02 0. -1.
        1   -1    0    0  501    0  0.00000000000E+00  0.00000000000E+00 -0.13755667663E+04  0.13755667663E+04  0.50400001928E-02 0.  1.
    10030    2    1    2    0    0  0.00000000000E+00  0.00000000000E+00  0.26004172088E+02  0.27771377047E+04  0.27770159550E+04 0.  0.
        5    1    3    3  502    0 -0.10872867139E+04 -0.82586488233E+03  0.26537620500E+03  0.13909319977E+04  0.46999998093E+01 0.  1.
       -5    1    3    3    0  502  0.10872867139E+04  0.82586488233E+03 -0.23937203291E+03  0.13862057070E+04  0.46999998093E+01 0. -1.
</event>
<event>
 5   0  0.1283052E-05  0.2917655E+04  0.7818609E-02  0.8267644E-01
        2   -1    0    0  501    0  0.00000000000E+00  0.00000000000E+00  0.19087594204E+04  0.19087594204E+04  0.25500000920E-02 0. -1.
       -2   -1    0    0    0  501  0.00000000000E+00  0.00000000000E+00 -0.11149530653E+04  0.11149530653E+04  0.25500000920E-02 0.  1.
    10030    2    1    2    0    0  0.00000000000E+00  0.00000000000E+00  0.79380635515E+03  0.30237124857E+04  0.29176546517E+04 0.  0.
        5    1    3    3  502    0  0.23113798032E+03 -0.11491841956E+04 -0.50305598868E+03  0.12755926070E+04  0.46999998093E+01 0.  1.
       -5    1    3    3    0  502 -0.23113798032E+03  0.11491841956E+04  0.12968623438E+04  0.17481198787E+04  0.46999998093E+01 0. -1.
</event>
<event>
 5   0  0.5281919E-06  0.2808972E+04  0.7818609E-02  0.8300488E-01
       -1   -1    0    0    0  501  0.00000000000E+00  0.00000000000E+00  0.97623910511E+03  0.97623910512E+03  0.50400001928E-02 0.  1.
        1   -1    0    0  501    0  0.00000000000E+00  0.00000000000E+00 -0.20205917945E+04  0.20205917945E+04  0.50400001928E-02 0. -1.
    10030    2    1    2    0    0  0.00000000000E+00  0.00000000000E+00 -0.10443526894E+04  0.29968308996E+04  0.28089718583E+04 0.  0.
        4    1    3    3  502    0 -0.70683341090E+02  0.99121398753E+02 -0.20149513170E+04  0.20186261688E+04  0.12699999809E+01 0. -1.
       -4    1    3    3    0  502  0.70683341090E+02 -0.99121398753E+02  0.97059862768E+03  0.97820473080E+03  0.12699999809E+01 0.  1.
</event>
<event>
 5   0  0.1388269E-05  0.2906378E+04  0.7818609E-02  0.8270982E-01
       -2   -1    0    0    0  501  0.00000000000E+00  0.00000000000E+00  0.16388655791E+04  0.16388655791E+04  0.25500000920E-02 0.  1.
        2   -1    0    0  501    0  0.00000000000E+00  0.00000000000E+00 -0.12885488896E+04  0.12885488896E+04  0.25500000920E-02 0. -1.
    10030    2    1    2    0    0  0.00000000000E+00  0.00000000000E+00  0.35031668949E+03  0.29274144687E+04  0.29063781049E+04 0.  0.
        1    1    3    3  502    0 -0.93310893535E+03 -0.57462653252E+03  0.11364616085E+04  0.15787440973E+04  0.50400001928E-02 0.  1.
       -1    1    3    3    0  502  0.93310893535E+03  0.57462653252E+03 -0.78614491898E+03  0.13486703714E+04  0.50400001928E-02 0. -1.
</event>
<event>
 5   0  0.5023691E-06  0.2773822E+04  0.7818609E-02  0.8311442E-01
        1   -1    0    0  501    0  0.00000000000E+00  0.00000000000E+00  0.16476691977E+04  0.16476691977E+04  0.50400001928E-02 0. -1.
       -1   -1    0    0    0  501  0.00000000000E+00  0.00000000000E+00 -0.11674199233E+04  0.11674199233E+04  0.50400001928E-02 0.  1.
    10030    2    1    2    0    0  0.00000000000E+00  0.00000000000E+00  0.48024927443E+03  0.28150891210E+04  0.27738218028E+04 0.  0.
        5    1    3    3  502    0 -0.76819460011E+03  0.99705073615E+03  0.83125623260E+03  0.15083905755E+04  0.46999998093E+01 0. -1.
       -5    1    3    3    0  502  0.76819460011E+03 -0.99705073615E+03 -0.35100695817E+03  0.13066985455E+04  0.46999998093E+01 0.  1.
</event>
<event>
 5   0  0.5217999E-06  0.2429774E+04  0.7818609E-02  0.8428440E-01
       -1   -1    0    0    0  501  0.00000000000E+00  0.00000000000E+00  0.17037900341E+04  0.17037900341E+04  0.50400001928E-02 0.  1.
        1   -1    0    0  501    0  0.00000000000E+00  0.00000000000E+00 -0.86627461712E+03  0.86627461713E+03  0.50400001928E-02 0. -1.
    10030    2    1    2    0    0  0.00000000000E+00  0.00000000000E+00  0.83751541702E+03  0.25700646513E+04  0.24297737010E+04 0.  0.
        1    1    3    3  502    0 -0.73775293999E+03 -0.94940059218E+03  0.23461044234E+03  0.12250236506E+04  0.50400001928E-02 0. -1.
       -1    1    3    3    0  502  0.73775293999E+03  0.94940059218E+03  0.60290497468E+03  0.13450410006E+04  0.50400001928E-02 0.  1.
</event>
<event>
 5   0  0.5217999E-06  0.2785493E+04  0.7818609E-02  0.8307786E-01
       -1   -1    0    0    0  501  0.00000000000E+00  0.00000000000E+00  0.70924694362E+03  0.70924694364E+03  0.50400001928E-02 0. -1.
        1   -1    0    0  501    0  0.00000000000E+00  0.00000000000E+00 -0.27349332028E+04  0.27349332028E+04  0.50400001928E-02 0.  1.
    10030    2    1    2    0    0  0.00000000000E+00  0.00000000000E+00 -0.20256862592E+04  0.34441801464E+04  0.27854931449E+04 0.  0.
        1    1    3    3  502    0 -0.20428252354E+03  0.13612485756E+04 -0.75050738025E+03  0.15677979340E+04  0.50400001928E-02 0. -1.
       -1    1    3    3    0  502  0.20428252354E+03 -0.13612485756E+04 -0.12751788789E+04  0.18763822124E+04  0.50400001928E-02 0.  1.
</event>
<event>
 5   0  0.5281919E-06  0.2780779E+04  0.7818609E-02  0.8309261E-01
       -1   -1    0    0    0  501  0.00000000000E+00  0.00000000000E+00  0.10680382139E+04  0.10680382139E+04  0.50400001928E-02 0. -1.
        1   -1    0    0  501    0  0.00000000000E+00  0.00000000000E+00 -0.18100312692E+04  0.18100312693E+04  0.50400001928E-02 0.  1.
    10030    2    1    2    0    0  0.00000000000E+00  0.00000000000E+00 -0.74199305534E+03  0.28780694832E+04  0.27807787139E+04 0.  0.
        4    1    3    3  502    0 -0.13382960204E+04  0.28198353850E+03 -0.63001219791E+03  0.15058113881E+04  0.12699999809E+01 0.  1.
       -4    1    3    3    0  502  0.13382960204E+04 -0.28198353850E+03 -0.11198085743E+03  0.13722580951E+04  0.12699999809E+01 0. -1.
</event>
<event>
 5   0  0.1330962E-05  0.2807120E+04  0.7818609E-02  0.8301061E-01
        2   -1    0    0  501    0  0.00000000000E+00  0.00000000000E+00  0.22925515900E+04  0.22925515900E+04  0.25500000920E-02 0.  1.
       -2   -1    0    0    0  501  0.00000000000E+00  0.00000000000E+00 -0.85929592407E+03  0.85929592407E+03  0.25500000920E-02 0. -1.
    10030    2    1    2    0    0  0.00000000000E+00  0.00000000000E+00  0.14332556659E+04  0.31518475140E+04  0.28071196889E+04 0.  0.
        4    1    3    3  502    0  0.84051841884E+03 -0.91762073514E+02 -0.54125794426E+03  0.10039189537E+04  0.12699999809E+01 0. -1.
       -4    1    3    3    0  502 -0.84051841884E+03  0.91762073514E+02  0.19745136102E+04  0.21479285603E+04  0.12699999809E+01 0.  1.
</event>
<event>
 5   0  0.1350863E-05  0.2600967E+04  0.7818609E-02  0.8367873E-01
       -2   -1    0    0    0  501  0.00000000000E+00  0.00000000000E+00  0.88408503284E+03  0.88408503284E+03  0.25500000920E-02 0. -1.
        2   -1    0    0  501    0  0.00000000000E+00  0.00000000000E+00 -0.19130025428E+04  0.19130025428E+04  0.25500000920E-02 0.  1.
    10030    2    1    2    0    0  0.00000000000E+00  0.00000000000E+00 -0.10289175100E+04  0.27970875757E+04  0.26009666787E+04 0.  0.
        3    1    3    3  502    0 -0.34163341683E+03 -0.10130567807E+04 -0.13107360785E+04  0.16914569193E+04  0.10100000352E+00 0.  1.
       -3    1    3    3    0  502  0.34163341683E+03  0.10130567807E+04  0.28181856847E+03  0.11056306563E+04  0.10100000352E+00 0. -1.
</event>
<event>
 5   0  0.5281919E-06  0.2796117E+04  0.7818609E-02  0.8304475E-01
       -1   -1    0    0    0  501  0.00000000000E+00  0.00000000000E+00  0.15624140864E+04  0.15624140864E+04  0.50400001928E-02 0. -1.
        1   -1    0    0  501    0  0.00000000000E+00  0.00000000000E+00 -0.12509923908E+04  0.12509923908E+04  0.50400001928E-02 0.  1.
    10030    2    1    2    0    0  0.00000000000E+00  0.00000000000E+00  0.31142169562E+03  0.28134064772E+04  0.27961174033E+04 0.  0.
        4    1    3    3  502    0 -0.16224633101E+03  0.12166173330E+04 -0.51781961236E+03  0.13321487795E+04  0.12699999809E+01 0.  1.
       -4    1    3    3    0  502  0.16224633101E+03 -0.12166173330E+04  0.82924130798E+03  0.14812576976E+04  0.12699999809E+01 0. -1.
</event>
<event>
 5   0  0.1283052E-05  0.2795826E+04  0.7818609E-02  0.8304565E-01
        2   -1    0    0  501    0  0.00000000000E+00  0.00000000000E+00  0.11952286092E+04  0.11952286092E+04  0.25500000920E-02 0. -1.
       -2   -1    0    0    0  501  0.00000000000E+00  0.00000000000E+00 -0.16349686156E+04  0.16349686156E+04  0.25500000920E-02 0.  1.
    10030    2    1    2    0    0  0.00000000000E+00  0.00000000000E+00 -0.43974000640E+03  0.28301972249E+04  0.27958263641E+04 0.  0.
        5    1    3    3  502    0 -0.74049868970E+03 -0.92698095086E+03  0.52847944315E+03  0.12988243163E+04  0.46999998093E+01 0. -1.
       -5    1    3    3    0  502  0.74049868970E+03  0.92698095086E+03 -0.96821944955E+03  0.15313729086E+04  0.46999998093E+01 0.  1.
</event>
<event>
 5   0  0.1350863E-05  0.2824354E+04  0.7818609E-02  0.8295747E-01
        2   -1    0    0  501    0  0.00000000000E+00  0.00000000000E+00  0.17008366312E+04  0.17008366312E+04  0.25500000920E-02 0.  1.
       -2   -1    0    0    0  501  0.00000000000E+00  0.00000000000E+00 -0.11725072938E+04  0.11725072938E+04  0.25500000920E-02 0. -1.
    10030    2    1    2    0    0  0.00000000000E+00  0.00000000000E+00  0.52832933741E+03  0.28733439251E+04  0.28243536292E+04 0.  0.
        3    1    3    3  502    0  0.13911353090E+04 -0.11855287517E+03  0.47981102753E+03  0.14763234282E+04  0.10100000352E+00 0.  1.
       -3    1    3    3    0  502 -0.13911353090E+04  0.11855287517E+03  0.48518309883E+02  0.13970204969E+04  0.10100000352E+00 0. -1.
</event>
<event>
 5   0  0.1330962E-05  0.2771301E+04  0.7818609E-02  0.8312234E-01
        2   -1    0    0  501    0  0.00000000000E+00  0.00000000000E+00  0.17496570574E+04  0.17496570574E+04  0.25500000920E-02 0. -1.
       -2   -1    0    0    0  501  0.00000000000E+00  0.00000000000E+00 -0.10973734672E+04  0.10973734672E+04  0.25500000920E-02 0.  1.
    10030    2    1    2    0    0  0.00000000000E+00  0.00000000000E+00  0.65228359019E+03  0.28470305247E+04  0.27713009448E+04 0.  0.
        4    1    3    3  502    0  0.21567582263E+03  0.37632479217E+03  0.16781162530E+04  0.17332663330E+04  0.12699999809E+01 0. -1.
       -4    1    3    3    0  502 -0.21567582263E+03 -0.37632479217E+03 -0.10258326628E+04  0.11137641917E+04  0.12699999809E+01 0.  1.
</event>
<event>
 5   0  0.1302063E-05  0.2807039E+04  0.7818609E-02  0.8301086E-01
        2   -1    0    0  501    0  0.00000000000E+00  0.00000000000E+00  0.22312048629E+04  0.22312048629E+04  0.25500000920E-02 0. -1.
       -2   -1    0    0    0  501  0.00000000000E+00  0.00000000000E+00 -0.88287120629E+03  0.88287120630E+03  0.25500000920E-02 0.  1.
    10030    2    1    2    0    0  0.00000000000E+00  0.00000000000E+00  0.13483336566E+04  0.31140760692E+04  0.28070386736E+04 0.  0.
        2    1    3    3  502    0  0.67180411541E+03 -0.11125420334E+04  0.86303638982E+02  0.13025048421E+04  0.25500000920E-02 0.  1.
       -2    1    3    3    0  502 -0.67180411541E+03  0.11125420334E+04  0.12620300176E+04  0.18115712271E+04  0.25500000920E-02 0. -1.
</event>
<event>
 5   0  0.1302063E-05  0.2551317E+04  0.7818609E-02  0.8384928E-01
        2   -1    0    0  501    0  0.00000000000E+00  0.00000000000E+00  0.15514191838E+04  0.15514191839E+04  0.25500000920E-02 0.  1.
       -2   -1    0    0    0  501  0.00000000000E+00  0.00000000000E+00 -0.10489133363E+04  0.10489133364E+04  0.25500000920E-02 0. -1.
    10030    2    1    2    0    0  0.00000000000E+00  0.00000000000E+00  0.50250584750E+03  0.26003325202E+04  0.25513167363E+04 0.  0.
        2    1    3    3  502    0 -0.27070332423E+03  0.86159193669E+03 -0.66699048434E+03  0.11227186920E+04  0.25500000920E-02 0. -1.
       -2    1    3    3    0  502  0.27070332423E+03 -0.86159193669E+03  0.11694963318E+04  0.14776138282E+04  0.25500000920E-02 0.  1.
</event>
<event>
 5   0  0.1302063E-05  0.2789794E+04  0.7818609E-02  0.8306444E-01
        2   -1    0    0  501    0  0.00000000000E+00  0.00000000000E+00  0.15292095922E+04  0.15292095923E+04  0.25500000920E-02 0.  1.
       -2   -1    0    0    0  501  0.00000000000E+00  0.00000000000E+00 -0.12723810381E+04  0.12723810381E+04  0.25500000920E-02 0. -1.
    10030    2    1    2    0    0  0.00000000000E+00  0.00000000000E+00  0.25682855416E+03  0.28015906303E+04  0.27897937475E+04 0.  0.
        2    1    3    3  502    0  0.33761918549E+03  0.11183744855E+04  0.89386381650E+03  0.14709659162E+04  0.25500000920E-02 0.  1.
       -2    1    3    3    0  502 -0.33761918549E+03 -0.11183744855E+04 -0.63703526234E+03  0.13306247141E+04  0.25500000920E-02 0. -1.
</event>
<event>
 5   0  0.1350863E-05  0.2921086E+04  0.7818609E-02  0.8266631E-01
       -2   -1    0    0    0  501  0.00000000000E+00  0.00000000000E+00  0.12708375325E+04  0.12708375325E+04  0.25500000920E-02 0.  1.
        2   -1    0    0  501    0  0.00000000000E+00  0.00000000000E+00 -0.16785674337E+04  0.16785674337E+04  0.25500000920E-02 0. -1.
    10030    2    1    2    0    0  0.00000000000E+00  0.00000000000E+00 -0.40772990125E+03  0.29494049662E+04  0.29210864387E+04 0.  0.
        3    1    3    3  502    0 -0.86989468622E+02 -0.19746931751E+03 -0.16623843881E+04  0.16763302667E+04  0.10100000352E+00 0. -1.
       -3    1    3    3    0  502  0.86989468622E+02  0.19746931751E+03  0.12546544868E+04  0.12730746995E+04  0.10100000352E+00 0.  1.
</event>
<event>
 5   0  0.1330962E-05  0.2665102E+04  0.7818609E-02  0.8346418E-01
        2   -1    0    0  501    0  0.00000000000E+00  0.00000000000E+00  0.14262928159E+04  0.14262928159E+04  0.25500000920E-02 0.  1.
       -2   -1    0    0    0  501  0.00000000000E+00  0.00000000000E+00 -0.12449702894E+04  0.12449702894E+04  0.25500000920E-02 0. -1.
    10030    2    1    2    0    0  0.00000000000E+00  0.00000000000E+00  0.18132252641E+03  0.26712631053E+04  0.26651020092E+04 0.  0.
        4    1    3    3  502    0  0.57735145661E+00  0.13040666314E+04 -0.18401688545E+03  0.13169866892E+04  0.12699999809E+01 0. -1.
       -4    1    3    3    0  502 -0.57735145661E+00 -0.13040666314E+04  0.36533941186E+03  0.13542764161E+04  0.12699999809E+01 0.  1.
</event>
<event>
 5   0  0.1388269E-05  0.2746335E+04  0.7818609E-02  0.8320125E-01
       -2   -1    0    0    0  501  0.00000000000E+00  0.00000000000E+00  0.81845578128E+03  0.81845578129E+03  0.25500000920E-02 0.  1.
        2   -1    0    0  501    0  0.00000000000E+00  0.00000000000E+00 -0.23038377196E+04  0.23038377196E+04  0.25500000920E-02 0. -1.
    10030    2    1    2    0    0  0.00000000000E+00  0.00000000000E+00 -0.14853819383E+04  0.31222935008E+04  0.27463352313E+04 0.  0.
        1    1    3    3  502    0  0.13434390776E+04 -0.10346516618E+02 -0.41981753648E+03  0.14075448020E+04  0.50400001928E-02 0.  1.
       -1    1    3    3    0  502 -0.13434390776E+04  0.10346516618E+02 -0.10655644018E+04  0.17147486988E+04  0.50400001928E-02 0. -1.
</event>
<event>
 5   0  0.5217999E-06  0.2814643E+04  0.7818609E-02  0.8298737E-01
       -1   -1    0    0    0  501  0.00000000000E+00  0.00000000000E+00  0.11160950850E+04  0.11160950850E+04  0.50400001928E-02 0. -1.
        1   -1    0    0  501    0  0.00000000000E+00  0.00000000000E+00 -0.17745391486E+04  0.17745391486E+04  0.50400001928E-02 0.  1.
    10030    2    1    2    0    0  0.00000000000E+00  0.00000000000E+00 -0.65844406361E+03  0.28906342336E+04  0.28146434388E+04 0.  0.
        1    1    3    3  502    0  0.36041516007E+03  0.13603412633E+04 -0.34079487656E+03  0.14479532410E+04  0.50400001928E-02 0.  1.
       -1    1    3    3    0  502 -0.36041516007E+03 -0.13603412633E+04 -0.31764918705E+03  0.14426809926E+04  0.50400001928E-02 0. -1.
</event>
<event>
 5   0  0.4764214E-06  0.2732076E+04  0.7818609E-02  0.8324672E-01
        1   -1    0    0  501    0  0.00000000000E+00  0.00000000000E+00  0.10529784602E+04  0.10529784602E+04  0.50400001928E-02 0.  1.
       -1   -1    0    0    0  501  0.00000000000E+00  0.00000000000E+00 -0.17721729896E+04  0.17721729896E+04  0.50400001928E-02 0. -1.
    10030    2    1    2    0    0  0.00000000000E+00  0.00000000000E+00 -0.71919452936E+03  0.28251514498E+04  0.27320761232E+04 0.  0.
        3    1    3    3  502    0 -0.62883901928E+03  0.11603440433E+03  0.88865448513E+03  0.10948101659E+04  0.10100000352E+00 0.  1.
       -3    1    3    3    0  502  0.62883901928E+03 -0.11603440433E+03 -0.16078490145E+04  0.17303412839E+04  0.10100000352E+00 0. -1.
</event>
<event>
 5   0  0.5217999E-06  0.2785132E+04  0.7818609E-02  0.8307899E-01
        1   -1    0    0  501    0  0.00000000000E+00  0.00000000000E+00  0.23430603236E+04  0.23430603236E+04  0.50400001928E-02 0.  1.
       -1   -1    0    0    0  501  0.00000000000E+00  0.00000000000E+00 -0.82765276828E+03  0.82765276829E+03  0.50400001928E-02 0. -1.
    10030    2    1    2    0    0  0.00000000000E+00  0.00000000000E+00  0.15154075553E+04  0.31707130919E+04  0.27851322145E+04 0.  0.
        1    1    3    3  502    0  0.19338530106E+03  0.12664378484E+04  0.13791491883E+04  0.18823695658E+04  0.50400001928E-02 0.  1.
       -1    1    3    3    0  502 -0.19338530106E+03 -0.12664378484E+04  0.13625836699E+03  0.12883435261E+04  0.50400001928E-02 0. -1.
</event>
<event>
 5   0  0.1330962E-05  0.2826987E+04  0.7818609E-02  0.8294939E-01
        2   -1    0    0  501    0  0.00000000000E+00  0.00000000000E+00  0.29711844698E+04  0.29711844698E+04  0.25500000920E-02 0. -1.
       -2   -1    0    0    0  501  0.00000000000E+00  0.00000000000E+00 -0.67244686143E+03  0.67244686144E+03  0.25500000920E-02 0.  1.
    10030    2    1    2    0    0  0.00000000000E+00  0.00000000000E+00  0.22987376084E+04  0.36436313313E+04  0.28269868563E+04 0.  0.
        4    1    3    3  502    0 -0.10988442145E+04  0.66306360203E+03  0.19128027158E+04  0.23034599607E+04  0.12699999809E+01 0. -1.
       -4    1    3    3    0  502  0.10988442145E+04 -0.66306360203E+03  0.38593489256E+03  0.13401713705E+04  0.12699999809E+01 0.  1.
</event>
<event>
 5   0  0.1302063E-05  0.2840473E+04  0.7818609E-02  0.8290812E-01
        2   -1    0    0  501    0  0.00000000000E+00  0.00000000000E+00  0.14032001591E+04  0.14032001591E+04  0.25500000920E-02 0. -1.
       -2   -1    0    0    0  501  0.00000000000E+00  0.00000000000E+00 -0.14374798423E+04  0.14374798423E+04  0.25500000920E-02 0.  1.
    10030    2    1    2    0    0  0.00000000000E+00  0.00000000000E+00 -0.34279683206E+02  0.28406800013E+04  0.28404731601E+04 0.  0.
        2    1    3    3  502    0  0.22142349077E+03  0.11489051893E+04  0.78794079599E+03  0.14106247532E+04  0.25500000920E-02 0.  1.
       -2    1    3    3    0  502 -0.22142349077E+03 -0.11489051893E+04 -0.82222047920E+03  0.14300552481E+04  0.25500000920E-02 0. -1.
</event>
<event>
 5   0  0.1302063E-05  0.2793437E+04  0.7818609E-02  0.8305309E-01
        2   -1    0    0  501    0  0.00000000000E+00  0.00000000000E+00  0.15112809185E+04  0.15112809185E+04  0.25500000920E-02 0. -1.
       -2   -1    0    0    0  501  0.00000000000E+00  0.00000000000E+00 -0.12908400828E+04  0.12908400828E+04  0.25500000920E-02 0.  1.
    10030    2    1    2    0    0  0.00000000000E+00  0.00000000000E+00  0.22044083572E+03  0.28021210012E+04  0.27934365830E+04 0.  0.
        2    1    3    3  502    0 -0.48816391892E+03  0.10323126886E+04  0.91698969631E+03  0.14645284572E+04  0.25500000920E-02 0.  1.
       -2    1    3    3    0  502  0.48816391892E+03 -0.10323126886E+04 -0.69654886059E+03  0.13375925441E+04  0.25500000920E-02 0. -1.
</event>
<event>
 5   0  0.1388269E-05  0.2807011E+04  0.7818609E-02  0.8301095E-01
       -2   -1    0    0    0  501  0.00000000000E+00  0.00000000000E+00  0.11080574411E+04  0.11080574411E+04  0.25500000920E-02 0. -1.
        2   -1    0    0  501    0  0.00000000000E+00  0.00000000000E+00 -0.17777308286E+04  0.17777308286E+04  0.25500000920E-02 0.  1.
    10030    2    1    2    0    0  0.00000000000E+00  0.00000000000E+00 -0.66967338755E+03  0.28857882697E+04  0.28070111313E+04 0.  0.
        1    1    3    3  502    0  0.15329962745E+03  0.36750922505E+03  0.10487654127E+04  0.11218166950E+04  0.50400001928E-02 0. -1.
       -1    1    3    3    0  502 -0.15329962745E+03 -0.36750922505E+03 -0.17184388002E+04  0.17639715747E+04  0.50400001928E-02 0.  1.
</event>
<event>
 5   0  0.1283052E-05  0.2832962E+04  0.7818609E-02  0.8293108E-01
       -2   -1    0    0    0  501  0.00000000000E+00  0.00000000000E+00  0.91555264256E+03  0.91555264256E+03  0.25500000920E-02 0.  1.
        2   -1    0    0  501    0  0.00000000000E+00  0.00000000000E+00 -0.21914830378E+04  0.21914830378E+04  0.25500000920E-02 0. -1.
    10030    2    1    2    0    0  0.00000000000E+00  0.00000000000E+00 -0.12759303952E+04  0.31070356804E+04  0.28329617621E+04 0.  0.
        5    1    3    3  502    0 -0.17208929288E+02  0.73319692202E+03 -0.19670288306E+04  0.20993090254E+04  0.46999998093E+01 0. -1.
       -5    1    3    3    0  502  0.17208929288E+02 -0.73319692202E+03  0.69109843538E+03  0.10077266549E+04  0.46999998093E+01 0.  1.
</event>
<event>
 5   0  0.5107453E-06  0.2782072E+04  0.7818609E-02  0.8308856E-01
        1   -1    0    0  501    0  0.00000000000E+00  0.00000000000E+00  0.18506887886E+04  0.18506887886E+04  0.50400001928E-02 0.  1.
       -1   -1    0    0    0  501  0.00000000000E+00  0.00000000000E+00 -0.10455461576E+04  0.10455461577E+04  0.50400001928E-02 0. -1.
    10030    2    1    2    0    0  0.00000000000E+00  0.00000000000E+00  0.80514263094E+03  0.28962349462E+04  0.27820715677E+04 0.  0.
        2    1    3    3  502    0 -0.67642251151E+03 -0.39446017252E+03 -0.79431803237E+03  0.11153866497E+04  0.25500000920E-02 0. -1.
       -2    1    3    3    0  502  0.67642251151E+03  0.39446017252E+03  0.15994606633E+04  0.17808482965E+04  0.25500000920E-02 0.  1.
</event>
<event>
 5   0  0.4764214E-06  0.2884112E+04  0.7818609E-02  0.8277620E-01
        1   -1    0    0  501    0  0.00000000000E+00  0.00000000000E+00  0.19075225784E+04  0.19075225784E+04  0.50400001928E-02 0. -1.
       -1   -1    0    0    0  501  0.00000000000E+00  0.00000000000E+00 -0.10901706937E+04  0.10901706937E+04  0.50400001928E-02 0.  1.
    10030    2    1    2    0    0  0.00000000000E+00  0.00000000000E+00  0.81735188469E+03  0.29976932722E+04  0.28841117958E+04 0.  0.
        3    1    3    3  502    0 -0.66453028021E+03 -0.53424369621E+03 -0.80009798831E+03  0.11692619986E+04  0.10100000352E+00 0.  1.
       -3    1    3    3    0  502  0.66453028021E+03  0.53424369621E+03  0.16174498730E+04  0.18284312736E+04  0.10100000352E+00 0. -1.
</event>
<event>
 5   0  0.5217999E-06  0.2577614E+04  0.7818609E-02  0.8375845E-01
       -1   -1    0    0    0  501  0.00000000000E+00  0.00000000000E+00  0.14374444121E+04  0.14374444121E+04  0.50400001928E-02 0. -1.
        1   -1    0    0  501    0  0.00000000000E+00  0.00000000000E+00 -0.11555392759E+04  0.11555392759E+04  0.50400001928E-02 0.  1.
    10030    2    1    2    0    0  0.00000000000E+00  0.00000000000E+00  0.28190513620E+03  0.25929836880E+04  0.25776139937E+04 0.  0.
        1    1    3    3  502    0  0.56428024906E+03  0.10980250810E+04 -0.23132460348E+03  0.12560184514E+04  0.50400001928E-02 0.  1.
       -1    1    3    3    0  502 -0.56428024906E+03 -0.10980250810E+04  0.51322973968E+03  0.13369652366E+04  0.50400001928E-02 0. -1.
</event>
<event>
 5   0  0.5107453E-06  0.2807600E+04  0.7818609E-02  0.8300913E-01
       -1   -1    0    0    0  501  0.00000000000E+00  0.00000000000E+00  0.11285161749E+04  0.11285161749E+04  0.50400001928E-02 0. -1.
        1   -1    0    0  501    0  0.00000000000E+00  0.00000000000E+00 -0.17462346331E+04  0.17462346332E+04  0.50400001928E-02 0.  1.
    10030    2    1    2    0    0  0.00000000000E+00  0.00000000000E+00 -0.61771845829E+03  0.28747508080E+04  0.28075997070E+04 0.  0.
        2    1    3    3  502    0  0.24203325726E+03 -0.12406041593E+04 -0.93418312316E+03  0.15717432632E+04  0.25500000920E-02 0.  1.
       -2    1    3    3    0  502 -0.24203325726E+03  0.12406041593E+04  0.31646466487E+03  0.13030075448E+04  0.25500000920E-02 0. -1.
</event>
<event>
 5   0  0.1350863E-05  0.2785577E+04  0.7818609E-02  0.8307760E-01
        2   -1    0    0  501    0  0.00000000000E+00  0.00000000000E+00  0.13263117792E+04  0.13263117792E+04  0.25500000920E-02 0. -1.
       -2   -1    0    0    0  501  0.00000000000E+00  0.00000000000E+00 -0.14625974886E+04  0.14625974886E+04  0.25500000920E-02 0.  1.
    10030    2    1    2    0    0  0.00000000000E+00  0.00000000000E+00 -0.13628570942E+03  0.27889092678E+04  0.27855773387E+04 0.  0.
        3    1    3    3  502    0  0.99174774272E+03 -0.20367154220E+03  0.88946060132E+03  0.13476593983E+04  0.10100000352E+00 0. -1.
       -3    1    3    3    0  502 -0.99174774272E+03  0.20367154220E+03 -0.10257463107E+04  0.14412498696E+04  0.10100000352E+00 0.  1.
</event>
<event>
 5   0  0.5107453E-06  0.2811825E+04  0.7818609E-02  0.8299606E-01
       -1   -1    0    0    0  501  0.00000000000E+00  0.00000000000E+00  0.16725169436E+04  0.16725169436E+04  0.50400001928E-02 0. -1.
        1   -1    0    0  501    0  0.00000000000E+00  0.00000000000E+00 -0.11818058841E+04  0.11818058841E+04  0.50400001928E-02 0.  1.
    10030    2    1    2    0    0  0.00000000000E+00  0.00000000000E+00  0.49071105949E+03  0.28543228277E+04  0.28118252899E+04 0.  0.
        2    1    3    3  502    0 -0.11851690645E+03  0.13617191628E+04 -0.88653999832E+02  0.13697389778E+04  0.25500000920E-02 0.  1.
       -2    1    3    3    0  502  0.11851690645E+03 -0.13617191628E+04  0.57936505932E+03  0.14845838499E+04  0.25500000920E-02 0. -1.
</event>
<event>
 5   0  0.1283052E-05  0.2842285E+04  0.7818609E-02  0.8290259E-01
        2   -1    0    0  501    0  0.00000000000E+00  0.00000000000E+00  0.11071519008E+04  0.11071519008E+04  0.25500000920E-02 0. -1.
       -2   -1    0    0    0  501  0.00000000000E+00  0.00000000000E+00 -0.18241820497E+04  0.18241820497E+04  0.25500000920E-02 0.  1.
    10030    2    1    2    0    0  0.00000000000E+00  0.00000000000E+00 -0.71703014895E+03  0.29313339505E+04  0.28422854351E+04 0.  0.
        5    1    3    3  502    0 -0.12390873924E+04 -0.17301180931E+03 -0.10536910095E+04  0.16357131428E+04  0.46999998093E+01 0.  1.
       -5    1    3    3    0  502  0.12390873924E+04  0.17301180931E+03  0.33666086056E+03  0.12956208076E+04  0.46999998093E+01 0. -1.
</event>
<event>
 5   0  0.1330962E-05  0.2735110E+04  0.7818609E-02  0.8323702E-01
       -2   -1    0    0    0  501  0.00000000000E+00  0.00000000000E+00  0.12526866611E+04  0.12526866611E+04  0.25500000920E-02 0.  1.
        2   -1    0    0  501    0  0.00000000000E+00  0.00000000000E+00 -0.14929560699E+04  0.14929560699E+04  0.25500000920E-02 0. -1.
    10030    2    1    2    0    0  0.00000000000E+00  0.00000000000E+00 -0.24026940881E+03  0.27456427309E+04  0.27351096170E+04 0.  0.
        4    1    3    3  502    0 -0.28682377522E+03 -0.97392719966E+03  0.79958271245E+03  0.12923374928E+04  0.12699999809E+01 0.  1.
       -4    1    3    3    0  502  0.28682377522E+03  0.97392719966E+03 -0.10398521213E+04  0.14533052382E+04  0.12699999809E+01 0. -1.
</event>
<event>
 5   0  0.5023691E-06  0.2878963E+04  0.7818609E-02  0.8279164E-01
        1   -1    0    0  501    0  0.00000000000E+00  0.00000000000E+00  0.12216042917E+04  0.12216042917E+04  0.50400001928E-02 0.  1.
       -1   -1    0    0    0  501  0.00000000000E+00  0.00000000000E+00 -0.16962174004E+04  0.16962174004E+04  0.50400001928E-02 0. -1.
    10030    2    1    2    0    0  0.00000000000E+00  0.00000000000E+00 -0.47461310871E+03  0.29178216922E+04  0.28789626299E+04 0.  0.
        5    1    3    3  502    0  0.61746517468E+03 -0.26210942014E+03 -0.15281220807E+04  0.16688750023E+04  0.46999998093E+01 0. -1.
       -5    1    3    3    0  502 -0.61746517468E+03  0.26210942014E+03  0.10535089719E+04  0.12489466898E+04  0.46999998093E+01 0.  1.
</event>
<event>
 5   0  0.4764214E-06  0.2796871E+04  0.7818609E-02  0.8304240E-01
       -1   -1    0    0    0  501  0.00000000000E+00  0.00000000000E+00  0.11994656609E+04  0.11994656609E+04  0.50400001928E-02 0.  1.
        1   -1    0    0  501    0  0.00000000000E+00  0.00000000000E+00 -0.16304113124E+04  0.16304113124E+04  0.50400001928E-02 0. -1.
    10030    2    1    2    0    0  0.00000000000E+00  0.00000000000E+00 -0.43094565151E+03  0.28298769733E+04  0.27968713823E+04 0.  0.
        3    1    3    3  502    0 -0.29978387146E+03 -0.11726650441E+04 -0.92417323145E+03  0.15228623861E+04  0.10100000352E+00 0. -1.
       -3    1    3    3    0  502  0.29978387146E+03  0.11726650441E+04  0.49322757994E+03  0.13070145871E+04  0.10100000352E+00 0.  1.
</event>
<event>
 5   0  0.5217999E-06  0.2825456E+04  0.7818609E-02  0.8295409E-01
        1   -1    0    0  501    0  0.00000000000E+00  0.00000000000E+00  0.17857028494E+04  0.17857028494E+04  0.50400001928E-02 0.  1.
       -1   -1    0    0    0  501  0.00000000000E+00  0.00000000000E+00 -0.11176556154E+04  0.11176556155E+04  0.50400001928E-02 0. -1.
    10030    2    1    2    0    0  0.00000000000E+00  0.00000000000E+00  0.66804723396E+03  0.29033584649E+04  0.28254562939E+04 0.  0.
        1    1    3    3  502    0 -0.17483811512E+03  0.61116003542E+03  0.16304409769E+04  0.17499779241E+04  0.50400001928E-02 0.  1.
       -1    1    3    3    0  502  0.17483811512E+03 -0.61116003542E+03 -0.96239374297E+03  0.11533805408E+04  0.50400001928E-02 0. -1.
</event>
<event>
 5   0  0.5023691E-06  0.2781547E+04  0.7818609E-02  0.8309020E-01
        1   -1    0    0  501    0  0.00000000000E+00  0.00000000000E+00  0.19462336823E+04  0.19462336823E+04  0.50400001928E-02 0. -1.
       -1   -1    0    0    0  501  0.00000000000E+00  0.00000000000E+00 -0.99384315537E+03  0.99384315538E+03  0.50400001928E-02 0.  1.
    10030    2    1    2    0    0  0.00000000000E+00  0.00000000000E+00  0.95239052695E+03  0.29400768377E+04  0.27815470688E+04 0.  0.
        5    1    3    3  502    0  0.11279241782E+03 -0.83179675475E+03 -0.69588646716E+03  0.10903614244E+04  0.46999998093E+01 0.  1.
       -5    1    3    3    0  502 -0.11279241782E+03  0.83179675475E+03  0.16482769941E+04  0.18497154133E+04  0.46999998093E+01 0. -1.
</event>
<event>
 5   0  0.1302063E-05  0.2850352E+04  0.7818609E-02  0.8287804E-01
       -2   -1    0    0    0  501  0.00000000000E+00  0.00000000000E+00  0.18074193049E+04  0.18074193049E+04  0.25500000920E-02 0. -1.
        2   -1    0    0  501    0  0.00000000000E+00  0.00000000000E+00 -0.11237719490E+04  0.11237719490E+04  0.25500000920E-02 0.  1.
    10030    2    1    2    0    0  0.00000000000E+00  0.00000000000E+00  0.68364735594E+03  0.29311912539E+04  0.28503523395E+04 0.  0.
        2    1    3    3  502    0  0.81103614419E+03  0.11625668096E+04  0.49361025624E+03  0.15009971016E+04  0.25500000920E-02 0. -1.
       -2    1    3    3    0  502 -0.81103614419E+03 -0.11625668096E+04  0.19003709970E+03  0.14301941523E+04  0.25500000920E-02 0.  1.
</event>
<event>
 5   0  0.5107453E-06  0.2851409E+04  0.7818609E-02  0.8287483E-01
       -1   -1    0    0    0  501  0.00000000000E+00  0.00000000000E+00  0.13687637111E+04  0.13687637111E+04  0.50400001928E-02 0.  1.
        1   -1    0    0  501    0  0.00000000000E+00  0.00000000000E+00 -0.14850135861E+04  0.14850135861E+04  0.50400001928E-02 0. -1.
    10030    2    1    2    0    0  0.00000000000E+00  0.00000000000E+00 -0.11624987497E+03  0.28537772972E+04  0.28514085692E+04 0.  0.
        2    1    3    3  502    0 -0.10827349780E+04 -0.42355509204E+03 -0.88398844726E+03  0.14605305624E+04  0.25500000920E-02 0. -1.
       -2    1    3    3    0  502  0.10827349780E+04  0.42355509204E+03  0.76773857229E+03  0.13932467348E+04  0.25500000920E-02 0.  1.
</event>
<event>
 5   0  0.1283052E-05  0.2775805E+04  0.7818609E-02  0.8310819E-01
       -2   -1    0    0    0  501  0.00000000000E+00  0.00000000000E+00  0.14230153372E+04  0.14230153372E+04  0.25500000920E-02 0. -1.
        2   -1    0    0  501    0  0.00000000000E+00  0.00000000000E+00 -0.13536565539E+04  0.13536565539E+04  0.25500000920E-02 0.  1.
    10030    2    1    2    0    0  0.00000000000E+00  0.00000000000E+00  0.69358783356E+02  0.27766718911E+04  0.27758054957E+04 0.  0.
        5    1    3    3  502    0  0.86259283734E+03  0.67953543314E+03 -0.81435943467E+03  0.13671277141E+04  0.46999998093E+01 0.  1.
       -5    1    3    3    0  502 -0.86259283734E+03 -0.67953543314E+03  0.88371821803E+03  0.14095441770E+04  0.46999998093E+01 0. -1.
</event>
<event>
 5   0  0.5217999E-06  0.2834791E+04  0.7818609E-02  0.8292548E-01
       -1   -1    0    0    0  501  0.00000000000E+00  0.00000000000E+00  0.12915777992E+04  0.12915777992E+04  0.50400001928E-02 0. -1.
        1   -1    0    0  501    0  0.00000000000E+00  0.00000000000E+00 -0.15554700446E+04  0.15554700446E+04  0.50400001928E-02 0.  1.
    10030    2    1    2    0    0  0.00000000000E+00  0.00000000000E+00 -0.26389224540E+03  0.28470478438E+04  0.28347914046E+04 0.  0.
        1    1    3    3  502    0 -0.20638144811E+03 -0.54772882572E+03 -0.14284226041E+04  0.15436940450E+04  0.50400001928E-02 0.  1.
       -1    1    3    3    0  502  0.20638144811E+03  0.54772882572E+03  0.11645303587E+04  0.13033537988E+04  0.50400001928E-02 0. -1.
</event>
<event>
 5   0  0.1350863E-05  0.2752750E+04  0.7818609E-02  0.8318090E-01
       -2   -1    0    0    0  501  0.00000000000E+00  0.00000000000E+00  0.10513171938E+04  0.10513171938E+04  0.25500000920E-02 0.  1.
        2   -1    0    0  501    0  0.00000000000E+00  0.00000000000E+00 -0.18019378977E+04  0.18019378977E+04  0.25500000920E-02 0. -1.
    10030    2    1    2    0    0  0.00000000000E+00  0.00000000000E+00 -0.75062070389E+03  0.28532550914E+04  0.27527501114E+04 0.  0.
        3    1    3    3  502    0 -0.41339014090E+03  0.11423370207E+04  0.29529128380E+03  0.12502088745E+04  0.10100000352E+00 0.  1.
       -3    1    3    3    0  502  0.41339014090E+03 -0.11423370207E+04 -0.10459119877E+04  0.16030462169E+04  0.10100000352E+00 0. -1.
</event>
<event>
 5   0  0.1283052E-05  0.2836588E+04  0.7818609E-02  0.8291998E-01
       -2   -1    0    0    0  501  0.00000000000E+00  0.00000000000E+00  0.12863226204E+04  0.12863226204E+04  0.25500000920E-02 0.  1.
        2   -1    0    0  501    0  0.00000000000E+00  0.00000000000E+00 -0.15638051491E+04  0.15638051491E+04  0.25500000920E-02 0. -1.
    10030    2    1    2    0    0  0.00000000000E+00  0.00000000000E+00 -0.27748252873E+03  0.28501277695E+04  0.28365880470E+04 0.  0.
        5    1    3    3  502    0  0.23275938251E+03 -0.13655318308E+04 -0.44463116690E+03  0.14548446913E+04  0.46999998093E+01 0. -1.
       -5    1    3    3    0  502 -0.23275938251E+03  0.13655318308E+04  0.16714863818E+03  0.13952830782E+04  0.46999998093E+01 0.  1.
</event>
<event>
 5   0  0.1283052E-05  0.2766457E+04  0.7818609E-02  0.8313758E-01
       -2   -1    0    0    0  501  0.00000000000E+00  0.00000000000E+00  0.12874171233E+04  0.12874171233E+04  0.25500000920E-02 0.  1.
        2   -1    0    0  501    0  0.00000000000E+00  0.00000000000E+00 -0.14861706829E+04  0.14861706829E+04  0.25500000920E-02 0. -1.
    10030    2    1    2    0    0  0.00000000000E+00  0.00000000000E+00 -0.19875355959E+03  0.27735878061E+04  0.27664573629E+04 0.  0.
        5    1    3    3  502    0 -0.24857757434E+03  0.69082469536E+02 -0.14618261759E+04  0.14844261708E+04  0.46999998093E+01 0. -1.
       -5    1    3    3    0  502  0.24857757434E+03 -0.69082469536E+02  0.12630726163E+04  0.12891616353E+04  0.46999998093E+01 0.  1.
</event>
<event>
 5   0  0.1350863E-05  0.2841189E+04  0.7818609E-02  0.8290594E-01
       -2   -1    0    0    0  501  0.00000000000E+00  0.00000000000E+00  0.10297891057E+04  0.10297891057E+04  0.25500000920E-02 0. -1.
        2   -1    0    0  501    0  0.00000000000E+00  0.00000000000E+00 -0.19597113138E+04  0.19597113138E+04  0.25500000920E-02 0.  1.
    10030    2    1    2    0    0  0.00000000000E+00  0.00000000000E+00 -0.92992220813E+03  0.29895004194E+04  0.28411894419E+04 0.  0.
        3    1    3    3  502    0  0.95348797037E+03  0.98036969186E+03 -0.86951167993E+03  0.16205908225E+04  0.10100000352E+00 0.  1.
       -3    1    3    3    0  502 -0.95348797037E+03 -0.98036969186E+03 -0.60410528195E+02  0.13689095969E+04  0.10100000352E+00 0. -1.
</event>
<event>
 5   0  0.5217999E-06  0.2793837E+04  0.7818609E-02  0.8305184E-01
       -1   -1    0    0    0  501  0.00000000000E+00  0.00000000000E+00  0.11067370719E+04  0.11067370719E+04  0.50400001928E-02 0. -1.
        1   -1    0    0  501    0  0.00000000000E+00  0.00000000000E+00 -0.17631838984E+04  0.17631838984E+04  0.50400001928E-02 0.  1.
    10030    2    1    2    0    0  0.00000000000E+00  0.00000000000E+00 -0.65644682647E+03  0.28699209703E+04  0.27938367776E+04 0.  0.
        1    1    3    3  502    0 -0.39740692863E+03  0.13176722055E+04 -0.57387746521E+03  0.14911497756E+04  0.50400001928E-02 0. -1.
       -1    1    3    3    0  502  0.39740692863E+03 -0.13176722055E+04 -0.82569361260E+02  0.13787711948E+04  0.50400001928E-02 0.  1.
</event>
<event>
 5   0  0.5281919E-06  0.2676461E+04  0.7818609E-02  0.8342683E-01
        1   -1    0    0  501    0  0.00000000000E+00  0.00000000000E+00  0.17295397788E+04  0.17295397788E+04  0.50400001928E-02 0. -1.
       -1   -1    0    0    0  501  0.00000000000E+00  0.00000000000E+00 -0.10354550291E+04  0.10354550291E+04  0.50400001928E-02 0.  1.
    10030    2    1    2    0    0  0.00000000000E+00  0.00000000000E+00  0.69408474974E+03  0.27649948079E+04  0.26764608437E+04 0.  0.
        4    1    3    3  502    0  0.55482207147E+03  0.11076276555E+04 -0.17585519979E+03  0.12512366756E+04  0.12699999809E+01 0. -1.
       -4    1    3    3    0  502 -0.55482207147E+03 -0.11076276555E+04  0.86993994954E+03  0.15137581323E+04  0.12699999809E+01 0.  1.
</event>
<event>
 5   0  0.5023691E-06  0.2797747E+04  0.7818609E-02  0.8303968E-01
        1   -1    0    0  501    0  0.00000000000E+00  0.00000000000E+00  0.18194502986E+04  0.18194502986E+04  0.50400001928E-02 0.  1.
       -1   -1    0    0    0  501  0.00000000000E+00  0.00000000000E+00 -0.10755153585E+04  0.10755153585E+04  0.50400001928E-02 0. -1.
    10030    2    1    2    0    0  0.00000000000E+00  0.00000000000E+00  0.74393494016E+03  0.28949656571E+04  0.27977467649E+04 0.  0.
        5    1    3    3  502    0 -0.18390934011E+03  0.12495942988E+04  0.99412280773E+03  0.16073614415E+04  0.46999998093E+01 0.  1.
       -5    1    3    3    0  502  0.18390934011E+03 -0.12495942988E+04 -0.25018786758E+03  0.12876042156E+04  0.46999998093E+01 0. -1.
</event>
<event>
 5   0  0.1302063E-05  0.2001061E+04  0.7818609E-02  0.8606125E-01
        2   -1    0    0  501    0  0.00000000000E+00  0.00000000000E+00  0.10127507348E+04  0.10127507348E+04  0.25500000920E-02 0. -1.
       -2   -1    0    0    0  501  0.00000000000E+00  0.00000000000E+00 -0.98845726260E+03  0.98845726260E+03  0.25500000920E-02 0.  1.
    10030    2    1    2    0    0  0.00000000000E+00  0.00000000000E+00  0.24293472175E+02  0.20012079974E+04  0.20010605378E+04 0.  0.
        2    1    3    3  502    0  0.18206646058E+03 -0.95387165722E+03  0.25308249312E+03  0.10035288152E+04  0.25500000920E-02 0. -1.
       -2    1    3    3    0  502 -0.18206646058E+03  0.95387165722E+03 -0.22878902095E+03  0.99767918222E+03  0.25500000920E-02 0.  1.
</event>
<event>
 5   0  0.4764214E-06  0.2674468E+04  0.7818609E-02  0.8343337E-01
       -1   -1    0    0    0  501  0.00000000000E+00  0.00000000000E+00  0.11796831018E+04  0.11796831018E+04  0.50400001928E-02 0. -1.
        1   -1    0    0  501    0  0.00000000000E+00  0.00000000000E+00 -0.15158261646E+04  0.15158261646E+04  0.50400001928E-02 0.  1.
    10030    2    1    2    0    0  0.00000000000E+00  0.00000000000E+00 -0.33614306281E+03  0.26955092665E+04  0.26744678063E+04 0.  0.
        3    1    3    3  502    0  0.41115084229E+03  0.82215185428E+03  0.81076234558E+03  0.12256893072E+04  0.10100000352E+00 0. -1.
       -3    1    3    3    0  502 -0.41115084229E+03 -0.82215185428E+03 -0.11469054084E+04  0.14698199592E+04  0.10100000352E+00 0.  1.
</event>
<event>
 5   0  0.5281919E-06  0.2780334E+04  0.7818609E-02  0.8309400E-01
        1   -1    0    0  501    0  0.00000000000E+00  0.00000000000E+00  0.17824828810E+04  0.17824828811E+04  0.50400001928E-02 0. -1.
       -1   -1    0    0    0  501  0.00000000000E+00  0.00000000000E+00 -0.10841983334E+04  0.10841983334E+04  0.50400001928E-02 0.  1.
    10030    2    1    2    0    0  0.00000000000E+00  0.00000000000E+00  0.69828454765E+03  0.28666812145E+04  0.27803344899E+04 0.  0.
        4    1    3    3  502    0  0.35124354303E+03  0.81643350446E+03  0.14512770860E+04  0.17018056549E+04  0.12699999809E+01 0. -1.
       -4    1    3    3    0  502 -0.35124354303E+03 -0.81643350446E+03 -0.75299253832E+03  0.11648755596E+04  0.12699999809E+01 0.  1.
</event>
<event>
 5   0  0.1330962E-05  0.2763757E+04  0.7818609E-02  0.8314609E-01
        2   -1    0    0  501    0  0.00000000000E+00  0.00000000000E+00  0.13076292152E+04  0.13076292152E+04  0.25500000920E-02 0. -1.
       -2   -1    0    0    0  501  0.00000000000E+00  0.00000000000E+00 -0.14603438545E+04  0.14603438545E+04  0.25500000920E-02 0.  1.
    10030    2    1    2    0    0  0.00000000000E+00  0.00000000000E+00 -0.15271463931E+03  0.27679730697E+04  0.27637570721E+04 0.  0.
        4    1    3    3  502    0 -0.62496377963E+03 -0.93768088030E+03  0.72471375385E+03  0.13397898332E+04  0.12699999809E+01 0. -1.
       -4    1    3    3    0  502  0.62496377963E+03  0.93768088030E+03 -0.87742839316E+03  0.14281832366E+04  0.12699999809E+01 0.  1.
</event>
<event>
 5   0  0.5281919E-06  0.2845398E+04  0.7818609E-02  0.8289311E-01
        1   -1    0    0  501    0  0.00000000000E+00  0.00000000000E+00  0.22492920020E+04  0.22492920020E+04  0.50400001928E-02 0.  1.
       -1   -1    0    0    0  501  0.00000000000E+00  0.00000000000E+00 -0.89987119778E+03  0.89987119779E+03  0.50400001928E-02 0. -1.
    10030    2    1    2    0    0  0.00000000000E+00  0.00000000000E+00  0.13494208043E+04  0.31491631998E+04  0.28453984523E+04 0.  0.
        4    1    3    3  502    0  0.92081464733E+03  0.84413914847E+03  0.14282815105E+04  0.18974878663E+04  0.12699999809E+01 0.  1.
       -4    1    3    3    0  502 -0.92081464733E+03 -0.84413914847E+03 -0.78860706198E+02  0.12516753335E+04  0.12699999809E+01 0. -1.
</event>
<event>
 5   0  0.5281919E-06  0.2675999E+04  0.7818609E-02  0.8342835E-01
        1   -1    0    0  501    0  0.00000000000E+00  0.00000000000E+00  0.12467319676E+04  0.12467319676E+04  0.50400001928E-02 0. -1.
       -1   -1    0    0    0  501  0.00000000000E+00  0.00000000000E+00 -0.14359485913E+04  0.14359485913E+04  0.50400001928E-02 0.  1.
    10030    2    1    2    0    0  0.00000000000E+00  0.00000000000E+00 -0.18921662369E+03  0.26826805590E+04  0.26759992621E+04 0.  0.
        4    1    3    3  502    0 -0.57249873089E+03 -0.76177998381E+03  0.84697997971E+03  0.12749275428E+04  0.12699999809E+01 0. -1.
       -4    1    3    3    0  502  0.57249873089E+03  0.76177998381E+03 -0.10361966034E+04  0.14077530161E+04  0.12699999809E+01 0.  1.
</event>
<event>
 5   0  0.5217999E-06  0.2696693E+04  0.7818609E-02  0.8336079E-01
        1   -1    0    0  501    0  0.00000000000E+00  0.00000000000E+00  0.15494404087E+04  0.15494404087E+04  0.50400001928E-02 0. -1.
       -1   -1    0    0    0  501  0.00000000000E+00  0.00000000000E+00 -0.11733518987E+04  0.11733518987E+04  0.50400001928E-02 0.  1.
    10030    2    1    2    0    0  0.00000000000E+00  0.00000000000E+00  0.37608851000E+03  0.27227923074E+04  0.26966934164E+04 0.  0.
        1    1    3    3  502    0  0.79182495884E+02  0.68185497978E+03  0.13598115945E+04  0.15232477322E+04  0.50400001928E-02 0. -1.
       -1    1    3    3    0  502 -0.79182495884E+02 -0.68185497978E+03 -0.98372308447E+03  0.11995445753E+04  0.50400001928E-02 0.  1.
</event>
<event>
 5   0  0.1388269E-05  0.2802682E+04  0.7818609E-02  0.8302436E-01
       -2   -1    0    0    0  501  0.00000000000E+00  0.00000000000E+00  0.15145409676E+04  0.15145409676E+04  0.25500000920E-02 0.  1.
        2   -1    0    0  501    0  0.00000000000E+00  0.00000000000E+00 -0.12966018123E+04  0.12966018123E+04  0.25500000920E-02 0. -1.
    10030    2    1    2    0    0  0.00000000000E+00  0.00000000000E+00  0.21793915533E+03  0.28111427799E+04  0.28026819751E+04 0.  0.
        1    1    3    3  502    0 -0.11850065724E+04  0.32050754006E+02 -0.64060749277E+03  0.13474590113E+04  0.50400001928E-02 0. -1.
       -1    1    3    3    0  502  0.11850065724E+04 -0.32050754006E+02  0.85854664810E+03  0.14636837686E+04  0.50400001928E-02 0.  1.
</event>
<event>
 5   0  0.4764214E-06  0.2799517E+04  0.7818609E-02  0.8303418E-01
        1   -1    0    0  501    0  0.00000000000E+00  0.00000000000E+00  0.11584220192E+04  0.11584220192E+04  0.50400001928E-02 0. -1.
       -1   -1    0    0    0  501  0.00000000000E+00  0.00000000000E+00 -0.16913729570E+04  0.16913729570E+04  0.50400001928E-02 0.  1.
    10030    2    1    2    0    0  0.00000000000E+00  0.00000000000E+00 -0.53295093779E+03  0.28497949763E+04  0.27995168699E+04 0.  0.
        3    1    3    3  502    0  0.12504588961E+03 -0.18336103782E+03  0.11403969181E+04  0.11617929616E+04  0.10100000352E+00 0. -1.
       -3    1    3    3    0  502 -0.12504588961E+03  0.18336103782E+03 -0.16733478558E+04  0.16880020147E+04  0.10100000352E+00 0.  1.
</event>
<event>
 5   0  0.1302063E-05  0.2809151E+04  0.7818609E-02  0.8300433E-01
       -2   -1    0    0    0  501  0.00000000000E+00  0.00000000000E+00  0.90151892771E+03  0.90151892771E+03  0.25500000920E-02 0. -1.
        2   -1    0    0  501    0  0.00000000000E+00  0.00000000000E+00 -0.21883419366E+04  0.21883419366E+04  0.25500000920E-02 0.  1.
    10030    2    1    2    0    0  0.00000000000E+00  0.00000000000E+00 -0.12868230089E+04  0.30898608643E+04  0.28091505308E+04 0.  0.
        2    1    3    3  502    0 -0.82792475418E+03  0.10781621026E+04 -0.10321991933E+04  0.17068474134E+04  0.25500000920E-02 0.  1.
       -2    1    3    3    0  502  0.82792475418E+03 -0.10781621026E+04 -0.25462381562E+03  0.13830134509E+04  0.25500000920E-02 0. -1.
</event>
<event>
 5   0  0.1350863E-05  0.2705372E+04  0.7818609E-02  0.8333264E-01
       -2   -1    0    0    0  501  0.00000000000E+00  0.00000000000E+00  0.14694602798E+04  0.14694602798E+04  0.25500000920E-02 0.  1.
        2   -1    0    0  501    0  0.00000000000E+00  0.00000000000E+00 -0.12451919235E+04  0.12451919235E+04  0.25500000920E-02 0. -1.
    10030    2    1    2    0    0  0.00000000000E+00  0.00000000000E+00  0.22426835634E+03  0.27146522033E+04  0.27053724862E+04 0.  0.
        3    1    3    3  502    0 -0.10976458721E+04  0.69502757321E+03  0.49008285678E+03  0.13885499648E+04  0.10100000352E+00 0.  1.
       -3    1    3    3    0  502  0.10976458721E+04 -0.69502757321E+03 -0.26581450045E+03  0.13261022385E+04  0.10100000352E+00 0. -1.
</event>
<event>
 5   0  0.4447500E-06  0.2710919E+04  0.7818609E-02  0.8331471E-01
       -3   -1    0    0    0  501  0.00000000000E+00  0.00000000000E+00  0.97012335279E+03  0.97012335804E+03  0.10100000352E+00 0. -1.
        3   -1    0    0  501    0  0.00000000000E+00  0.00000000000E+00 -0.18938529807E+04  0.18938529834E+04  0.10100000352E+00 0.  1.
    10030    2    1    2    0    0  0.00000000000E+00  0.00000000000E+00 -0.92372962787E+03  0.28639763414E+04  0.27109194121E+04 0.  0.
        5    1    3    3  502    0  0.87602657480E+03 -0.10305079111E+04 -0.55564491445E+03  0.14622354378E+04  0.46999998093E+01 0.  1.
       -5    1    3    3    0  502 -0.87602657480E+03  0.10305079111E+04 -0.36808471342E+03  0.14017409036E+04  0.46999998093E+01 0. -1.
</event>
<event>
 5   0  0.5023691E-06  0.2811960E+04  0.7818609E-02  0.8299565E-01
       -1   -1    0    0    0  501  0.00000000000E+00  0.00000000000E+00  0.13147333297E+04  0.13147333297E+04  0.50400001928E-02 0. -1.
        1   -1    0    0  501    0  0.00000000000E+00  0.00000000000E+00 -0.15035593860E+04  0.15035593860E+04  0.50400001928E-02 0.  1.
    10030    2    1    2    0    0  0.00000000000E+00  0.00000000000E+00 -0.18882605635E+03  0.28182927157E+04  0.28119599129E+04 0.  0.
        5    1    3    3  502    0 -0.89946356242E+03 -0.10779601619E+04 -0.17024541949E+03  0.14142271400E+04  0.46999998093E+01 0.  1.
       -5    1    3    3    0  502  0.89946356242E+03  0.10779601619E+04 -0.18580636861E+02  0.14040655757E+04  0.46999998093E+01 0. -1.
</event>
<event>
 5   0  0.1330962E-05  0.2834549E+04  0.7818609E-02  0.8292622E-01
        2   -1    0    0  501    0  0.00000000000E+00  0.00000000000E+00  0.21645150227E+04  0.21645150227E+04  0.25500000920E-02 0. -1.
       -2   -1    0    0    0  501  0.00000000000E+00  0.00000000000E+00 -0.92799882202E+03  0.92799882202E+03  0.25500000920E-02 0.  1.
    10030    2    1    2    0    0  0.00000000000E+00  0.00000000000E+00  0.12365162006E+04  0.30925138447E+04  0.28345492702E+04 0.  0.
        4    1    3    3  502    0 -0.31103972102E+03 -0.11758248458E+04 -0.17552447856E+03  0.12288694933E+04  0.12699999809E+01 0.  1.
       -4    1    3    3    0  502  0.31103972102E+03  0.11758248458E+04  0.14120406792E+04  0.18636443514E+04  0.12699999809E+01 0. -1.
</event>
<event>
 5   0  0.1330962E-05  0.2751928E+04  0.7818609E-02  0.8318350E-01
       -2   -1    0    0    0  501  0.00000000000E+00  0.00000000000E+00  0.16182376940E+04  0.16182376940E+04  0.25500000920E-02 0. -1.
        2   -1    0    0  501    0  0.00000000000E+00  0.00000000000E+00 -0.11699625440E+04  0.11699625440E+04  0.25500000920E-02 0.  1.
    10030    2    1    2    0    0  0.00000000000E+00  0.00000000000E+00  0.44827515001E+03  0.27882002380E+04  0.27519284070E+04 0.  0.
        4    1    3    3  502    0  0.11761043572E+04  0.53021288060E+03 -0.26063379980E+03  0.13161606088E+04  0.12699999809E+01 0.  1.
       -4    1    3    3    0  502 -0.11761043572E+04 -0.53021288060E+03  0.70890894982E+03  0.14720396292E+04  0.12699999809E+01 0. -1.
</event>
<event>
 5   0  0.1302063E-05  0.2752098E+04  0.7818609E-02  0.8318296E-01
       -2   -1    0    0    0  501  0.00000000000E+00  0.00000000000E+00  0.93700267093E+03  0.93700267093E+03  0.25500000920E-02 0. -1.
        2   -1    0    0  501    0  0.00000000000E+00  0.00000000000E+00 -0.20208174536E+04  0.20208174536E+04  0.25500000920E-02 0.  1.
    10030    2    1    2    0    0  0.00000000000E+00  0.00000000000E+00 -0.10838147827E+04  0.29578201246E+04  0.27520983642E+04 0.  0.
        2    1    3    3  502    0 -0.55413473866E+03  0.31642076122E+02  0.81135924027E+03  0.98304137570E+03  0.25500000920E-02 0. -1.
       -2    1    3    3    0  502  0.55413473866E+03 -0.31642076122E+02 -0.18951740230E+04  0.19747787489E+04  0.25500000920E-02 0.  1.
</event>
<event>
 5   0  0.5023691E-06  0.2822165E+04  0.7818609E-02  0.8296420E-01
       -1   -1    0    0    0  501  0.00000000000E+00  0.00000000000E+00  0.21755362193E+04  0.21755362193E+04  0.50400001928E-02 0. -1.
        1   -1    0    0  501    0  0.00000000000E+00  0.00000000000E+00 -0.91524747626E+03  0.91524747628E+03  0.50400001928E-02 0.  1.
    10030    2    1    2    0    0  0.00000000000E+00  0.00000000000E+00  0.12602887430E+04  0.30907836956E+04  0.28221651505E+04 0.  0.
        5    1    3    3  502    0  0.85523485049E+03 -0.58579157509E+03  0.16786363301E+04  0.19729218022E+04  0.46999998093E+01 0. -1.
       -5    1    3    3    0  502 -0.85523485049E+03  0.58579157509E+03 -0.41834758710E+03  0.11178618933E+04  0.46999998093E+01 0.  1.
</event>
<event>
 5   0  0.1350863E-05  0.2845626E+04  0.7818609E-02  0.8289242E-01
       -2   -1    0    0    0  501  0.00000000000E+00  0.00000000000E+00  0.97973262960E+03  0.97973262960E+03  0.25500000920E-02 0. -1.
        2   -1    0    0  501    0  0.00000000000E+00  0.00000000000E+00 -0.20662741748E+04  0.20662741748E+04  0.25500000920E-02 0.  1.
    10030    2    1    2    0    0  0.00000000000E+00  0.00000000000E+00 -0.10865415452E+04  0.30460068044E+04  0.28456255768E+04 0.  0.
        3    1    3    3  502    0  0.10261859600E+04  0.52968109525E+03  0.34638479563E+03  0.12056542307E+04  0.10100000352E+00 0. -1.
       -3    1    3    3    0  502 -0.10261859600E+04 -0.52968109525E+03 -0.14329263409E+04  0.18403525737E+04  0.10100000352E+00 0.  1.
</event>
<event>
 5   0  0.4447500E-06  0.2820368E+04  0.7818609E-02  0.8296973E-01
        3   -1    0    0  501    0  0.00000000000E+00  0.00000000000E+00  0.25558849016E+04  0.25558849036E+04  0.10100000352E+00 0.  1.
       -3   -1    0    0    0  501  0.00000000000E+00  0.00000000000E+00 -0.77805483442E+03  0.77805484097E+03  0.10100000352E+00 0. -1.
    10030    2    1    2    0    0  0.00000000000E+00  0.00000000000E+00  0.17778300672E+04  0.33339397446E+04  0.28203677903E+04 0.  0.
        4    1    3    3  502    0 -0.61245711327E+03 -0.10745335120E+04  0.16896831638E+04  0.20939810866E+04  0.12699999809E+01 0.  1.
       -4    1    3    3    0  502  0.61245711327E+03  0.10745335120E+04  0.88146903351E+02  0.12399586580E+04  0.12699999809E+01 0. -1.
</event>
<event>
 5   0  0.4764214E-06  0.2819983E+04  0.7818609E-02  0.8297091E-01
       -1   -1    0    0    0  501  0.00000000000E+00  0.00000000000E+00  0.10479810028E+04  0.10479810029E+04  0.50400001928E-02 0. -1.
        1   -1    0    0  501    0  0.00000000000E+00  0.00000000000E+00 -0.18970531026E+04  0.18970531026E+04  0.50400001928E-02 0.  1.
    10030    2    1    2    0    0  0.00000000000E+00  0.00000000000E+00 -0.84907209980E+03  0.29450341055E+04  0.28199827042E+04 0.  0.
        3    1    3    3  502    0  0.66872087833E+03 -0.88826105398E+02  0.86851200604E+03  0.10997230583E+04  0.10100000352E+00 0. -1.
       -3    1    3    3    0  502 -0.66872087833E+03  0.88826105398E+02 -0.17175841058E+04  0.18453110472E+04  0.10100000352E+00 0.  1.
</event>
<event>
 5   0  0.4447500E-06  0.2767133E+04  0.7818609E-02  0.8313545E-01
        3   -1    0    0  501    0  0.00000000000E+00  0.00000000000E+00  0.21600499184E+04  0.21600499207E+04  0.10100000352E+00 0.  1.
       -3   -1    0    0    0  501  0.00000000000E+00  0.00000000000E+00 -0.88620937652E+03  0.88620938228E+03  0.10100000352E+00 0. -1.
    10030    2    1    2    0    0  0.00000000000E+00  0.00000000000E+00  0.12738405418E+04  0.30462593030E+04  0.27671331763E+04 0.  0.
        1    1    3    3  502    0  0.53256397360E+03  0.30835431470E+03 -0.72725053391E+03  0.95268048604E+03  0.50400001928E-02 0. -1.
       -1    1    3    3    0  502 -0.53256397360E+03 -0.30835431470E+03  0.20010910758E+04  0.20935788170E+04  0.50400001928E-02 0.  1.
</event>
<event>
 5   0  0.1330962E-05  0.2754166E+04  0.7818609E-02  0.8317641E-01
        2   -1    0    0  501    0  0.00000000000E+00  0.00000000000E+00  0.14415505824E+04  0.14415505824E+04  0.25500000920E-02 0. -1.
       -2   -1    0    0    0  501  0.00000000000E+00  0.00000000000E+00 -0.13154988219E+04  0.13154988219E+04  0.25500000920E-02 0.  1.
    10030    2    1    2    0    0  0.00000000000E+00  0.00000000000E+00  0.12605176057E+03  0.27570494043E+04  0.27541663660E+04 0.  0.
        4    1    3    3  502    0  0.80842441215E+03  0.46557161613E+02 -0.10519797793E+04  0.13275468611E+04  0.12699999809E+01 0.  1.
       -4    1    3    3    0  502 -0.80842441215E+03 -0.46557161613E+02  0.11780315398E+04  0.14295025433E+04  0.12699999809E+01 0. -1.
</event>
<event>
 5   0  0.5281919E-06  0.2847684E+04  0.7818609E-02  0.8288615E-01
       -1   -1    0    0    0  501  0.00000000000E+00  0.00000000000E+00  0.14123771701E+04  0.14123771701E+04  0.50400001928E-02 0.  1.
        1   -1    0    0  501    0  0.00000000000E+00  0.00000000000E+00 -0.14353996775E+04  0.14353996775E+04  0.50400001928E-02 0. -1.
    10030    2    1    2    0    0  0.00000000000E+00  0.00000000000E+00 -0.23022507367E+02  0.28477768476E+04  0.28476837847E+04 0.  0.
        4    1    3    3  502    0 -0.10591466231E+04  0.79104723150E+03  0.51744537645E+03  0.14196121379E+04  0.12699999809E+01 0.  1.
       -4    1    3    3    0  502  0.10591466231E+04 -0.79104723150E+03 -0.54046788381E+03  0.14281647097E+04  0.12699999809E+01 0. -1.
</event>
<event>
 5   0  0.4764214E-06  0.2815394E+04  0.7818609E-02  0.8298505E-01
       -1   -1    0    0    0  501  0.00000000000E+00  0.00000000000E+00  0.96212794247E+03  0.96212794249E+03  0.50400001928E-02 0.  1.
        1   -1    0    0  501    0  0.00000000000E+00  0.00000000000E+00 -0.20596119693E+04  0.20596119693E+04  0.50400001928E-02 0. -1.
    10030    2    1    2    0    0  0.00000000000E+00  0.00000000000E+00 -0.10974840268E+04  0.30217399118E+04  0.28153935614E+04 0.  0.
        3    1    3    3  502    0 -0.62716630931E+03 -0.98635779088E+03 -0.13906923237E+04  0.18166629903E+04  0.10100000352E+00 0. -1.
       -3    1    3    3    0  502  0.62716630931E+03  0.98635779088E+03  0.29320829681E+03  0.12050769215E+04  0.10100000352E+00 0.  1.
</event>
<event>
 5   0  0.1302063E-05  0.2832029E+04  0.7818609E-02  0.8293393E-01
       -2   -1    0    0    0  501  0.00000000000E+00  0.00000000000E+00  0.10012217112E+04  0.10012217112E+04  0.25500000920E-02 0.  1.
        2   -1    0    0  501    0  0.00000000000E+00  0.00000000000E+00 -0.20026510616E+04  0.20026510616E+04  0.25500000920E-02 0. -1.
    10030    2    1    2    0    0  0.00000000000E+00  0.00000000000E+00 -0.10014293504E+04  0.30038727728E+04  0.28320294651E+04 0.  0.
        2    1    3    3  502    0 -0.11187975267E+04 -0.86418732333E+03 -0.58668911096E+03  0.15305984936E+04  0.25500000920E-02 0.  1.
       -2    1    3    3    0  502  0.11187975267E+04  0.86418732333E+03 -0.41474023946E+03  0.14732742792E+04  0.25500000920E-02 0. -1.
</event>
<event>
 5   0  0.4764214E-06  0.2793712E+04  0.7818609E-02  0.8305223E-01
        1   -1    0    0  501    0  0.00000000000E+00  0.00000000000E+00  0.15268198324E+04  0.15268198324E+04  0.50400001928E-02 0. -1.
       -1   -1    0    0    0  501  0.00000000000E+00  0.00000000000E+00 -0.12779545846E+04  0.12779545846E+04  0.50400001928E-02 0.  1.
    10030    2    1    2    0    0  0.00000000000E+00  0.00000000000E+00  0.24886524773E+03  0.28047744170E+04  0.27937117995E+04 0.  0.
        3    1    3    3  502    0 -0.39207885765E+03 -0.10505326701E+04 -0.71184944467E+03  0.13281846121E+04  0.10100000352E+00 0.  1.
       -3    1    3    3    0  502  0.39207885765E+03  0.10505326701E+04  0.96071469240E+03  0.14765898049E+04  0.10100000352E+00 0. -1.
</event>
<event>
 5   0  0.1330962E-05  0.2995899E+04  0.7818609E-02  0.8244903E-01
        2   -1    0    0  501    0  0.00000000000E+00  0.00000000000E+00  0.83397813378E+03  0.83397813379E+03  0.25500000920E-02 0.  1.
       -2   -1    0    0    0  501  0.00000000000E+00  0.00000000000E+00 -0.26905422558E+04  0.26905422558E+04  0.25500000920E-02 0. -1.
    10030    2    1    2    0    0  0.00000000000E+00  0.00000000000E+00 -0.18565641220E+04  0.35245203896E+04  0.29958994705E+04 0.  0.
        4    1    3    3  502    0 -0.20968244819E+02 -0.59560089370E+03 -0.25450624328E+04  0.26139098094E+04  0.12699999809E+01 0. -1.
       -4    1    3    3    0  502  0.20968244819E+02  0.59560089370E+03  0.68849831080E+03  0.91061058018E+03  0.12699999809E+01 0.  1.
</event>
<event>
 5   0  0.1388269E-05  0.2809541E+04  0.7818609E-02  0.8300312E-01
        2   -1    0    0  501    0  0.00000000000E+00  0.00000000000E+00  0.25279000280E+04  0.25279000280E+04  0.25500000920E-02 0.  1.
       -2   -1    0    0    0  501  0.00000000000E+00  0.00000000000E+00 -0.78064018285E+03  0.78064018285E+03  0.25500000920E-02 0. -1.
    10030    2    1    2    0    0  0.00000000000E+00  0.00000000000E+00  0.17472598451E+04  0.33085402108E+04  0.28095411298E+04 0.  0.
        1    1    3    3  502    0 -0.11081800924E+04 -0.65120029658E+03  0.20616839357E+03  0.13017796856E+04  0.50400001928E-02 0.  1.
       -1    1    3    3    0  502  0.11081800924E+04  0.65120029658E+03  0.15410914515E+04  0.20067605252E+04  0.50400001928E-02 0. -1.
</event>
<event>
 5   0  0.1350863E-05  0.2694303E+04  0.7818609E-02  0.8336856E-01
       -2   -1    0    0    0  501  0.00000000000E+00  0.00000000000E+00  0.17301023437E+04  0.17301023437E+04  0.25500000920E-02 0.  1.
        2   -1    0    0  501    0  0.00000000000E+00  0.00000000000E+00 -0.10489649947E+04  0.10489649947E+04  0.25500000920E-02 0. -1.
    10030    2    1    2    0    0  0.00000000000E+00  0.00000000000E+00  0.68113734895E+03  0.27790673384E+04  0.26943027267E+04 0.  0.
        3    1    3    3  502    0 -0.98857412111E+03  0.86497426852E+03  0.32236956646E+02  0.13139629027E+04  0.10100000352E+00 0.  1.
       -3    1    3    3    0  502  0.98857412111E+03 -0.86497426852E+03  0.64890039231E+03  0.14651044357E+04  0.10100000352E+00 0. -1.
</event>
<event>
 5   0  0.1350863E-05  0.2819169E+04  0.7818609E-02  0.8297342E-01
       -2   -1    0    0    0  501  0.00000000000E+00  0.00000000000E+00  0.11327339831E+04  0.11327339831E+04  0.25500000920E-02 0. -1.
        2   -1    0    0  501    0  0.00000000000E+00  0.00000000000E+00 -0.17540996741E+04  0.17540996741E+04  0.25500000920E-02 0.  1.
    10030    2    1    2    0    0  0.00000000000E+00  0.00000000000E+00 -0.62136569105E+03  0.28868336572E+04  0.28191688921E+04 0.  0.
        3    1    3    3  502    0 -0.49670425584E+03 -0.46102988801E+03 -0.15763359144E+04  0.17158375799E+04  0.10100000352E+00 0.  1.
       -3    1    3    3    0  502  0.49670425584E+03  0.46102988801E+03  0.95497022332E+03  0.11709960773E+04  0.10100000352E+00 0. -1.
</event>
<event>
 5   0  0.1283052E-05  0.2803596E+04  0.7818609E-02  0.8302153E-01
       -2   -1    0    0    0  501  0.00000000000E+00  0.00000000000E+00  0.11473911618E+04  0.11473911618E+04  0.25500000920E-02 0.  1.
        2   -1    0    0  501    0  0.00000000000E+00  0.00000000000E+00 -0.17126137833E+04  0.17126137833E+04  0.25500000920E-02 0. -1.
    10030    2    1    2    0    0  0.00000000000E+00  0.00000000000E+00 -0.56522262152E+03  0.28600049452E+04  0.28035962039E+04 0.  0.
        5    1    3    3  502    0 -0.12463481202E+04 -0.30473506880E+03 -0.85856713806E+03  0.15438285914E+04  0.46999998093E+01 0. -1.
       -5    1    3    3    0  502  0.12463481202E+04  0.30473506880E+03  0.29334451654E+03  0.13161763538E+04  0.46999998093E+01 0.  1.
</event>
<event>
 5   0  0.4764214E-06  0.2833267E+04  0.7818609E-02  0.8293014E-01
       -1   -1    0    0    0  501  0.00000000000E+00  0.00000000000E+00  0.89015508735E+03  0.89015508736E+03  0.50400001928E-02 0. -1.
        1   -1    0    0  501    0  0.00000000000E+00  0.00000000000E+00 -0.22544948714E+04  0.22544948714E+04  0.50400001928E-02 0.  1.
    10030    2    1    2    0    0  0.00000000000E+00  0.00000000000E+00 -0.13643397840E+04  0.31446499587E+04  0.28332667218E+04 0.  0.
        3    1    3    3  502    0  0.37168540771E+02 -0.77566498968E+03  0.63287138564E+03  0.10017803540E+04  0.10100000352E+00 0. -1.
       -3    1    3    3    0  502 -0.37168540771E+02  0.77566498968E+03 -0.19972111697E+04  0.21428696048E+04  0.10100000352E+00 0.  1.
</event>
<event>
 5   0  0.5281919E-06  0.2786283E+04  0.7818609E-02  0.8307540E-01
       -1   -1    0    0    0  501  0.00000000000E+00  0.00000000000E+00  0.18782713895E+04  0.18782713895E+04  0.50400001928E-02 0.  1.
        1   -1    0    0  501    0  0.00000000000E+00  0.00000000000E+00 -0.10333134014E+04  0.10333134014E+04  0.50400001928E-02 0. -1.
    10030    2    1    2    0    0  0.00000000000E+00  0.00000000000E+00  0.84495798811E+03  0.29115847909E+04  0.27862828272E+04 0.  0.
        4    1    3    3  502    0 -0.61814098877E+03 -0.12075101151E+04  0.90937463016E+02  0.13595772119E+04  0.12699999809E+01 0. -1.
       -4    1    3    3    0  502  0.61814098877E+03  0.12075101151E+04  0.75402052510E+03  0.15520075790E+04  0.12699999809E+01 0.  1.
</event>
<event>
 5   0  0.1330962E-05  0.2801366E+04  0.7818609E-02  0.8302844E-01
       -2   -1    0    0    0  501  0.00000000000E+00  0.00000000000E+00  0.13391875158E+04  0.13391875159E+04  0.25500000920E-02 0. -1.
        2   -1    0    0  501    0  0.00000000000E+00  0.00000000000E+00 -0.14650023366E+04  0.14650023366E+04  0.25500000920E-02 0.  1.
    10030    2    1    2    0    0  0.00000000000E+00  0.00000000000E+00 -0.12581482073E+03  0.28041898524E+04  0.28013659810E+04 0.  0.
        4    1    3    3  502    0  0.68454847200E+03  0.18329953153E+01  0.11603314748E+04  0.13472122010E+04  0.12699999809E+01 0. -1.
       -4    1    3    3    0  502 -0.68454847200E+03 -0.18329953153E+01 -0.12861462955E+04  0.14569776514E+04  0.12699999809E+01 0.  1.
</event>
<event>
 5   0  0.4764214E-06  0.2808318E+04  0.7818609E-02  0.8300691E-01
        1   -1    0    0  501    0  0.00000000000E+00  0.00000000000E+00  0.16752798521E+04  0.16752798521E+04  0.50400001928E-02 0. -1.
       -1   -1    0    0    0  501  0.00000000000E+00  0.00000000000E+00 -0.11769151125E+04  0.11769151125E+04  0.50400001928E-02 0.  1.
    10030    2    1    2    0    0  0.00000000000E+00  0.00000000000E+00  0.49836473958E+03  0.28521949645E+04  0.28083177709E+04 0.  0.
        3    1    3    3  502    0 -0.29995691900E+03 -0.48727833045E+03  0.15514990430E+04  0.16536516003E+04  0.10100000352E+00 0. -1.
       -3    1    3    3    0  502  0.29995691900E+03  0.48727833045E+03 -0.10531343035E+04  0.11985433642E+04  0.10100000352E+00 0.  1.
</event>
<event>
 5   0  0.5107453E-06  0.2815187E+04  0.7818609E-02  0.8298569E-01
       -1   -1    0    0    0  501  0.00000000000E+00  0.00000000000E+00  0.12815868416E+04  0.12815868417E+04  0.50400001928E-02 0.  1.
        1   -1    0    0  501    0  0.00000000000E+00  0.00000000000E+00 -0.15459895303E+04  0.15459895303E+04  0.50400001928E-02 0. -1.
    10030    2    1    2    0    0  0.00000000000E+00  0.00000000000E+00 -0.26440268861E+03  0.28275763719E+04  0.28151872686E+04 0.  0.
        2    1    3    3  502    0  0.27826744065E+03  0.12458542217E+04 -0.72788328357E+03  0.14694895661E+04  0.25500000920E-02 0. -1.
       -2    1    3    3    0  502 -0.27826744065E+03 -0.12458542217E+04  0.46348059496E+03  0.13580868058E+04  0.25500000920E-02 0.  1.
</event>
<event>
 5   0  0.4764214E-06  0.2805352E+04  0.7818609E-02  0.8301609E-01
        1   -1    0    0  501    0  0.00000000000E+00  0.00000000000E+00  0.17472333615E+04  0.17472333616E+04  0.50400001928E-02 0.  1.
       -1   -1    0    0    0  501  0.00000000000E+00  0.00000000000E+00 -0.11260660415E+04  0.11260660415E+04  0.50400001928E-02 0. -1.
    10030    2    1    2    0    0  0.00000000000E+00  0.00000000000E+00  0.62116732006E+03  0.28732994030E+04  0.28053521383E+04 0.  0.
        3    1    3    3  502    0 -0.13925313687E+04 -0.29908139280E+02  0.14085317213E+03  0.13999563335E+04  0.10100000352E+00 0. -1.
       -3    1    3    3    0  502  0.13925313687E+04  0.29908139280E+02  0.48031414793E+03  0.14733430695E+04  0.10100000352E+00 0.  1.
</event>
<event>
 5   0  0.4764214E-06  0.2749208E+04  0.7818609E-02  0.8319213E-01
        1   -1    0    0  501    0  0.00000000000E+00  0.00000000000E+00  0.16526601672E+04  0.16526601672E+04  0.50400001928E-02 0.  1.
       -1   -1    0    0    0  501  0.00000000000E+00  0.00000000000E+00 -0.11433298300E+04  0.11433298300E+04  0.50400001928E-02 0. -1.
    10030    2    1    2    0    0  0.00000000000E+00  0.00000000000E+00  0.50933033715E+03  0.27959899972E+04  0.27492076444E+04 0.  0.
        3    1    3    3  502    0  0.78882213444E+02  0.99250254282E+03  0.12185544625E+04  0.15735814848E+04  0.10100000352E+00 0.  1.
       -3    1    3    3    0  502 -0.78882213444E+02 -0.99250254282E+03 -0.70922412530E+03  0.12224085124E+04  0.10100000352E+00 0. -1.
</event>
<event>
 5   0  0.5023691E-06  0.2814083E+04  0.7818609E-02  0.8298910E-01
        1   -1    0    0  501    0  0.00000000000E+00  0.00000000000E+00  0.12690502629E+04  0.12690502629E+04  0.50400001928E-02 0.  1.
       -1   -1    0    0    0  501  0.00000000000E+00  0.00000000000E+00 -0.15600368124E+04  0.15600368125E+04  0.50400001928E-02 0. -1.
    10030    2    1    2    0    0  0.00000000000E+00  0.00000000000E+00 -0.29098654959E+03  0.28290870753E+04  0.28140825339E+04 0.  0.
        5    1    3    3  502    0 -0.80654584555E+02 -0.14042978218E+04 -0.11087856077E+03  0.14109832315E+04  0.46999998093E+01 0.  1.
       -5    1    3    3    0  502  0.80654584555E+02  0.14042978218E+04 -0.18010798882E+03  0.14181038438E+04  0.46999998093E+01 0. -1.
</event>
<event>
 5   0  0.5107453E-06  0.2963326E+04  0.7818609E-02  0.8254282E-01
       -1   -1    0    0    0  501  0.00000000000E+00  0.00000000000E+00  0.24381803803E+04  0.24381803803E+04  0.50400001928E-02 0.  1.
        1   -1    0    0  501    0  0.00000000000E+00  0.00000000000E+00 -0.90039489975E+03  0.90039489977E+03  0.50400001928E-02 0. -1.
    10030    2    1    2    0    0  0.00000000000E+00  0.00000000000E+00  0.15377854806E+04  0.33385752801E+04  0.29633259552E+04 0.  0.
        2    1    3    3  502    0 -0.51624409182E+03  0.12992506806E+04  0.13217058356E+04  0.19239195953E+04  0.25500000920E-02 0.  1.
       -2    1    3    3    0  502  0.51624409182E+03 -0.12992506806E+04  0.21607964494E+03  0.14146556847E+04  0.25500000920E-02 0. -1.
</event>
<event>
 5   0  0.5107453E-06  0.2822495E+04  0.7818609E-02  0.8296318E-01
       -1   -1    0    0    0  501  0.00000000000E+00  0.00000000000E+00  0.13512925774E+04  0.13512925774E+04  0.50400001928E-02 0. -1.
        1   -1    0    0  501    0  0.00000000000E+00  0.00000000000E+00 -0.14738627724E+04  0.14738627724E+04  0.50400001928E-02 0.  1.
    10030    2    1    2    0    0  0.00000000000E+00  0.00000000000E+00 -0.12257019491E+03  0.28251553498E+04  0.28224952255E+04 0.  0.
        2    1    3    3  502    0 -0.10301000581E+04 -0.11414325704E+03 -0.10200422281E+04  0.14541736347E+04  0.25500000920E-02 0.  1.
       -2    1    3    3    0  502  0.10301000581E+04  0.11414325704E+03  0.89747203318E+03  0.13709817151E+04  0.25500000920E-02 0. -1.
</event>
<event>
 5   0  0.1283052E-05  0.2805693E+04  0.7818609E-02  0.8301503E-01
        2   -1    0    0  501    0  0.00000000000E+00  0.00000000000E+00  0.20976479025E+04  0.20976479025E+04  0.25500000920E-02 0. -1.
       -2   -1    0    0    0  501  0.00000000000E+00  0.00000000000E+00 -0.93818351110E+03  0.93818351110E+03  0.25500000920E-02 0.  1.
    10030    2    1    2    0    0  0.00000000000E+00  0.00000000000E+00  0.11594643914E+04  0.30358314136E+04  0.28056932649E+04 0.  0.
        5    1    3    3  502    0 -0.14076299177E+02 -0.57379321820E+02  0.20962926438E+04  0.20971302933E+04  0.46999998093E+01 0. -1.
       -5    1    3    3    0  502  0.14076299177E+02  0.57379321820E+02 -0.93682825238E+03  0.93870112028E+03  0.46999998093E+01 0.  1.
</event>
<event>
 5   0  0.4764214E-06  0.2800361E+04  0.7818609E-02  0.8303156E-01
        1   -1    0    0  501    0  0.00000000000E+00  0.00000000000E+00  0.29024351288E+04  0.29024351288E+04  0.50400001928E-02 0.  1.
       -1   -1    0    0    0  501  0.00000000000E+00  0.00000000000E+00 -0.67546908574E+03  0.67546908576E+03  0.50400001928E-02 0. -1.
    10030    2    1    2    0    0  0.00000000000E+00  0.00000000000E+00  0.22269660431E+04  0.35779042146E+04  0.28003608360E+04 0.  0.
        3    1    3    3  502    0  0.10538986142E+04 -0.12564819931E+03  0.22802973623E+04  0.25152029401E+04  0.10100000352E+00 0.  1.
       -3    1    3    3    0  502 -0.10538986142E+04  0.12564819931E+03 -0.53331319224E+02  0.10627012745E+04  0.10100000352E+00 0. -1.
</event>
<event>
 5   0  0.1283052E-05  0.2836286E+04  0.7818609E-02  0.8292091E-01
        2   -1    0    0  501    0  0.00000000000E+00  0.00000000000E+00  0.15568322135E+04  0.15568322136E+04  0.25500000920E-02 0. -1.
       -2   -1    0    0    0  501  0.00000000000E+00  0.00000000000E+00 -0.12918091270E+04  0.12918091270E+04  0.25500000920E-02 0.  1.
    10030    2    1    2    0    0  0.00000000000E+00  0.00000000000E+00  0.26502308655E+03  0.28486413405E+04  0.28362863485E+04 0.  0.
        5    1    3    3  502    0  0.10188233898E+04  0.96309898916E+03 -0.81836038686E+02  0.14043788626E+04  0.46999998093E+01 0.  1.
       -5    1    3    3    0  502 -0.10188233898E+04 -0.96309898916E+03  0.34685912524E+03  0.14442624780E+04  0.46999998093E+01 0. -1.
</event>
<event>
 5   0  0.4764214E-06  0.2773138E+04  0.7818609E-02  0.8311657E-01
       -1   -1    0    0    0  501  0.00000000000E+00  0.00000000000E+00  0.97911211920E+03  0.97911211921E+03  0.50400001928E-02 0.  1.
        1   -1    0    0  501    0  0.00000000000E+00  0.00000000000E+00 -0.19635892262E+04  0.19635892262E+04  0.50400001928E-02 0. -1.
    10030    2    1    2    0    0  0.00000000000E+00  0.00000000000E+00 -0.98447710695E+03  0.29427013454E+04  0.27731383005E+04 0.  0.
        3    1    3    3  502    0  0.11565747707E+04 -0.70222596222E+03 -0.81372777718E+03  0.15789044961E+04  0.10100000352E+00 0. -1.
       -3    1    3    3    0  502 -0.11565747707E+04  0.70222596222E+03 -0.17074932977E+03  0.13637968493E+04  0.10100000352E+00 0.  1.
</event>
<event>
 5   0  0.1330962E-05  0.2805258E+04  0.7818609E-02  0.8301638E-01
       -2   -1    0    0    0  501  0.00000000000E+00  0.00000000000E+00  0.13416141257E+04  0.13416141258E+04  0.25500000920E-02 0. -1.
        2   -1    0    0  501    0  0.00000000000E+00  0.00000000000E+00 -0.14664187034E+04  0.14664187034E+04  0.25500000920E-02 0.  1.
    10030    2    1    2    0    0  0.00000000000E+00  0.00000000000E+00 -0.12480457767E+03  0.28080328292E+04  0.28052579537E+04 0.  0.
        4    1    3    3  502    0  0.61603051138E+02 -0.14001031674E+04 -0.11975310387E+03  0.14065654034E+04  0.12699999809E+01 0.  1.
       -4    1    3    3    0  502 -0.61603051138E+02  0.14001031674E+04 -0.50514738002E+01  0.14014674258E+04  0.12699999809E+01 0. -1.
</event>
<event>
 5   0  0.5281919E-06  0.2775022E+04  0.7818609E-02  0.8311065E-01
       -1   -1    0    0    0  501  0.00000000000E+00  0.00000000000E+00  0.15608851144E+04  0.15608851144E+04  0.50400001928E-02 0.  1.
        1   -1    0    0  501    0  0.00000000000E+00  0.00000000000E+00 -0.12333943801E+04  0.12333943801E+04  0.50400001928E-02 0. -1.
    10030    2    1    2    0    0  0.00000000000E+00  0.00000000000E+00  0.32749073434E+03  0.27942794945E+04  0.27750221102E+04 0.  0.
        4    1    3    3  502    0 -0.10240293047E+04  0.84729883163E+03  0.56479813448E+03  0.14441433006E+04  0.12699999809E+01 0. -1.
       -4    1    3    3    0  502  0.10240293047E+04 -0.84729883163E+03 -0.23730740014E+03  0.13501361939E+04  0.12699999809E+01 0.  1.
</event>
<event>
 5   0  0.1330962E-05  0.2658293E+04  0.7818609E-02  0.8348666E-01
        2   -1    0    0  501    0  0.00000000000E+00  0.00000000000E+00  0.17700761248E+04  0.17700761248E+04  0.25500000920E-02 0.  1.
       -2   -1    0    0    0  501  0.00000000000E+00  0.00000000000E+00 -0.99805302467E+03  0.99805302467E+03  0.25500000920E-02 0. -1.
    10030    2    1    2    0    0  0.00000000000E+00  0.00000000000E+00  0.77202310015E+03  0.27681291495E+04  0.26582925575E+04 0.  0.
        4    1    3    3  502    0 -0.87178282253E+03 -0.27169479766E+02  0.14303894776E+04  0.16753385153E+04  0.12699999809E+01 0.  1.
       -4    1    3    3    0  502  0.87178282253E+03  0.27169479766E+02 -0.65836637747E+03  0.10927906342E+04  0.12699999809E+01 0. -1.
</event>
<event>
 5   0  0.1302063E-05  0.2803998E+04  0.7818609E-02  0.8302028E-01
        2   -1    0    0  501    0  0.00000000000E+00  0.00000000000E+00  0.26055425631E+04  0.26055425631E+04  0.25500000920E-02 0.  1.
       -2   -1    0    0    0  501  0.00000000000E+00  0.00000000000E+00 -0.75439243350E+03  0.75439243351E+03  0.25500000920E-02 0. -1.
    10030    2    1    2    0    0  0.00000000000E+00  0.00000000000E+00  0.18511501296E+04  0.33599349966E+04  0.28039982844E+04 0.  0.
        2    1    3    3  502    0 -0.98967039419E+03 -0.85308711710E+03  0.31646408907E+03  0.13443789042E+04  0.25500000920E-02 0. -1.
       -2    1    3    3    0  502  0.98967039419E+03  0.85308711710E+03  0.15346860405E+04  0.20155560924E+04  0.25500000920E-02 0.  1.
</event>
<event>
 5   0  0.5217999E-06  0.2813042E+04  0.7818609E-02  0.8299231E-01
        1   -1    0    0  501    0  0.00000000000E+00  0.00000000000E+00  0.21228234412E+04  0.21228234412E+04  0.50400001928E-02 0. -1.
       -1   -1    0    0    0  501  0.00000000000E+00  0.00000000000E+00 -0.93191973487E+03  0.93191973488E+03  0.50400001928E-02 0.  1.
    10030    2    1    2    0    0  0.00000000000E+00  0.00000000000E+00  0.11909037064E+04  0.30547431761E+04  0.28130418117E+04 0.  0.
        1    1    3    3  502    0  0.87642082932E+02 -0.77302740837E+03 -0.67700030558E+03  0.10313010824E+04  0.50400001928E-02 0.  1.
       -1    1    3    3    0  502 -0.87642082932E+02  0.77302740837E+03  0.18679040119E+04  0.20234420937E+04  0.50400001928E-02 0. -1.
</event>
<event>
 5   0  0.4447500E-06  0.2833280E+04  0.7818609E-02  0.8293010E-01
       -3   -1    0    0    0  501  0.00000000000E+00  0.00000000000E+00  0.33330196569E+04  0.33330196584E+04  0.10100000352E+00 0. -1.
        3   -1    0    0  501    0  0.00000000000E+00  0.00000000000E+00 -0.60211753276E+03  0.60211754123E+03  0.10100000352E+00 0.  1.
    10030    2    1    2    0    0  0.00000000000E+00  0.00000000000E+00  0.27309021241E+04  0.39351371996E+04  0.28332804959E+04 0.  0.
        1    1    3    3  502    0  0.12925338663E+04 -0.50796291995E+03  0.97705733447E+03  0.16980315540E+04  0.50400001928E-02 0.  1.
       -1    1    3    3    0  502 -0.12925338663E+04  0.50796291995E+03  0.17538447897E+04  0.22371056456E+04  0.50400001928E-02 0. -1.
</event>
<event>
 5   0  0.5217999E-06  0.2805748E+04  0.7818609E-02  0.8301486E-01
       -1   -1    0    0    0  501  0.00000000000E+00  0.00000000000E+00  0.21559161417E+04  0.21559161418E+04  0.50400001928E-02 0.  1.
        1   -1    0    0  501    0  0.00000000000E+00  0.00000000000E+00 -0.91286296028E+03  0.91286296029E+03  0.50400001928E-02 0. -1.
    10030    2    1    2    0    0  0.00000000000E+00  0.00000000000E+00  0.12430531815E+04  0.30687791020E+04  0.28057483788E+04 0.  0.
        1    1    3    3  502    0 -0.46496385214E+02  0.11519149910E+04  0.14958307721E+04  0.18885390542E+04  0.50400001928E-02 0. -1.
       -1    1    3    3    0  502  0.46496385214E+02 -0.11519149910E+04 -0.25277759066E+03  0.11802400479E+04  0.50400001928E-02 0.  1.
</event>
<event>
 5   0  0.1283052E-05  0.2815610E+04  0.7818609E-02  0.8298438E-01
        2   -1    0    0  501    0  0.00000000000E+00  0.00000000000E+00  0.77725974795E+03  0.77725974796E+03  0.25500000920E-02 0.  1.
       -2   -1    0    0    0  501  0.00000000000E+00  0.00000000000E+00 -0.25498743598E+04  0.25498743598E+04  0.25500000920E-02 0. -1.
    10030    2    1    2    0    0  0.00000000000E+00  0.00000000000E+00 -0.17726146118E+04  0.33271341077E+04  0.28156098467E+04 0.  0.
        5    1    3    3  502    0 -0.34929669147E+03  0.55488705118E+03 -0.23584217096E+04  0.24478731317E+04  0.46999998093E+01 0. -1.
       -5    1    3    3    0  502  0.34929669147E+03 -0.55488705118E+03  0.58580709780E+03  0.87926097609E+03  0.46999998093E+01 0.  1.
</event>
<event>
 5   0  0.1350863E-05  0.2763617E+04  0.7818609E-02  0.8314654E-01
       -2   -1    0    0    0  501  0.00000000000E+00  0.00000000000E+00  0.14904283559E+04  0.14904283559E+04  0.25500000920E-02 0. -1.
        2   -1    0    0  501    0  0.00000000000E+00  0.00000000000E+00 -0.12811046567E+04  0.12811046567E+04  0.25500000920E-02 0.  1.
    10030    2    1    2    0    0  0.00000000000E+00  0.00000000000E+00  0.20932369926E+03  0.27715330126E+04  0.27636169830E+04 0.  0.
        3    1    3    3  502    0 -0.69217351319E+03  0.98859176886E+03  0.77962521522E+03  0.14367440079E+04  0.10100000352E+00 0. -1.
       -3    1    3    3    0  502  0.69217351319E+03 -0.98859176886E+03 -0.57030151596E+03  0.13347890047E+04  0.10100000352E+00 0.  1.
</event>
<event>
 5   0  0.1283052E-05  0.2810552E+04  0.7818609E-02  0.8300000E-01
        2   -1    0    0  501    0  0.00000000000E+00  0.00000000000E+00  0.10729057721E+04  0.10729057721E+04  0.25500000920E-02 0. -1.
       -2   -1    0    0    0  501  0.00000000000E+00  0.00000000000E+00 -0.18406093572E+04  0.18406093572E+04  0.25500000920E-02 0.  1.
    10030    2    1    2    0    0  0.00000000000E+00  0.00000000000E+00 -0.76770358505E+03  0.29135151293E+04  0.28105518344E+04 0.  0.
        5    1    3    3  502    0 -0.32335502157E+03  0.68847804483E+03  0.84105281276E+03  0.11339984180E+04  0.46999998093E+01 0. -1.
       -5    1    3    3    0  502  0.32335502157E+03 -0.68847804483E+03 -0.16087563978E+04  0.17795167113E+04  0.46999998093E+01 0.  1.
</event>
<event>
 5   0  0.5107453E-06  0.2017411E+04  0.7818609E-02  0.8598523E-01
       -1   -1    0    0    0  501  0.00000000000E+00  0.00000000000E+00  0.69732684137E+03  0.69732684139E+03  0.50400001928E-02 0.  1.
        1   -1    0    0  501    0  0.00000000000E+00  0.00000000000E+00 -0.14591253149E+04  0.14591253149E+04  0.50400001928E-02 0. -1.
    10030    2    1    2    0    0  0.00000000000E+00  0.00000000000E+00 -0.76179847357E+03  0.21564521563E+04  0.20174114573E+04 0.  0.
        2    1    3    3  502    0 -0.60355797590E+03 -0.97476836435E+02 -0.12385060179E+04  0.13811883001E+04  0.25500000920E-02 0. -1.
       -2    1    3    3    0  502  0.60355797590E+03  0.97476836435E+02  0.47670754436E+03  0.77526385623E+03  0.25500000920E-02 0.  1.
</event>
<event>
 5   0  0.1330962E-05  0.2892674E+04  0.7818609E-02  0.8275060E-01
       -2   -1    0    0    0  501  0.00000000000E+00  0.00000000000E+00  0.78003981466E+03  0.78003981467E+03  0.25500000920E-02 0. -1.
        2   -1    0    0  501    0  0.00000000000E+00  0.00000000000E+00 -0.26817750336E+04  0.26817750336E+04  0.25500000920E-02 0.  1.
    10030    2    1    2    0    0  0.00000000000E+00  0.00000000000E+00 -0.19017352189E+04  0.34618148483E+04  0.28926744028E+04 0.  0.
        4    1    3    3  502    0 -0.94984219065E+03 -0.10157103020E+04 -0.14266004958E+04  0.19922495306E+04  0.12699999809E+01 0. -1.
       -4    1    3    3    0  502  0.94984219065E+03  0.10157103020E+04 -0.47513472315E+03  0.14695653176E+04  0.12699999809E+01 0.  1.
</event>
<event>
 5   0  0.5217999E-06  0.2692161E+04  0.7818609E-02  0.8337553E-01
       -1   -1    0    0    0  501  0.00000000000E+00  0.00000000000E+00  0.93669971490E+03  0.93669971492E+03  0.50400001928E-02 0.  1.
        1   -1    0    0  501    0  0.00000000000E+00  0.00000000000E+00 -0.19343796784E+04  0.19343796785E+04  0.50400001928E-02 0. -1.
    10030    2    1    2    0    0  0.00000000000E+00  0.00000000000E+00 -0.99767996354E+03  0.28710793934E+04  0.26921611344E+04 0.  0.
        1    1    3    3  502    0  0.24163733685E+03  0.94824089874E+03 -0.14845985833E+04  0.17780839008E+04  0.50400001928E-02 0. -1.
       -1    1    3    3    0  502 -0.24163733685E+03 -0.94824089874E+03  0.48691861974E+03  0.10929954926E+04  0.50400001928E-02 0.  1.
</event>
<event>
 5   0  0.1350863E-05  0.2809730E+04  0.7818609E-02  0.8300254E-01
        2   -1    0    0  501    0  0.00000000000E+00  0.00000000000E+00  0.15144373367E+04  0.15144373367E+04  0.25500000920E-02 0. -1.
       -2   -1    0    0    0  501  0.00000000000E+00  0.00000000000E+00 -0.13032205881E+04  0.13032205881E+04  0.25500000920E-02 0.  1.
    10030    2    1    2    0    0  0.00000000000E+00  0.00000000000E+00  0.21121674866E+03  0.28176579248E+04  0.28097301768E+04 0.  0.
        3    1    3    3  502    0 -0.16933597905E+03  0.70780961919E+03 -0.10994379854E+04  0.13184965016E+04  0.10100000352E+00 0.  1.
       -3    1    3    3    0  502  0.16933597905E+03 -0.70780961919E+03  0.13106547340E+04  0.14991614232E+04  0.10100000352E+00 0. -1.
</event>
<event>
 5   0  0.5217999E-06  0.2770893E+04  0.7818609E-02  0.8312362E-01
        1   -1    0    0  501    0  0.00000000000E+00  0.00000000000E+00  0.99155601929E+03  0.99155601930E+03  0.50400001928E-02 0.  1.
       -1   -1    0    0    0  501  0.00000000000E+00  0.00000000000E+00 -0.19358079897E+04  0.19358079897E+04  0.50400001928E-02 0. -1.
    10030    2    1    2    0    0  0.00000000000E+00  0.00000000000E+00 -0.94425197042E+03  0.29273640090E+04  0.27708930434E+04 0.  0.
        1    1    3    3  502    0 -0.26143154862E+02  0.24626901623E+03 -0.19122338903E+04  0.19282039167E+04  0.50400001928E-02 0. -1.
       -1    1    3    3    0  502  0.26143154862E+02 -0.24626901623E+03  0.96798191990E+03  0.99916009237E+03  0.50400001928E-02 0.  1.
</event>
<event>
 5   0  0.1283052E-05  0.2791916E+04  0.7818609E-02  0.8305783E-01
       -2   -1    0    0    0  501  0.00000000000E+00  0.00000000000E+00  0.85448786545E+03  0.85448786545E+03  0.25500000920E-02 0. -1.
        2   -1    0    0  501    0  0.00000000000E+00  0.00000000000E+00 -0.22805454229E+04  0.22805454229E+04  0.25500000920E-02 0.  1.
    10030    2    1    2    0    0  0.00000000000E+00  0.00000000000E+00 -0.14260575575E+04  0.31350332884E+04  0.27919157512E+04 0.  0.
        5    1    3    3  502    0  0.67087453728E+03  0.27212242837E+02  0.66125340373E+03  0.94238596386E+03  0.46999998093E+01 0. -1.
       -5    1    3    3    0  502 -0.67087453728E+03 -0.27212242837E+02 -0.20873109612E+04  0.21926473245E+04  0.46999998093E+01 0.  1.
</event>
<event>
 5   0  0.4447500E-06  0.2874750E+04  0.7818609E-02  0.8280430E-01
        3   -1    0    0  501    0  0.00000000000E+00  0.00000000000E+00  0.11830164079E+04  0.11830164122E+04  0.10100000352E+00 0.  1.
       -3   -1    0    0    0  501  0.00000000000E+00  0.00000000000E+00 -0.17464228428E+04  0.17464228457E+04  0.10100000352E+00 0. -1.
    10030    2    1    2    0    0  0.00000000000E+00  0.00000000000E+00 -0.56340643494E+03  0.29294392579E+04  0.28747499987E+04 0.  0.
        5    1    3    3  502    0 -0.16277138113E+03  0.14045300612E+04 -0.18278941760E+02  0.14140563726E+04  0.46999998093E+01 0.  1.
       -5    1    3    3    0  502  0.16277138113E+03 -0.14045300612E+04 -0.54512749318E+03  0.15153828853E+04  0.46999998093E+01 0. -1.
</event>
<event>
 5   0  0.5281919E-06  0.2456882E+04  0.7818609E-02  0.8418510E-01
        1   -1    0    0  501    0  0.00000000000E+00  0.00000000000E+00  0.10739952513E+04  0.10739952513E+04  0.50400001928E-02 0.  1.
       -1   -1    0    0    0  501  0.00000000000E+00  0.00000000000E+00 -0.14050968864E+04  0.14050968864E+04  0.50400001928E-02 0. -1.
    10030    2    1    2    0    0  0.00000000000E+00  0.00000000000E+00 -0.33110163516E+03  0.24790921377E+04  0.24568820758E+04 0.  0.
        4    1    3    3  502    0 -0.53481395387E+03  0.10457248194E+04  0.19756255798E+03  0.11910495122E+04  0.12699999809E+01 0. -1.
       -4    1    3    3    0  502  0.53481395387E+03 -0.10457248194E+04 -0.52866419314E+03  0.12880426255E+04  0.12699999809E+01 0.  1.
</event>
<event>
 5   0  0.1302063E-05  0.2759150E+04  0.7818609E-02  0.8316064E-01
        2   -1    0    0  501    0  0.00000000000E+00  0.00000000000E+00  0.16339917141E+04  0.16339917141E+04  0.25500000920E-02 0.  1.
       -2   -1    0    0    0  501  0.00000000000E+00  0.00000000000E+00 -0.11647715485E+04  0.11647715485E+04  0.25500000920E-02 0. -1.
    10030    2    1    2    0    0  0.00000000000E+00  0.00000000000E+00  0.46922016562E+03  0.27987632627E+04  0.27591499119E+04 0.  0.
        2    1    3    3  502    0 -0.87122259513E+03  0.10682857061E+04  0.28983340910E+03  0.14086399701E+04  0.25500000920E-02 0.  1.
       -2    1    3    3    0  502  0.87122259513E+03 -0.10682857061E+04  0.17938675652E+03  0.13901232926E+04  0.25500000920E-02 0. -1.
</event>
<event>
 5   0  0.1350863E-05  0.2781530E+04  0.7818609E-02  0.8309026E-01
       -2   -1    0    0    0  501  0.00000000000E+00  0.00000000000E+00  0.72872128048E+03  0.72872128048E+03  0.25500000920E-02 0. -1.
        2   -1    0    0  501    0  0.00000000000E+00  0.00000000000E+00 -0.26542751284E+04  0.26542751284E+04  0.25500000920E-02 0.  1.
    10030    2    1    2    0    0  0.00000000000E+00  0.00000000000E+00 -0.19255538480E+04  0.33829964089E+04  0.27815296298E+04 0.  0.
        3    1    3    3  502    0  0.72717197549E+03  0.60628324503E+03  0.27627347233E+03  0.98624819233E+03  0.10100000352E+00 0. -1.
       -3    1    3    3    0  502 -0.72717197549E+03 -0.60628324503E+03 -0.22018273203E+04  0.23967482166E+04  0.10100000352E+00 0.  1.
</event>
<event>
 5   0  0.5023691E-06  0.2776833E+04  0.7818609E-02  0.8310497E-01
       -1   -1    0    0    0  501  0.00000000000E+00  0.00000000000E+00  0.70676880085E+03  0.70676880086E+03  0.50400001928E-02 0. -1.
        1   -1    0    0  501    0  0.00000000000E+00  0.00000000000E+00 -0.27274843102E+04  0.27274843102E+04  0.50400001928E-02 0.  1.
    10030    2    1    2    0    0  0.00000000000E+00  0.00000000000E+00 -0.20207155094E+04  0.34342531111E+04  0.27768333153E+04 0.  0.
        5    1    3    3  502    0 -0.11508645197E+04 -0.77081952292E+03 -0.89285433697E+03  0.16479875111E+04  0.46999998093E+01 0. -1.
       -5    1    3    3    0  502  0.11508645197E+04  0.77081952292E+03 -0.11278611724E+04  0.17862656000E+04  0.46999998093E+01 0.  1.
</event>
<event>
 5   0  0.4447500E-06  0.2801508E+04  0.7818609E-02  0.8302800E-01
       -4   -1    0    0    0  501  0.00000000000E+00  0.00000000000E+00  0.12697270718E+04  0.12697277069E+04  0.12699999809E+01 0. -1.
        4   -1    0    0  501    0  0.00000000000E+00  0.00000000000E+00 -0.15453003139E+04  0.15453008358E+04  0.12699999809E+01 0.  1.
    10030    2    1    2    0    0  0.00000000000E+00  0.00000000000E+00 -0.27557324213E+03  0.28150285426E+04  0.28015076448E+04 0.  0.
        3    1    3    3  502    0  0.55499173242E+03  0.97909035413E+03  0.70019122657E+03  0.13254816138E+04  0.10100000352E+00 0. -1.
       -3    1    3    3    0  502 -0.55499173242E+03 -0.97909035413E+03 -0.97576446870E+03  0.14895469288E+04  0.10100000352E+00 0.  1.
</event>
<event>
 5   0  0.1330962E-05  0.3065569E+04  0.7818609E-02  0.8225251E-01
       -2   -1    0    0    0  501  0.00000000000E+00  0.00000000000E+00  0.18970433745E+04  0.18970433745E+04  0.25500000920E-02 0. -1.
        2   -1    0    0  501    0  0.00000000000E+00  0.00000000000E+00 -0.12384680690E+04  0.12384680690E+04  0.25500000920E-02 0.  1.
    10030    2    1    2    0    0  0.00000000000E+00  0.00000000000E+00  0.65857530550E+03  0.31355114434E+04  0.30655685572E+04 0.  0.
        4    1    3    3  502    0 -0.55715689981E+03 -0.73373859488E+03  0.15822388464E+04  0.18309225862E+04  0.12699999809E+01 0. -1.
       -4    1    3    3    0  502  0.55715689981E+03  0.73373859488E+03 -0.92366354093E+03  0.13045888572E+04  0.12699999809E+01 0.  1.
</event>
<event>
 5   0  0.1302063E-05  0.2832892E+04  0.7818609E-02  0.8293129E-01
       -2   -1    0    0    0  501  0.00000000000E+00  0.00000000000E+00  0.90041978406E+03  0.90041978406E+03  0.25500000920E-02 0. -1.
        2   -1    0    0  501    0  0.00000000000E+00  0.00000000000E+00 -0.22282050044E+04  0.22282050044E+04  0.25500000920E-02 0.  1.
    10030    2    1    2    0    0  0.00000000000E+00  0.00000000000E+00 -0.13277852204E+04  0.31286247885E+04  0.28328924222E+04 0.  0.
        2    1    3    3  502    0 -0.11367925404E+03 -0.88846318246E+02 -0.22200685558E+04  0.22247519038E+04  0.25500000920E-02 0.  1.
       -2    1    3    3    0  502  0.11367925404E+03  0.88846318246E+02  0.89228333540E+03  0.90387288471E+03  0.25500000920E-02 0. -1.
</event>
<event>
 5   0  0.5107453E-06  0.2778553E+04  0.7818609E-02  0.8309958E-01
        1   -1    0    0  501    0  0.00000000000E+00  0.00000000000E+00  0.12842293810E+04  0.12842293810E+04  0.50400001928E-02 0.  1.
       -1   -1    0    0    0  501  0.00000000000E+00  0.00000000000E+00 -0.15029164865E+04  0.15029164866E+04  0.50400001928E-02 0. -1.
    10030    2    1    2    0    0  0.00000000000E+00  0.00000000000E+00 -0.21868710559E+03  0.27871458675E+04  0.27785532273E+04 0.  0.
        2    1    3    3  502    0 -0.10861761887E+04 -0.23512661664E+03  0.72691695502E+03  0.13279576418E+04  0.25500000920E-02 0.  1.
       -2    1    3    3    0  502  0.10861761887E+04  0.23512661664E+03 -0.94560406061E+03  0.14591882258E+04  0.25500000920E-02 0. -1.
</event>
<event>
 5   0  0.1302063E-05  0.2784896E+04  0.7818609E-02  0.8307973E-01
        2   -1    0    0  501    0  0.00000000000E+00  0.00000000000E+00  0.88493257937E+03  0.88493257937E+03  0.25500000920E-02 0. -1.
       -2   -1    0    0    0  501  0.00000000000E+00  0.00000000000E+00 -0.21910271166E+04  0.21910271166E+04  0.25500000920E-02 0.  1.
    10030    2    1    2    0    0  0.00000000000E+00  0.00000000000E+00 -0.13060945373E+04  0.30759596960E+04  0.27848958887E+04 0.  0.
        2    1    3    3  502    0  0.75780384140E+03  0.76847546011E+03  0.31873154932E+03  0.11253492771E+04  0.25500000920E-02 0. -1.
       -2    1    3    3    0  502 -0.75780384140E+03 -0.76847546011E+03 -0.16248260866E+04  0.19506104189E+04  0.25500000920E-02 0.  1.
</event>
<event>
 5   0  0.1283052E-05  0.2633957E+04  0.7818609E-02  0.8356757E-01
       -2   -1    0    0    0  501  0.00000000000E+00  0.00000000000E+00  0.10190203368E+04  0.10190203368E+04  0.25500000920E-02 0. -1.
        2   -1    0    0  501    0  0.00000000000E+00  0.00000000000E+00 -0.17020591839E+04  0.17020591839E+04  0.25500000920E-02 0.  1.
    10030    2    1    2    0    0  0.00000000000E+00  0.00000000000E+00 -0.68303884714E+03  0.27210795207E+04  0.26339574202E+04 0.  0.
        5    1    3    3  502    0  0.10741482142E+04  0.64455378385E+02 -0.11258837031E+04  0.15574289983E+04  0.46999998093E+01 0.  1.
       -5    1    3    3    0  502 -0.10741482142E+04 -0.64455378385E+02  0.44284485596E+03  0.11636505224E+04  0.46999998093E+01 0. -1.
</event>
<event>
 5   0  0.1330962E-05  0.2819737E+04  0.7818609E-02  0.8297167E-01
       -2   -1    0    0    0  501  0.00000000000E+00  0.00000000000E+00  0.12121790265E+04  0.12121790266E+04  0.25500000920E-02 0.  1.
        2   -1    0    0  501    0  0.00000000000E+00  0.00000000000E+00 -0.16397988345E+04  0.16397988345E+04  0.25500000920E-02 0. -1.
    10030    2    1    2    0    0  0.00000000000E+00  0.00000000000E+00 -0.42761980798E+03  0.28519778611E+04  0.28197374027E+04 0.  0.
        4    1    3    3  502    0 -0.50889568706E+03  0.55953692747E+03  0.98961437045E+03  0.12455499222E+04  0.12699999809E+01 0.  1.
       -4    1    3    3    0  502  0.50889568706E+03 -0.55953692747E+03 -0.14172341784E+04  0.16064279389E+04  0.12699999809E+01 0. -1.
</event>
<event>
 5   0  0.1302063E-05  0.2836990E+04  0.7818609E-02  0.8291876E-01
        2   -1    0    0  501    0  0.00000000000E+00  0.00000000000E+00  0.16422277517E+04  0.16422277517E+04  0.25500000920E-02 0. -1.
       -2   -1    0    0    0  501  0.00000000000E+00  0.00000000000E+00 -0.12252428361E+04  0.12252428362E+04  0.25500000920E-02 0.  1.
    10030    2    1    2    0    0  0.00000000000E+00  0.00000000000E+00  0.41698491553E+03  0.28674705878E+04  0.28369898048E+04 0.  0.
        2    1    3    3  502    0  0.53047006726E+03  0.30717820080E+03  0.15014434505E+04  0.16217550291E+04  0.25500000920E-02 0. -1.
       -2    1    3    3    0  502 -0.53047006726E+03 -0.30717820080E+03 -0.10844585349E+04  0.12457155588E+04  0.25500000920E-02 0.  1.
</event>
<event>
 5   0  0.1283052E-05  0.2691503E+04  0.7818609E-02  0.8337767E-01
        2   -1    0    0  501    0  0.00000000000E+00  0.00000000000E+00  0.32668015448E+04  0.32668015448E+04  0.25500000920E-02 0. -1.
       -2   -1    0    0    0  501  0.00000000000E+00  0.00000000000E+00 -0.55437916174E+03  0.55437916175E+03  0.25500000920E-02 0.  1.
    10030    2    1    2    0    0  0.00000000000E+00  0.00000000000E+00  0.27124223831E+04  0.38211807066E+04  0.26915027044E+04 0.  0.
        5    1    3    3  502    0 -0.44213319867E+03 -0.12192597182E+04  0.84639802423E+03  0.15487051789E+04  0.46999998093E+01 0.  1.
       -5    1    3    3    0  502  0.44213319867E+03  0.12192597182E+04  0.18660243589E+04  0.22724755276E+04  0.46999998093E+01 0. -1.
</event>
<event>
 5   0  0.5217999E-06  0.2869354E+04  0.7818609E-02  0.8282054E-01
        1   -1    0    0  501    0  0.00000000000E+00  0.00000000000E+00  0.22252484976E+04  0.22252484976E+04  0.50400001928E-02 0.  1.
       -1   -1    0    0    0  501  0.00000000000E+00  0.00000000000E+00 -0.92497448631E+03  0.92497448632E+03  0.50400001928E-02 0. -1.
    10030    2    1    2    0    0  0.00000000000E+00  0.00000000000E+00  0.13002740112E+04  0.31502229839E+04  0.28693539942E+04 0.  0.
        1    1    3    3  502    0 -0.11723376524E+04 -0.20352411624E+03 -0.22988571027E+03  0.12118766757E+04  0.50400001928E-02 0. -1.
       -1    1    3    3    0  502  0.11723376524E+04  0.20352411624E+03  0.15301597215E+04  0.19383463082E+04  0.50400001928E-02 0.  1.
</event>
<event>
 5   0  0.1350863E-05  0.2790070E+04  0.7818609E-02  0.8306358E-01
       -2   -1    0    0    0  501  0.00000000000E+00  0.00000000000E+00  0.66790203953E+03  0.66790203954E+03  0.25500000920E-02 0.  1.
        2   -1    0    0  501    0  0.00000000000E+00  0.00000000000E+00 -0.29137842018E+04  0.29137842018E+04  0.25500000920E-02 0. -1.
    10030    2    1    2    0    0  0.00000000000E+00  0.00000000000E+00 -0.22458821623E+04  0.35816862413E+04  0.27900698279E+04 0.  0.
        3    1    3    3  502    0  0.11437511936E+03  0.13042791568E+04 -0.50475436295E+03  0.14032115891E+04  0.10100000352E+00 0. -1.
       -3    1    3    3    0  502 -0.11437511936E+03 -0.13042791568E+04 -0.17411277993E+04  0.21784746522E+04  0.10100000352E+00 0.  1.
</event>
<event>
 5   0  0.5217999E-06  0.2838539E+04  0.7818609E-02  0.8291402E-01
        1   -1    0    0  501    0  0.00000000000E+00  0.00000000000E+00  0.10658844915E+04  0.10658844915E+04  0.50400001928E-02 0.  1.
       -1   -1    0    0    0  501  0.00000000000E+00  0.00000000000E+00 -0.18898163721E+04  0.18898163721E+04  0.50400001928E-02 0. -1.
    10030    2    1    2    0    0  0.00000000000E+00  0.00000000000E+00 -0.82393188056E+03  0.29557008636E+04  0.28385390347E+04 0.  0.
        1    1    3    3  502    0  0.64802009329E+02 -0.13583922153E+04 -0.83480229141E+03  0.15957203943E+04  0.50400001928E-02 0. -1.
       -1    1    3    3    0  502 -0.64802009329E+02  0.13583922153E+04  0.10870410852E+02  0.13599804693E+04  0.50400001928E-02 0.  1.
</event>
<event>
 5   0  0.1302063E-05  0.2802309E+04  0.7818609E-02  0.8302552E-01
        2   -1    0    0  501    0  0.00000000000E+00  0.00000000000E+00  0.94476303875E+03  0.94476303875E+03  0.25500000920E-02 0. -1.
       -2   -1    0    0    0  501  0.00000000000E+00  0.00000000000E+00 -0.20780169907E+04  0.20780169907E+04  0.25500000920E-02 0.  1.
    10030    2    1    2    0    0  0.00000000000E+00  0.00000000000E+00 -0.11332539520E+04  0.30227800295E+04  0.28023087958E+04 0.  0.
        2    1    3    3  502    0 -0.12599588969E+04 -0.23799346938E+03 -0.11759554331E+04  0.17398300188E+04  0.25500000920E-02 0. -1.
       -2    1    3    3    0  502  0.12599588969E+04  0.23799346938E+03  0.42701481173E+02  0.12829500107E+04  0.25500000920E-02 0.  1.
</event>
<event>
 5   0  0.1283052E-05  0.2795295E+04  0.7818609E-02  0.8304731E-01
        2   -1    0    0  501    0  0.00000000000E+00  0.00000000000E+00  0.15752927863E+04  0.15752927863E+04  0.25500000920E-02 0.  1.
       -2   -1    0    0    0  501  0.00000000000E+00  0.00000000000E+00 -0.12400352808E+04  0.12400352808E+04  0.25500000920E-02 0. -1.
    10030    2    1    2    0    0  0.00000000000E+00  0.00000000000E+00  0.33525750550E+03  0.28153280671E+04  0.27952950703E+04 0.  0.
        5    1    3    3  502    0  0.97635426650E+03 -0.37482602749E+03 -0.76618062043E+03  0.12964632805E+04  0.46999998093E+01 0. -1.
       -5    1    3    3    0  502 -0.97635426650E+03  0.37482602749E+03  0.11014381259E+04  0.15188647866E+04  0.46999998093E+01 0.  1.
</event>
<event>
 5   0  0.4764214E-06  0.2644818E+04  0.7818609E-02  0.8353135E-01
        1   -1    0    0  501    0  0.00000000000E+00  0.00000000000E+00  0.15899938584E+04  0.15899938584E+04  0.50400001928E-02 0.  1.
       -1   -1    0    0    0  501  0.00000000000E+00  0.00000000000E+00 -0.10998568544E+04  0.10998568544E+04  0.50400001928E-02 0. -1.
    10030    2    1    2    0    0  0.00000000000E+00  0.00000000000E+00  0.49013700397E+03  0.26898507129E+04  0.26448180608E+04 0.  0.
        3    1    3    3  502    0  0.42682411996E+03  0.28434606590E+03  0.14847294600E+04  0.15708128769E+04  0.10100000352E+00 0.  1.
       -3    1    3    3    0  502 -0.42682411996E+03 -0.28434606590E+03 -0.99459245602E+03  0.11190378360E+04  0.10100000352E+00 0. -1.
</event>
<event>
 5   0  0.5217999E-06  0.2708448E+04  0.7818609E-02  0.8332269E-01
       -1   -1    0    0    0  501  0.00000000000E+00  0.00000000000E+00  0.20235545416E+04  0.20235545416E+04  0.50400001928E-02 0. -1.
        1   -1    0    0  501    0  0.00000000000E+00  0.00000000000E+00 -0.90628742128E+03  0.90628742129E+03  0.50400001928E-02 0.  1.
    10030    2    1    2    0    0  0.00000000000E+00  0.00000000000E+00  0.11172671204E+04  0.29298419629E+04  0.27084475460E+04 0.  0.
        1    1    3    3  502    0 -0.55903211239E+03 -0.57033660491E+03 -0.62443898100E+03  0.10137676196E+04  0.50400001928E-02 0.  1.
       -1    1    3    3    0  502  0.55903211239E+03  0.57033660491E+03  0.17417061014E+04  0.19160743433E+04  0.50400001928E-02 0. -1.
</event>
<event>
 5   0  0.5023691E-06  0.2753990E+04  0.7818609E-02  0.8317697E-01
        1   -1    0    0  501    0  0.00000000000E+00  0.00000000000E+00  0.19688468383E+04  0.19688468383E+04  0.50400001928E-02 0. -1.
       -1   -1    0    0    0  501  0.00000000000E+00  0.00000000000E+00 -0.96305897570E+03  0.96305897571E+03  0.50400001928E-02 0.  1.
    10030    2    1    2    0    0  0.00000000000E+00  0.00000000000E+00  0.10057878626E+04  0.29319058140E+04  0.27539902828E+04 0.  0.
        5    1    3    3  502    0 -0.41427151865E+03  0.76430285231E+02  0.18985517021E+04  0.19447321500E+04  0.46999998093E+01 0. -1.
       -5    1    3    3    0  502  0.41427151865E+03 -0.76430285231E+02 -0.89276383955E+03  0.98717366399E+03  0.46999998093E+01 0.  1.
</event>
<event>
 5   0  0.4447500E-06  0.2752403E+04  0.7818609E-02  0.8318199E-01
        3   -1    0    0  501    0  0.00000000000E+00  0.00000000000E+00  0.20713861310E+04  0.20713861334E+04  0.10100000352E+00 0. -1.
       -3   -1    0    0    0  501  0.00000000000E+00  0.00000000000E+00 -0.91433013453E+03  0.91433014011E+03  0.10100000352E+00 0.  1.
    10030    2    1    2    0    0  0.00000000000E+00  0.00000000000E+00  0.11570559965E+04  0.29857162736E+04  0.27524031477E+04 0.  0.
        5    1    3    3  502    0 -0.22840302942E+03  0.20904746899E+03  0.20331031056E+04  0.20565502951E+04  0.46999998093E+01 0. -1.
       -5    1    3    3    0  502  0.22840302942E+03 -0.20904746899E+03 -0.87604710914E+03  0.92916597849E+03  0.46999998093E+01 0.  1.
</event>
<event>
 5   0  0.4447500E-06  0.2812352E+04  0.7818609E-02  0.8299444E-01
       -3   -1    0    0    0  501  0.00000000000E+00  0.00000000000E+00  0.14417693458E+04  0.14417693493E+04  0.10100000352E+00 0.  1.
        3   -1    0    0  501    0  0.00000000000E+00  0.00000000000E+00 -0.13714610432E+04  0.13714610470E+04  0.10100000352E+00 0. -1.
    10030    2    1    2    0    0  0.00000000000E+00  0.00000000000E+00  0.70308302519E+02  0.28132303963E+04  0.28123516859E+04 0.  0.
        4    1    3    3  502    0  0.10344531308E+04  0.93950182755E+03  0.19195747302E+03  0.14105340294E+04  0.12699999809E+01 0.  1.
       -4    1    3    3    0  502 -0.10344531308E+04 -0.93950182755E+03 -0.12164917050E+03  0.14026963668E+04  0.12699999809E+01 0. -1.
</event>
<event>
 5   0  0.4764214E-06  0.2708762E+04  0.7818609E-02  0.8332168E-01
        1   -1    0    0  501    0  0.00000000000E+00  0.00000000000E+00  0.29405412672E+04  0.29405412672E+04  0.50400001928E-02 0. -1.
       -1   -1    0    0    0  501  0.00000000000E+00  0.00000000000E+00 -0.62381296453E+03  0.62381296455E+03  0.50400001928E-02 0.  1.
    10030    2    1    2    0    0  0.00000000000E+00  0.00000000000E+00  0.23167283026E+04  0.35643542317E+04  0.27087619056E+04 0.  0.
        3    1    3    3  502    0 -0.54962941970E+03 -0.11931206213E+04  0.15922361569E+04  0.20641815099E+04  0.10100000352E+00 0.  1.
       -3    1    3    3    0  502  0.54962941970E+03  0.11931206213E+04  0.72449214571E+03  0.15001727219E+04  0.10100000352E+00 0. -1.
</event>
<event>
 5   0  0.1283052E-05  0.2711537E+04  0.7818609E-02  0.8331271E-01
       -2   -1    0    0    0  501  0.00000000000E+00  0.00000000000E+00  0.85253626659E+03  0.85253626659E+03  0.25500000920E-02 0.  1.
        2   -1    0    0  501    0  0.00000000000E+00  0.00000000000E+00 -0.21560462789E+04  0.21560462789E+04  0.25500000920E-02 0. -1.
    10030    2    1    2    0    0  0.00000000000E+00  0.00000000000E+00 -0.13035100123E+04  0.30085825455E+04  0.27115365719E+04 0.  0.
        5    1    3    3  502    0 -0.12897196083E+04  0.25958862317E+02 -0.18887886617E+03  0.13037437811E+04  0.46999998093E+01 0.  1.
       -5    1    3    3    0  502  0.12897196083E+04 -0.25958862317E+02 -0.11146311461E+04  0.17048387644E+04  0.46999998093E+01 0. -1.
</event>
<event>
 5   0  0.4447500E-06  0.2837104E+04  0.7818609E-02  0.8291841E-01
       -3   -1    0    0    0  501  0.00000000000E+00  0.00000000000E+00  0.22523921963E+04  0.22523921986E+04  0.10100000352E+00 0.  1.
        3   -1    0    0  501    0  0.00000000000E+00  0.00000000000E+00 -0.89340121681E+03  0.89340122252E+03  0.10100000352E+00 0. -1.
    10030    2    1    2    0    0  0.00000000000E+00  0.00000000000E+00  0.13589909795E+04  0.31457934211E+04  0.28371041161E+04 0.  0.
        4    1    3    3  502    0  0.98968008248E+03 -0.92505720362E+03  0.21288664547E+03  0.13713204703E+04  0.12699999809E+01 0.  1.
       -4    1    3    3    0  502 -0.98968008248E+03  0.92505720362E+03  0.11461043340E+04  0.17744729508E+04  0.12699999809E+01 0. -1.
</event>
<event>
 5   0  0.1283052E-05  0.2814778E+04  0.7818609E-02  0.8298695E-01
        2   -1    0    0  501    0  0.00000000000E+00  0.00000000000E+00  0.15011782502E+04  0.15011782502E+04  0.25500000920E-02 0. -1.
       -2   -1    0    0    0  501  0.00000000000E+00  0.00000000000E+00 -0.13194592202E+04  0.13194592202E+04  0.25500000920E-02 0.  1.
    10030    2    1    2    0    0  0.00000000000E+00  0.00000000000E+00  0.18171903003E+03  0.28206374703E+04  0.28147777769E+04 0.  0.
        5    1    3    3  502    0 -0.84963977930E+03  0.44642939698E+03  0.11223392376E+04  0.14767716192E+04  0.46999998093E+01 0. -1.
       -5    1    3    3    0  502  0.84963977930E+03 -0.44642939698E+03 -0.94062020754E+03  0.13438658512E+04  0.46999998093E+01 0.  1.
</event>
<event>
 5   0  0.5217999E-06  0.2764630E+04  0.7818609E-02  0.8314334E-01
       -1   -1    0    0    0  501  0.00000000000E+00  0.00000000000E+00  0.80727783409E+03  0.80727783410E+03  0.50400001928E-02 0. -1.
        1   -1    0    0  501    0  0.00000000000E+00  0.00000000000E+00 -0.23669613260E+04  0.23669613260E+04  0.50400001928E-02 0.  1.
    10030    2    1    2    0    0  0.00000000000E+00  0.00000000000E+00 -0.15596834919E+04  0.31742391601E+04  0.27646304727E+04 0.  0.
        1    1    3    3  502    0 -0.38111204390E+03 -0.13003898648E+04 -0.10933026125E+04  0.17411406586E+04  0.50400001928E-02 0.  1.
       -1    1    3    3    0  502  0.38111204390E+03  0.13003898648E+04 -0.46638087941E+03  0.14330985015E+04  0.50400001928E-02 0. -1.
</event>
<event>
 5   0  0.5023691E-06  0.2854179E+04  0.7818609E-02  0.8286643E-01
       -1   -1    0    0    0  501  0.00000000000E+00  0.00000000000E+00  0.61458658589E+03  0.61458658591E+03  0.50400001928E-02 0. -1.
        1   -1    0    0  501    0  0.00000000000E+00  0.00000000000E+00 -0.33137472898E+04  0.33137472898E+04  0.50400001928E-02 0.  1.
    10030    2    1    2    0    0  0.00000000000E+00  0.00000000000E+00 -0.26991607039E+04  0.39283338757E+04  0.28541791348E+04 0.  0.
        5    1    3    3  502    0  0.28773750946E+03 -0.50303787439E+03 -0.31444954151E+04  0.31974542191E+04  0.46999998093E+01 0.  1.
       -5    1    3    3    0  502 -0.28773750946E+03  0.50303787439E+03  0.44533471123E+03  0.73087965661E+03  0.46999998093E+01 0. -1.
</event>
<event>
 5   0  0.1350863E-05  0.2051889E+04  0.7818609E-02  0.8582738E-01
       -2   -1    0    0    0  501  0.00000000000E+00  0.00000000000E+00  0.82662045708E+03  0.82662045708E+03  0.25500000920E-02 0.  1.
        2   -1    0    0  501    0  0.00000000000E+00  0.00000000000E+00 -0.12733321907E+04  0.12733321907E+04  0.25500000920E-02 0. -1.
    10030    2    1    2    0    0  0.00000000000E+00  0.00000000000E+00 -0.44671173366E+03  0.20999526478E+04  0.20518893124E+04 0.  0.
        3    1    3    3  502    0 -0.26715663537E+03 -0.61625872263E+02  0.78843315994E+03  0.83474383726E+03  0.10100000352E+00 0.  1.
       -3    1    3    3    0  502  0.26715663537E+03  0.61625872263E+02 -0.12351448936E+04  0.12652088106E+04  0.10100000352E+00 0. -1.
</event>
<event>
 5   0  0.1283052E-05  0.2798406E+04  0.7818609E-02  0.8303763E-01
       -2   -1    0    0    0  501  0.00000000000E+00  0.00000000000E+00  0.10727720219E+04  0.10727720219E+04  0.25500000920E-02 0.  1.
        2   -1    0    0  501    0  0.00000000000E+00  0.00000000000E+00 -0.18249631724E+04  0.18249631724E+04  0.25500000920E-02 0. -1.
    10030    2    1    2    0    0  0.00000000000E+00  0.00000000000E+00 -0.75219115052E+03  0.28977351942E+04  0.27984062837E+04 0.  0.
        5    1    3    3  502    0  0.10362768169E+04 -0.27874580384E+03 -0.13058398829E+04  0.16902096776E+04  0.46999998093E+01 0. -1.
       -5    1    3    3    0  502 -0.10362768169E+04  0.27874580384E+03  0.55364873236E+03  0.12075255166E+04  0.46999998093E+01 0.  1.
</event>
<event>
 5   0  0.4447500E-06  0.2002550E+04  0.7818609E-02  0.8605430E-01
        3   -1    0    0  501    0  0.00000000000E+00  0.00000000000E+00  0.13402633273E+04  0.13402633311E+04  0.10100000352E+00 0.  1.
       -3   -1    0    0    0  501  0.00000000000E+00  0.00000000000E+00 -0.74802552148E+03  0.74802552829E+03  0.10100000352E+00 0. -1.
    10030    2    1    2    0    0  0.00000000000E+00  0.00000000000E+00  0.59223780584E+03  0.20882888594E+04  0.20025495604E+04 0.  0.
        1    1    3    3  502    0 -0.25660518411E+03  0.41922292302E+03  0.12057962645E+04  0.13021285310E+04  0.50400001928E-02 0.  1.
       -1    1    3    3    0  502  0.25660518411E+03 -0.41922292302E+03 -0.61355845869E+03  0.78616032840E+03  0.50400001928E-02 0. -1.
</event>
<event>
 5   0  0.1330962E-05  0.2798610E+04  0.7818609E-02  0.8303700E-01
        2   -1    0    0  501    0  0.00000000000E+00  0.00000000000E+00  0.19660114744E+04  0.19660114744E+04  0.25500000920E-02 0. -1.
       -2   -1    0    0    0  501  0.00000000000E+00  0.00000000000E+00 -0.99595267935E+03  0.99595267935E+03  0.25500000920E-02 0.  1.
    10030    2    1    2    0    0  0.00000000000E+00  0.00000000000E+00  0.97005879501E+03  0.29619641537E+04  0.27986099375E+04 0.  0.
        4    1    3    3  502    0 -0.12039073701E+04  0.32329886626E+03  0.11578543556E+04  0.17013357794E+04  0.12699999809E+01 0. -1.
       -4    1    3    3    0  502  0.12039073701E+04 -0.32329886626E+03 -0.18779556061E+03  0.12606283743E+04  0.12699999809E+01 0.  1.
</event>
<event>
 5   0  0.4764214E-06  0.2823919E+04  0.7818609E-02  0.8295881E-01
       -1   -1    0    0    0  501  0.00000000000E+00  0.00000000000E+00  0.10470489831E+04  0.10470489831E+04  0.50400001928E-02 0.  1.
        1   -1    0    0  501    0  0.00000000000E+00  0.00000000000E+00 -0.19040457137E+04  0.19040457137E+04  0.50400001928E-02 0. -1.
    10030    2    1    2    0    0  0.00000000000E+00  0.00000000000E+00 -0.85699673063E+03  0.29510946968E+04  0.28239186449E+04 0.  0.
        3    1    3    3  502    0  0.10418254575E+04 -0.57090979185E+03  0.36894701296E+03  0.12439695265E+04  0.10100000352E+00 0.  1.
       -3    1    3    3    0  502 -0.10418254575E+04  0.57090979185E+03 -0.12259437436E+04  0.17071251703E+04  0.10100000352E+00 0. -1.
</event>
<event>
 5   0  0.5281919E-06  0.2830441E+04  0.7818609E-02  0.8293879E-01
        1   -1    0    0  501    0  0.00000000000E+00  0.00000000000E+00  0.12797410193E+04  0.12797410193E+04  0.50400001928E-02 0. -1.
       -1   -1    0    0    0  501  0.00000000000E+00  0.00000000000E+00 -0.15650426070E+04  0.15650426070E+04  0.50400001928E-02 0.  1.
    10030    2    1    2    0    0  0.00000000000E+00  0.00000000000E+00 -0.28530158771E+03  0.28447836262E+04  0.28304411112E+04 0.  0.
        4    1    3    3  502    0 -0.10725572962E+04 -0.10185479492E+03  0.77965601917E+03  0.13298942342E+04  0.12699999809E+01 0. -1.
       -4    1    3    3    0  502  0.10725572962E+04  0.10185479492E+03 -0.10649576069E+04  0.15148893921E+04  0.12699999809E+01 0.  1.
</event>
<event>
 5   0  0.5281919E-06  0.2751781E+04  0.7818609E-02  0.8318397E-01
        1   -1    0    0  501    0  0.00000000000E+00  0.00000000000E+00  0.16253802174E+04  0.16253802174E+04  0.50400001928E-02 0. -1.
       -1   -1    0    0    0  501  0.00000000000E+00  0.00000000000E+00 -0.11646967310E+04  0.11646967311E+04  0.50400001928E-02 0.  1.
    10030    2    1    2    0    0  0.00000000000E+00  0.00000000000E+00  0.46068348633E+03  0.27900769484E+04  0.27517812601E+04 0.  0.
        4    1    3    3  502    0 -0.42643351290E+03 -0.13043969931E+04  0.13009026463E+03  0.13784854538E+04  0.12699999809E+01 0. -1.
       -4    1    3    3    0  502  0.42643351290E+03  0.13043969931E+04  0.33059322171E+03  0.14115914946E+04  0.12699999809E+01 0.  1.
</event>
<event>
 5   0  0.5281919E-06  0.2804010E+04  0.7818609E-02  0.8302025E-01
        1   -1    0    0  501    0  0.00000000000E+00  0.00000000000E+00  0.13301785673E+04  0.13301785673E+04  0.50400001928E-02 0. -1.
       -1   -1    0    0    0  501  0.00000000000E+00  0.00000000000E+00 -0.14777093812E+04  0.14777093812E+04  0.50400001928E-02 0.  1.
    10030    2    1    2    0    0  0.00000000000E+00  0.00000000000E+00 -0.14753081392E+03  0.28078879485E+04  0.28040095204E+04 0.  0.
        4    1    3    3  502    0  0.54625450554E+03  0.42908505992E+03  0.11457481787E+04  0.13398688277E+04  0.12699999809E+01 0. -1.
       -4    1    3    3    0  502 -0.54625450554E+03 -0.42908505992E+03 -0.12932789926E+04  0.14680191208E+04  0.12699999809E+01 0.  1.
</event>
<event>
 5   0  0.5217999E-06  0.2778621E+04  0.7818609E-02  0.8309936E-01
        1   -1    0    0  501    0  0.00000000000E+00  0.00000000000E+00  0.12778300837E+04  0.12778300837E+04  0.50400001928E-02 0.  1.
       -1   -1    0    0    0  501  0.00000000000E+00  0.00000000000E+00 -0.15105170207E+04  0.15105170207E+04  0.50400001928E-02 0. -1.
    10030    2    1    2    0    0  0.00000000000E+00  0.00000000000E+00 -0.23268693699E+03  0.27883471044E+04  0.27786213063E+04 0.  0.
        1    1    3    3  502    0 -0.13523966957E+04  0.29070958986E+03 -0.24600564998E+03  0.14049938320E+04  0.50400001928E-02 0. -1.
       -1    1    3    3    0  502  0.13523966957E+04 -0.29070958986E+03  0.13318712987E+02  0.13833532724E+04  0.50400001928E-02 0.  1.
</event>
<event>
 5   0  0.5023691E-06  0.2710129E+04  0.7818609E-02  0.8331726E-01
       -1   -1    0    0    0  501  0.00000000000E+00  0.00000000000E+00  0.10517157065E+04  0.10517157065E+04  0.50400001928E-02 0. -1.
        1   -1    0    0  501    0  0.00000000000E+00  0.00000000000E+00 -0.17459088884E+04  0.17459088884E+04  0.50400001928E-02 0.  1.
    10030    2    1    2    0    0  0.00000000000E+00  0.00000000000E+00 -0.69419318191E+03  0.27976245949E+04  0.27101290006E+04 0.  0.
        5    1    3    3  502    0  0.44811447883E+03  0.90755578132E+03 -0.12771350169E+04  0.16295889125E+04  0.46999998093E+01 0.  1.
       -5    1    3    3    0  502 -0.44811447883E+03 -0.90755578132E+03  0.58294183500E+03  0.11680356824E+04  0.46999998093E+01 0. -1.
</event>
<event>
 5   0  0.1330962E-05  0.2788881E+04  0.7818609E-02  0.8306729E-01
       -2   -1    0    0    0  501  0.00000000000E+00  0.00000000000E+00  0.11430301573E+04  0.11430301573E+04  0.25500000920E-02 0. -1.
        2   -1    0    0  501    0  0.00000000000E+00  0.00000000000E+00 -0.17011492599E+04  0.17011492599E+04  0.25500000920E-02 0.  1.
    10030    2    1    2    0    0  0.00000000000E+00  0.00000000000E+00 -0.55811910259E+03  0.28441794171E+04  0.27888814288E+04 0.  0.
        4    1    3    3  502    0  0.71206692610E+03 -0.87120948559E+03 -0.11190524717E+04  0.15869232251E+04  0.12699999809E+01 0.  1.
       -4    1    3    3    0  502 -0.71206692610E+03  0.87120948559E+03  0.56093336908E+03  0.12572561921E+04  0.12699999809E+01 0. -1.
</event>
<event>
 5   0  0.5023691E-06  0.2773277E+04  0.7818609E-02  0.8311613E-01
        1   -1    0    0  501    0  0.00000000000E+00  0.00000000000E+00  0.20527379398E+04  0.20527379398E+04  0.50400001928E-02 0.  1.
       -1   -1    0    0    0  501  0.00000000000E+00  0.00000000000E+00 -0.93668408143E+03  0.93668408144E+03  0.50400001928E-02 0. -1.
    10030    2    1    2    0    0  0.00000000000E+00  0.00000000000E+00  0.11160538583E+04  0.29894220212E+04  0.27732774485E+04 0.  0.
        5    1    3    3  502    0 -0.39317206795E+03  0.12671732251E+03  0.19848619618E+04  0.20273975072E+04  0.46999998093E+01 0.  1.
       -5    1    3    3    0  502  0.39317206795E+03 -0.12671732251E+03 -0.86880810348E+03  0.96202451399E+03  0.46999998093E+01 0. -1.
</event>
<event>
 5   0  0.1330962E-05  0.2188595E+04  0.7818609E-02  0.8523190E-01
       -2   -1    0    0    0  501  0.00000000000E+00  0.00000000000E+00  0.74574661005E+03  0.74574661005E+03  0.25500000920E-02 0.  1.
        2   -1    0    0  501    0  0.00000000000E+00  0.00000000000E+00 -0.16057560555E+04  0.16057560555E+04  0.25500000920E-02 0. -1.
    10030    2    1    2    0    0  0.00000000000E+00  0.00000000000E+00 -0.86000944540E+03  0.23515026655E+04  0.21885951064E+04 0.  0.
        4    1    3    3  502    0  0.45027955124E+03  0.15293144223E+03  0.62892463723E+03  0.78847163075E+03  0.12699999809E+01 0.  1.
       -4    1    3    3    0  502 -0.45027955124E+03 -0.15293144223E+03 -0.14889340826E+04  0.15630310348E+04  0.12699999809E+01 0. -1.
</event>
<event>
 5   0  0.5217999E-06  0.2761863E+04  0.7818609E-02  0.8315207E-01
        1   -1    0    0  501    0  0.00000000000E+00  0.00000000000E+00  0.19093964218E+04  0.19093964218E+04  0.50400001928E-02 0.  1.
       -1   -1    0    0    0  501  0.00000000000E+00  0.00000000000E+00 -0.99873031956E+03  0.99873031957E+03  0.50400001928E-02 0. -1.
    10030    2    1    2    0    0  0.00000000000E+00  0.00000000000E+00  0.91066610224E+03  0.29081267414E+04  0.27618632106E+04 0.  0.
        1    1    3    3  502    0  0.59127490144E+03  0.21190455049E+03 -0.83961838008E+03  0.10485554691E+04  0.50400001928E-02 0. -1.
       -1    1    3    3    0  502 -0.59127490144E+03 -0.21190455049E+03  0.17502844823E+04  0.18595712723E+04  0.50400001928E-02 0.  1.
</event>
<event>
 5   0  0.1388269E-05  0.2766509E+04  0.7818609E-02  0.8313742E-01
        2   -1    0    0  501    0  0.00000000000E+00  0.00000000000E+00  0.93462341342E+03  0.93462341342E+03  0.25500000920E-02 0.  1.
       -2   -1    0    0    0  501  0.00000000000E+00  0.00000000000E+00 -0.20472346034E+04  0.20472346034E+04  0.25500000920E-02 0. -1.
    10030    2    1    2    0    0  0.00000000000E+00  0.00000000000E+00 -0.11126111900E+04  0.29818580168E+04  0.27665092757E+04 0.  0.
        1    1    3    3  502    0  0.28065685136E+03  0.43965966380E+03  0.82456205849E+03  0.97569025644E+03  0.50400001928E-02 0.  1.
       -1    1    3    3    0  502 -0.28065685136E+03 -0.43965966380E+03 -0.19371732485E+04  0.20061677604E+04  0.50400001928E-02 0. -1.
</event>
<event>
 5   0  0.4764214E-06  0.2799636E+04  0.7818609E-02  0.8303381E-01
       -1   -1    0    0    0  501  0.00000000000E+00  0.00000000000E+00  0.13173818922E+04  0.13173818922E+04  0.50400001928E-02 0.  1.
        1   -1    0    0  501    0  0.00000000000E+00  0.00000000000E+00 -0.14874128820E+04  0.14874128820E+04  0.50400001928E-02 0. -1.
    10030    2    1    2    0    0  0.00000000000E+00  0.00000000000E+00 -0.17003098978E+03  0.28047947743E+04  0.27996362600E+04 0.  0.
        3    1    3    3  502    0  0.31006021598E+03 -0.46106151768E+03  0.12021770536E+04  0.13243657874E+04  0.10100000352E+00 0.  1.
       -3    1    3    3    0  502 -0.31006021598E+03  0.46106151768E+03 -0.13722080433E+04  0.14804289868E+04  0.10100000352E+00 0. -1.
</event>
<event>
 5   0  0.1302063E-05  0.2816979E+04  0.7818609E-02  0.8298016E-01
        2   -1    0    0  501    0  0.00000000000E+00  0.00000000000E+00  0.93664132012E+03  0.93664132012E+03  0.25500000920E-02 0.  1.
       -2   -1    0    0    0  501  0.00000000000E+00  0.00000000000E+00 -0.21180386842E+04  0.21180386842E+04  0.25500000920E-02 0. -1.
    10030    2    1    2    0    0  0.00000000000E+00  0.00000000000E+00 -0.11813973641E+04  0.30546800043E+04  0.28169789131E+04 0.  0.
        2    1    3    3  502    0  0.83766009305E+03 -0.10247841248E+04 -0.68407547354E+02  0.13253439276E+04  0.25500000920E-02 0. -1.
       -2    1    3    3    0  502 -0.83766009305E+03  0.10247841248E+04 -0.11129898167E+04  0.17293360767E+04  0.25500000920E-02 0.  1.
</event>
<event>
 5   0  0.5217999E-06  0.2807377E+04  0.7818609E-02  0.8300982E-01
        1   -1    0    0  501    0  0.00000000000E+00  0.00000000000E+00  0.12839594427E+04  0.12839594427E+04  0.50400001928E-02 0. -1.
       -1   -1    0    0    0  501  0.00000000000E+00  0.00000000000E+00 -0.15345823210E+04  0.15345823210E+04  0.50400001928E-02 0.  1.
    10030    2    1    2    0    0  0.00000000000E+00  0.00000000000E+00 -0.25062287826E+03  0.28185417637E+04  0.28073770404E+04 0.  0.
        1    1    3    3  502    0  0.99735824140E+03  0.15885559761E+03 -0.11040642834E+04  0.14963009405E+04  0.50400001928E-02 0.  1.
       -1    1    3    3    0  502 -0.99735824140E+03 -0.15885559761E+03  0.85344140516E+03  0.13222408232E+04  0.50400001928E-02 0. -1.
</event>
<event>
 5   0  0.4764214E-06  0.2941947E+04  0.7818609E-02  0.8260505E-01
        1   -1    0    0  501    0  0.00000000000E+00  0.00000000000E+00  0.15757021865E+04  0.15757021865E+04  0.50400001928E-02 0.  1.
       -1   -1    0    0    0  501  0.00000000000E+00  0.00000000000E+00 -0.13732057853E+04  0.13732057854E+04  0.50400001928E-02 0. -1.
    10030    2    1    2    0    0  0.00000000000E+00  0.00000000000E+00  0.20249640116E+03  0.29489079719E+04  0.29419472181E+04 0.  0.
        3    1    3    3  502    0  0.19889900287E+03 -0.89597745098E+03 -0.10510049955E+04  0.13953307554E+04  0.10100000352E+00 0. -1.
       -3    1    3    3    0  502 -0.19889900287E+03  0.89597745098E+03  0.12535013967E+04  0.15535772165E+04  0.10100000352E+00 0.  1.
</event>
<event>
 5   0  0.5217999E-06  0.2397669E+04  0.7818609E-02  0.8440377E-01
       -1   -1    0    0    0  501  0.00000000000E+00  0.00000000000E+00  0.11229749790E+04  0.11229749790E+04  0.50400001928E-02 0. -1.
        1   -1    0    0  501    0  0.00000000000E+00  0.00000000000E+00 -0.12798182986E+04  0.12798182986E+04  0.50400001928E-02 0.  1.
    10030    2    1    2    0    0  0.00000000000E+00  0.00000000000E+00 -0.15684331961E+03  0.24027932776E+04  0.23976688070E+04 0.  0.
        1    1    3    3  502    0  0.74462984563E+03 -0.15587065668E+03 -0.10069193693E+04  0.12620047087E+04  0.50400001928E-02 0.  1.
       -1    1    3    3    0  502 -0.74462984563E+03  0.15587065668E+03  0.85007604966E+03  0.11407885689E+04  0.50400001928E-02 0. -1.
</event>
<event>
 5   0  0.1283052E-05  0.2766363E+04  0.7818609E-02  0.8313788E-01
       -2   -1    0    0    0  501  0.00000000000E+00  0.00000000000E+00  0.15702882491E+04  0.15702882491E+04  0.25500000920E-02 0. -1.
        2   -1    0    0  501    0  0.00000000000E+00  0.00000000000E+00 -0.12183696883E+04  0.12183696883E+04  0.25500000920E-02 0.  1.
    10030    2    1    2    0    0  0.00000000000E+00  0.00000000000E+00  0.35191856082E+03  0.27886579374E+04  0.27663633923E+04 0.  0.
        5    1    3    3  502    0  0.38873033089E+02 -0.10042377288E+04 -0.78204966299E+03  0.12734316998E+04  0.46999998093E+01 0.  1.
       -5    1    3    3    0  502 -0.38873033089E+02  0.10042377288E+04  0.11339682238E+04  0.15152262376E+04  0.46999998093E+01 0. -1.
</event>
<event>
 5   0  0.1350863E-05  0.2810434E+04  0.7818609E-02  0.8300036E-01
       -2   -1    0    0    0  501  0.00000000000E+00  0.00000000000E+00  0.20713376162E+04  0.20713376162E+04  0.25500000920E-02 0.  1.
        2   -1    0    0  501    0  0.00000000000E+00  0.00000000000E+00 -0.95331417820E+03  0.95331417820E+03  0.25500000920E-02 0. -1.
    10030    2    1    2    0    0  0.00000000000E+00  0.00000000000E+00  0.11180234380E+04  0.30246517944E+04  0.28104344984E+04 0.  0.
        3    1    3    3  502    0  0.46095461019E+01  0.97563042496E+03  0.16474120999E+04  0.19146390289E+04  0.10100000352E+00 0.  1.
       -3    1    3    3    0  502 -0.46095461019E+01 -0.97563042496E+03 -0.52938866188E+03  0.11100127655E+04  0.10100000352E+00 0. -1.
</event>
<event>
 5   0  0.1388269E-05  0.2819342E+04  0.7818609E-02  0.8297289E-01
        2   -1    0    0  501    0  0.00000000000E+00  0.00000000000E+00  0.20678937663E+04  0.20678937663E+04  0.25500000920E-02 0.  1.
       -2   -1    0    0    0  501  0.00000000000E+00  0.00000000000E+00 -0.96096413989E+03  0.96096413990E+03  0.25500000920E-02 0. -1.
    10030    2    1    2    0    0  0.00000000000E+00  0.00000000000E+00  0.11069296264E+04  0.30288579062E+04  0.28193415930E+04 0.  0.
        1    1    3    3  502    0  0.10442392830E+03 -0.81992469579E+01 -0.95677761617E+03  0.96249415130E+03  0.50400001928E-02 0. -1.
       -1    1    3    3    0  502 -0.10442392830E+03  0.81992469579E+01  0.20637072426E+04  0.20663637549E+04  0.50400001928E-02 0.  1.
</event>
<event>
 5   0  0.5107453E-06  0.2806720E+04  0.7818609E-02  0.8301185E-01
       -1   -1    0    0    0  501  0.00000000000E+00  0.00000000000E+00  0.11039090943E+04  0.11039090943E+04  0.50400001928E-02 0. -1.
        1   -1    0    0  501    0  0.00000000000E+00  0.00000000000E+00 -0.17840417435E+04  0.17840417435E+04  0.50400001928E-02 0.  1.
    10030    2    1    2    0    0  0.00000000000E+00  0.00000000000E+00 -0.68013264922E+03  0.28879508377E+04  0.28067204386E+04 0.  0.
        2    1    3    3  502    0  0.11495781741E+04 -0.24879753845E+03 -0.11277205990E+04  0.16294735172E+04  0.25500000920E-02 0. -1.
       -2    1    3    3    0  502 -0.11495781741E+04  0.24879753845E+03  0.44758794982E+03  0.12584773206E+04  0.25500000920E-02 0.  1.
</event>
<event>
 5   0  0.5217999E-06  0.2779147E+04  0.7818609E-02  0.8309772E-01
       -1   -1    0    0    0  501  0.00000000000E+00  0.00000000000E+00  0.18079145335E+04  0.18079145335E+04  0.50400001928E-02 0. -1.
        1   -1    0    0  501    0  0.00000000000E+00  0.00000000000E+00 -0.10680340587E+04  0.10680340587E+04  0.50400001928E-02 0.  1.
    10030    2    1    2    0    0  0.00000000000E+00  0.00000000000E+00  0.73988047479E+03  0.28759485921E+04  0.27791468453E+04 0.  0.
        1    1    3    3  502    0  0.81989126286E+03 -0.84605924560E+03 -0.39252507718E+03  0.12418187735E+04  0.50400001928E-02 0.  1.
       -1    1    3    3    0  502 -0.81989126286E+03  0.84605924560E+03  0.11324055520E+04  0.16341298186E+04  0.50400001928E-02 0. -1.
</event>
<event>
 5   0  0.1283052E-05  0.2780121E+04  0.7818609E-02  0.8309467E-01
        2   -1    0    0  501    0  0.00000000000E+00  0.00000000000E+00  0.82316301886E+03  0.82316301886E+03  0.25500000920E-02 0. -1.
       -2   -1    0    0    0  501  0.00000000000E+00  0.00000000000E+00 -0.23473706705E+04  0.23473706705E+04  0.25500000920E-02 0.  1.
    10030    2    1    2    0    0  0.00000000000E+00  0.00000000000E+00 -0.15242076516E+04  0.31705336894E+04  0.27801213841E+04 0.  0.
        5    1    3    3  502    0 -0.11912733395E+04 -0.20776953079E+03  0.19690883078E+02  0.12094255529E+04  0.46999998093E+01 0.  1.
       -5    1    3    3    0  502  0.11912733395E+04  0.20776953079E+03 -0.15438985347E+04  0.19611081364E+04  0.46999998093E+01 0. -1.
</event>
<event>
 5   0  0.5023691E-06  0.2076657E+04  0.7818609E-02  0.8571596E-01
        1   -1    0    0  501    0  0.00000000000E+00  0.00000000000E+00  0.15863764479E+04  0.15863764479E+04  0.50400001928E-02 0. -1.
       -1   -1    0    0    0  501  0.00000000000E+00  0.00000000000E+00 -0.67961543585E+03  0.67961543587E+03  0.50400001928E-02 0.  1.
    10030    2    1    2    0    0  0.00000000000E+00  0.00000000000E+00  0.90676101200E+03  0.22659918837E+04  0.20766568528E+04 0.  0.
        5    1    3    3  502    0 -0.34690681068E+03 -0.29466775983E+03  0.14717030001E+04  0.15404886350E+04  0.46999998093E+01 0. -1.
       -5    1    3    3    0  502  0.34690681068E+03  0.29466775983E+03 -0.56494198813E+03  0.72550324874E+03  0.46999998093E+01 0.  1.
</event>
<event>
 5   0  0.5281919E-06  0.2849497E+04  0.7818609E-02  0.8288064E-01
        1   -1    0    0  501    0  0.00000000000E+00  0.00000000000E+00  0.16008380292E+04  0.16008380292E+04  0.50400001928E-02 0. -1.
       -1   -1    0    0    0  501  0.00000000000E+00  0.00000000000E+00 -0.12680282129E+04  0.12680282129E+04  0.50400001928E-02 0.  1.
    10030    2    1    2    0    0  0.00000000000E+00  0.00000000000E+00  0.33280981628E+03  0.28688662421E+04  0.28494966470E+04 0.  0.
        4    1    3    3  502    0  0.13238914020E+04 -0.40354534296E+03 -0.17407860866E+03  0.13949345013E+04  0.12699999809E+01 0.  1.
       -4    1    3    3    0  502 -0.13238914020E+04  0.40354534296E+03  0.50688842493E+03  0.14739317407E+04  0.12699999809E+01 0. -1.
</event>
<event>
 5   0  0.1283052E-05  0.2745262E+04  0.7818609E-02  0.8320467E-01
       -2   -1    0    0    0  501  0.00000000000E+00  0.00000000000E+00  0.15364963198E+04  0.15364963198E+04  0.25500000920E-02 0.  1.
        2   -1    0    0  501    0  0.00000000000E+00  0.00000000000E+00 -0.12262417795E+04  0.12262417795E+04  0.25500000920E-02 0. -1.
    10030    2    1    2    0    0  0.00000000000E+00  0.00000000000E+00  0.31025454031E+03  0.27627380994E+04  0.27452620869E+04 0.  0.
        5    1    3    3  502    0  0.42340386824E+03  0.12037360564E+04 -0.35390146865E+03  0.13242052970E+04  0.46999998093E+01 0. -1.
       -5    1    3    3    0  502 -0.42340386824E+03 -0.12037360564E+04  0.66415600896E+03  0.14385328023E+04  0.46999998093E+01 0.  1.
</event>
<event>
 5   0  0.5023691E-06  0.2777170E+04  0.7818609E-02  0.8310391E-01
        1   -1    0    0  501    0  0.00000000000E+00  0.00000000000E+00  0.11483496650E+04  0.11483496650E+04  0.50400001928E-02 0.  1.
       -1   -1    0    0    0  501  0.00000000000E+00  0.00000000000E+00 -0.16790773504E+04  0.16790773504E+04  0.50400001928E-02 0. -1.
    10030    2    1    2    0    0  0.00000000000E+00  0.00000000000E+00 -0.53072768539E+03  0.28274270154E+04  0.27771697196E+04 0.  0.
        5    1    3    3  502    0  0.52323410271E+03 -0.29772283504E+03 -0.15393005038E+04  0.16528402656E+04  0.46999998093E+01 0. -1.
       -5    1    3    3    0  502 -0.52323410271E+03  0.29772283504E+03  0.10085728184E+04  0.11745867498E+04  0.46999998093E+01 0.  1.
</event>
<event>
 5   0  0.1283052E-05  0.2877570E+04  0.7818609E-02  0.8279583E-01
       -2   -1    0    0    0  501  0.00000000000E+00  0.00000000000E+00  0.88097800768E+03  0.88097800769E+03  0.25500000920E-02 0.  1.
        2   -1    0    0  501    0  0.00000000000E+00  0.00000000000E+00 -0.23497766715E+04  0.23497766715E+04  0.25500000920E-02 0. -1.
    10030    2    1    2    0    0  0.00000000000E+00  0.00000000000E+00 -0.14687986638E+04  0.32307546791E+04  0.28775695095E+04 0.  0.
        5    1    3    3  502    0  0.14133780675E+04 -0.26801098071E+03 -0.76217507109E+03  0.16280050296E+04  0.46999998093E+01 0.  1.
       -5    1    3    3    0  502 -0.14133780675E+04  0.26801098071E+03 -0.70662359269E+03  0.16027496496E+04  0.46999998093E+01 0. -1.
</event>
<event>
 5   0  0.1330962E-05  0.2738080E+04  0.7818609E-02  0.8322754E-01
        2   -1    0    0  501    0  0.00000000000E+00  0.00000000000E+00  0.22999244235E+04  0.22999244236E+04  0.25500000920E-02 0.  1.
       -2   -1    0    0    0  501  0.00000000000E+00  0.00000000000E+00 -0.81492716536E+03  0.81492716537E+03  0.25500000920E-02 0. -1.
    10030    2    1    2    0    0  0.00000000000E+00  0.00000000000E+00  0.14849972582E+04  0.31148515889E+04  0.27380802699E+04 0.  0.
        4    1    3    3  502    0  0.28742478840E+03 -0.13379771246E+04  0.78616667584E+03  0.15782444203E+04  0.12699999809E+01 0.  1.
       -4    1    3    3    0  502 -0.28742478840E+03  0.13379771246E+04  0.69883058235E+03  0.15366071686E+04  0.12699999809E+01 0. -1.
</event>
<event>
 5   0  0.1388269E-05  0.2830644E+04  0.7818609E-02  0.8293817E-01
        2   -1    0    0  501    0  0.00000000000E+00  0.00000000000E+00  0.18493630350E+04  0.18493630350E+04  0.25500000920E-02 0.  1.
       -2   -1    0    0    0  501  0.00000000000E+00  0.00000000000E+00 -0.10831496603E+04  0.10831496603E+04  0.25500000920E-02 0. -1.
    10030    2    1    2    0    0  0.00000000000E+00  0.00000000000E+00  0.76621337468E+03  0.29325126953E+04  0.28306444094E+04 0.  0.
        1    1    3    3  502    0  0.11181156077E+03 -0.10303098915E+04  0.13816916710E+04  0.17271688311E+04  0.50400001928E-02 0.  1.
       -1    1    3    3    0  502 -0.11181156077E+03  0.10303098915E+04 -0.61547829630E+03  0.12053438641E+04  0.50400001928E-02 0. -1.
</event>
<event>
 5   0  0.1388269E-05  0.2771130E+04  0.7818609E-02  0.8312288E-01
       -2   -1    0    0    0  501  0.00000000000E+00  0.00000000000E+00  0.10887371085E+04  0.10887371085E+04  0.25500000920E-02 0. -1.
        2   -1    0    0  501    0  0.00000000000E+00  0.00000000000E+00 -0.17633190187E+04  0.17633190187E+04  0.25500000920E-02 0.  1.
    10030    2    1    2    0    0  0.00000000000E+00  0.00000000000E+00 -0.67458191018E+03  0.28520561272E+04  0.27711303468E+04 0.  0.
        1    1    3    3  502    0  0.61049738824E+03 -0.42904698400E+03 -0.15388619486E+04  0.17102293626E+04  0.50400001928E-02 0.  1.
       -1    1    3    3    0  502 -0.61049738824E+03  0.42904698400E+03  0.86428003846E+03  0.11418267646E+04  0.50400001928E-02 0. -1.
</event>
<event>
 5   0  0.5107453E-06  0.2840870E+04  0.7818609E-02  0.8290691E-01
        1   -1    0    0  501    0  0.00000000000E+00  0.00000000000E+00  0.16967085736E+04  0.16967085736E+04  0.50400001928E-02 0. -1.
       -1   -1    0    0    0  501  0.00000000000E+00  0.00000000000E+00 -0.11891469746E+04  0.11891469746E+04  0.50400001928E-02 0.  1.
    10030    2    1    2    0    0  0.00000000000E+00  0.00000000000E+00  0.50756159899E+03  0.28858555481E+04  0.28408701955E+04 0.  0.
        2    1    3    3  502    0  0.67219070327E+03 -0.12462662743E+04  0.13968167798E+03  0.14228601263E+04  0.25500000920E-02 0.  1.
       -2    1    3    3    0  502 -0.67219070327E+03  0.12462662743E+04  0.36787992101E+03  0.14629954218E+04  0.25500000920E-02 0. -1.
</event>
<event>
 5   0  0.1388269E-05  0.2837171E+04  0.7818609E-02  0.8291820E-01
        2   -1    0    0  501    0  0.00000000000E+00  0.00000000000E+00  0.18459821937E+04  0.18459821937E+04  0.25500000920E-02 0.  1.
       -2   -1    0    0    0  501  0.00000000000E+00  0.00000000000E+00 -0.10901429998E+04  0.10901429998E+04  0.25500000920E-02 0. -1.
    10030    2    1    2    0    0  0.00000000000E+00  0.00000000000E+00  0.75583919394E+03  0.29361251935E+04  0.28371708205E+04 0.  0.
        1    1    3    3  502    0  0.74524797231E+03 -0.16771709075E+03 -0.85912135392E+03  0.11496143108E+04  0.50400001928E-02 0. -1.
       -1    1    3    3    0  502 -0.74524797231E+03  0.16771709075E+03  0.16149605479E+04  0.17865108827E+04  0.50400001928E-02 0.  1.
</event>
<event>
 5   0  0.5023691E-06  0.2758919E+04  0.7818609E-02  0.8316137E-01
       -1   -1    0    0    0  501  0.00000000000E+00  0.00000000000E+00  0.14774399054E+04  0.14774399054E+04  0.50400001928E-02 0.  1.
        1   -1    0    0  501    0  0.00000000000E+00  0.00000000000E+00 -0.12879765947E+04  0.12879765947E+04  0.50400001928E-02 0. -1.
    10030    2    1    2    0    0  0.00000000000E+00  0.00000000000E+00  0.18946331075E+03  0.27654165001E+04  0.27589186420E+04 0.  0.
        5    1    3    3  502    0  0.71168726771E+03  0.56792694967E+03  0.11334377658E+04  0.14538717434E+04  0.46999998093E+01 0.  1.
       -5    1    3    3    0  502 -0.71168726771E+03 -0.56792694967E+03 -0.94397445505E+03  0.13115447568E+04  0.46999998093E+01 0. -1.
</event>
<event>
 5   0  0.4764214E-06  0.2815022E+04  0.7818609E-02  0.8298620E-01
        1   -1    0    0  501    0  0.00000000000E+00  0.00000000000E+00  0.10950284414E+04  0.10950284414E+04  0.50400001928E-02 0.  1.
       -1   -1    0    0    0  501  0.00000000000E+00  0.00000000000E+00 -0.18091645815E+04  0.18091645815E+04  0.50400001928E-02 0. -1.
    10030    2    1    2    0    0  0.00000000000E+00  0.00000000000E+00 -0.71413614007E+03  0.29041930228E+04  0.28150216140E+04 0.  0.
        3    1    3    3  502    0  0.60692281571E+03 -0.10903177567E+04  0.31466263020E+03  0.12869190712E+04  0.10100000352E+00 0.  1.
       -3    1    3    3    0  502 -0.60692281571E+03  0.10903177567E+04 -0.10287987703E+04  0.16172739516E+04  0.10100000352E+00 0. -1.
</event>
<event>
 5   0  0.1330962E-05  0.2826029E+04  0.7818609E-02  0.8295233E-01
        2   -1    0    0  501    0  0.00000000000E+00  0.00000000000E+00  0.69549862829E+03  0.69549862830E+03  0.25500000920E-02 0. -1.
       -2   -1    0    0    0  501  0.00000000000E+00  0.00000000000E+00 -0.28707605779E+04  0.28707605779E+04  0.25500000920E-02 0.  1.
    10030    2    1    2    0    0  0.00000000000E+00  0.00000000000E+00 -0.21752619496E+04  0.35662592062E+04  0.28260290473E+04 0.  0.
        4    1    3    3  502    0 -0.36235569274E+03 -0.98100093185E+03  0.11150016659E+03  0.10517121167E+04  0.12699999809E+01 0. -1.
       -4    1    3    3    0  502  0.36235569274E+03  0.98100093185E+03 -0.22867621162E+04  0.25145470895E+04  0.12699999809E+01 0.  1.
</event>
<event>
 5   0  0.5217999E-06  0.2805405E+04  0.7818609E-02  0.8301592E-01
       -1   -1    0    0    0  501  0.00000000000E+00  0.00000000000E+00  0.74778739948E+03  0.74778739950E+03  0.50400001928E-02 0.  1.
        1   -1    0    0  501    0  0.00000000000E+00  0.00000000000E+00 -0.26311956474E+04  0.26311956474E+04  0.50400001928E-02 0. -1.
    10030    2    1    2    0    0  0.00000000000E+00  0.00000000000E+00 -0.18834082479E+04  0.33789830469E+04  0.28054054614E+04 0.  0.
        1    1    3    3  502    0  0.18867250772E+03 -0.43982346898E+03  0.64641047476E+03  0.80429379019E+03  0.50400001928E-02 0.  1.
       -1    1    3    3    0  502 -0.18867250772E+03  0.43982346898E+03 -0.25298187226E+04  0.25746892567E+04  0.50400001928E-02 0. -1.
</event>
<event>
 5   0  0.1350863E-05  0.2793655E+04  0.7818609E-02  0.8305241E-01
        2   -1    0    0  501    0  0.00000000000E+00  0.00000000000E+00  0.12685645362E+04  0.12685645362E+04  0.25500000920E-02 0.  1.
       -2   -1    0    0    0  501  0.00000000000E+00  0.00000000000E+00 -0.15380592795E+04  0.15380592795E+04  0.25500000920E-02 0. -1.
    10030    2    1    2    0    0  0.00000000000E+00  0.00000000000E+00 -0.26949474333E+03  0.28066238157E+04  0.27936552805E+04 0.  0.
        3    1    3    3  502    0  0.10475259405E+04 -0.26998809409E+03  0.75305351599E+03  0.13180644048E+04  0.10100000352E+00 0.  1.
       -3    1    3    3    0  502 -0.10475259405E+04  0.26998809409E+03 -0.10225482593E+04  0.14885594109E+04  0.10100000352E+00 0. -1.
</event>
<event>
 5   0  0.1350863E-05  0.2697652E+04  0.7818609E-02  0.8335767E-01
        2   -1    0    0  501    0  0.00000000000E+00  0.00000000000E+00  0.18452830133E+04  0.18452830133E+04  0.25500000920E-02 0. -1.
       -2   -1    0    0    0  501  0.00000000000E+00  0.00000000000E+00 -0.98593601865E+03  0.98593601865E+03  0.25500000920E-02 0.  1.
    10030    2    1    2    0    0  0.00000000000E+00  0.00000000000E+00  0.85934699465E+03  0.28312190320E+04  0.26976515619E+04 0.  0.
        3    1    3    3  502    0 -0.10973267404E+04  0.42995630089E+03  0.11181589613E+04  0.16245823675E+04  0.10100000352E+00 0. -1.
       -3    1    3    3    0  502  0.10973267404E+04 -0.42995630089E+03 -0.25881196665E+03  0.12066366645E+04  0.10100000352E+00 0.  1.
</event>
<event>
 5   0  0.1350863E-05  0.2794334E+04  0.7818609E-02  0.8305030E-01
       -2   -1    0    0    0  501  0.00000000000E+00  0.00000000000E+00  0.86278062826E+03  0.86278062827E+03  0.25500000920E-02 0.  1.
        2   -1    0    0  501    0  0.00000000000E+00  0.00000000000E+00 -0.22625392177E+04  0.22625392177E+04  0.25500000920E-02 0. -1.
    10030    2    1    2    0    0  0.00000000000E+00  0.00000000000E+00 -0.13997585894E+04  0.31253198459E+04  0.27943335575E+04 0.  0.
        3    1    3    3  502    0 -0.23837777118E+03 -0.56888067376E+03  0.70225883711E+03  0.93467463177E+03  0.10100000352E+00 0.  1.
       -3    1    3    3    0  502  0.23837777118E+03  0.56888067376E+03 -0.21020174265E+04  0.21906452142E+04  0.10100000352E+00 0. -1.
</event>
<event>
 5   0  0.5107453E-06  0.2794827E+04  0.7818609E-02  0.8304876E-01
       -1   -1    0    0    0  501  0.00000000000E+00  0.00000000000E+00  0.93801125160E+03  0.93801125162E+03  0.50400001928E-02 0. -1.
        1   -1    0    0  501    0  0.00000000000E+00  0.00000000000E+00 -0.20818135963E+04  0.20818135963E+04  0.50400001928E-02 0.  1.
    10030    2    1    2    0    0  0.00000000000E+00  0.00000000000E+00 -0.11438023447E+04  0.30198248479E+04  0.27948270623E+04 0.  0.
        2    1    3    3  502    0 -0.10905736922E+04  0.86933171704E+03 -0.66656701304E+03  0.15457684805E+04  0.25500000920E-02 0. -1.
       -2    1    3    3    0  502  0.10905736922E+04 -0.86933171704E+03 -0.47723533163E+03  0.14740563674E+04  0.25500000920E-02 0.  1.
</event>
<event>
 5   0  0.1283052E-05  0.2758318E+04  0.7818609E-02  0.8316327E-01
       -2   -1    0    0    0  501  0.00000000000E+00  0.00000000000E+00  0.13436524446E+04  0.13436524446E+04  0.25500000920E-02 0. -1.
        2   -1    0    0  501    0  0.00000000000E+00  0.00000000000E+00 -0.14156035234E+04  0.14156035234E+04  0.25500000920E-02 0.  1.
    10030    2    1    2    0    0  0.00000000000E+00  0.00000000000E+00 -0.71951078738E+02  0.27592559680E+04  0.27583177009E+04 0.  0.
        5    1    3    3  502    0 -0.32284650128E+03  0.92051547491E+03 -0.10112320081E+04  0.14050590262E+04  0.46999998093E+01 0.  1.
       -5    1    3    3    0  502  0.32284650128E+03 -0.92051547491E+03  0.93928092933E+03  0.13541969418E+04  0.46999998093E+01 0. -1.
</event>
<event>
 5   0  0.1283052E-05  0.2769201E+04  0.7818609E-02  0.8312895E-01
        2   -1    0    0  501    0  0.00000000000E+00  0.00000000000E+00  0.20833019954E+04  0.20833019954E+04  0.25500000920E-02 0. -1.
       -2   -1    0    0    0  501  0.00000000000E+00  0.00000000000E+00 -0.92023043107E+03  0.92023043108E+03  0.25500000920E-02 0.  1.
    10030    2    1    2    0    0  0.00000000000E+00  0.00000000000E+00  0.11630715644E+04  0.30035324265E+04  0.27692005296E+04 0.  0.
        5    1    3    3  502    0 -0.36124236060E+03  0.87025321846E+03 -0.51883810553E+03  0.10756634125E+04  0.46999998093E+01 0.  1.
       -5    1    3    3    0  502  0.36124236060E+03 -0.87025321846E+03  0.16819096699E+04  0.19278690140E+04  0.46999998093E+01 0. -1.
</event>
<event>
 5   0  0.1330962E-05  0.2600628E+04  0.7818609E-02  0.8367988E-01
       -2   -1    0    0    0  501  0.00000000000E+00  0.00000000000E+00  0.15715930626E+04  0.15715930626E+04  0.25500000920E-02 0.  1.
        2   -1    0    0  501    0  0.00000000000E+00  0.00000000000E+00 -0.10758614810E+04  0.10758614810E+04  0.25500000920E-02 0. -1.
    10030    2    1    2    0    0  0.00000000000E+00  0.00000000000E+00  0.49573158151E+03  0.26474545436E+04  0.26006279548E+04 0.  0.
        4    1    3    3  502    0 -0.74110067795E+03  0.25036726826E+03  0.13052700410E+04  0.15217245075E+04  0.12699999809E+01 0.  1.
       -4    1    3    3    0  502  0.74110067795E+03 -0.25036726826E+03 -0.80953845950E+03  0.11257300361E+04  0.12699999809E+01 0. -1.
</event>
<event>
 5   0  0.1330962E-05  0.2816911E+04  0.7818609E-02  0.8298037E-01
        2   -1    0    0  501    0  0.00000000000E+00  0.00000000000E+00  0.15447043408E+04  0.15447043408E+04  0.25500000920E-02 0. -1.
       -2   -1    0    0    0  501  0.00000000000E+00  0.00000000000E+00 -0.12842242209E+04  0.12842242209E+04  0.25500000920E-02 0.  1.
    10030    2    1    2    0    0  0.00000000000E+00  0.00000000000E+00  0.26048011996E+03  0.28289285617E+04  0.28169108815E+04 0.  0.
        4    1    3    3  502    0 -0.60779062909E+03 -0.16809816157E+03  0.13950091290E+04  0.15309208090E+04  0.12699999809E+01 0. -1.
       -4    1    3    3    0  502  0.60779062909E+03  0.16809816157E+03 -0.11345290090E+04  0.12980077527E+04  0.12699999809E+01 0.  1.
</event>
<event>
 5   0  0.5107453E-06  0.2461028E+04  0.7818609E-02  0.8417002E-01
       -1   -1    0    0    0  501  0.00000000000E+00  0.00000000000E+00  0.90356095103E+03  0.90356095105E+03  0.50400001928E-02 0. -1.
        1   -1    0    0  501    0  0.00000000000E+00  0.00000000000E+00 -0.16757749574E+04  0.16757749574E+04  0.50400001928E-02 0.  1.
    10030    2    1    2    0    0  0.00000000000E+00  0.00000000000E+00 -0.77221400632E+03  0.25793359084E+04  0.24610280894E+04 0.  0.
        2    1    3    3  502    0  0.93915415984E+03  0.76782474292E+03 -0.60242531797E+03  0.13544303731E+04  0.25500000920E-02 0. -1.
       -2    1    3    3    0  502 -0.93915415984E+03 -0.76782474292E+03 -0.16978868835E+03  0.12249055353E+04  0.25500000920E-02 0.  1.
</event>
<event>
 5   0  0.1350863E-05  0.2787988E+04  0.7818609E-02  0.8307007E-01
       -2   -1    0    0    0  501  0.00000000000E+00  0.00000000000E+00  0.99450611958E+03  0.99450611958E+03  0.25500000920E-02 0.  1.
        2   -1    0    0  501    0  0.00000000000E+00  0.00000000000E+00 -0.19539539951E+04  0.19539539951E+04  0.25500000920E-02 0. -1.
    10030    2    1    2    0    0  0.00000000000E+00  0.00000000000E+00 -0.95944787549E+03  0.29484601147E+04  0.27879879523E+04 0.  0.
        3    1    3    3  502    0 -0.12929252826E+04  0.20346445433E+03 -0.98709371714E+03  0.16393314452E+04  0.10100000352E+00 0. -1.
       -3    1    3    3    0  502  0.12929252826E+04 -0.20346445433E+03  0.27645841650E+02  0.13091286695E+04  0.10100000352E+00 0.  1.
</event>
<event>
 5   0  0.5281919E-06  0.2841814E+04  0.7818609E-02  0.8290403E-01
       -1   -1    0    0    0  501  0.00000000000E+00  0.00000000000E+00  0.11867233129E+04  0.11867233129E+04  0.50400001928E-02 0. -1.
        1   -1    0    0  501    0  0.00000000000E+00  0.00000000000E+00 -0.17013038163E+04  0.17013038163E+04  0.50400001928E-02 0.  1.
    10030    2    1    2    0    0  0.00000000000E+00  0.00000000000E+00 -0.51458050339E+03  0.28880271292E+04  0.28418141397E+04 0.  0.
        4    1    3    3  502    0 -0.12087979051E+04  0.47774282866E+03  0.32610483221E+03  0.13400658790E+04  0.12699999809E+01 0.  1.
       -4    1    3    3    0  502  0.12087979051E+04 -0.47774282866E+03 -0.84068533560E+03  0.15479612502E+04  0.12699999809E+01 0. -1.
</event>
<event>
 5   0  0.1388269E-05  0.2788066E+04  0.7818609E-02  0.8306983E-01
       -2   -1    0    0    0  501  0.00000000000E+00  0.00000000000E+00  0.12686628451E+04  0.12686628451E+04  0.25500000920E-02 0. -1.
        2   -1    0    0  501    0  0.00000000000E+00  0.00000000000E+00 -0.15317920406E+04  0.15317920406E+04  0.25500000920E-02 0.  1.
    10030    2    1    2    0    0  0.00000000000E+00  0.00000000000E+00 -0.26312919549E+03  0.28004548857E+04  0.27880657441E+04 0.  0.
        1    1    3    3  502    0  0.70059374021E+03  0.69798762931E+03  0.85530284570E+03  0.13075019225E+04  0.50400001928E-02 0. -1.
       -1    1    3    3    0  502 -0.70059374021E+03 -0.69798762931E+03 -0.11184320412E+04  0.14929529632E+04  0.50400001928E-02 0.  1.
</event>
<event>
 5   0  0.1302063E-05  0.2823876E+04  0.7818609E-02  0.8295894E-01
       -2   -1    0    0    0  501  0.00000000000E+00  0.00000000000E+00  0.94406582511E+03  0.94406582511E+03  0.25500000920E-02 0. -1.
        2   -1    0    0  501    0  0.00000000000E+00  0.00000000000E+00 -0.21116846700E+04  0.21116846700E+04  0.25500000920E-02 0.  1.
    10030    2    1    2    0    0  0.00000000000E+00  0.00000000000E+00 -0.11676188449E+04  0.30557504951E+04  0.28238762936E+04 0.  0.
        2    1    3    3  502    0 -0.96888613326E+02 -0.53395666927E+03  0.82670697940E+03  0.98890927685E+03  0.25500000920E-02 0. -1.
       -2    1    3    3    0  502  0.96888613326E+02  0.53395666927E+03 -0.19943258243E+04  0.20668412182E+04  0.25500000920E-02 0.  1.
</event>
<event>
 5   0  0.5281919E-06  0.2991074E+04  0.7818609E-02  0.8246284E-01
        1   -1    0    0  501    0  0.00000000000E+00  0.00000000000E+00  0.88563275445E+03  0.88563275446E+03  0.50400001928E-02 0.  1.
       -1   -1    0    0    0  501  0.00000000000E+00  0.00000000000E+00 -0.25254606081E+04  0.25254606081E+04  0.50400001928E-02 0. -1.
    10030    2    1    2    0    0  0.00000000000E+00  0.00000000000E+00 -0.16398278536E+04  0.34110933625E+04  0.29910738103E+04 0.  0.
        4    1    3    3  502    0  0.12432017247E+04 -0.80991505664E+03 -0.60620651705E+03  0.16028103074E+04  0.12699999809E+01 0. -1.
       -4    1    3    3    0  502 -0.12432017247E+04  0.80991505664E+03 -0.10336213366E+04  0.18082830551E+04  0.12699999809E+01 0.  1.
</event>
<event>
 5   0  0.5107453E-06  0.2857812E+04  0.7818609E-02  0.8285541E-01
       -1   -1    0    0    0  501  0.00000000000E+00  0.00000000000E+00  0.12684921097E+04  0.12684921098E+04  0.50400001928E-02 0.  1.
        1   -1    0    0  501    0  0.00000000000E+00  0.00000000000E+00 -0.16096059670E+04  0.16096059670E+04  0.50400001928E-02 0. -1.
    10030    2    1    2    0    0  0.00000000000E+00  0.00000000000E+00 -0.34111385725E+03  0.28780980768E+04  0.28578120785E+04 0.  0.
        2    1    3    3  502    0  0.12002168798E+04 -0.18775664383E+03 -0.92822657553E+03  0.15288484854E+04  0.25500000920E-02 0.  1.
       -2    1    3    3    0  502 -0.12002168798E+04  0.18775664383E+03  0.58711271828E+03  0.13492495914E+04  0.25500000920E-02 0. -1.
</event>
<event>
 5   0  0.1330962E-05  0.2826277E+04  0.7818609E-02  0.8295156E-01
       -2   -1    0    0    0  501  0.00000000000E+00  0.00000000000E+00  0.16162182252E+04  0.16162182252E+04  0.25500000920E-02 0.  1.
        2   -1    0    0  501    0  0.00000000000E+00  0.00000000000E+00 -0.12355762640E+04  0.12355762640E+04  0.25500000920E-02 0. -1.
    10030    2    1    2    0    0  0.00000000000E+00  0.00000000000E+00  0.38064196123E+03  0.28517944892E+04  0.28262773229E+04 0.  0.
        4    1    3    3  502    0 -0.96969828502E+03  0.44291002372E+03  0.11263140504E+04  0.15508284902E+04  0.12699999809E+01 0.  1.
       -4    1    3    3    0  502  0.96969828502E+03 -0.44291002372E+03 -0.74567208916E+03  0.13009659990E+04  0.12699999809E+01 0. -1.
</event>
<event>
 5   0  0.1330962E-05  0.2785809E+04  0.7818609E-02  0.8307688E-01
        2   -1    0    0  501    0  0.00000000000E+00  0.00000000000E+00  0.15696866344E+04  0.15696866344E+04  0.25500000920E-02 0. -1.
       -2   -1    0    0    0  501  0.00000000000E+00  0.00000000000E+00 -0.12360317264E+04  0.12360317264E+04  0.25500000920E-02 0.  1.
    10030    2    1    2    0    0  0.00000000000E+00  0.00000000000E+00  0.33365490798E+03  0.28057183608E+04  0.27858086658E+04 0.  0.
        4    1    3    3  502    0  0.31334517041E+03 -0.30818745926E+03  0.14980211446E+04  0.15611642029E+04  0.12699999809E+01 0. -1.
       -4    1    3    3    0  502 -0.31334517041E+03  0.30818745926E+03 -0.11643662366E+04  0.12445541578E+04  0.12699999809E+01 0.  1.
</event>
<event>
 5   0  0.5281919E-06  0.2855392E+04  0.7818609E-02  0.8286275E-01
       -1   -1    0    0    0  501  0.00000000000E+00  0.00000000000E+00  0.92623948448E+03  0.92623948449E+03  0.50400001928E-02 0.  1.
        1   -1    0    0  501    0  0.00000000000E+00  0.00000000000E+00 -0.22006356035E+04  0.22006356035E+04  0.50400001928E-02 0. -1.
    10030    2    1    2    0    0  0.00000000000E+00  0.00000000000E+00 -0.12743961190E+04  0.31268750880E+04  0.28553918029E+04 0.  0.
        4    1    3    3  502    0 -0.83489403928E+03 -0.95986613457E+03 -0.13468242150E+04  0.18526543477E+04  0.12699999809E+01 0. -1.
       -4    1    3    3    0  502  0.83489403928E+03  0.95986613457E+03  0.72428095910E+02  0.12742207403E+04  0.12699999809E+01 0.  1.
</event>
<event>
 5   0  0.5107453E-06  0.2793688E+04  0.7818609E-02  0.8305231E-01
       -1   -1    0    0    0  501  0.00000000000E+00  0.00000000000E+00  0.14057457800E+04  0.14057457800E+04  0.50400001928E-02 0. -1.
        1   -1    0    0  501    0  0.00000000000E+00  0.00000000000E+00 -0.13879987846E+04  0.13879987846E+04  0.50400001928E-02 0.  1.
    10030    2    1    2    0    0  0.00000000000E+00  0.00000000000E+00  0.17746995388E+02  0.27937445647E+04  0.27936881960E+04 0.  0.
        2    1    3    3  502    0  0.17394990819E+03  0.12146539700E+04 -0.65862075404E+03  0.13926320889E+04  0.25500000920E-02 0.  1.
       -2    1    3    3    0  502 -0.17394990819E+03 -0.12146539700E+04  0.67636774943E+03  0.14011124758E+04  0.25500000920E-02 0. -1.
</event>
<event>
 5   0  0.1283052E-05  0.2797194E+04  0.7818609E-02  0.8304140E-01
        2   -1    0    0  501    0  0.00000000000E+00  0.00000000000E+00  0.19308826240E+04  0.19308826240E+04  0.25500000920E-02 0. -1.
       -2   -1    0    0    0  501  0.00000000000E+00  0.00000000000E+00 -0.10130462268E+04  0.10130462268E+04  0.25500000920E-02 0.  1.
    10030    2    1    2    0    0  0.00000000000E+00  0.00000000000E+00  0.91783639726E+03  0.29439288508E+04  0.27971938485E+04 0.  0.
        5    1    3    3  502    0 -0.10426931616E+03 -0.10791280905E+04 -0.47098168424E+03  0.11820471069E+04  0.46999998093E+01 0.  1.
       -5    1    3    3    0  502  0.10426931616E+03  0.10791280905E+04  0.13888180815E+04  0.17618817439E+04  0.46999998093E+01 0. -1.
</event>
<event>
 5   0  0.1283052E-05  0.2624671E+04  0.7818609E-02  0.8359869E-01
       -2   -1    0    0    0  501  0.00000000000E+00  0.00000000000E+00  0.96516796514E+03  0.96516796514E+03  0.25500000920E-02 0. -1.
        2   -1    0    0  501    0  0.00000000000E+00  0.00000000000E+00 -0.17843780248E+04  0.17843780248E+04  0.25500000920E-02 0.  1.
    10030    2    1    2    0    0  0.00000000000E+00  0.00000000000E+00 -0.81921005967E+03  0.27495459900E+04  0.26246710325E+04 0.  0.
        5    1    3    3  502    0  0.12104095010E+04  0.36429898800E+03 -0.40124171297E+02  0.12646884802E+04  0.46999998093E+01 0.  1.
       -5    1    3    3    0  502 -0.12104095010E+04 -0.36429898800E+03 -0.77908588838E+03  0.14848575098E+04  0.46999998093E+01 0. -1.
</event>
<event>
 5   0  0.5023691E-06  0.2775338E+04  0.7818609E-02  0.8310966E-01
        1   -1    0    0  501    0  0.00000000000E+00  0.00000000000E+00  0.14287518922E+04  0.14287518922E+04  0.50400001928E-02 0. -1.
       -1   -1    0    0    0  501  0.00000000000E+00  0.00000000000E+00 -0.13477675472E+04  0.13477675472E+04  0.50400001928E-02 0.  1.
    10030    2    1    2    0    0  0.00000000000E+00  0.00000000000E+00  0.80984344943E+02  0.27765194394E+04  0.27753381295E+04 0.  0.
        5    1    3    3  502    0  0.12081384711E+04 -0.41040896039E+03 -0.50523911227E+03  0.13723420604E+04  0.46999998093E+01 0.  1.
       -5    1    3    3    0  502 -0.12081384711E+04  0.41040896039E+03  0.58622345721E+03  0.14041773791E+04  0.46999998093E+01 0. -1.
</event>
<event>
 5   0  0.1302063E-05  0.2806222E+04  0.7818609E-02  0.8301339E-01
        2   -1    0    0  501    0  0.00000000000E+00  0.00000000000E+00  0.13278268459E+04  0.13278268459E+04  0.25500000920E-02 0.  1.
       -2   -1    0    0    0  501  0.00000000000E+00  0.00000000000E+00 -0.14826633195E+04  0.14826633195E+04  0.25500000920E-02 0. -1.
    10030    2    1    2    0    0  0.00000000000E+00  0.00000000000E+00 -0.15483647361E+03  0.28104901654E+04  0.28062217724E+04 0.  0.
        2    1    3    3  502    0  0.74709359913E+03 -0.11764910420E+04  0.85433339383E+02  0.13962732086E+04  0.25500000920E-02 0. -1.
       -2    1    3    3    0  502 -0.74709359913E+03  0.11764910420E+04 -0.24026981299E+03  0.14142169567E+04  0.25500000920E-02 0.  1.
</event>
<event>
 5   0  0.5281919E-06  0.2820896E+04  0.7818609E-02  0.8296810E-01
       -1   -1    0    0    0  501  0.00000000000E+00  0.00000000000E+00  0.12213082583E+04  0.12213082583E+04  0.50400001928E-02 0. -1.
        1   -1    0    0  501    0  0.00000000000E+00  0.00000000000E+00 -0.16288792875E+04  0.16288792875E+04  0.50400001928E-02 0.  1.
    10030    2    1    2    0    0  0.00000000000E+00  0.00000000000E+00 -0.40757102923E+03  0.28501875458E+04  0.28208961169E+04 0.  0.
        4    1    3    3  502    0 -0.50916763620E+03  0.62945294163E+03 -0.13707237978E+04  0.15919635769E+04  0.12699999809E+01 0.  1.
       -4    1    3    3    0  502  0.50916763620E+03 -0.62945294163E+03  0.96315276852E+03  0.12582239689E+04  0.12699999809E+01 0. -1.
</event>
<event>
 5   0  0.1350863E-05  0.2766964E+04  0.7818609E-02  0.8313599E-01
        2   -1    0    0  501    0  0.00000000000E+00  0.00000000000E+00  0.17774533746E+04  0.17774533746E+04  0.25500000920E-02 0. -1.
       -2   -1    0    0    0  501  0.00000000000E+00  0.00000000000E+00 -0.10768337646E+04  0.10768337646E+04  0.25500000920E-02 0.  1.
    10030    2    1    2    0    0  0.00000000000E+00  0.00000000000E+00  0.70061960999E+03  0.28542871391E+04  0.27669635405E+04 0.  0.
        3    1    3    3  502    0 -0.98839534872E+03  0.77757422452E+03  0.94511337113E+03  0.15731453634E+04  0.10100000352E+00 0. -1.
       -3    1    3    3    0  502  0.98839534872E+03 -0.77757422452E+03 -0.24449376114E+03  0.12811417757E+04  0.10100000352E+00 0.  1.
</event>
<event>
 5   0  0.4447500E-06  0.2824468E+04  0.7818609E-02  0.8295712E-01
       -4   -1    0    0    0  501  0.00000000000E+00  0.00000000000E+00  0.20171858586E+04  0.20171862584E+04  0.12699999809E+01 0. -1.
        4   -1    0    0  501    0  0.00000000000E+00  0.00000000000E+00 -0.98870591669E+03  0.98870673235E+03  0.12699999809E+01 0.  1.
    10030    2    1    2    0    0  0.00000000000E+00  0.00000000000E+00  0.10284799419E+04  0.30058929907E+04  0.28244683891E+04 0.  0.
        4    1    3    3  502    0  0.86976183939E+03 -0.14933652829E+03 -0.65913044771E+03  0.11014724763E+04  0.12699999809E+01 0.  1.
       -4    1    3    3    0  502 -0.86976183939E+03  0.14933652829E+03  0.16876103896E+04  0.19044205145E+04  0.12699999809E+01 0. -1.
</event>
<event>
 5   0  0.1302063E-05  0.2784959E+04  0.7818609E-02  0.8307953E-01
        2   -1    0    0  501    0  0.00000000000E+00  0.00000000000E+00  0.15141595347E+04  0.15141595347E+04  0.25500000920E-02 0.  1.
       -2   -1    0    0    0  501  0.00000000000E+00  0.00000000000E+00 -0.12805781538E+04  0.12805781538E+04  0.25500000920E-02 0. -1.
    10030    2    1    2    0    0  0.00000000000E+00  0.00000000000E+00  0.23358138089E+03  0.27947376886E+04  0.27849593330E+04 0.  0.
        2    1    3    3  502    0  0.80018101644E+03  0.10819439814E+04  0.47596803537E+03  0.14273885276E+04  0.25500000920E-02 0.  1.
       -2    1    3    3    0  502 -0.80018101644E+03 -0.10819439814E+04 -0.24238665448E+03  0.13673491610E+04  0.25500000920E-02 0. -1.
</event>
<event>
 5   0  0.4764214E-06  0.2475034E+04  0.7818609E-02  0.8411934E-01
       -1   -1    0    0    0  501  0.00000000000E+00  0.00000000000E+00  0.64218327723E+03  0.64218327725E+03  0.50400001928E-02 0. -1.
        1   -1    0    0  501    0  0.00000000000E+00  0.00000000000E+00 -0.23847532290E+04  0.23847532290E+04  0.50400001928E-02 0.  1.
    10030    2    1    2    0    0  0.00000000000E+00  0.00000000000E+00 -0.17425699517E+04  0.30269365062E+04  0.24750342575E+04 0.  0.
        3    1    3    3  502    0 -0.69602106727E+03 -0.50698087536E+03  0.21571219329E+03  0.88769741162E+03  0.10100000352E+00 0. -1.
       -3    1    3    3    0  502  0.69602106727E+03  0.50698087536E+03 -0.19582821450E+04  0.21392390946E+04  0.10100000352E+00 0.  1.
</event>
<event>
 5   0  0.1302063E-05  0.2784979E+04  0.7818609E-02  0.8307947E-01
        2   -1    0    0  501    0  0.00000000000E+00  0.00000000000E+00  0.18754237940E+04  0.18754237940E+04  0.25500000920E-02 0. -1.
       -2   -1    0    0    0  501  0.00000000000E+00  0.00000000000E+00 -0.10339143626E+04  0.10339143626E+04  0.25500000920E-02 0.  1.
    10030    2    1    2    0    0  0.00000000000E+00  0.00000000000E+00  0.84150943147E+03  0.29093381566E+04  0.27849794229E+04 0.  0.
        2    1    3    3  502    0 -0.38361848039E+03  0.12535576601E+04 -0.69740527275E+02  0.13127961330E+04  0.25500000920E-02 0.  1.
       -2    1    3    3    0  502  0.38361848039E+03 -0.12535576601E+04  0.91124995875E+03  0.15965420236E+04  0.25500000920E-02 0. -1.
</event>
<event>
 5   0  0.5023691E-06  0.2602573E+04  0.7818609E-02  0.8367328E-01
       -1   -1    0    0    0  501  0.00000000000E+00  0.00000000000E+00  0.87220388168E+03  0.87220388170E+03  0.50400001928E-02 0.  1.
        1   -1    0    0  501    0  0.00000000000E+00  0.00000000000E+00 -0.19414576374E+04  0.19414576374E+04  0.50400001928E-02 0. -1.
    10030    2    1    2    0    0  0.00000000000E+00  0.00000000000E+00 -0.10692537558E+04  0.28136615191E+04  0.26025732555E+04 0.  0.
        5    1    3    3  502    0  0.92783926743E+03 -0.90372504051E+03 -0.39907762517E+03  0.13553190384E+04  0.46999998093E+01 0. -1.
       -5    1    3    3    0  502 -0.92783926743E+03  0.90372504051E+03 -0.67017613058E+03  0.14583424807E+04  0.46999998093E+01 0.  1.
</event>
<event>
 5   0  0.5281919E-06  0.2852115E+04  0.7818609E-02  0.8287269E-01
       -1   -1    0    0    0  501  0.00000000000E+00  0.00000000000E+00  0.11526879861E+04  0.11526879861E+04  0.50400001928E-02 0. -1.
        1   -1    0    0  501    0  0.00000000000E+00  0.00000000000E+00 -0.17642582781E+04  0.17642582781E+04  0.50400001928E-02 0.  1.
    10030    2    1    2    0    0  0.00000000000E+00  0.00000000000E+00 -0.61157029199E+03  0.29169462642E+04  0.28521145289E+04 0.  0.
        4    1    3    3  502    0  0.13724513579E+04  0.24789083226E+02  0.89524547871E+02  0.13755920493E+04  0.12699999809E+01 0. -1.
       -4    1    3    3    0  502 -0.13724513579E+04 -0.24789083226E+02 -0.70109483986E+03  0.15413542149E+04  0.12699999809E+01 0.  1.
</event>
<event>
 5   0  0.1350863E-05  0.2733574E+04  0.7818609E-02  0.8324193E-01
        2   -1    0    0  501    0  0.00000000000E+00  0.00000000000E+00  0.20327275710E+04  0.20327275710E+04  0.25500000920E-02 0.  1.
       -2   -1    0    0    0  501  0.00000000000E+00  0.00000000000E+00 -0.91901482603E+03  0.91901482603E+03  0.25500000920E-02 0. -1.
    10030    2    1    2    0    0  0.00000000000E+00  0.00000000000E+00  0.11137127450E+04  0.29517423970E+04  0.27335740524E+04 0.  0.
        3    1    3    3  502    0  0.39119785354E+02 -0.71417210264E+03  0.18145157980E+04  0.19503947655E+04  0.10100000352E+00 0.  1.
       -3    1    3    3    0  502 -0.39119785354E+02  0.71417210264E+03 -0.70080305306E+03  0.10013476315E+04  0.10100000352E+00 0. -1.
</event>
<event>
 5   0  0.4764214E-06  0.2794954E+04  0.7818609E-02  0.8304837E-01
       -1   -1    0    0    0  501  0.00000000000E+00  0.00000000000E+00  0.12002066039E+04  0.12002066039E+04  0.50400001928E-02 0. -1.
        1   -1    0    0  501    0  0.00000000000E+00  0.00000000000E+00 -0.16271714322E+04  0.16271714322E+04  0.50400001928E-02 0.  1.
    10030    2    1    2    0    0  0.00000000000E+00  0.00000000000E+00 -0.42696482830E+03  0.28273780361E+04  0.27949539521E+04 0.  0.
        3    1    3    3  502    0  0.80643057997E+03  0.66709235139E+03  0.72332745604E+03  0.12722205408E+04  0.10100000352E+00 0. -1.
       -3    1    3    3    0  502 -0.80643057997E+03 -0.66709235139E+03 -0.11502922843E+04  0.15551574953E+04  0.10100000352E+00 0.  1.
</event>
<event>
 5   0  0.5107453E-06  0.2809190E+04  0.7818609E-02  0.8300421E-01
       -1   -1    0    0    0  501  0.00000000000E+00  0.00000000000E+00  0.10853700999E+04  0.10853700999E+04  0.50400001928E-02 0. -1.
        1   -1    0    0  501    0  0.00000000000E+00  0.00000000000E+00 -0.18177086705E+04  0.18177086705E+04  0.50400001928E-02 0.  1.
    10030    2    1    2    0    0  0.00000000000E+00  0.00000000000E+00 -0.73233857061E+03  0.29030787705E+04  0.28091896635E+04 0.  0.
        2    1    3    3  502    0 -0.48243121265E+03  0.12550132391E+04  0.53721376759E+02  0.13456166213E+04  0.25500000920E-02 0. -1.
       -2    1    3    3    0  502  0.48243121265E+03 -0.12550132391E+04 -0.78605994737E+03  0.15574621492E+04  0.25500000920E-02 0.  1.
</event>
<event>
 5   0  0.5107453E-06  0.2803198E+04  0.7818609E-02  0.8302276E-01
       -1   -1    0    0    0  501  0.00000000000E+00  0.00000000000E+00  0.10285973118E+04  0.10285973118E+04  0.50400001928E-02 0.  1.
        1   -1    0    0  501    0  0.00000000000E+00  0.00000000000E+00 -0.19098625228E+04  0.19098625229E+04  0.50400001928E-02 0. -1.
    10030    2    1    2    0    0  0.00000000000E+00  0.00000000000E+00 -0.88126521106E+03  0.29384598346E+04  0.28031977860E+04 0.  0.
        2    1    3    3  502    0  0.98708757801E+02  0.11105686873E+04 -0.13309523972E+04  0.17362432179E+04  0.25500000920E-02 0. -1.
       -2    1    3    3    0  502 -0.98708757801E+02 -0.11105686873E+04  0.44968718612E+03  0.12022166167E+04  0.25500000920E-02 0.  1.
</event>
<event>
 5   0  0.1330962E-05  0.2914365E+04  0.7818609E-02  0.8268616E-01
       -2   -1    0    0    0  501  0.00000000000E+00  0.00000000000E+00  0.10668274520E+04  0.10668274520E+04  0.25500000920E-02 0.  1.
        2   -1    0    0  501    0  0.00000000000E+00  0.00000000000E+00 -0.19903688365E+04  0.19903688365E+04  0.25500000920E-02 0. -1.
    10030    2    1    2    0    0  0.00000000000E+00  0.00000000000E+00 -0.92354138452E+03  0.30571962885E+04  0.29143645032E+04 0.  0.
        4    1    3    3  502    0  0.58322529289E+03 -0.12893386423E+04 -0.82641678127E+03  0.16387532413E+04  0.12699999809E+01 0. -1.
       -4    1    3    3    0  502 -0.58322529289E+03  0.12893386423E+04 -0.97124603250E+02  0.14184430472E+04  0.12699999809E+01 0.  1.
</event>
<event>
 5   0  0.5217999E-06  0.2856739E+04  0.7818609E-02  0.8285867E-01
        1   -1    0    0  501    0  0.00000000000E+00  0.00000000000E+00  0.13633205692E+04  0.13633205692E+04  0.50400001928E-02 0. -1.
       -1   -1    0    0    0  501  0.00000000000E+00  0.00000000000E+00 -0.14965220159E+04  0.14965220159E+04  0.50400001928E-02 0.  1.
    10030    2    1    2    0    0  0.00000000000E+00  0.00000000000E+00 -0.13320144670E+03  0.28598425851E+04  0.28567388726E+04 0.  0.
        1    1    3    3  502    0 -0.67304713134E+03 -0.54170766203E+03 -0.12052896390E+04  0.14829574323E+04  0.50400001928E-02 0.  1.
       -1    1    3    3    0  502  0.67304713134E+03  0.54170766203E+03  0.10720881922E+04  0.13768851528E+04  0.50400001928E-02 0. -1.
</event>
<event>
 5   0  0.5217999E-06  0.2827645E+04  0.7818609E-02  0.8294737E-01
        1   -1    0    0  501    0  0.00000000000E+00  0.00000000000E+00  0.16559793117E+04  0.16559793117E+04  0.50400001928E-02 0.  1.
       -1   -1    0    0    0  501  0.00000000000E+00  0.00000000000E+00 -0.12070768212E+04  0.12070768212E+04  0.50400001928E-02 0. -1.
    10030    2    1    2    0    0  0.00000000000E+00  0.00000000000E+00  0.44890249045E+03  0.28630561329E+04  0.28276451288E+04 0.  0.
        1    1    3    3  502    0 -0.11410706799E+04  0.33427186217E+03  0.99895816666E+03  0.15529640669E+04  0.50400001928E-02 0.  1.
       -1    1    3    3    0  502  0.11410706799E+04 -0.33427186217E+03 -0.55005567622E+03  0.13100920660E+04  0.50400001928E-02 0. -1.
</event>
<event>
 5   0  0.1283052E-05  0.2878253E+04  0.7818609E-02  0.8279377E-01
        2   -1    0    0  501    0  0.00000000000E+00  0.00000000000E+00  0.15503153754E+04  0.15503153754E+04  0.25500000920E-02 0.  1.
       -2   -1    0    0    0  501  0.00000000000E+00  0.00000000000E+00 -0.13359118174E+04  0.13359118174E+04  0.25500000920E-02 0. -1.
    10030    2    1    2    0    0  0.00000000000E+00  0.00000000000E+00  0.21440355802E+03  0.28862271929E+04  0.28782526858E+04 0.  0.
        5    1    3    3  502    0 -0.53426103367E+02 -0.12034362130E+04  0.89675197061E+03  0.15017653792E+04  0.46999998093E+01 0.  1.
       -5    1    3    3    0  502  0.53426103367E+02  0.12034362130E+04 -0.68234841259E+03  0.13844618137E+04  0.46999998093E+01 0. -1.
</event>
<event>
 5   0  0.1388269E-05  0.2853813E+04  0.7818609E-02  0.8286754E-01
       -2   -1    0    0    0  501  0.00000000000E+00  0.00000000000E+00  0.90246553937E+03  0.90246553937E+03  0.25500000920E-02 0.  1.
        2   -1    0    0  501    0  0.00000000000E+00  0.00000000000E+00 -0.22561108107E+04  0.22561108107E+04  0.25500000920E-02 0. -1.
    10030    2    1    2    0    0  0.00000000000E+00  0.00000000000E+00 -0.13536452713E+04  0.31585763501E+04  0.28538130700E+04 0.  0.
        1    1    3    3  502    0 -0.25323283648E+03 -0.39097346793E+03 -0.21695867139E+04  0.22190298851E+04  0.50400001928E-02 0. -1.
       -1    1    3    3    0  502  0.25323283648E+03  0.39097346793E+03  0.81594144254E+03  0.93954646493E+03  0.50400001928E-02 0.  1.
</event>
<event>
 5   0  0.1388269E-05  0.2671182E+04  0.7818609E-02  0.8344416E-01
        2   -1    0    0  501    0  0.00000000000E+00  0.00000000000E+00  0.17544179919E+04  0.17544179920E+04  0.25500000920E-02 0. -1.
       -2   -1    0    0    0  501  0.00000000000E+00  0.00000000000E+00 -0.10167493895E+04  0.10167493895E+04  0.25500000920E-02 0.  1.
    10030    2    1    2    0    0  0.00000000000E+00  0.00000000000E+00  0.73766860247E+03  0.27711673814E+04  0.26711820771E+04 0.  0.
        1    1    3    3  502    0  0.12927592053E+04 -0.29628919860E+03  0.53217541665E+03  0.14290641434E+04  0.50400001928E-02 0. -1.
       -1    1    3    3    0  502 -0.12927592053E+04  0.29628919860E+03  0.20549318582E+03  0.13421032380E+04  0.50400001928E-02 0.  1.
</event>
<event>
 5   0  0.4764214E-06  0.2807378E+04  0.7818609E-02  0.8300982E-01
        1   -1    0    0  501    0  0.00000000000E+00  0.00000000000E+00  0.15063207144E+04  0.15063207144E+04  0.50400001928E-02 0.  1.
       -1   -1    0    0    0  501  0.00000000000E+00  0.00000000000E+00 -0.13080497362E+04  0.13080497362E+04  0.50400001928E-02 0. -1.
    10030    2    1    2    0    0  0.00000000000E+00  0.00000000000E+00  0.19827097824E+03  0.28143704506E+04  0.28073777182E+04 0.  0.
        3    1    3    3  502    0 -0.78096600607E+03 -0.40849427649E+03  0.11943616316E+04  0.14843433544E+04  0.10100000352E+00 0.  1.
       -3    1    3    3    0  502  0.78096600607E+03  0.40849427649E+03 -0.99609065339E+03  0.13300270962E+04  0.10100000352E+00 0. -1.
</event>
<event>
 5   0  0.1283052E-05  0.2817244E+04  0.7818609E-02  0.8297935E-01
        2   -1    0    0  501    0  0.00000000000E+00  0.00000000000E+00  0.10235320790E+04  0.10235320790E+04  0.25500000920E-02 0.  1.
       -2   -1    0    0    0  501  0.00000000000E+00  0.00000000000E+00 -0.19385967644E+04  0.19385967644E+04  0.25500000920E-02 0. -1.
    10030    2    1    2    0    0  0.00000000000E+00  0.00000000000E+00 -0.91506468540E+03  0.29621288433E+04  0.28172440267E+04 0.  0.
        5    1    3    3  502    0  0.96064520202E+03  0.97001522146E+03 -0.82240227891E+03  0.15937805158E+04  0.46999998093E+01 0. -1.
       -5    1    3    3    0  502 -0.96064520202E+03 -0.97001522146E+03 -0.92662406497E+02  0.13683483276E+04  0.46999998093E+01 0.  1.
</event>
<event>
 5   0  0.1302063E-05  0.2794186E+04  0.7818609E-02  0.8305075E-01
       -2   -1    0    0    0  501  0.00000000000E+00  0.00000000000E+00  0.10762389285E+04  0.10762389285E+04  0.25500000920E-02 0. -1.
        2   -1    0    0  501    0  0.00000000000E+00  0.00000000000E+00 -0.18136023961E+04  0.18136023961E+04  0.25500000920E-02 0.  1.
    10030    2    1    2    0    0  0.00000000000E+00  0.00000000000E+00 -0.73736346760E+03  0.28898413246E+04  0.27941864645E+04 0.  0.
        2    1    3    3  502    0  0.84381852194E+03 -0.10388927407E+04 -0.78307482612E+03  0.15506559928E+04  0.25500000920E-02 0. -1.
       -2    1    3    3    0  502 -0.84381852194E+03  0.10388927407E+04  0.45711358515E+02  0.13391853318E+04  0.25500000920E-02 0.  1.
</event>
<event>
 5   0  0.5023691E-06  0.2791731E+04  0.7818609E-02  0.8305840E-01
       -1   -1    0    0    0  501  0.00000000000E+00  0.00000000000E+00  0.10285542421E+04  0.10285542421E+04  0.50400001928E-02 0.  1.
        1   -1    0    0  501    0  0.00000000000E+00  0.00000000000E+00 -0.18943482410E+04  0.18943482410E+04  0.50400001928E-02 0. -1.
    10030    2    1    2    0    0  0.00000000000E+00  0.00000000000E+00 -0.86579399890E+03  0.29229024832E+04  0.27917305883E+04 0.  0.
        5    1    3    3  502    0  0.14272821342E+03 -0.18195320835E+03  0.10083502698E+04  0.10345388681E+04  0.46999998093E+01 0.  1.
       -5    1    3    3    0  502 -0.14272821342E+03  0.18195320835E+03 -0.18741442687E+04  0.18883636151E+04  0.46999998093E+01 0. -1.
</event>
<event>
 5   0  0.1388269E-05  0.2221316E+04  0.7818609E-02  0.8509608E-01
       -2   -1    0    0    0  501  0.00000000000E+00  0.00000000000E+00  0.11239740683E+04  0.11239740683E+04  0.25500000920E-02 0.  1.
        2   -1    0    0  501    0  0.00000000000E+00  0.00000000000E+00 -0.10975000171E+04  0.10975000171E+04  0.25500000920E-02 0. -1.
    10030    2    1    2    0    0  0.00000000000E+00  0.00000000000E+00  0.26474051192E+02  0.22214740854E+04  0.22213163297E+04 0.  0.
        1    1    3    3  502    0 -0.17513361220E+03  0.84808094653E+02 -0.10803201081E+04  0.10977047558E+04  0.50400001928E-02 0. -1.
       -1    1    3    3    0  502  0.17513361220E+03 -0.84808094653E+02  0.11067941593E+04  0.11237693296E+04  0.50400001928E-02 0.  1.
</event>
<event>
 5   0  0.1330962E-05  0.2798211E+04  0.7818609E-02  0.8303824E-01
        2   -1    0    0  501    0  0.00000000000E+00  0.00000000000E+00  0.84581053625E+03  0.84581053626E+03  0.25500000920E-02 0.  1.
       -2   -1    0    0    0  501  0.00000000000E+00  0.00000000000E+00 -0.23143431309E+04  0.23143431309E+04  0.25500000920E-02 0. -1.
    10030    2    1    2    0    0  0.00000000000E+00  0.00000000000E+00 -0.14685325946E+04  0.31601536671E+04  0.27982107173E+04 0.  0.
        4    1    3    3  502    0  0.17132948188E+02  0.45557444875E+03  0.75957236705E+03  0.88588566415E+03  0.12699999809E+01 0.  1.
       -4    1    3    3    0  502 -0.17132948188E+02 -0.45557444875E+03 -0.22281049617E+04  0.22742680030E+04  0.12699999809E+01 0. -1.
</event>
<event>
 5   0  0.1388269E-05  0.2815045E+04  0.7818609E-02  0.8298613E-01
       -2   -1    0    0    0  501  0.00000000000E+00  0.00000000000E+00  0.92577232682E+03  0.92577232683E+03  0.25500000920E-02 0. -1.
        2   -1    0    0  501    0  0.00000000000E+00  0.00000000000E+00 -0.21399649026E+04  0.21399649026E+04  0.25500000920E-02 0.  1.
    10030    2    1    2    0    0  0.00000000000E+00  0.00000000000E+00 -0.12141925758E+04  0.30657372294E+04  0.28150454967E+04 0.  0.
        1    1    3    3  502    0  0.14017548715E+04 -0.68412246804E+02 -0.72400275683E+03  0.15791697019E+04  0.50400001928E-02 0. -1.
       -1    1    3    3    0  502 -0.14017548715E+04  0.68412246804E+02 -0.49018981892E+03  0.14865675275E+04  0.50400001928E-02 0.  1.
</event>
<event>
 5   0  0.1302063E-05  0.2822228E+04  0.7818609E-02  0.8296401E-01
       -2   -1    0    0    0  501  0.00000000000E+00  0.00000000000E+00  0.10661520853E+04  0.10661520853E+04  0.25500000920E-02 0. -1.
        2   -1    0    0  501    0  0.00000000000E+00  0.00000000000E+00 -0.18676910559E+04  0.18676910559E+04  0.25500000920E-02 0.  1.
    10030    2    1    2    0    0  0.00000000000E+00  0.00000000000E+00 -0.80153897064E+03  0.29338431412E+04  0.28222279950E+04 0.  0.
        2    1    3    3  502    0 -0.17538825799E+03  0.88509598184E+03  0.72707451915E+03  0.11587895816E+04  0.25500000920E-02 0. -1.
       -2    1    3    3    0  502  0.17538825799E+03 -0.88509598184E+03 -0.15286134898E+04  0.17750535596E+04  0.25500000920E-02 0.  1.
</event>
<event>
 5   0  0.5107453E-06  0.2786639E+04  0.7818609E-02  0.8307428E-01
       -1   -1    0    0    0  501  0.00000000000E+00  0.00000000000E+00  0.10125852319E+04  0.10125852319E+04  0.50400001928E-02 0.  1.
        1   -1    0    0  501    0  0.00000000000E+00  0.00000000000E+00 -0.19172104603E+04  0.19172104603E+04  0.50400001928E-02 0. -1.
    10030    2    1    2    0    0  0.00000000000E+00  0.00000000000E+00 -0.90462522842E+03  0.29297956922E+04  0.27866388345E+04 0.  0.
        2    1    3    3  502    0 -0.69824762510E+03  0.99497167374E+03 -0.11683433707E+04  0.16859847596E+04  0.25500000920E-02 0. -1.
       -2    1    3    3    0  502  0.69824762510E+03 -0.99497167374E+03  0.26371814232E+03  0.12438109326E+04  0.25500000920E-02 0.  1.
</event>
<event>
 5   0  0.5107453E-06  0.2749629E+04  0.7818609E-02  0.8319079E-01
       -1   -1    0    0    0  501  0.00000000000E+00  0.00000000000E+00  0.18160741955E+04  0.18160741955E+04  0.50400001928E-02 0. -1.
        1   -1    0    0  501    0  0.00000000000E+00  0.00000000000E+00 -0.10407696557E+04  0.10407696557E+04  0.50400001928E-02 0.  1.
    10030    2    1    2    0    0  0.00000000000E+00  0.00000000000E+00  0.77530453976E+03  0.28568438512E+04  0.27496290043E+04 0.  0.
        2    1    3    3  502    0  0.10676180120E+04 -0.69793112659E+03 -0.14538108639E+03  0.12837646736E+04  0.25500000920E-02 0.  1.
       -2    1    3    3    0  502 -0.10676180120E+04  0.69793112659E+03  0.92068562614E+03  0.15730791776E+04  0.25500000920E-02 0. -1.
</event>
<event>
 5   0  0.1388269E-05  0.2767466E+04  0.7818609E-02  0.8313441E-01
       -2   -1    0    0    0  501  0.00000000000E+00  0.00000000000E+00  0.97916738212E+03  0.97916738212E+03  0.25500000920E-02 0. -1.
        2   -1    0    0  501    0  0.00000000000E+00  0.00000000000E+00 -0.19554544677E+04  0.19554544678E+04  0.25500000920E-02 0.  1.
    10030    2    1    2    0    0  0.00000000000E+00  0.00000000000E+00 -0.97628708563E+03  0.29346218499E+04  0.27674661566E+04 0.  0.
        1    1    3    3  502    0 -0.11857572699E+03 -0.47134625232E+03 -0.18619614520E+04  0.19243513040E+04  0.50400001928E-02 0.  1.
       -1    1    3    3    0  502  0.11857572699E+03  0.47134625232E+03  0.88567436634E+03  0.10102705459E+04  0.50400001928E-02 0. -1.
</event>
<event>
 5   0  0.5217999E-06  0.2792488E+04  0.7818609E-02  0.8305604E-01
        1   -1    0    0  501    0  0.00000000000E+00  0.00000000000E+00  0.15640959167E+04  0.15640959167E+04  0.50400001928E-02 0. -1.
       -1   -1    0    0    0  501  0.00000000000E+00  0.00000000000E+00 -0.12464047813E+04  0.12464047813E+04  0.50400001928E-02 0.  1.
    10030    2    1    2    0    0  0.00000000000E+00  0.00000000000E+00  0.31769113537E+03  0.28105006980E+04  0.27924875141E+04 0.  0.
        1    1    3    3  502    0 -0.11704604200E+03 -0.15661555237E+03  0.15502497350E+04  0.15625307831E+04  0.50400001928E-02 0. -1.
       -1    1    3    3    0  502  0.11704604200E+03  0.15661555237E+03 -0.12325585996E+04  0.12479699150E+04  0.50400001928E-02 0.  1.
</event>
<event>
 5   0  0.5023691E-06  0.2774528E+04  0.7818609E-02  0.8311220E-01
        1   -1    0    0  501    0  0.00000000000E+00  0.00000000000E+00  0.14691021876E+04  0.14691021876E+04  0.50400001928E-02 0.  1.
       -1   -1    0    0    0  501  0.00000000000E+00  0.00000000000E+00 -0.13099843167E+04  0.13099843167E+04  0.50400001928E-02 0. -1.
    10030    2    1    2    0    0  0.00000000000E+00  0.00000000000E+00  0.15911787086E+03  0.27790865043E+04  0.27745275817E+04 0.  0.
        5    1    3    3  502    0 -0.10279593025E+03 -0.90537494051E+03 -0.96820380759E+03  0.13295531164E+04  0.46999998093E+01 0. -1.
       -5    1    3    3    0  502  0.10279593025E+03  0.90537494051E+03  0.11273216785E+04  0.14495333880E+04  0.46999998093E+01 0.  1.
</event>
<event>
 5   0  0.1350863E-05  0.2783860E+04  0.7818609E-02  0.8308297E-01
        2   -1    0    0  501    0  0.00000000000E+00  0.00000000000E+00  0.25768155026E+04  0.25768155026E+04  0.25500000920E-02 0.  1.
       -2   -1    0    0    0  501  0.00000000000E+00  0.00000000000E+00 -0.75188482235E+03  0.75188482236E+03  0.25500000920E-02 0. -1.
    10030    2    1    2    0    0  0.00000000000E+00  0.00000000000E+00  0.18249306803E+04  0.33287003250E+04  0.27838595269E+04 0.  0.
        3    1    3    3  502    0  0.30753313224E+03  0.12243630300E+04  0.21133724531E+03  0.12799628503E+04  0.10100000352E+00 0.  1.
       -3    1    3    3    0  502 -0.30753313224E+03 -0.12243630300E+04  0.16135934350E+04  0.20487374747E+04  0.10100000352E+00 0. -1.
</event>
<event>
 5   0  0.5281919E-06  0.2797844E+04  0.7818609E-02  0.8303938E-01
        1   -1    0    0  501    0  0.00000000000E+00  0.00000000000E+00  0.15385562216E+04  0.15385562216E+04  0.50400001928E-02 0.  1.
       -1   -1    0    0    0  501  0.00000000000E+00  0.00000000000E+00 -0.12719603308E+04  0.12719603308E+04  0.50400001928E-02 0. -1.
    10030    2    1    2    0    0  0.00000000000E+00  0.00000000000E+00  0.26659589084E+03  0.28105165524E+04  0.27978437988E+04 0.  0.
        4    1    3    3  502    0  0.94929525597E+03 -0.10239008113E+04  0.21998199065E+03  0.14134808253E+04  0.12699999809E+01 0.  1.
       -4    1    3    3    0  502 -0.94929525597E+03  0.10239008113E+04  0.46613900196E+02  0.13970357271E+04  0.12699999809E+01 0. -1.
</event>
<event>
 5   0  0.1302063E-05  0.2810674E+04  0.7818609E-02  0.8299962E-01
       -2   -1    0    0    0  501  0.00000000000E+00  0.00000000000E+00  0.94424596075E+03  0.94424596076E+03  0.25500000920E-02 0. -1.
        2   -1    0    0  501    0  0.00000000000E+00  0.00000000000E+00 -0.20915862886E+04  0.20915862886E+04  0.25500000920E-02 0.  1.
    10030    2    1    2    0    0  0.00000000000E+00  0.00000000000E+00 -0.11473403278E+04  0.30358322493E+04  0.28106738726E+04 0.  0.
        2    1    3    3  502    0  0.11052787772E+04  0.86135729251E+03 -0.45837476574E+03  0.14743422217E+04  0.25500000920E-02 0. -1.
       -2    1    3    3    0  502 -0.11052787772E+04 -0.86135729251E+03 -0.68896556208E+03  0.15614900277E+04  0.25500000920E-02 0.  1.
</event>
<event>
 5   0  0.5281919E-06  0.2016383E+04  0.7818609E-02  0.8598999E-01
       -1   -1    0    0    0  501  0.00000000000E+00  0.00000000000E+00  0.51015614284E+03  0.51015614286E+03  0.50400001928E-02 0. -1.
        1   -1    0    0  501    0  0.00000000000E+00  0.00000000000E+00 -0.19924286742E+04  0.19924286742E+04  0.50400001928E-02 0.  1.
    10030    2    1    2    0    0  0.00000000000E+00  0.00000000000E+00 -0.14822725314E+04  0.25025848171E+04  0.20163826297E+04 0.  0.
        4    1    3    3  502    0 -0.11075137800E+03 -0.60086375238E+03 -0.17364736265E+04  0.18408273643E+04  0.12699999809E+01 0.  1.
       -4    1    3    3    0  502  0.11075137800E+03  0.60086375238E+03  0.25420109514E+03  0.66175745279E+03  0.12699999809E+01 0. -1.
</event>
<event>
 5   0  0.5217999E-06  0.2763130E+04  0.7818609E-02  0.8314807E-01
       -1   -1    0    0    0  501  0.00000000000E+00  0.00000000000E+00  0.96213467150E+03  0.96213467152E+03  0.50400001928E-02 0. -1.
        1   -1    0    0  501    0  0.00000000000E+00  0.00000000000E+00 -0.19838411299E+04  0.19838411299E+04  0.50400001928E-02 0.  1.
    10030    2    1    2    0    0  0.00000000000E+00  0.00000000000E+00 -0.10217064584E+04  0.29459758014E+04  0.27631303508E+04 0.  0.
        1    1    3    3  502    0  0.16016151464E+03  0.90207261377E+03  0.59166256377E+03  0.10906196865E+04  0.50400001928E-02 0. -1.
       -1    1    3    3    0  502 -0.16016151464E+03 -0.90207261377E+03 -0.16133690221E+04  0.18553561148E+04  0.50400001928E-02 0.  1.
</event>
<event>
 5   0  0.1283052E-05  0.2731615E+04  0.7818609E-02  0.8324819E-01
       -2   -1    0    0    0  501  0.00000000000E+00  0.00000000000E+00  0.89274995444E+03  0.89274995445E+03  0.25500000920E-02 0. -1.
        2   -1    0    0  501    0  0.00000000000E+00  0.00000000000E+00 -0.20895330181E+04  0.20895330181E+04  0.25500000920E-02 0.  1.
    10030    2    1    2    0    0  0.00000000000E+00  0.00000000000E+00 -0.11967830636E+04  0.29822829725E+04  0.27316152780E+04 0.  0.
        5    1    3    3  502    0  0.17771970229E+03  0.48326773632E+03 -0.19794969171E+04  0.20453757925E+04  0.46999998093E+01 0.  1.
       -5    1    3    3    0  502 -0.17771970229E+03 -0.48326773632E+03  0.78271385350E+03  0.93690718004E+03  0.46999998093E+01 0. -1.
</event>
<event>
 5   0  0.4764214E-06  0.2780420E+04  0.7818609E-02  0.8309373E-01
       -1   -1    0    0    0  501  0.00000000000E+00  0.00000000000E+00  0.15169100892E+04  0.15169100893E+04  0.50400001928E-02 0.  1.
        1   -1    0    0  501    0  0.00000000000E+00  0.00000000000E+00 -0.12740923650E+04  0.12740923651E+04  0.50400001928E-02 0. -1.
    10030    2    1    2    0    0  0.00000000000E+00  0.00000000000E+00  0.24281772419E+03  0.27910024543E+04  0.27804197979E+04 0.  0.
        3    1    3    3  502    0  0.19990138569E+03  0.47393520885E+03  0.14178773992E+04  0.15082942271E+04  0.10100000352E+00 0.  1.
       -3    1    3    3    0  502 -0.19990138569E+03 -0.47393520885E+03 -0.11750596750E+04  0.12827082272E+04  0.10100000352E+00 0. -1.
</event>
<event>
 5   0  0.4764214E-06  0.2531609E+04  0.7818609E-02  0.8391810E-01
        1   -1    0    0  501    0  0.00000000000E+00  0.00000000000E+00  0.12736523776E+04  0.12736523776E+04  0.50400001928E-02 0. -1.
       -1   -1    0    0    0  501  0.00000000000E+00  0.00000000000E+00 -0.12580051032E+04  0.12580051032E+04  0.50400001928E-02 0.  1.
    10030    2    1    2    0    0  0.00000000000E+00  0.00000000000E+00  0.15647274338E+02  0.25316574808E+04  0.25316091252E+04 0.  0.
        3    1    3    3  502    0 -0.68055145977E+02 -0.96180066283E+03 -0.81229516884E+03  0.12607598778E+04  0.10100000352E+00 0.  1.
       -3    1    3    3    0  502  0.68055145977E+02  0.96180066283E+03  0.82794244318E+03  0.12708976030E+04  0.10100000352E+00 0. -1.
</event>
<event>
 5   0  0.1302063E-05  0.2720439E+04  0.7818609E-02  0.8328404E-01
        2   -1    0    0  501    0  0.00000000000E+00  0.00000000000E+00  0.23378649409E+04  0.23378649409E+04  0.25500000920E-02 0. -1.
       -2   -1    0    0    0  501  0.00000000000E+00  0.00000000000E+00 -0.79140468594E+03  0.79140468594E+03  0.25500000920E-02 0.  1.
    10030    2    1    2    0    0  0.00000000000E+00  0.00000000000E+00  0.15464602549E+04  0.31292696268E+04  0.27204391332E+04 0.  0.
        2    1    3    3  502    0 -0.57817157351E+03 -0.54561871264E+03  0.20428273519E+04  0.21920597021E+04  0.25500000920E-02 0. -1.
       -2    1    3    3    0  502  0.57817157351E+03  0.54561871264E+03 -0.49636709696E+03  0.93720992470E+03  0.25500000920E-02 0.  1.
</event>
<event>
 5   0  0.1330962E-05  0.2853372E+04  0.7818609E-02  0.8286887E-01
       -2   -1    0    0    0  501  0.00000000000E+00  0.00000000000E+00  0.21637543004E+04  0.21637543004E+04  0.25500000920E-02 0. -1.
        2   -1    0    0  501    0  0.00000000000E+00  0.00000000000E+00 -0.94069501080E+03  0.94069501081E+03  0.25500000920E-02 0.  1.
    10030    2    1    2    0    0  0.00000000000E+00  0.00000000000E+00  0.12230592896E+04  0.31044493112E+04  0.28533719526E+04 0.  0.
        4    1    3    3  502    0  0.91800328735E+03  0.10667436893E+04  0.86612732739E+03  0.16525284549E+04  0.12699999809E+01 0. -1.
       -4    1    3    3    0  502 -0.91800328735E+03 -0.10667436893E+04  0.35693196217E+03  0.14519208562E+04  0.12699999809E+01 0.  1.
</event>
<event>
 5   0  0.4764214E-06  0.2808495E+04  0.7818609E-02  0.8300636E-01
       -1   -1    0    0    0  501  0.00000000000E+00  0.00000000000E+00  0.15147076910E+04  0.15147076910E+04  0.50400001928E-02 0. -1.
        1   -1    0    0  501    0  0.00000000000E+00  0.00000000000E+00 -0.13018428695E+04  0.13018428695E+04  0.50400001928E-02 0.  1.
    10030    2    1    2    0    0  0.00000000000E+00  0.00000000000E+00  0.21286482153E+03  0.28165505605E+04  0.28084952604E+04 0.  0.
        3    1    3    3  502    0 -0.34358158388E+03 -0.12245623022E+04  0.70337933766E+03  0.14533903948E+04  0.10100000352E+00 0. -1.
       -3    1    3    3    0  502  0.34358158388E+03  0.12245623022E+04 -0.49051451614E+03  0.13631601657E+04  0.10100000352E+00 0.  1.
</event>
<event>
 5   0  0.1302063E-05  0.2848451E+04  0.7818609E-02  0.8288382E-01
        2   -1    0    0  501    0  0.00000000000E+00  0.00000000000E+00  0.19218811401E+04  0.19218811401E+04  0.25500000920E-02 0.  1.
       -2   -1    0    0    0  501  0.00000000000E+00  0.00000000000E+00 -0.10554339536E+04  0.10554339536E+04  0.25500000920E-02 0. -1.
    10030    2    1    2    0    0  0.00000000000E+00  0.00000000000E+00  0.86644718644E+03  0.29773150937E+04  0.28484512354E+04 0.  0.
        2    1    3    3  502    0 -0.30363811540E+03 -0.25708121347E+03  0.18626181124E+04  0.19046346338E+04  0.25500000920E-02 0.  1.
       -2    1    3    3    0  502  0.30363811540E+03  0.25708121347E+03 -0.99617092596E+03  0.10726804600E+04  0.25500000920E-02 0. -1.
</event>
<event>
 5   0  0.1330962E-05  0.2888355E+04  0.7818609E-02  0.8276351E-01
        2   -1    0    0  501    0  0.00000000000E+00  0.00000000000E+00  0.12443669329E+04  0.12443669329E+04  0.25500000920E-02 0. -1.
       -2   -1    0    0    0  501  0.00000000000E+00  0.00000000000E+00 -0.16760719728E+04  0.16760719728E+04  0.25500000920E-02 0.  1.
    10030    2    1    2    0    0  0.00000000000E+00  0.00000000000E+00 -0.43170503992E+03  0.29204389058E+04  0.28883549229E+04 0.  0.
        4    1    3    3  502    0  0.91879388847E+03  0.11112587536E+04 -0.13390472041E+03  0.14481057675E+04  0.12699999809E+01 0. -1.
       -4    1    3    3    0  502 -0.91879388847E+03 -0.11112587536E+04 -0.29780031951E+03  0.14723331383E+04  0.12699999809E+01 0.  1.
</event>
<event>
 5   0  0.1350863E-05  0.2774046E+04  0.7818609E-02  0.8311371E-01
       -2   -1    0    0    0  501  0.00000000000E+00  0.00000000000E+00  0.14390919948E+04  0.14390919948E+04  0.25500000920E-02 0.  1.
        2   -1    0    0  501    0  0.00000000000E+00  0.00000000000E+00 -0.13368382943E+04  0.13368382943E+04  0.25500000920E-02 0. -1.
    10030    2    1    2    0    0  0.00000000000E+00  0.00000000000E+00  0.10225370055E+03  0.27759302891E+04  0.27740463498E+04 0.  0.
        3    1    3    3  502    0 -0.87357732118E+03  0.23570410558E+03  0.11030969513E+04  0.14267153380E+04  0.10100000352E+00 0.  1.
       -3    1    3    3    0  502  0.87357732118E+03 -0.23570410558E+03 -0.10008432508E+04  0.13492149511E+04  0.10100000352E+00 0. -1.
</event>
<event>
 5   0  0.4764214E-06  0.2755252E+04  0.7818609E-02  0.8317297E-01
       -1   -1    0    0    0  501  0.00000000000E+00  0.00000000000E+00  0.14894805297E+04  0.14894805297E+04  0.50400001928E-02 0. -1.
        1   -1    0    0  501    0  0.00000000000E+00  0.00000000000E+00 -0.12741712398E+04  0.12741712398E+04  0.50400001928E-02 0.  1.
    10030    2    1    2    0    0  0.00000000000E+00  0.00000000000E+00  0.21530928999E+03  0.27636517695E+04  0.27552518964E+04 0.  0.
        3    1    3    3  502    0  0.37522184907E+03 -0.54332040002E+03 -0.11051074273E+04  0.12873425842E+04  0.10100000352E+00 0.  1.
       -3    1    3    3    0  502 -0.37522184907E+03  0.54332040002E+03  0.13204167173E+04  0.14763091853E+04  0.10100000352E+00 0. -1.
</event>
<event>
 5   0  0.1302063E-05  0.2763855E+04  0.7818609E-02  0.8314578E-01
       -2   -1    0    0    0  501  0.00000000000E+00  0.00000000000E+00  0.75039647275E+03  0.75039647275E+03  0.25500000920E-02 0.  1.
        2   -1    0    0  501    0  0.00000000000E+00  0.00000000000E+00 -0.25449534394E+04  0.25449534394E+04  0.25500000920E-02 0. -1.
    10030    2    1    2    0    0  0.00000000000E+00  0.00000000000E+00 -0.17945569666E+04  0.32953499121E+04  0.27638553394E+04 0.  0.
        2    1    3    3  502    0  0.13380031978E+04  0.17468366316E+03 -0.12528906783E+04  0.18413315810E+04  0.25500000920E-02 0. -1.
       -2    1    3    3    0  502 -0.13380031978E+04 -0.17468366316E+03 -0.54166628833E+03  0.14540183311E+04  0.25500000920E-02 0.  1.
</event>
<event>
 5   0  0.4447500E-06  0.2788206E+04  0.7818609E-02  0.8306939E-01
       -3   -1    0    0    0  501  0.00000000000E+00  0.00000000000E+00  0.16201237021E+04  0.16201237052E+04  0.10100000352E+00 0.  1.
        3   -1    0    0  501    0  0.00000000000E+00  0.00000000000E+00 -0.11996144335E+04  0.11996144378E+04  0.10100000352E+00 0. -1.
    10030    2    1    2    0    0  0.00000000000E+00  0.00000000000E+00  0.42050926855E+03  0.28197381430E+04  0.27882064396E+04 0.  0.
        2    1    3    3  502    0 -0.30062750226E+03  0.17588676735E+03  0.15754133744E+04  0.16134560268E+04  0.25500000920E-02 0.  1.
       -2    1    3    3    0  502  0.30062750226E+03 -0.17588676735E+03 -0.11549041059E+04  0.12062821162E+04  0.25500000920E-02 0. -1.
</event>
<event>
 5   0  0.5281919E-06  0.2813421E+04  0.7818609E-02  0.8299114E-01
        1   -1    0    0  501    0  0.00000000000E+00  0.00000000000E+00  0.15653472066E+04  0.15653472066E+04  0.50400001928E-02 0.  1.
       -1   -1    0    0    0  501  0.00000000000E+00  0.00000000000E+00 -0.12641501370E+04  0.12641501370E+04  0.50400001928E-02 0. -1.
    10030    2    1    2    0    0  0.00000000000E+00  0.00000000000E+00  0.30119706960E+03  0.28294973437E+04  0.28134206125E+04 0.  0.
        4    1    3    3  502    0  0.52089447134E+03  0.13015363399E+04  0.33726144707E+02  0.14023077266E+04  0.12699999809E+01 0. -1.
       -4    1    3    3    0  502 -0.52089447134E+03 -0.13015363399E+04  0.26747092490E+03  0.14271896170E+04  0.12699999809E+01 0.  1.
</event>
<event>
 5   0  0.1302063E-05  0.2774534E+04  0.7818609E-02  0.8311218E-01
       -2   -1    0    0    0  501  0.00000000000E+00  0.00000000000E+00  0.11835758040E+04  0.11835758040E+04  0.25500000920E-02 0. -1.
        2   -1    0    0  501    0  0.00000000000E+00  0.00000000000E+00 -0.16260133289E+04  0.16260133289E+04  0.25500000920E-02 0.  1.
    10030    2    1    2    0    0  0.00000000000E+00  0.00000000000E+00 -0.44243752487E+03  0.28095891329E+04  0.27745342190E+04 0.  0.
        2    1    3    3  502    0 -0.12209587436E+03 -0.51465103578E+03 -0.15198951747E+04  0.16093024679E+04  0.25500000920E-02 0.  1.
       -2    1    3    3    0  502  0.12209587436E+03  0.51465103578E+03  0.10774576498E+04  0.12002866650E+04  0.25500000920E-02 0. -1.
</event>
<event>
 5   0  0.5023691E-06  0.2781365E+04  0.7818609E-02  0.8309077E-01
       -1   -1    0    0    0  501  0.00000000000E+00  0.00000000000E+00  0.23415116238E+04  0.23415116238E+04  0.50400001928E-02 0.  1.
        1   -1    0    0  501    0  0.00000000000E+00  0.00000000000E+00 -0.82596152035E+03  0.82596152037E+03  0.50400001928E-02 0. -1.
    10030    2    1    2    0    0  0.00000000000E+00  0.00000000000E+00  0.15155501035E+04  0.31674731442E+04  0.27813654925E+04 0.  0.
        5    1    3    3  502    0  0.11770620276E+04  0.41681622735E+03  0.14549387330E+04  0.19173105098E+04  0.46999998093E+01 0. -1.
       -5    1    3    3    0  502 -0.11770620276E+04 -0.41681622735E+03  0.60611370473E+02  0.12501626344E+04  0.46999998093E+01 0.  1.
</event>
<event>
 5   0  0.5023691E-06  0.2765835E+04  0.7818609E-02  0.8313954E-01
        1   -1    0    0  501    0  0.00000000000E+00  0.00000000000E+00  0.18452335583E+04  0.18452335583E+04  0.50400001928E-02 0. -1.
       -1   -1    0    0    0  501  0.00000000000E+00  0.00000000000E+00 -0.10364329054E+04  0.10364329054E+04  0.50400001928E-02 0.  1.
    10030    2    1    2    0    0  0.00000000000E+00  0.00000000000E+00  0.80880065291E+03  0.28816664637E+04  0.27658349755E+04 0.  0.
        5    1    3    3  502    0  0.11878789040E+04  0.39713592450E+03 -0.20638048922E+03  0.12694046752E+04  0.46999998093E+01 0.  1.
       -5    1    3    3    0  502 -0.11878789040E+04 -0.39713592450E+03  0.10151811421E+04  0.16122617885E+04  0.46999998093E+01 0. -1.
</event>
<event>
 5   0  0.4764214E-06  0.2777707E+04  0.7818609E-02  0.8310223E-01
        1   -1    0    0  501    0  0.00000000000E+00  0.00000000000E+00  0.10013897336E+04  0.10013897336E+04  0.50400001928E-02 0.  1.
       -1   -1    0    0    0  501  0.00000000000E+00  0.00000000000E+00 -0.19262370750E+04  0.19262370750E+04  0.50400001928E-02 0. -1.
    10030    2    1    2    0    0  0.00000000000E+00  0.00000000000E+00 -0.92484734138E+03  0.29276268087E+04  0.27777069907E+04 0.  0.
        3    1    3    3  502    0  0.96405253737E+03 -0.49678778034E+03  0.45199611708E+03  0.11749450598E+04  0.10100000352E+00 0.  1.
       -3    1    3    3    0  502 -0.96405253737E+03  0.49678778034E+03 -0.13768434585E+04  0.17526817489E+04  0.10100000352E+00 0. -1.
</event>
<event>
 5   0  0.5107453E-06  0.2768628E+04  0.7818609E-02  0.8313075E-01
        1   -1    0    0  501    0  0.00000000000E+00  0.00000000000E+00  0.15810765540E+04  0.15810765540E+04  0.50400001928E-02 0.  1.
       -1   -1    0    0    0  501  0.00000000000E+00  0.00000000000E+00 -0.12120384448E+04  0.12120384448E+04  0.50400001928E-02 0. -1.
    10030    2    1    2    0    0  0.00000000000E+00  0.00000000000E+00  0.36903810926E+03  0.27931149988E+04  0.27686282290E+04 0.  0.
        2    1    3    3  502    0 -0.75443563236E+03 -0.70240590286E+03 -0.74765444812E+03  0.12733948129E+04  0.25500000920E-02 0. -1.
       -2    1    3    3    0  502  0.75443563236E+03  0.70240590286E+03  0.11166925574E+04  0.15197201859E+04  0.25500000920E-02 0.  1.
</event>
<event>
 5   0  0.1283052E-05  0.2852112E+04  0.7818609E-02  0.8287270E-01
        2   -1    0    0  501    0  0.00000000000E+00  0.00000000000E+00  0.13399037325E+04  0.13399037325E+04  0.25500000920E-02 0. -1.
       -2   -1    0    0    0  501  0.00000000000E+00  0.00000000000E+00 -0.15177471743E+04  0.15177471743E+04  0.25500000920E-02 0.  1.
    10030    2    1    2    0    0  0.00000000000E+00  0.00000000000E+00 -0.17784344179E+03  0.28576509068E+04  0.28521115713E+04 0.  0.
        5    1    3    3  502    0  0.34899952840E+03  0.51920376780E+03 -0.13729096727E+04  0.15087333372E+04  0.46999998093E+01 0.  1.
       -5    1    3    3    0  502 -0.34899952840E+03 -0.51920376780E+03  0.11950662309E+04  0.13489175696E+04  0.46999998093E+01 0. -1.
</event>
<event>
 5   0  0.5281919E-06  0.2803146E+04  0.7818609E-02  0.8302292E-01
        1   -1    0    0  501    0  0.00000000000E+00  0.00000000000E+00  0.12499547755E+04  0.12499547755E+04  0.50400001928E-02 0. -1.
       -1   -1    0    0    0  501  0.00000000000E+00  0.00000000000E+00 -0.15715822530E+04  0.15715822530E+04  0.50400001928E-02 0.  1.
    10030    2    1    2    0    0  0.00000000000E+00  0.00000000000E+00 -0.32162747751E+03  0.28215370284E+04  0.28031459057E+04 0.  0.
        4    1    3    3  502    0  0.13623792051E+04 -0.20263986743E+03 -0.42187052929E+03  0.14405264214E+04  0.12699999809E+01 0.  1.
       -4    1    3    3    0  502 -0.13623792051E+04  0.20263986743E+03  0.10024305178E+03  0.13810106070E+04  0.12699999809E+01 0. -1.
</event>
<event>
 5   0  0.5023691E-06  0.2736651E+04  0.7818609E-02  0.8323210E-01
       -1   -1    0    0    0  501  0.00000000000E+00  0.00000000000E+00  0.11373666050E+04  0.11373666050E+04  0.50400001928E-02 0. -1.
        1   -1    0    0  501    0  0.00000000000E+00  0.00000000000E+00 -0.16461842779E+04  0.16461842779E+04  0.50400001928E-02 0.  1.
    10030    2    1    2    0    0  0.00000000000E+00  0.00000000000E+00 -0.50881767286E+03  0.27835508829E+04  0.27366512554E+04 0.  0.
        5    1    3    3  502    0 -0.63283353825E+03 -0.12125516370E+04 -0.29423563529E+03  0.13990555595E+04  0.46999998093E+01 0. -1.
       -5    1    3    3    0  502  0.63283353825E+03  0.12125516370E+04 -0.21458203757E+03  0.13844953234E+04  0.46999998093E+01 0.  1.
</event>
<event>
 5   0  0.1302063E-05  0.2803671E+04  0.7818609E-02  0.8302129E-01
       -2   -1    0    0    0  501  0.00000000000E+00  0.00000000000E+00  0.94643438059E+03  0.94643438059E+03  0.25500000920E-02 0.  1.
        2   -1    0    0  501    0  0.00000000000E+00  0.00000000000E+00 -0.20763650455E+04  0.20763650455E+04  0.25500000920E-02 0. -1.
    10030    2    1    2    0    0  0.00000000000E+00  0.00000000000E+00 -0.11299306649E+04  0.30227994261E+04  0.28036713543E+04 0.  0.
        2    1    3    3  502    0  0.81224786496E+03 -0.11307243863E+04 -0.38826904712E+03  0.14453501600E+04  0.25500000920E-02 0.  1.
       -2    1    3    3    0  502 -0.81224786496E+03  0.11307243863E+04 -0.74166161777E+03  0.15774492661E+04  0.25500000920E-02 0. -1.
</event>
<event>
 5   0  0.5107453E-06  0.2822059E+04  0.7818609E-02  0.8296453E-01
       -1   -1    0    0    0  501  0.00000000000E+00  0.00000000000E+00  0.13636019430E+04  0.13636019430E+04  0.50400001928E-02 0. -1.
        1   -1    0    0  501    0  0.00000000000E+00  0.00000000000E+00 -0.14601061884E+04  0.14601061884E+04  0.50400001928E-02 0.  1.
    10030    2    1    2    0    0  0.00000000000E+00  0.00000000000E+00 -0.96504245404E+02  0.28237081314E+04  0.28220585646E+04 0.  0.
        2    1    3    3  502    0  0.52499748489E+03 -0.12021312372E+04  0.47191881787E+03  0.13940764833E+04  0.25500000920E-02 0. -1.
       -2    1    3    3    0  502 -0.52499748489E+03  0.12021312372E+04 -0.56842306327E+03  0.14296316481E+04  0.25500000920E-02 0.  1.
</event>
<event>
 5   0  0.1283052E-05  0.2819399E+04  0.7818609E-02  0.8297271E-01
       -2   -1    0    0    0  501  0.00000000000E+00  0.00000000000E+00  0.11475863640E+04  0.11475863640E+04  0.25500000920E-02 0. -1.
        2   -1    0    0  501    0  0.00000000000E+00  0.00000000000E+00 -0.17316799396E+04  0.17316799396E+04  0.25500000920E-02 0.  1.
    10030    2    1    2    0    0  0.00000000000E+00  0.00000000000E+00 -0.58409357556E+03  0.28792663036E+04  0.28193987199E+04 0.  0.
        5    1    3    3  502    0  0.11151286504E+04  0.72666873235E+03 -0.76631176340E+03  0.15358434693E+04  0.46999998093E+01 0. -1.
       -5    1    3    3    0  502 -0.11151286504E+04 -0.72666873235E+03  0.18221818784E+03  0.13434228342E+04  0.46999998093E+01 0.  1.
</event>
<event>
 5   0  0.5217999E-06  0.2758322E+04  0.7818609E-02  0.8316326E-01
       -1   -1    0    0    0  501  0.00000000000E+00  0.00000000000E+00  0.16501422439E+04  0.16501422439E+04  0.50400001928E-02 0. -1.
        1   -1    0    0  501    0  0.00000000000E+00  0.00000000000E+00 -0.11526794550E+04  0.11526794550E+04  0.50400001928E-02 0.  1.
    10030    2    1    2    0    0  0.00000000000E+00  0.00000000000E+00  0.49746278893E+03  0.28028216990E+04  0.27583219989E+04 0.  0.
        1    1    3    3  502    0 -0.90737820367E+02 -0.68398948570E+03 -0.96469044646E+03  0.11860449511E+04  0.50400001928E-02 0.  1.
       -1    1    3    3    0  502  0.90737820367E+02  0.68398948570E+03  0.14621532354E+04  0.16167767478E+04  0.50400001928E-02 0. -1.
</event>
<event>
 5   0  0.1350863E-05  0.2803775E+04  0.7818609E-02  0.8302097E-01
       -2   -1    0    0    0  501  0.00000000000E+00  0.00000000000E+00  0.15912256673E+04  0.15912256673E+04  0.25500000920E-02 0. -1.
        2   -1    0    0  501    0  0.00000000000E+00  0.00000000000E+00 -0.12350780890E+04  0.12350780890E+04  0.25500000920E-02 0.  1.
    10030    2    1    2    0    0  0.00000000000E+00  0.00000000000E+00  0.35614757829E+03  0.28263037562E+04  0.28037745674E+04 0.  0.
        3    1    3    3  502    0  0.90179097024E+03  0.10474661671E+04  0.41421156411E+03  0.14429080204E+04  0.10100000352E+00 0. -1.
       -3    1    3    3    0  502 -0.90179097024E+03 -0.10474661671E+04 -0.58063985815E+02  0.13833957358E+04  0.10100000352E+00 0.  1.
</event>
<event>
 5   0  0.1283052E-05  0.2808807E+04  0.7818609E-02  0.8300539E-01
       -2   -1    0    0    0  501  0.00000000000E+00  0.00000000000E+00  0.96318620617E+03  0.96318620617E+03  0.25500000920E-02 0. -1.
        2   -1    0    0  501    0  0.00000000000E+00  0.00000000000E+00 -0.20477337089E+04  0.20477337089E+04  0.25500000920E-02 0.  1.
    10030    2    1    2    0    0  0.00000000000E+00  0.00000000000E+00 -0.10845475028E+04  0.30109199151E+04  0.28088067661E+04 0.  0.
        5    1    3    3  502    0 -0.28662656498E+03 -0.11610875427E+04  0.24694263833E+03  0.12211805052E+04  0.46999998093E+01 0. -1.
       -5    1    3    3    0  502  0.28662656498E+03  0.11610875427E+04 -0.13314901411E+04  0.17897394099E+04  0.46999998093E+01 0.  1.
</event>
<event>
 5   0  0.5217999E-06  0.2809324E+04  0.7818609E-02  0.8300379E-01
        1   -1    0    0  501    0  0.00000000000E+00  0.00000000000E+00  0.20679737516E+04  0.20679737516E+04  0.50400001928E-02 0. -1.
       -1   -1    0    0    0  501  0.00000000000E+00  0.00000000000E+00 -0.95411043122E+03  0.95411043123E+03  0.50400001928E-02 0.  1.
    10030    2    1    2    0    0  0.00000000000E+00  0.00000000000E+00  0.11138633204E+04  0.30220841829E+04  0.28093239955E+04 0.  0.
        1    1    3    3  502    0 -0.14282961810E+03 -0.85153515985E+03  0.17487953971E+04  0.19503327330E+04  0.50400001928E-02 0. -1.
       -1    1    3    3    0  502  0.14282961810E+03  0.85153515985E+03 -0.63493207671E+03  0.10717514499E+04  0.50400001928E-02 0.  1.
</event>
<event>
 5   0  0.1302063E-05  0.2844699E+04  0.7818609E-02  0.8289524E-01
        2   -1    0    0  501    0  0.00000000000E+00  0.00000000000E+00  0.28701593154E+04  0.28701593154E+04  0.25500000920E-02 0. -1.
       -2   -1    0    0    0  501  0.00000000000E+00  0.00000000000E+00 -0.70486602993E+03  0.70486602993E+03  0.25500000920E-02 0.  1.
    10030    2    1    2    0    0  0.00000000000E+00  0.00000000000E+00  0.21652932855E+04  0.35750253454E+04  0.28446987903E+04 0.  0.
        2    1    3    3  502    0 -0.85440680262E+03  0.37781406767E+03  0.24305315313E+04  0.26038890104E+04  0.25500000920E-02 0. -1.
       -2    1    3    3    0  502  0.85440680262E+03 -0.37781406767E+03 -0.26523824574E+03  0.97113633497E+03  0.25500000920E-02 0.  1.
</event>
<event>
 5   0  0.1283052E-05  0.2819399E+04  0.7818609E-02  0.8297271E-01
        2   -1    0    0  501    0  0.00000000000E+00  0.00000000000E+00  0.95595793122E+03  0.95595793123E+03  0.25500000920E-02 0. -1.
       -2   -1    0    0    0  501  0.00000000000E+00  0.00000000000E+00 -0.20788083171E+04  0.20788083171E+04  0.25500000920E-02 0.  1.
    10030    2    1    2    0    0  0.00000000000E+00  0.00000000000E+00 -0.11228503859E+04  0.30347662484E+04  0.28193994384E+04 0.  0.
        5    1    3    3  502    0 -0.40911626204E+03  0.13297474670E+04 -0.31685355118E+03  0.14268926745E+04  0.46999998093E+01 0. -1.
       -5    1    3    3    0  502  0.40911626204E+03 -0.13297474670E+04 -0.80599683472E+03  0.16078735738E+04  0.46999998093E+01 0.  1.
</event>
<event>
 5   0  0.5107453E-06  0.2958290E+04  0.7818609E-02  0.8255743E-01
        1   -1    0    0  501    0  0.00000000000E+00  0.00000000000E+00  0.25354683315E+04  0.25354683315E+04  0.50400001928E-02 0. -1.
       -1   -1    0    0    0  501  0.00000000000E+00  0.00000000000E+00 -0.86290537258E+03  0.86290537260E+03  0.50400001928E-02 0.  1.
    10030    2    1    2    0    0  0.00000000000E+00  0.00000000000E+00  0.16725629589E+04  0.33983737041E+04  0.29582895364E+04 0.  0.
        2    1    3    3  502    0  0.12414888320E+03  0.36919338944E+03  0.24754953208E+04  0.25059516729E+04  0.25500000920E-02 0. -1.
       -2    1    3    3    0  502 -0.12414888320E+03 -0.36919338944E+03 -0.80293236184E+03  0.89242203116E+03  0.25500000920E-02 0.  1.
</event>
<event>
 5   0  0.1283052E-05  0.2771121E+04  0.7818609E-02  0.8312291E-01
       -2   -1    0    0    0  501  0.00000000000E+00  0.00000000000E+00  0.11541842789E+04  0.11541842789E+04  0.25500000920E-02 0.  1.
        2   -1    0    0  501    0  0.00000000000E+00  0.00000000000E+00 -0.16633201440E+04  0.16633201440E+04  0.25500000920E-02 0. -1.
    10030    2    1    2    0    0  0.00000000000E+00  0.00000000000E+00 -0.50913586505E+03  0.28175044229E+04  0.27711210446E+04 0.  0.
        5    1    3    3  502    0 -0.55966280522E+02  0.73281969905E+03 -0.14487912186E+04  0.16245537914E+04  0.46999998093E+01 0. -1.
       -5    1    3    3    0  502  0.55966280522E+02 -0.73281969905E+03  0.93965535356E+03  0.11929506316E+04  0.46999998093E+01 0.  1.
</event>
<event>
 5   0  0.5281919E-06  0.2821935E+04  0.7818609E-02  0.8296491E-01
        1   -1    0    0  501    0  0.00000000000E+00  0.00000000000E+00  0.17431732858E+04  0.17431732858E+04  0.50400001928E-02 0.  1.
       -1   -1    0    0    0  501  0.00000000000E+00  0.00000000000E+00 -0.11420716419E+04  0.11420716419E+04  0.50400001928E-02 0. -1.
    10030    2    1    2    0    0  0.00000000000E+00  0.00000000000E+00  0.60110164383E+03  0.28852449277E+04  0.28219346390E+04 0.  0.
        4    1    3    3  502    0  0.12844660538E+04  0.10773713676E+03  0.88733131204E+03  0.15648702196E+04  0.12699999809E+01 0.  1.
       -4    1    3    3    0  502 -0.12844660538E+04 -0.10773713676E+03 -0.28622966821E+03  0.13203747081E+04  0.12699999809E+01 0. -1.
</event>
<event>
 5   0  0.5023691E-06  0.2791525E+04  0.7818609E-02  0.8305904E-01
       -1   -1    0    0    0  501  0.00000000000E+00  0.00000000000E+00  0.21180418658E+04  0.21180418658E+04  0.50400001928E-02 0. -1.
        1   -1    0    0  501    0  0.00000000000E+00  0.00000000000E+00 -0.91978985451E+03  0.91978985452E+03  0.50400001928E-02 0.  1.
    10030    2    1    2    0    0  0.00000000000E+00  0.00000000000E+00  0.11982520112E+04  0.30378317203E+04  0.27915253318E+04 0.  0.
        5    1    3    3  502    0  0.10200176286E+04 -0.50117373076E+01  0.16359050004E+04  0.19278662663E+04  0.46999998093E+01 0. -1.
       -5    1    3    3    0  502 -0.10200176286E+04  0.50117373076E+01 -0.43765298918E+03  0.11099654540E+04  0.46999998093E+01 0.  1.
</event>
<event>
 5   0  0.5023691E-06  0.2767181E+04  0.7818609E-02  0.8313531E-01
        1   -1    0    0  501    0  0.00000000000E+00  0.00000000000E+00  0.19644316124E+04  0.19644316124E+04  0.50400001928E-02 0.  1.
       -1   -1    0    0    0  501  0.00000000000E+00  0.00000000000E+00 -0.97449155333E+03  0.97449155334E+03  0.50400001928E-02 0. -1.
    10030    2    1    2    0    0  0.00000000000E+00  0.00000000000E+00  0.98994005911E+03  0.29389231658E+04  0.27671805242E+04 0.  0.
        5    1    3    3  502    0  0.16310562347E+03 -0.46545075086E+03 -0.87795155256E+03  0.10070098632E+04  0.46999998093E+01 0. -1.
       -5    1    3    3    0  502 -0.16310562347E+03  0.46545075086E+03  0.18678916117E+04  0.19319133026E+04  0.46999998093E+01 0.  1.
</event>
<event>
 5   0  0.4447500E-06  0.2765073E+04  0.7818609E-02  0.8314194E-01
       -3   -1    0    0    0  501  0.00000000000E+00  0.00000000000E+00  0.10380010424E+04  0.10380010473E+04  0.10100000352E+00 0. -1.
        3   -1    0    0  501    0  0.00000000000E+00  0.00000000000E+00 -0.18414311428E+04  0.18414311456E+04  0.10100000352E+00 0.  1.
    10030    2    1    2    0    0  0.00000000000E+00  0.00000000000E+00 -0.80343010042E+03  0.28794321929E+04  0.27650732047E+04 0.  0.
        4    1    3    3  502    0  0.84015348738E+03 -0.10269639422E+04 -0.80623020969E+03  0.15525854517E+04  0.12699999809E+01 0.  1.
       -4    1    3    3    0  502 -0.84015348738E+03  0.10269639422E+04  0.28001092729E+01  0.13268467412E+04  0.12699999809E+01 0. -1.
</event>
<event>
 5   0  0.1350863E-05  0.2793326E+04  0.7818609E-02  0.8305343E-01
        2   -1    0    0  501    0  0.00000000000E+00  0.00000000000E+00  0.10913546906E+04  0.10913546906E+04  0.25500000920E-02 0.  1.
       -2   -1    0    0    0  501  0.00000000000E+00  0.00000000000E+00 -0.17873823564E+04  0.17873823564E+04  0.25500000920E-02 0. -1.
    10030    2    1    2    0    0  0.00000000000E+00  0.00000000000E+00 -0.69602766575E+03  0.28787370470E+04  0.27933264174E+04 0.  0.
        3    1    3    3  502    0  0.46697802976E+03 -0.20797847248E+03  0.99147602604E+03  0.11155035839E+04  0.10100000352E+00 0.  1.
       -3    1    3    3    0  502 -0.46697802976E+03  0.20797847248E+03 -0.16875036918E+04  0.17632334631E+04  0.10100000352E+00 0. -1.
</event>
<event>
 5   0  0.5023691E-06  0.2782346E+04  0.7818609E-02  0.8308770E-01
        1   -1    0    0  501    0  0.00000000000E+00  0.00000000000E+00  0.18754937873E+04  0.18754937873E+04  0.50400001928E-02 0.  1.
       -1   -1    0    0    0  501  0.00000000000E+00  0.00000000000E+00 -0.10319215917E+04  0.10319215917E+04  0.50400001928E-02 0. -1.
    10030    2    1    2    0    0  0.00000000000E+00  0.00000000000E+00  0.84357219561E+03  0.29074153790E+04  0.27823461569E+04 0.  0.
        5    1    3    3  502    0 -0.58139339290E+03 -0.11171522402E+04 -0.19579058213E+03  0.12745208696E+04  0.46999998093E+01 0. -1.
       -5    1    3    3    0  502  0.58139339290E+03  0.11171522402E+04  0.10393627777E+04  0.16328945094E+04  0.46999998093E+01 0.  1.
</event>
<event>
 5   0  0.5023691E-06  0.2806539E+04  0.7818609E-02  0.8301241E-01
       -1   -1    0    0    0  501  0.00000000000E+00  0.00000000000E+00  0.10521541579E+04  0.10521541579E+04  0.50400001928E-02 0.  1.
        1   -1    0    0  501    0  0.00000000000E+00  0.00000000000E+00 -0.18715556267E+04  0.18715556267E+04  0.50400001928E-02 0. -1.
    10030    2    1    2    0    0  0.00000000000E+00  0.00000000000E+00 -0.81940146873E+03  0.29237097846E+04  0.28065388181E+04 0.  0.
        5    1    3    3  502    0 -0.91119366988E+02  0.37974784966E+03  0.99439480921E+03  0.10683418437E+04  0.46999998093E+01 0.  1.
       -5    1    3    3    0  502  0.91119366988E+02 -0.37974784966E+03 -0.18137962779E+04  0.18553679409E+04  0.46999998093E+01 0. -1.
</event>
<event>
 5   0  0.1350863E-05  0.2797068E+04  0.7818609E-02  0.8304179E-01
        2   -1    0    0  501    0  0.00000000000E+00  0.00000000000E+00  0.80741348745E+03  0.80741348746E+03  0.25500000920E-02 0.  1.
       -2   -1    0    0    0  501  0.00000000000E+00  0.00000000000E+00 -0.24224236178E+04  0.24224236179E+04  0.25500000920E-02 0. -1.
    10030    2    1    2    0    0  0.00000000000E+00  0.00000000000E+00 -0.16150101304E+04  0.32298371053E+04  0.27970681089E+04 0.  0.
        3    1    3    3  502    0  0.38798702744E+03  0.87245796661E+03  0.37244981076E+03  0.10249076586E+04  0.10100000352E+00 0.  1.
       -3    1    3    3    0  502 -0.38798702744E+03 -0.87245796661E+03 -0.19874599412E+04  0.22049294467E+04  0.10100000352E+00 0. -1.
</event>
<event>
 5   0  0.1388269E-05  0.2806292E+04  0.7818609E-02  0.8301318E-01
       -2   -1    0    0    0  501  0.00000000000E+00  0.00000000000E+00  0.18213985287E+04  0.18213985287E+04  0.25500000920E-02 0.  1.
        2   -1    0    0  501    0  0.00000000000E+00  0.00000000000E+00 -0.10809378043E+04  0.10809378043E+04  0.25500000920E-02 0. -1.
    10030    2    1    2    0    0  0.00000000000E+00  0.00000000000E+00  0.74046072436E+03  0.29023363331E+04  0.28062918782E+04 0.  0.
        1    1    3    3  502    0 -0.10101200342E+04  0.91732266934E+03  0.70852644738E+03  0.15374762079E+04  0.50400001928E-02 0. -1.
       -1    1    3    3    0  502  0.10101200342E+04 -0.91732266934E+03  0.31934276983E+02  0.13648601252E+04  0.50400001928E-02 0.  1.
</event>
<event>
 5   0  0.1330962E-05  0.2813768E+04  0.7818609E-02  0.8299007E-01
        2   -1    0    0  501    0  0.00000000000E+00  0.00000000000E+00  0.29666311794E+04  0.29666311794E+04  0.25500000920E-02 0.  1.
       -2   -1    0    0    0  501  0.00000000000E+00  0.00000000000E+00 -0.66719530262E+03  0.66719530263E+03  0.25500000920E-02 0. -1.
    10030    2    1    2    0    0  0.00000000000E+00  0.00000000000E+00  0.22994358768E+04  0.36338264820E+04  0.28137678565E+04 0.  0.
        4    1    3    3  502    0  0.70932124598E+03 -0.89085675076E+03  0.22166722617E+04  0.24920673966E+04  0.12699999809E+01 0.  1.
       -4    1    3    3    0  502 -0.70932124598E+03  0.89085675076E+03  0.82763615099E+02  0.11417590855E+04  0.12699999809E+01 0. -1.
</event>
<event>
 5   0  0.5107453E-06  0.2845576E+04  0.7818609E-02  0.8289257E-01
        1   -1    0    0  501    0  0.00000000000E+00  0.00000000000E+00  0.21630574807E+04  0.21630574807E+04  0.50400001928E-02 0. -1.
       -1   -1    0    0    0  501  0.00000000000E+00  0.00000000000E+00 -0.93586294242E+03  0.93586294244E+03  0.50400001928E-02 0.  1.
    10030    2    1    2    0    0  0.00000000000E+00  0.00000000000E+00  0.12271945383E+04  0.30989204231E+04  0.28455757509E+04 0.  0.
        2    1    3    3  502    0  0.13741204555E+04  0.12844014453E+03  0.23694135705E+03  0.14003017902E+04  0.25500000920E-02 0.  1.
       -2    1    3    3    0  502 -0.13741204555E+04 -0.12844014453E+03  0.99025318120E+03  0.16986186329E+04  0.25500000920E-02 0. -1.
</event>
<event>
 5   0  0.1283052E-05  0.2793847E+04  0.7818609E-02  0.8305181E-01
       -2   -1    0    0    0  501  0.00000000000E+00  0.00000000000E+00  0.12240365378E+04  0.12240365378E+04  0.25500000920E-02 0. -1.
        2   -1    0    0  501    0  0.00000000000E+00  0.00000000000E+00 -0.15942295838E+04  0.15942295838E+04  0.25500000920E-02 0.  1.
    10030    2    1    2    0    0  0.00000000000E+00  0.00000000000E+00 -0.37019304602E+03  0.28182661217E+04  0.27938469968E+04 0.  0.
        5    1    3    3  502    0  0.37456815121E+03 -0.58351394944E+03 -0.14083718111E+04  0.15698162559E+04  0.46999998093E+01 0.  1.
       -5    1    3    3    0  502 -0.37456815121E+03  0.58351394944E+03  0.10381787651E+04  0.12484498658E+04  0.46999998093E+01 0. -1.
</event>
<event>
 5   0  0.5281919E-06  0.2787882E+04  0.7818609E-02  0.8307040E-01
        1   -1    0    0  501    0  0.00000000000E+00  0.00000000000E+00  0.12544042055E+04  0.12544042055E+04  0.50400001928E-02 0.  1.
       -1   -1    0    0    0  501  0.00000000000E+00  0.00000000000E+00 -0.15489992329E+04  0.15489992329E+04  0.50400001928E-02 0. -1.
    10030    2    1    2    0    0  0.00000000000E+00  0.00000000000E+00 -0.29459502744E+03  0.28034034385E+04  0.27878817422E+04 0.  0.
        4    1    3    3  502    0 -0.13759565710E+04  0.21207093319E+03 -0.21724753665E+03  0.14090524018E+04  0.12699999809E+01 0. -1.
       -4    1    3    3    0  502  0.13759565710E+04 -0.21207093319E+03 -0.77347490789E+02  0.13943510366E+04  0.12699999809E+01 0.  1.
</event>
<event>
 5   0  0.1388269E-05  0.2772890E+04  0.7818609E-02  0.8311735E-01
       -2   -1    0    0    0  501  0.00000000000E+00  0.00000000000E+00  0.88714018585E+03  0.88714018586E+03  0.25500000920E-02 0.  1.
        2   -1    0    0  501    0  0.00000000000E+00  0.00000000000E+00 -0.21667716271E+04  0.21667716271E+04  0.25500000920E-02 0. -1.
    10030    2    1    2    0    0  0.00000000000E+00  0.00000000000E+00 -0.12796314413E+04  0.30539118130E+04  0.27728903217E+04 0.  0.
        1    1    3    3  502    0 -0.98549919858E+03 -0.94221317040E+03 -0.36281929470E+03  0.14108905590E+04  0.50400001928E-02 0. -1.
       -1    1    3    3    0  502  0.98549919858E+03  0.94221317040E+03 -0.91681214656E+03  0.16430212540E+04  0.50400001928E-02 0.  1.
</event>
<event>
 5   0  0.1283052E-05  0.2794832E+04  0.7818609E-02  0.8304875E-01
        2   -1    0    0  501    0  0.00000000000E+00  0.00000000000E+00  0.13066571223E+04  0.13066571223E+04  0.25500000920E-02 0. -1.
       -2   -1    0    0    0  501  0.00000000000E+00  0.00000000000E+00 -0.14944792073E+04  0.14944792073E+04  0.25500000920E-02 0.  1.
    10030    2    1    2    0    0  0.00000000000E+00  0.00000000000E+00 -0.18782208497E+03  0.28011363297E+04  0.27948323030E+04 0.  0.
        5    1    3    3  502    0 -0.28121984142E+02 -0.48865907882E+03  0.12179229589E+04  0.13126069347E+04  0.46999998093E+01 0. -1.
       -5    1    3    3    0  502  0.28121984142E+02  0.48865907882E+03 -0.14057450439E+04  0.14885293949E+04  0.46999998093E+01 0.  1.
</event>
<event>
 5   0  0.1302063E-05  0.2896780E+04  0.7818609E-02  0.8273836E-01
        2   -1    0    0  501    0  0.00000000000E+00  0.00000000000E+00  0.21154585792E+04  0.21154585792E+04  0.25500000920E-02 0.  1.
       -2   -1    0    0    0  501  0.00000000000E+00  0.00000000000E+00 -0.99166881920E+03  0.99166881920E+03  0.25500000920E-02 0. -1.
    10030    2    1    2    0    0  0.00000000000E+00  0.00000000000E+00  0.11237897600E+04  0.31071273984E+04  0.28967804966E+04 0.  0.
        2    1    3    3  502    0 -0.11313340308E+04 -0.10088841906E+03 -0.40210957073E+03  0.12049013525E+04  0.25500000920E-02 0. -1.
       -2    1    3    3    0  502  0.11313340308E+04  0.10088841906E+03  0.15258993307E+04  0.19022260459E+04  0.25500000920E-02 0.  1.
</event>
<event>
 5   0  0.5217999E-06  0.2799159E+04  0.7818609E-02  0.8303530E-01
        1   -1    0    0  501    0  0.00000000000E+00  0.00000000000E+00  0.15306974509E+04  0.15306974509E+04  0.50400001928E-02 0. -1.
       -1   -1    0    0    0  501  0.00000000000E+00  0.00000000000E+00 -0.12796927997E+04  0.12796927997E+04  0.50400001928E-02 0.  1.
    10030    2    1    2    0    0  0.00000000000E+00  0.00000000000E+00  0.25100465123E+03  0.28103902506E+04  0.27991588068E+04 0.  0.
        1    1    3    3  502    0  0.54153388931E+03  0.41513829456E+03 -0.11013761188E+04  0.12956188143E+04  0.50400001928E-02 0.  1.
       -1    1    3    3    0  502 -0.54153388931E+03 -0.41513829456E+03  0.13523807701E+04  0.15147714363E+04  0.50400001928E-02 0. -1.
</event>
<event>
 5   0  0.5281919E-06  0.2633465E+04  0.7818609E-02  0.8356922E-01
       -1   -1    0    0    0  501  0.00000000000E+00  0.00000000000E+00  0.80090146710E+03  0.80090146711E+03  0.50400001928E-02 0. -1.
        1   -1    0    0  501    0  0.00000000000E+00  0.00000000000E+00 -0.21647906369E+04  0.21647906369E+04  0.50400001928E-02 0.  1.
    10030    2    1    2    0    0  0.00000000000E+00  0.00000000000E+00 -0.13638891698E+04  0.29656921041E+04  0.26334646359E+04 0.  0.
        4    1    3    3  502    0 -0.20881255996E+02 -0.12886240145E+04 -0.37810253780E+03  0.13431124375E+04  0.12699999809E+01 0. -1.
       -4    1    3    3    0  502  0.20881255996E+02  0.12886240145E+04 -0.98578663204E+03  0.16225796666E+04  0.12699999809E+01 0.  1.
</event>
<event>
 5   0  0.1302063E-05  0.2845420E+04  0.7818609E-02  0.8289304E-01
        2   -1    0    0  501    0  0.00000000000E+00  0.00000000000E+00  0.12061608031E+04  0.12061608031E+04  0.25500000920E-02 0.  1.
       -2   -1    0    0    0  501  0.00000000000E+00  0.00000000000E+00 -0.16781375147E+04  0.16781375147E+04  0.25500000920E-02 0. -1.
    10030    2    1    2    0    0  0.00000000000E+00  0.00000000000E+00 -0.47197671157E+03  0.28842983178E+04  0.28454199637E+04 0.  0.
        2    1    3    3  502    0 -0.10136457504E+04 -0.24717793733E+03 -0.12164315628E+04  0.16025855319E+04  0.25500000920E-02 0. -1.
       -2    1    3    3    0  502  0.10136457504E+04  0.24717793733E+03  0.74445485128E+03  0.12817127859E+04  0.25500000920E-02 0.  1.
</event>
<event>
 5   0  0.1283052E-05  0.2390827E+04  0.7818609E-02  0.8442946E-01
       -2   -1    0    0    0  501  0.00000000000E+00  0.00000000000E+00  0.15753855414E+04  0.15753855414E+04  0.25500000920E-02 0.  1.
        2   -1    0    0  501    0  0.00000000000E+00  0.00000000000E+00 -0.90708806090E+03  0.90708806090E+03  0.25500000920E-02 0. -1.
    10030    2    1    2    0    0  0.00000000000E+00  0.00000000000E+00  0.66829748054E+03  0.24824736023E+04  0.23908269832E+04 0.  0.
        5    1    3    3  502    0 -0.18109138377E+02  0.38177815114E+01  0.15752271833E+04  0.15753429105E+04  0.46999998093E+01 0.  1.
       -5    1    3    3    0  502  0.18109138377E+02 -0.38177815114E+01 -0.90692970280E+03  0.90713069189E+03  0.46999998093E+01 0. -1.
</event>
<event>
 5   0  0.5281919E-06  0.2849196E+04  0.7818609E-02  0.8288156E-01
       -1   -1    0    0    0  501  0.00000000000E+00  0.00000000000E+00  0.10506254056E+04  0.10506254056E+04  0.50400001928E-02 0. -1.
        1   -1    0    0  501    0  0.00000000000E+00  0.00000000000E+00 -0.19316868785E+04  0.19316868785E+04  0.50400001928E-02 0.  1.
    10030    2    1    2    0    0  0.00000000000E+00  0.00000000000E+00 -0.88106147283E+03  0.29823122841E+04  0.28491958938E+04 0.  0.
        4    1    3    3  502    0 -0.51370897607E+03 -0.12245867000E+04  0.99285153529E+02  0.13316788849E+04  0.12699999809E+01 0. -1.
       -4    1    3    3    0  502  0.51370897607E+03  0.12245867000E+04 -0.98034662636E+03  0.16506333992E+04  0.12699999809E+01 0.  1.
</event>
<event>
 5   0  0.5107453E-06  0.2764932E+04  0.7818609E-02  0.8314239E-01
        1   -1    0    0  501    0  0.00000000000E+00  0.00000000000E+00  0.19505052223E+04  0.19505052223E+04  0.50400001928E-02 0. -1.
       -1   -1    0    0    0  501  0.00000000000E+00  0.00000000000E+00 -0.97985511770E+03  0.97985511772E+03  0.50400001928E-02 0.  1.
    10030    2    1    2    0    0  0.00000000000E+00  0.00000000000E+00  0.97065010458E+03  0.29303603400E+04  0.27649322047E+04 0.  0.
        2    1    3    3  502    0  0.11304977564E+04  0.78540152403E+02  0.13245469729E+04  0.17431633360E+04  0.25500000920E-02 0. -1.
       -2    1    3    3    0  502 -0.11304977564E+04 -0.78540152403E+02 -0.35389686829E+03  0.11871970040E+04  0.25500000920E-02 0.  1.
</event>
<event>
 5   0  0.1330962E-05  0.2789100E+04  0.7818609E-02  0.8306660E-01
        2   -1    0    0  501    0  0.00000000000E+00  0.00000000000E+00  0.17812943001E+04  0.17812943001E+04  0.25500000920E-02 0. -1.
       -2   -1    0    0    0  501  0.00000000000E+00  0.00000000000E+00 -0.10917731183E+04  0.10917731183E+04  0.25500000920E-02 0.  1.
    10030    2    1    2    0    0  0.00000000000E+00  0.00000000000E+00  0.68952118186E+03  0.28730674184E+04  0.27890996630E+04 0.  0.
        4    1    3    3  502    0 -0.10175966433E+04  0.30197644160E+03  0.12764653700E+04  0.16601379923E+04  0.12699999809E+01 0. -1.
       -4    1    3    3    0  502  0.10175966433E+04 -0.30197644160E+03 -0.58694418817E+03  0.12129294261E+04  0.12699999809E+01 0.  1.
</event>
<event>
 5   0  0.5023691E-06  0.2767317E+04  0.7818609E-02  0.8313488E-01
        1   -1    0    0  501    0  0.00000000000E+00  0.00000000000E+00  0.14366814535E+04  0.14366814535E+04  0.50400001928E-02 0.  1.
       -1   -1    0    0    0  501  0.00000000000E+00  0.00000000000E+00 -0.13325924291E+04  0.13325924291E+04  0.50400001928E-02 0. -1.
    10030    2    1    2    0    0  0.00000000000E+00  0.00000000000E+00  0.10408902448E+03  0.27692738826E+04  0.27673169880E+04 0.  0.
        5    1    3    3  502    0 -0.13145473101E+03 -0.59133280492E+03  0.12969233583E+04  0.14314283495E+04  0.46999998093E+01 0.  1.
       -5    1    3    3    0  502  0.13145473101E+03  0.59133280492E+03 -0.11928343338E+04  0.13378455331E+04  0.46999998093E+01 0. -1.
</event>
<event>
 5   0  0.1330962E-05  0.2744802E+04  0.7818609E-02  0.8320613E-01
        2   -1    0    0  501    0  0.00000000000E+00  0.00000000000E+00  0.11778111712E+04  0.11778111712E+04  0.25500000920E-02 0. -1.
       -2   -1    0    0    0  501  0.00000000000E+00  0.00000000000E+00 -0.15991399922E+04  0.15991399922E+04  0.25500000920E-02 0.  1.
    10030    2    1    2    0    0  0.00000000000E+00  0.00000000000E+00 -0.42132882098E+03  0.27769511633E+04  0.27448023222E+04 0.  0.
        4    1    3    3  502    0  0.68630350733E+03 -0.90546193567E+03 -0.98949227135E+03  0.15066420906E+04  0.12699999809E+01 0. -1.
       -4    1    3    3    0  502 -0.68630350733E+03  0.90546193567E+03  0.56816345037E+03  0.12703090728E+04  0.12699999809E+01 0.  1.
</event>
<event>
 5   0  0.1330962E-05  0.2815499E+04  0.7818609E-02  0.8298473E-01
       -2   -1    0    0    0  501  0.00000000000E+00  0.00000000000E+00  0.84829518996E+03  0.84829518997E+03  0.25500000920E-02 0. -1.
        2   -1    0    0  501    0  0.00000000000E+00  0.00000000000E+00 -0.23361657889E+04  0.23361657889E+04  0.25500000920E-02 0.  1.
    10030    2    1    2    0    0  0.00000000000E+00  0.00000000000E+00 -0.14878705989E+04  0.31844609788E+04  0.28154986781E+04 0.  0.
        4    1    3    3  502    0  0.77852387148E+03 -0.47385551594E+03 -0.19574374463E+04  0.21592131524E+04  0.12699999809E+01 0.  1.
       -4    1    3    3    0  502 -0.77852387148E+03  0.47385551594E+03  0.46956684742E+03  0.10252478264E+04  0.12699999809E+01 0. -1.
</event>
<event>
 5   0  0.1350863E-05  0.2773566E+04  0.7818609E-02  0.8311522E-01
        2   -1    0    0  501    0  0.00000000000E+00  0.00000000000E+00  0.21187253059E+04  0.21187253059E+04  0.25500000920E-02 0.  1.
       -2   -1    0    0    0  501  0.00000000000E+00  0.00000000000E+00 -0.90770006932E+03  0.90770006933E+03  0.25500000920E-02 0. -1.
    10030    2    1    2    0    0  0.00000000000E+00  0.00000000000E+00  0.12110252366E+04  0.30264253752E+04  0.27735660130E+04 0.  0.
        3    1    3    3  502    0 -0.80493618275E+03  0.82645815984E+03 -0.23419863280E+03  0.11772019190E+04  0.10100000352E+00 0. -1.
       -3    1    3    3    0  502  0.80493618275E+03 -0.82645815984E+03  0.14452238694E+04  0.18492234562E+04  0.10100000352E+00 0.  1.
</event>
<event>
 5   0  0.5107453E-06  0.2869093E+04  0.7818609E-02  0.8282133E-01
       -1   -1    0    0    0  501  0.00000000000E+00  0.00000000000E+00  0.13282333783E+04  0.13282333783E+04  0.50400001928E-02 0. -1.
        1   -1    0    0  501    0  0.00000000000E+00  0.00000000000E+00 -0.15493686224E+04  0.15493686225E+04  0.50400001928E-02 0.  1.
    10030    2    1    2    0    0  0.00000000000E+00  0.00000000000E+00 -0.22113524417E+03  0.28776020007E+04  0.28690926228E+04 0.  0.
        2    1    3    3  502    0 -0.10393077531E+04 -0.48976236297E+03 -0.97212368370E+03  0.15050090479E+04  0.25500000920E-02 0.  1.
       -2    1    3    3    0  502  0.10393077531E+04  0.48976236297E+03  0.75098843953E+03  0.13725929528E+04  0.25500000920E-02 0. -1.
</event>
<event>
 5   0  0.5217999E-06  0.2850604E+04  0.7818609E-02  0.8287728E-01
       -1   -1    0    0    0  501  0.00000000000E+00  0.00000000000E+00  0.12743409997E+04  0.12743409997E+04  0.50400001928E-02 0.  1.
        1   -1    0    0  501    0  0.00000000000E+00  0.00000000000E+00 -0.15941464609E+04  0.15941464609E+04  0.50400001928E-02 0. -1.
    10030    2    1    2    0    0  0.00000000000E+00  0.00000000000E+00 -0.31980546120E+03  0.28684874606E+04  0.28506042831E+04 0.  0.
        1    1    3    3  502    0  0.33256381628E+03  0.53060129227E+03  0.11285005876E+04  0.12906006351E+04  0.50400001928E-02 0.  1.
       -1    1    3    3    0  502 -0.33256381628E+03 -0.53060129227E+03 -0.14483060488E+04  0.15778868255E+04  0.50400001928E-02 0. -1.
</event>
<event>
 5   0  0.5023691E-06  0.2691331E+04  0.7818609E-02  0.8337823E-01
       -1   -1    0    0    0  501  0.00000000000E+00  0.00000000000E+00  0.11157713461E+04  0.11157713462E+04  0.50400001928E-02 0. -1.
        1   -1    0    0  501    0  0.00000000000E+00  0.00000000000E+00 -0.16229270159E+04  0.16229270160E+04  0.50400001928E-02 0.  1.
    10030    2    1    2    0    0  0.00000000000E+00  0.00000000000E+00 -0.50715566980E+03  0.27386983621E+04  0.26913308688E+04 0.  0.
        5    1    3    3  502    0 -0.64843329194E+03  0.57068057991E+03  0.79640163248E+03  0.11749126387E+04  0.46999998093E+01 0. -1.
       -5    1    3    3    0  502  0.64843329194E+03 -0.57068057991E+03 -0.13035573023E+04  0.15637857234E+04  0.46999998093E+01 0.  1.
</event>
<event>
 5   0  0.1388269E-05  0.2012408E+04  0.7818609E-02  0.8600841E-01
        2   -1    0    0  501    0  0.00000000000E+00  0.00000000000E+00  0.53720523712E+03  0.53720523713E+03  0.25500000920E-02 0. -1.
       -2   -1    0    0    0  501  0.00000000000E+00  0.00000000000E+00 -0.18846546033E+04  0.18846546033E+04  0.25500000920E-02 0.  1.
    10030    2    1    2    0    0  0.00000000000E+00  0.00000000000E+00 -0.13474493662E+04  0.24218598404E+04  0.20124078345E+04 0.  0.
        1    1    3    3  502    0 -0.98135063390E+03  0.18310559433E+03 -0.82533053496E+03  0.12952788184E+04  0.50400001928E-02 0.  1.
       -1    1    3    3    0  502  0.98135063390E+03 -0.18310559433E+03 -0.52211883120E+03  0.11265810221E+04  0.50400001928E-02 0. -1.
</event>
<event>
 5   0  0.1283052E-05  0.2784727E+04  0.7818609E-02  0.8308026E-01
       -2   -1    0    0    0  501  0.00000000000E+00  0.00000000000E+00  0.10102032818E+04  0.10102032818E+04  0.25500000920E-02 0. -1.
        2   -1    0    0  501    0  0.00000000000E+00  0.00000000000E+00 -0.19190947249E+04  0.19190947249E+04  0.25500000920E-02 0.  1.
    10030    2    1    2    0    0  0.00000000000E+00  0.00000000000E+00 -0.90889144316E+03  0.29292980067E+04  0.27847267652E+04 0.  0.
        5    1    3    3  502    0  0.11451439350E+04 -0.29837590795E+03  0.31731276126E+03  0.12251907169E+04  0.46999998093E+01 0. -1.
       -5    1    3    3    0  502 -0.11451439350E+04  0.29837590795E+03 -0.12262042044E+04  0.17041072898E+04  0.46999998093E+01 0.  1.
</event>
<event>
 5   0  0.1330962E-05  0.2834095E+04  0.7818609E-02  0.8292761E-01
       -2   -1    0    0    0  501  0.00000000000E+00  0.00000000000E+00  0.11722742610E+04  0.11722742610E+04  0.25500000920E-02 0.  1.
        2   -1    0    0  501    0  0.00000000000E+00  0.00000000000E+00 -0.17129303102E+04  0.17129303102E+04  0.25500000920E-02 0. -1.
    10030    2    1    2    0    0  0.00000000000E+00  0.00000000000E+00 -0.54065604914E+03  0.28852045712E+04  0.28340953502E+04 0.  0.
        4    1    3    3  502    0  0.11459165226E+04  0.56548080386E+03  0.35319520553E+03  0.13257607938E+04  0.12699999809E+01 0.  1.
       -4    1    3    3    0  502 -0.11459165226E+04 -0.56548080386E+03 -0.89385125467E+03  0.15594437773E+04  0.12699999809E+01 0. -1.
</event>
<event>
 5   0  0.5023691E-06  0.2785978E+04  0.7818609E-02  0.8307635E-01
       -1   -1    0    0    0  501  0.00000000000E+00  0.00000000000E+00  0.15611417070E+04  0.15611417070E+04  0.50400001928E-02 0. -1.
        1   -1    0    0  501    0  0.00000000000E+00  0.00000000000E+00 -0.12429478594E+04  0.12429478594E+04  0.50400001928E-02 0.  1.
    10030    2    1    2    0    0  0.00000000000E+00  0.00000000000E+00  0.31819384757E+03  0.28040895664E+04  0.27859775612E+04 0.  0.
        5    1    3    3  502    0 -0.50770119419E+03 -0.93164986161E+03  0.10675519793E+04  0.15051316506E+04  0.46999998093E+01 0. -1.
       -5    1    3    3    0  502  0.50770119419E+03  0.93164986161E+03 -0.74935813174E+03  0.12989579157E+04  0.46999998093E+01 0.  1.
</event>
<event>
 5   0  0.5217999E-06  0.2946530E+04  0.7818609E-02  0.8259166E-01
        1   -1    0    0  501    0  0.00000000000E+00  0.00000000000E+00  0.20837519871E+04  0.20837519871E+04  0.50400001928E-02 0.  1.
       -1   -1    0    0    0  501  0.00000000000E+00  0.00000000000E+00 -0.10416356145E+04  0.10416356145E+04  0.50400001928E-02 0. -1.
    10030    2    1    2    0    0  0.00000000000E+00  0.00000000000E+00  0.10421163726E+04  0.31253876016E+04  0.29465303539E+04 0.  0.
        1    1    3    3  502    0  0.23632207942E+03 -0.12672661926E+04  0.12775830691E+04  0.18149463426E+04  0.50400001928E-02 0.  1.
       -1    1    3    3    0  502 -0.23632207942E+03  0.12672661926E+04 -0.23546669652E+03  0.13104412590E+04  0.50400001928E-02 0. -1.
</event>
<event>
 5   0  0.5107453E-06  0.2796936E+04  0.7818609E-02  0.8304220E-01
        1   -1    0    0  501    0  0.00000000000E+00  0.00000000000E+00  0.11493955442E+04  0.11493955442E+04  0.50400001928E-02 0.  1.
       -1   -1    0    0    0  501  0.00000000000E+00  0.00000000000E+00 -0.17015137958E+04  0.17015137958E+04  0.50400001928E-02 0. -1.
    10030    2    1    2    0    0  0.00000000000E+00  0.00000000000E+00 -0.55211825161E+03  0.28509093400E+04  0.27969357342E+04 0.  0.
        2    1    3    3  502    0  0.11781884023E+04 -0.70829405880E+03 -0.14387414563E+02  0.13747783031E+04  0.25500000920E-02 0.  1.
       -2    1    3    3    0  502 -0.11781884023E+04  0.70829405880E+03 -0.53773083705E+03  0.14761310369E+04  0.25500000920E-02 0. -1.
</event>
<event>
 5   0  0.5107453E-06  0.2692281E+04  0.7818609E-02  0.8337514E-01
        1   -1    0    0  501    0  0.00000000000E+00  0.00000000000E+00  0.10570072065E+04  0.10570072065E+04  0.50400001928E-02 0. -1.
       -1   -1    0    0    0  501  0.00000000000E+00  0.00000000000E+00 -0.17143634064E+04  0.17143634064E+04  0.50400001928E-02 0.  1.
    10030    2    1    2    0    0  0.00000000000E+00  0.00000000000E+00 -0.65735619989E+03  0.27713706130E+04  0.26922811705E+04 0.  0.
        2    1    3    3  502    0  0.10456971151E+04 -0.18179731323E+03 -0.11809879054E+04  0.15878492221E+04  0.25500000920E-02 0.  1.
       -2    1    3    3    0  502 -0.10456971151E+04  0.18179731323E+03  0.52363170548E+03  0.11835213908E+04  0.25500000920E-02 0. -1.
</event>
<event>
 5   0  0.5023691E-06  0.2805712E+04  0.7818609E-02  0.8301497E-01
        1   -1    0    0  501    0  0.00000000000E+00  0.00000000000E+00  0.16089119945E+04  0.16089119945E+04  0.50400001928E-02 0. -1.
       -1   -1    0    0    0  501  0.00000000000E+00  0.00000000000E+00 -0.12231899149E+04  0.12231899149E+04  0.50400001928E-02 0.  1.
    10030    2    1    2    0    0  0.00000000000E+00  0.00000000000E+00  0.38572207957E+03  0.28321019094E+04  0.28057119779E+04 0.  0.
        5    1    3    3  502    0  0.17169669086E+03 -0.94369930256E+03 -0.84045436268E+03  0.12753171186E+04  0.46999998093E+01 0.  1.
       -5    1    3    3    0  502 -0.17169669086E+03  0.94369930256E+03  0.12261764423E+04  0.15567847908E+04  0.46999998093E+01 0. -1.
</event>
<event>
 5   0  0.1388269E-05  0.2751869E+04  0.7818609E-02  0.8318369E-01
        2   -1    0    0  501    0  0.00000000000E+00  0.00000000000E+00  0.20460165406E+04  0.20460165406E+04  0.25500000920E-02 0.  1.
       -2   -1    0    0    0  501  0.00000000000E+00  0.00000000000E+00 -0.92530800835E+03  0.92530800835E+03  0.25500000920E-02 0. -1.
    10030    2    1    2    0    0  0.00000000000E+00  0.00000000000E+00  0.11207085323E+04  0.29713245490E+04  0.27518688125E+04 0.  0.
        1    1    3    3  502    0  0.53515396177E+03  0.21952001569E+03 -0.78765235707E+03  0.97722824136E+03  0.50400001928E-02 0. -1.
       -1    1    3    3    0  502 -0.53515396177E+03 -0.21952001569E+03  0.19083608893E+04  0.19940963076E+04  0.50400001928E-02 0.  1.
</event>
<event>
 5   0  0.5281919E-06  0.2832806E+04  0.7818609E-02  0.8293155E-01
        1   -1    0    0  501    0  0.00000000000E+00  0.00000000000E+00  0.15153807517E+04  0.15153807517E+04  0.50400001928E-02 0.  1.
       -1   -1    0    0    0  501  0.00000000000E+00  0.00000000000E+00 -0.13238900284E+04  0.13238900284E+04  0.50400001928E-02 0. -1.
    10030    2    1    2    0    0  0.00000000000E+00  0.00000000000E+00  0.19149072330E+03  0.28392707802E+04  0.28328060057E+04 0.  0.
        4    1    3    3  502    0  0.40396248615E+03  0.10527073181E+04  0.95491656754E+03  0.14775810136E+04  0.12699999809E+01 0.  1.
       -4    1    3    3    0  502 -0.40396248615E+03 -0.10527073181E+04 -0.76342584424E+03  0.13616897666E+04  0.12699999809E+01 0. -1.
</event>
<event>
 5   0  0.5217999E-06  0.2786142E+04  0.7818609E-02  0.8307584E-01
        1   -1    0    0  501    0  0.00000000000E+00  0.00000000000E+00  0.99280966528E+03  0.99280966529E+03  0.50400001928E-02 0.  1.
       -1   -1    0    0    0  501  0.00000000000E+00  0.00000000000E+00 -0.19547019352E+04  0.19547019352E+04  0.50400001928E-02 0. -1.
    10030    2    1    2    0    0  0.00000000000E+00  0.00000000000E+00 -0.96189226987E+03  0.29475116005E+04  0.27861421170E+04 0.  0.
        1    1    3    3  502    0  0.78990545174E+03 -0.79662742491E+03 -0.13546620861E+04  0.17588846592E+04  0.50400001928E-02 0. -1.
       -1    1    3    3    0  502 -0.78990545174E+03  0.79662742491E+03  0.39276981627E+03  0.11886269412E+04  0.50400001928E-02 0.  1.
</event>
<event>
 5   0  0.1330962E-05  0.2746549E+04  0.7818609E-02  0.8320058E-01
        2   -1    0    0  501    0  0.00000000000E+00  0.00000000000E+00  0.13464245394E+04  0.13464245394E+04  0.25500000920E-02 0.  1.
       -2   -1    0    0    0  501  0.00000000000E+00  0.00000000000E+00 -0.14006597624E+04  0.14006597624E+04  0.25500000920E-02 0. -1.
    10030    2    1    2    0    0  0.00000000000E+00  0.00000000000E+00 -0.54235222939E+02  0.27470843018E+04  0.27465488712E+04 0.  0.
        4    1    3    3  502    0  0.12431309454E+04  0.45715067234E+03  0.33560964349E+03  0.13663808878E+04  0.12699999809E+01 0.  1.
       -4    1    3    3    0  502 -0.12431309454E+04 -0.45715067234E+03 -0.38984486643E+03  0.13807034140E+04  0.12699999809E+01 0. -1.
</event>
<event>
 5   0  0.5023691E-06  0.2785835E+04  0.7818609E-02  0.8307680E-01
        1   -1    0    0  501    0  0.00000000000E+00  0.00000000000E+00  0.19481835414E+04  0.19481835414E+04  0.50400001928E-02 0. -1.
       -1   -1    0    0    0  501  0.00000000000E+00  0.00000000000E+00 -0.99591157087E+03  0.99591157088E+03  0.50400001928E-02 0.  1.
    10030    2    1    2    0    0  0.00000000000E+00  0.00000000000E+00  0.95227197050E+03  0.29440951123E+04  0.27858345472E+04 0.  0.
        5    1    3    3  502    0 -0.25914144955E+03  0.12329082424E+04  0.11040081160E+04  0.16751337366E+04  0.46999998093E+01 0. -1.
       -5    1    3    3    0  502  0.25914144955E+03 -0.12329082424E+04 -0.15173614551E+03  0.12689613757E+04  0.46999998093E+01 0.  1.
</event>
<event>
 5   0  0.5023691E-06  0.2799720E+04  0.7818609E-02  0.8303355E-01
        1   -1    0    0  501    0  0.00000000000E+00  0.00000000000E+00  0.21135766522E+04  0.21135766522E+04  0.50400001928E-02 0.  1.
       -1   -1    0    0    0  501  0.00000000000E+00  0.00000000000E+00 -0.92715259377E+03  0.92715259378E+03  0.50400001928E-02 0. -1.
    10030    2    1    2    0    0  0.00000000000E+00  0.00000000000E+00  0.11864240585E+04  0.30407292460E+04  0.27997200398E+04 0.  0.
        5    1    3    3  502    0 -0.45920499240E+03  0.70047575634E+03  0.18113940301E+04  0.19956717998E+04  0.46999998093E+01 0.  1.
       -5    1    3    3    0  502  0.45920499240E+03 -0.70047575634E+03 -0.62496997170E+03  0.10450574462E+04  0.46999998093E+01 0. -1.
</event>
<event>
 5   0  0.5107453E-06  0.2753261E+04  0.7818609E-02  0.8317927E-01
       -1   -1    0    0    0  501  0.00000000000E+00  0.00000000000E+00  0.12114921608E+04  0.12114921608E+04  0.50400001928E-02 0.  1.
        1   -1    0    0  501    0  0.00000000000E+00  0.00000000000E+00 -0.15642792302E+04  0.15642792303E+04  0.50400001928E-02 0. -1.
    10030    2    1    2    0    0  0.00000000000E+00  0.00000000000E+00 -0.35278706945E+03  0.27757713911E+04  0.27532613568E+04 0.  0.
        2    1    3    3  502    0 -0.14462037715E+03 -0.40856921552E+03 -0.14937009224E+04  0.15553090699E+04  0.25500000920E-02 0. -1.
       -2    1    3    3    0  502  0.14462037715E+03  0.40856921552E+03  0.11409138530E+04  0.12204623211E+04  0.25500000920E-02 0.  1.
</event>
<event>
 5   0  0.1388269E-05  0.2773068E+04  0.7818609E-02  0.8311679E-01
       -2   -1    0    0    0  501  0.00000000000E+00  0.00000000000E+00  0.14410533288E+04  0.14410533288E+04  0.25500000920E-02 0.  1.
        2   -1    0    0  501    0  0.00000000000E+00  0.00000000000E+00 -0.13340768889E+04  0.13340768889E+04  0.25500000920E-02 0. -1.
    10030    2    1    2    0    0  0.00000000000E+00  0.00000000000E+00  0.10697643990E+03  0.27751302177E+04  0.27730675733E+04 0.  0.
        1    1    3    3  502    0 -0.10096060318E+04  0.54922561731E+03 -0.72266769054E+03  0.13576456493E+04  0.50400001928E-02 0. -1.
       -1    1    3    3    0  502  0.10096060318E+04 -0.54922561731E+03  0.82964413043E+03  0.14174845683E+04  0.50400001928E-02 0.  1.
</event>
<event>
 5   0  0.5281919E-06  0.2603427E+04  0.7818609E-02  0.8367038E-01
       -1   -1    0    0    0  501  0.00000000000E+00  0.00000000000E+00  0.11314921327E+04  0.11314921327E+04  0.50400001928E-02 0. -1.
        1   -1    0    0  501    0  0.00000000000E+00  0.00000000000E+00 -0.14975430402E+04  0.14975430402E+04  0.50400001928E-02 0.  1.
    10030    2    1    2    0    0  0.00000000000E+00  0.00000000000E+00 -0.36605090757E+03  0.26290351729E+04  0.26034271016E+04 0.  0.
        4    1    3    3  502    0  0.59222246193E+03  0.77570946483E+03  0.68684399853E+03  0.11934022413E+04  0.12699999809E+01 0. -1.
       -4    1    3    3    0  502 -0.59222246193E+03 -0.77570946483E+03 -0.10528949061E+04  0.14356329317E+04  0.12699999809E+01 0.  1.
</event>
<event>
 5   0  0.1388269E-05  0.2742542E+04  0.7818609E-02  0.8321332E-01
        2   -1    0    0  501    0  0.00000000000E+00  0.00000000000E+00  0.18169987869E+04  0.18169987869E+04  0.25500000920E-02 0.  1.
       -2   -1    0    0    0  501  0.00000000000E+00  0.00000000000E+00 -0.10348848966E+04  0.10348848966E+04  0.25500000920E-02 0. -1.
    10030    2    1    2    0    0  0.00000000000E+00  0.00000000000E+00  0.78211389030E+03  0.28518836836E+04  0.27425423255E+04 0.  0.
        1    1    3    3  502    0 -0.18883272504E+03 -0.12389508131E+04 -0.18766304499E+03  0.12672309710E+04  0.50400001928E-02 0. -1.
       -1    1    3    3    0  502  0.18883272504E+03  0.12389508131E+04  0.96977693529E+03  0.15846527126E+04  0.50400001928E-02 0.  1.
</event>
<event>
 5   0  0.1350863E-05  0.2794280E+04  0.7818609E-02  0.8305046E-01
       -2   -1    0    0    0  501  0.00000000000E+00  0.00000000000E+00  0.12424935095E+04  0.12424935095E+04  0.25500000920E-02 0.  1.
        2   -1    0    0  501    0  0.00000000000E+00  0.00000000000E+00 -0.15710345813E+04  0.15710345813E+04  0.25500000920E-02 0. -1.
    10030    2    1    2    0    0  0.00000000000E+00  0.00000000000E+00 -0.32854107178E+03  0.28135280908E+04  0.27942800650E+04 0.  0.
        3    1    3    3  502    0  0.25840662408E+01 -0.27007880947E+03  0.12159567514E+04  0.12455922576E+04  0.10100000352E+00 0.  1.
       -3    1    3    3    0  502 -0.25840662408E+01  0.27007880947E+03 -0.15444978232E+04  0.15679358331E+04  0.10100000352E+00 0. -1.
</event>
<event>
 5   0  0.1350863E-05  0.2803262E+04  0.7818609E-02  0.8302256E-01
       -2   -1    0    0    0  501  0.00000000000E+00  0.00000000000E+00  0.10756632652E+04  0.10756632652E+04  0.25500000920E-02 0.  1.
        2   -1    0    0  501    0  0.00000000000E+00  0.00000000000E+00 -0.18263800050E+04  0.18263800050E+04  0.25500000920E-02 0. -1.
    10030    2    1    2    0    0  0.00000000000E+00  0.00000000000E+00 -0.75071673981E+03  0.29020432703E+04  0.28032622994E+04 0.  0.
        3    1    3    3  502    0  0.74491578854E+03  0.64695390286E+03 -0.14059900386E+04  0.17176311837E+04  0.10100000352E+00 0. -1.
       -3    1    3    3    0  502 -0.74491578854E+03 -0.64695390286E+03  0.65527329879E+03  0.11844120865E+04  0.10100000352E+00 0.  1.
</event>
<event>
 5   0  0.5217999E-06  0.2626363E+04  0.7818609E-02  0.8359301E-01
        1   -1    0    0  501    0  0.00000000000E+00  0.00000000000E+00  0.14611302681E+04  0.14611302681E+04  0.50400001928E-02 0.  1.
       -1   -1    0    0    0  501  0.00000000000E+00  0.00000000000E+00 -0.11802131222E+04  0.11802131222E+04  0.50400001928E-02 0. -1.
    10030    2    1    2    0    0  0.00000000000E+00  0.00000000000E+00  0.28091714589E+03  0.26413433903E+04  0.26263625916E+04 0.  0.
        1    1    3    3  502    0 -0.70889498589E+03 -0.11035961058E+04  0.76942574044E+02  0.13139165215E+04  0.50400001928E-02 0.  1.
       -1    1    3    3    0  502  0.70889498589E+03  0.11035961058E+04  0.20397457184E+03  0.13274268687E+04  0.50400001928E-02 0. -1.
</event>
<event>
 5   0  0.5023691E-06  0.2811847E+04  0.7818609E-02  0.8299600E-01
        1   -1    0    0  501    0  0.00000000000E+00  0.00000000000E+00  0.19144555133E+04  0.19144555133E+04  0.50400001928E-02 0. -1.
       -1   -1    0    0    0  501  0.00000000000E+00  0.00000000000E+00 -0.10324717472E+04  0.10324717472E+04  0.50400001928E-02 0.  1.
    10030    2    1    2    0    0  0.00000000000E+00  0.00000000000E+00  0.88198376606E+03  0.29469272605E+04  0.28118472425E+04 0.  0.
        5    1    3    3  502    0 -0.10385422423E+04  0.13138702347E+03 -0.54258454352E+03  0.11790897404E+04  0.46999998093E+01 0.  1.
       -5    1    3    3    0  502  0.10385422423E+04 -0.13138702347E+03  0.14245683096E+04  0.17678375201E+04  0.46999998093E+01 0. -1.
</event>
<event>
 5   0  0.1350863E-05  0.2764449E+04  0.7818609E-02  0.8314391E-01
        2   -1    0    0  501    0  0.00000000000E+00  0.00000000000E+00  0.25731138901E+04  0.25731138901E+04  0.25500000920E-02 0. -1.
       -2   -1    0    0    0  501  0.00000000000E+00  0.00000000000E+00 -0.74250305010E+03  0.74250305011E+03  0.25500000920E-02 0.  1.
    10030    2    1    2    0    0  0.00000000000E+00  0.00000000000E+00  0.18306108400E+04  0.33156169402E+04  0.27644492484E+04 0.  0.
        3    1    3    3  502    0  0.10952282707E+04 -0.49292794607E+03  0.17358423478E+04  0.21108414416E+04  0.10100000352E+00 0. -1.
       -3    1    3    3    0  502 -0.10952282707E+04  0.49292794607E+03  0.94768492266E+02  0.12047754987E+04  0.10100000352E+00 0.  1.
</event>
<event>
 5   0  0.5023691E-06  0.2817447E+04  0.7818609E-02  0.8297872E-01
        1   -1    0    0  501    0  0.00000000000E+00  0.00000000000E+00  0.16237558886E+04  0.16237558886E+04  0.50400001928E-02 0. -1.
       -1   -1    0    0    0  501  0.00000000000E+00  0.00000000000E+00 -0.12221673922E+04  0.12221673922E+04  0.50400001928E-02 0.  1.
    10030    2    1    2    0    0  0.00000000000E+00  0.00000000000E+00  0.40158849640E+03  0.28459232808E+04  0.28174467164E+04 0.  0.
        5    1    3    3  502    0 -0.42764473970E+03 -0.12080989306E+04 -0.39000740764E+03  0.13395935643E+04  0.46999998093E+01 0.  1.
       -5    1    3    3    0  502  0.42764473970E+03  0.12080989306E+04  0.79159590404E+03  0.15063297165E+04  0.46999998093E+01 0. -1.
</event>
<event>
 5   0  0.1302063E-05  0.2606258E+04  0.7818609E-02  0.8366079E-01
        2   -1    0    0  501    0  0.00000000000E+00  0.00000000000E+00  0.11646293867E+04  0.11646293867E+04  0.25500000920E-02 0. -1.
       -2   -1    0    0    0  501  0.00000000000E+00  0.00000000000E+00 -0.14580990683E+04  0.14580990683E+04  0.25500000920E-02 0.  1.
    10030    2    1    2    0    0  0.00000000000E+00  0.00000000000E+00 -0.29346968154E+03  0.26227284550E+04  0.26062578719E+04 0.  0.
        2    1    3    3  502    0  0.11147700190E+02  0.35349372496E+03 -0.14088790925E+04  0.14525916088E+04  0.25500000920E-02 0.  1.
       -2    1    3    3    0  502 -0.11147700190E+02 -0.35349372496E+03  0.11154094109E+04  0.11701368462E+04  0.25500000920E-02 0. -1.
</event>
<event>
 5   0  0.4764214E-06  0.2134150E+04  0.7818609E-02  0.8546347E-01
       -1   -1    0    0    0  501  0.00000000000E+00  0.00000000000E+00  0.13019071461E+04  0.13019071461E+04  0.50400001928E-02 0. -1.
        1   -1    0    0  501    0  0.00000000000E+00  0.00000000000E+00 -0.87460080399E+03  0.87460080400E+03  0.50400001928E-02 0.  1.
    10030    2    1    2    0    0  0.00000000000E+00  0.00000000000E+00  0.42730634209E+03  0.21765079501E+04  0.21341499823E+04 0.  0.
        3    1    3    3  502    0 -0.11813453436E+03  0.21825028209E+03 -0.84476011771E+03  0.88045932360E+03  0.10100000352E+00 0.  1.
       -3    1    3    3    0  502  0.11813453436E+03 -0.21825028209E+03  0.12720664598E+04  0.12960486265E+04  0.10100000352E+00 0. -1.
</event>
<event>
 5   0  0.5217999E-06  0.2807880E+04  0.7818609E-02  0.8300826E-01
       -1   -1    0    0    0  501  0.00000000000E+00  0.00000000000E+00  0.15730910458E+04  0.15730910458E+04  0.50400001928E-02 0.  1.
        1   -1    0    0  501    0  0.00000000000E+00  0.00000000000E+00 -0.12529770655E+04  0.12529770655E+04  0.50400001928E-02 0. -1.
    10030    2    1    2    0    0  0.00000000000E+00  0.00000000000E+00  0.32011398021E+03  0.28260681113E+04  0.28078796287E+04 0.  0.
        1    1    3    3  502    0  0.82534304169E+03  0.87664034825E+03  0.88678513280E+03  0.14953519012E+04  0.50400001928E-02 0.  1.
       -1    1    3    3    0  502 -0.82534304169E+03 -0.87664034825E+03 -0.56667115259E+03  0.13307162101E+04  0.50400001928E-02 0. -1.
</event>
<event>
 5   0  0.5281919E-06  0.2793745E+04  0.7818609E-02  0.8305213E-01
        1   -1    0    0  501    0  0.00000000000E+00  0.00000000000E+00  0.18609763386E+04  0.18609763386E+04  0.50400001928E-02 0. -1.
       -1   -1    0    0    0  501  0.00000000000E+00  0.00000000000E+00 -0.10485105722E+04  0.10485105722E+04  0.50400001928E-02 0.  1.
    10030    2    1    2    0    0  0.00000000000E+00  0.00000000000E+00  0.81246576638E+03  0.29094869109E+04  0.27937454184E+04 0.  0.
        4    1    3    3  502    0 -0.68547471090E+03 -0.68459089954E+03  0.14542598188E+04  0.17474019322E+04  0.12699999809E+01 0. -1.
       -4    1    3    3    0  502  0.68547471090E+03  0.68459089954E+03 -0.64179405244E+03  0.11620849787E+04  0.12699999809E+01 0.  1.
</event>
<event>
 5   0  0.1330962E-05  0.2787084E+04  0.7818609E-02  0.8307290E-01
        2   -1    0    0  501    0  0.00000000000E+00  0.00000000000E+00  0.17597888329E+04  0.17597888329E+04  0.25500000920E-02 0.  1.
       -2   -1    0    0    0  501  0.00000000000E+00  0.00000000000E+00 -0.11035182663E+04  0.11035182663E+04  0.25500000920E-02 0. -1.
    10030    2    1    2    0    0  0.00000000000E+00  0.00000000000E+00  0.65627056662E+03  0.28633070992E+04  0.27870838681E+04 0.  0.
        4    1    3    3  502    0 -0.11659657754E+04 -0.76250221976E+03  0.29450338444E+03  0.14239451116E+04  0.12699999809E+01 0.  1.
       -4    1    3    3    0  502  0.11659657754E+04  0.76250221976E+03  0.36176718219E+03  0.14393619876E+04  0.12699999809E+01 0. -1.
</event>
<event>
 5   0  0.4764214E-06  0.2737993E+04  0.7818609E-02  0.8322782E-01
        1   -1    0    0  501    0  0.00000000000E+00  0.00000000000E+00  0.10544594554E+04  0.10544594554E+04  0.50400001928E-02 0. -1.
       -1   -1    0    0    0  501  0.00000000000E+00  0.00000000000E+00 -0.17773568526E+04  0.17773568527E+04  0.50400001928E-02 0.  1.
    10030    2    1    2    0    0  0.00000000000E+00  0.00000000000E+00 -0.72289739726E+03  0.28318163081E+04  0.27379925047E+04 0.  0.
        3    1    3    3  502    0 -0.59883577781E+03 -0.60210940709E+03  0.74913039237E+03  0.11324029238E+04  0.10100000352E+00 0. -1.
       -3    1    3    3    0  502  0.59883577781E+03  0.60210940709E+03 -0.14720277896E+04  0.16994133842E+04  0.10100000352E+00 0.  1.
</event>
<event>
 5   0  0.5023691E-06  0.2791106E+04  0.7818609E-02  0.8306035E-01
       -1   -1    0    0    0  501  0.00000000000E+00  0.00000000000E+00  0.97232516046E+03  0.97232516047E+03  0.50400001928E-02 0. -1.
        1   -1    0    0  501    0  0.00000000000E+00  0.00000000000E+00 -0.20030015210E+04  0.20030015210E+04  0.50400001928E-02 0.  1.
    10030    2    1    2    0    0  0.00000000000E+00  0.00000000000E+00 -0.10306763605E+04  0.29753266815E+04  0.27911064296E+04 0.  0.
        5    1    3    3  502    0  0.82047756240E+02  0.57983831312E+03  0.83499822326E+03  0.10198962822E+04  0.46999998093E+01 0. -1.
       -5    1    3    3    0  502 -0.82047756240E+02 -0.57983831312E+03 -0.18656745838E+04  0.19554303993E+04  0.46999998093E+01 0.  1.
</event>
<event>
 5   0  0.5281919E-06  0.2797725E+04  0.7818609E-02  0.8303975E-01
       -1   -1    0    0    0  501  0.00000000000E+00  0.00000000000E+00  0.31719520684E+04  0.31719520684E+04  0.50400001928E-02 0.  1.
        1   -1    0    0  501    0  0.00000000000E+00  0.00000000000E+00 -0.61691253169E+03  0.61691253171E+03  0.50400001928E-02 0. -1.
    10030    2    1    2    0    0  0.00000000000E+00  0.00000000000E+00  0.25550395367E+04  0.37888646001E+04  0.27977254911E+04 0.  0.
        4    1    3    3  502    0 -0.12141120291E+04  0.68375691416E+03  0.14446157344E+04  0.20071142892E+04  0.12699999809E+01 0. -1.
       -4    1    3    3    0  502  0.12141120291E+04 -0.68375691416E+03  0.11104238024E+04  0.17817503110E+04  0.12699999809E+01 0.  1.
</event>
<event>
 5   0  0.1302063E-05  0.2606223E+04  0.7818609E-02  0.8366090E-01
        2   -1    0    0  501    0  0.00000000000E+00  0.00000000000E+00  0.10582645250E+04  0.10582645250E+04  0.25500000920E-02 0.  1.
       -2   -1    0    0    0  501  0.00000000000E+00  0.00000000000E+00 -0.16046079779E+04  0.16046079779E+04  0.25500000920E-02 0. -1.
    10030    2    1    2    0    0  0.00000000000E+00  0.00000000000E+00 -0.54634345294E+03  0.26628725029E+04  0.26062230906E+04 0.  0.
        2    1    3    3  502    0 -0.35876907163E+03  0.26554978869E+03 -0.15240655391E+04  0.15880830282E+04  0.25500000920E-02 0. -1.
       -2    1    3    3    0  502  0.35876907163E+03 -0.26554978869E+03  0.97772208616E+03  0.10747894746E+04  0.25500000920E-02 0.  1.
</event>
<event>
 5   0  0.1330962E-05  0.2712787E+04  0.7818609E-02  0.8330868E-01
        2   -1    0    0  501    0  0.00000000000E+00  0.00000000000E+00  0.23148653283E+04  0.23148653283E+04  0.25500000920E-02 0.  1.
       -2   -1    0    0    0  501  0.00000000000E+00  0.00000000000E+00 -0.79477758187E+03  0.79477758187E+03  0.25500000920E-02 0. -1.
    10030    2    1    2    0    0  0.00000000000E+00  0.00000000000E+00  0.15200877465E+04  0.31096429102E+04  0.27127868092E+04 0.  0.
        4    1    3    3  502    0  0.11113026732E+03 -0.46163313081E+03 -0.69639820072E+03  0.84286840648E+03  0.12699999809E+01 0. -1.
       -4    1    3    3    0  502 -0.11113026732E+03  0.46163313081E+03  0.22164859472E+04  0.22667745037E+04  0.12699999809E+01 0.  1.
</event>
<event>
 5   0  0.1330962E-05  0.2788755E+04  0.7818609E-02  0.8306768E-01
        2   -1    0    0  501    0  0.00000000000E+00  0.00000000000E+00  0.13788350987E+04  0.13788350987E+04  0.25500000920E-02 0. -1.
       -2   -1    0    0    0  501  0.00000000000E+00  0.00000000000E+00 -0.14100952870E+04  0.14100952870E+04  0.25500000920E-02 0.  1.
    10030    2    1    2    0    0  0.00000000000E+00  0.00000000000E+00 -0.31260188271E+02  0.27889303857E+04  0.27887551877E+04 0.  0.
        4    1    3    3  502    0  0.67798241188E+03 -0.10162998150E+04  0.65654440730E+03  0.13869310136E+04  0.12699999809E+01 0. -1.
       -4    1    3    3    0  502 -0.67798241188E+03  0.10162998150E+04 -0.68780459557E+03  0.14019993721E+04  0.12699999809E+01 0.  1.
</event>
<event>
 5   0  0.5281919E-06  0.2930749E+04  0.7818609E-02  0.8263787E-01
        1   -1    0    0  501    0  0.00000000000E+00  0.00000000000E+00  0.10150800496E+04  0.10150800496E+04  0.50400001928E-02 0. -1.
       -1   -1    0    0    0  501  0.00000000000E+00  0.00000000000E+00 -0.21154223724E+04  0.21154223725E+04  0.50400001928E-02 0.  1.
    10030    2    1    2    0    0  0.00000000000E+00  0.00000000000E+00 -0.11003423228E+04  0.31305024221E+04  0.29307494242E+04 0.  0.
        4    1    3    3  502    0 -0.14925704094E+03 -0.13038402207E+04 -0.12465611676E+04  0.18100257851E+04  0.12699999809E+01 0.  1.
       -4    1    3    3    0  502  0.14925704094E+03  0.13038402207E+04  0.14621884476E+03  0.13204766370E+04  0.12699999809E+01 0. -1.
</event>
<event>
 5   0  0.1302063E-05  0.2752325E+04  0.7818609E-02  0.8318224E-01
        2   -1    0    0  501    0  0.00000000000E+00  0.00000000000E+00  0.25165446730E+04  0.25165446730E+04  0.25500000920E-02 0.  1.
       -2   -1    0    0    0  501  0.00000000000E+00  0.00000000000E+00 -0.75254892005E+03  0.75254892005E+03  0.25500000920E-02 0. -1.
    10030    2    1    2    0    0  0.00000000000E+00  0.00000000000E+00  0.17639957530E+04  0.32690935931E+04  0.27523248180E+04 0.  0.
        2    1    3    3  502    0  0.44653668409E+03 -0.62061892551E+03 -0.47706840318E+03  0.90119760445E+03  0.25500000920E-02 0. -1.
       -2    1    3    3    0  502 -0.44653668409E+03  0.62061892551E+03  0.22410641562E+04  0.23678959886E+04  0.25500000920E-02 0.  1.
</event>
<event>
 5   0  0.1330962E-05  0.2548544E+04  0.7818609E-02  0.8385893E-01
       -2   -1    0    0    0  501  0.00000000000E+00  0.00000000000E+00  0.93626133300E+03  0.93626133300E+03  0.25500000920E-02 0. -1.
        2   -1    0    0  501    0  0.00000000000E+00  0.00000000000E+00 -0.17343122184E+04  0.17343122184E+04  0.25500000920E-02 0.  1.
    10030    2    1    2    0    0  0.00000000000E+00  0.00000000000E+00 -0.79805088545E+03  0.26705735515E+04  0.25485442664E+04 0.  0.
        4    1    3    3  502    0 -0.45603881321E+03 -0.92357606498E+03 -0.11851490492E+04  0.15702050913E+04  0.12699999809E+01 0.  1.
       -4    1    3    3    0  502  0.45603881321E+03  0.92357606498E+03  0.38709816372E+03  0.11003684602E+04  0.12699999809E+01 0. -1.
</event>
<event>
 5   0  0.1283052E-05  0.2854496E+04  0.7818609E-02  0.8286546E-01
        2   -1    0    0  501    0  0.00000000000E+00  0.00000000000E+00  0.12729490495E+04  0.12729490495E+04  0.25500000920E-02 0.  1.
       -2   -1    0    0    0  501  0.00000000000E+00  0.00000000000E+00 -0.16002505551E+04  0.16002505551E+04  0.25500000920E-02 0. -1.
    10030    2    1    2    0    0  0.00000000000E+00  0.00000000000E+00 -0.32730150557E+03  0.28731996046E+04  0.28544963991E+04 0.  0.
        5    1    3    3  502    0  0.56740287864E+03  0.98516359306E+03  0.70485973376E+03  0.13376631362E+04  0.46999998093E+01 0.  1.
       -5    1    3    3    0  502 -0.56740287864E+03 -0.98516359306E+03 -0.10321612393E+04  0.15355364684E+04  0.46999998093E+01 0. -1.
</event>
<event>
 5   0  0.5107453E-06  0.2790639E+04  0.7818609E-02  0.8306181E-01
        1   -1    0    0  501    0  0.00000000000E+00  0.00000000000E+00  0.17501204350E+04  0.17501204350E+04  0.50400001928E-02 0. -1.
       -1   -1    0    0    0  501  0.00000000000E+00  0.00000000000E+00 -0.11124468623E+04  0.11124468623E+04  0.50400001928E-02 0.  1.
    10030    2    1    2    0    0  0.00000000000E+00  0.00000000000E+00  0.63767357268E+03  0.28625672973E+04  0.27906386269E+04 0.  0.
        2    1    3    3  502    0 -0.44781043488E+03  0.10961227062E+04 -0.43836083054E+03  0.12626081698E+04  0.25500000920E-02 0. -1.
       -2    1    3    3    0  502  0.44781043488E+03 -0.10961227062E+04  0.10760344032E+04  0.15999591275E+04  0.25500000920E-02 0.  1.
</event>
<event>
 5   0  0.1283052E-05  0.2708187E+04  0.7818609E-02  0.8332353E-01
        2   -1    0    0  501    0  0.00000000000E+00  0.00000000000E+00  0.82339620538E+03  0.82339620538E+03  0.25500000920E-02 0. -1.
       -2   -1    0    0    0  501  0.00000000000E+00  0.00000000000E+00 -0.22268377765E+04  0.22268377765E+04  0.25500000920E-02 0.  1.
    10030    2    1    2    0    0  0.00000000000E+00  0.00000000000E+00 -0.14034415711E+04  0.30502339819E+04  0.27081874198E+04 0.  0.
        5    1    3    3  502    0 -0.14969478705E+03  0.12912955967E+03  0.80704525395E+03  0.83091943314E+03  0.46999998093E+01 0. -1.
       -5    1    3    3    0  502  0.14969478705E+03 -0.12912955967E+03 -0.22104868251E+04  0.22193145487E+04  0.46999998093E+01 0.  1.
</event>
<event>
 5   0  0.5023691E-06  0.2772597E+04  0.7818609E-02  0.8311827E-01
       -1   -1    0    0    0  501  0.00000000000E+00  0.00000000000E+00  0.11254031390E+04  0.11254031390E+04  0.50400001928E-02 0.  1.
        1   -1    0    0  501    0  0.00000000000E+00  0.00000000000E+00 -0.17076752771E+04  0.17076752771E+04  0.50400001928E-02 0. -1.
    10030    2    1    2    0    0  0.00000000000E+00  0.00000000000E+00 -0.58227213807E+03  0.28330784161E+04  0.27725967014E+04 0.  0.
        5    1    3    3  502    0 -0.88509118658E+03  0.60865480251E+03  0.60431009939E+03  0.12325014659E+04  0.46999998093E+01 0.  1.
       -5    1    3    3    0  502  0.88509118658E+03 -0.60865480251E+03 -0.11865822375E+04  0.16005769502E+04  0.46999998093E+01 0. -1.
</event>
<event>
 5   0  0.5107453E-06  0.2760818E+04  0.7818609E-02  0.8315537E-01
        1   -1    0    0  501    0  0.00000000000E+00  0.00000000000E+00  0.14339341590E+04  0.14339341590E+04  0.50400001928E-02 0.  1.
       -1   -1    0    0    0  501  0.00000000000E+00  0.00000000000E+00 -0.13288819268E+04  0.13288819268E+04  0.50400001928E-02 0. -1.
    10030    2    1    2    0    0  0.00000000000E+00  0.00000000000E+00  0.10505223212E+03  0.27628160858E+04  0.27608181310E+04 0.  0.
        2    1    3    3  502    0 -0.10135068270E+04 -0.92774366452E+03 -0.80328358952E+02  0.13763564366E+04  0.25500000920E-02 0. -1.
       -2    1    3    3    0  502  0.10135068270E+04  0.92774366452E+03  0.18538059108E+03  0.13864596492E+04  0.25500000920E-02 0.  1.
</event>
<event>
 5   0  0.1388269E-05  0.2768233E+04  0.7818609E-02  0.8313199E-01
        2   -1    0    0  501    0  0.00000000000E+00  0.00000000000E+00  0.10200657138E+04  0.10200657138E+04  0.25500000920E-02 0. -1.
       -2   -1    0    0    0  501  0.00000000000E+00  0.00000000000E+00 -0.18780930929E+04  0.18780930929E+04  0.25500000920E-02 0.  1.
    10030    2    1    2    0    0  0.00000000000E+00  0.00000000000E+00 -0.85802737908E+03  0.28981588066E+04  0.27682329174E+04 0.  0.
        1    1    3    3  502    0  0.11067968843E+04  0.82613250613E+03 -0.52430262829E+03  0.14772905966E+04  0.50400001928E-02 0.  1.
       -1    1    3    3    0  502 -0.11067968843E+04 -0.82613250613E+03 -0.33372475079E+03  0.14208682100E+04  0.50400001928E-02 0. -1.
</event>
<event>
 5   0  0.5281919E-06  0.2727750E+04  0.7818609E-02  0.8326057E-01
       -1   -1    0    0    0  501  0.00000000000E+00  0.00000000000E+00  0.12555788804E+04  0.12555788804E+04  0.50400001928E-02 0. -1.
        1   -1    0    0  501    0  0.00000000000E+00  0.00000000000E+00 -0.14815123173E+04  0.14815123173E+04  0.50400001928E-02 0.  1.
    10030    2    1    2    0    0  0.00000000000E+00  0.00000000000E+00 -0.22593343692E+03  0.27370911978E+04  0.27277504114E+04 0.  0.
        4    1    3    3  502    0 -0.11542103291E+04  0.20811133715E+03 -0.81151307215E+03  0.14262071699E+04  0.12699999809E+01 0. -1.
       -4    1    3    3    0  502  0.11542103291E+04 -0.20811133715E+03  0.58557963523E+03  0.13108840278E+04  0.12699999809E+01 0.  1.
</event>
<event>
 5   0  0.1350863E-05  0.2823886E+04  0.7818609E-02  0.8295891E-01
       -2   -1    0    0    0  501  0.00000000000E+00  0.00000000000E+00  0.15273756114E+04  0.15273756114E+04  0.25500000920E-02 0.  1.
        2   -1    0    0  501    0  0.00000000000E+00  0.00000000000E+00 -0.13052339725E+04  0.13052339725E+04  0.25500000920E-02 0. -1.
    10030    2    1    2    0    0  0.00000000000E+00  0.00000000000E+00  0.22214163886E+03  0.28326095839E+04  0.28238856469E+04 0.  0.
        3    1    3    3  502    0 -0.42453983490E+03  0.13420343185E+04  0.22228417675E+03  0.14250264730E+04  0.10100000352E+00 0.  1.
       -3    1    3    3    0  502  0.42453983490E+03 -0.13420343185E+04 -0.14253788904E+00  0.14075831108E+04  0.10100000352E+00 0. -1.
</event>
<event>
 5   0  0.5023691E-06  0.2722627E+04  0.7818609E-02  0.8327700E-01
       -1   -1    0    0    0  501  0.00000000000E+00  0.00000000000E+00  0.10298433632E+04  0.10298433633E+04  0.50400001928E-02 0. -1.
        1   -1    0    0  501    0  0.00000000000E+00  0.00000000000E+00 -0.17994723000E+04  0.17994723000E+04  0.50400001928E-02 0.  1.
    10030    2    1    2    0    0  0.00000000000E+00  0.00000000000E+00 -0.76962893675E+03  0.28293156632E+04  0.27226271177E+04 0.  0.
        5    1    3    3  502    0 -0.42992286719E+03 -0.61283336166E+03  0.79673307728E+03  0.10932538988E+04  0.46999998093E+01 0. -1.
       -5    1    3    3    0  502  0.42992286719E+03  0.61283336166E+03 -0.15663620140E+04  0.17360617644E+04  0.46999998093E+01 0.  1.
</event>
<event>
 5   0  0.4764214E-06  0.2753096E+04  0.7818609E-02  0.8317980E-01
       -1   -1    0    0    0  501  0.00000000000E+00  0.00000000000E+00  0.12607799848E+04  0.12607799848E+04  0.50400001928E-02 0.  1.
        1   -1    0    0  501    0  0.00000000000E+00  0.00000000000E+00 -0.15029457439E+04  0.15029457439E+04  0.50400001928E-02 0. -1.
    10030    2    1    2    0    0  0.00000000000E+00  0.00000000000E+00 -0.24216575907E+03  0.27637257287E+04  0.27530956483E+04 0.  0.
        3    1    3    3  502    0  0.39021676457E+03 -0.24030488419E+03  0.11819537569E+04  0.12676869702E+04  0.10100000352E+00 0.  1.
       -3    1    3    3    0  502 -0.39021676457E+03  0.24030488419E+03 -0.14241195160E+04  0.14960387585E+04  0.10100000352E+00 0. -1.
</event>
<event>
 5   0  0.4447500E-06  0.2826686E+04  0.7818609E-02  0.8295031E-01
       -3   -1    0    0    0  501  0.00000000000E+00  0.00000000000E+00  0.86196163170E+03  0.86196163761E+03  0.10100000352E+00 0.  1.
        3   -1    0    0  501    0  0.00000000000E+00  0.00000000000E+00 -0.23174327583E+04  0.23174327605E+04  0.10100000352E+00 0. -1.
    10030    2    1    2    0    0  0.00000000000E+00  0.00000000000E+00 -0.14554711266E+04  0.31793943981E+04  0.28266857870E+04 0.  0.
        4    1    3    3  502    0  0.13824978220E+04  0.16892051896E+03 -0.99792158382E+03  0.17133836319E+04  0.12699999809E+01 0. -1.
       -4    1    3    3    0  502 -0.13824978220E+04 -0.16892051896E+03 -0.45754954279E+03  0.14660107662E+04  0.12699999809E+01 0.  1.
</event>
<event>
 5   0  0.1302063E-05  0.2804702E+04  0.7818609E-02  0.8301810E-01
       -2   -1    0    0    0  501  0.00000000000E+00  0.00000000000E+00  0.10048510340E+04  0.10048510340E+04  0.25500000920E-02 0. -1.
        2   -1    0    0  501    0  0.00000000000E+00  0.00000000000E+00 -0.19570940028E+04  0.19570940028E+04  0.25500000920E-02 0.  1.
    10030    2    1    2    0    0  0.00000000000E+00  0.00000000000E+00 -0.95224296880E+03  0.29619450368E+04  0.28047017184E+04 0.  0.
        2    1    3    3  502    0  0.95223530559E+03 -0.37401156264E+03  0.53679283625E+03  0.11553282111E+04  0.25500000920E-02 0. -1.
       -2    1    3    3    0  502 -0.95223530559E+03  0.37401156264E+03 -0.14890358050E+04  0.18066168257E+04  0.25500000920E-02 0.  1.
</event>
<event>
 5   0  0.1283052E-05  0.2814048E+04  0.7818609E-02  0.8298920E-01
        2   -1    0    0  501    0  0.00000000000E+00  0.00000000000E+00  0.10270637944E+04  0.10270637944E+04  0.25500000920E-02 0. -1.
       -2   -1    0    0    0  501  0.00000000000E+00  0.00000000000E+00 -0.19275498670E+04  0.19275498670E+04  0.25500000920E-02 0.  1.
    10030    2    1    2    0    0  0.00000000000E+00  0.00000000000E+00 -0.90048607263E+03  0.29546136614E+04  0.28140481021E+04 0.  0.
        5    1    3    3  502    0 -0.39077019316E+03  0.13438349993E+04 -0.29772611203E+03  0.14308238106E+04  0.46999998093E+01 0.  1.
       -5    1    3    3    0  502  0.39077019316E+03 -0.13438349993E+04 -0.60275996060E+03  0.15237898508E+04  0.46999998093E+01 0. -1.
</event>
<event>
 5   0  0.5281919E-06  0.2783594E+04  0.7818609E-02  0.8308380E-01
       -1   -1    0    0    0  501  0.00000000000E+00  0.00000000000E+00  0.13739953752E+04  0.13739953752E+04  0.50400001928E-02 0.  1.
        1   -1    0    0  501    0  0.00000000000E+00  0.00000000000E+00 -0.14098295736E+04  0.14098295736E+04  0.50400001928E-02 0. -1.
    10030    2    1    2    0    0  0.00000000000E+00  0.00000000000E+00 -0.35834198376E+02  0.27838249488E+04  0.27835943052E+04 0.  0.
        4    1    3    3  502    0 -0.29742489849E+03  0.78976026042E+03 -0.11247675222E+04  0.14061601726E+04  0.12699999809E+01 0. -1.
       -4    1    3    3    0  502  0.29742489849E+03 -0.78976026042E+03  0.10889333238E+04  0.13776647763E+04  0.12699999809E+01 0.  1.
</event>
<event>
 5   0  0.1330962E-05  0.2796367E+04  0.7818609E-02  0.8304397E-01
        2   -1    0    0  501    0  0.00000000000E+00  0.00000000000E+00  0.16447223015E+04  0.16447223015E+04  0.25500000920E-02 0. -1.
       -2   -1    0    0    0  501  0.00000000000E+00  0.00000000000E+00 -0.11886002545E+04  0.11886002545E+04  0.25500000920E-02 0.  1.
    10030    2    1    2    0    0  0.00000000000E+00  0.00000000000E+00  0.45612204701E+03  0.28333225559E+04  0.27963671762E+04 0.  0.
        4    1    3    3  502    0  0.10845507036E+04  0.14372299580E+03  0.11102041674E+04  0.15586729722E+04  0.12699999809E+01 0. -1.
       -4    1    3    3    0  502 -0.10845507036E+04 -0.14372299580E+03 -0.65408212035E+03  0.12746495837E+04  0.12699999809E+01 0.  1.
</event>
<event>
 5   0  0.5023691E-06  0.2649216E+04  0.7818609E-02  0.8351673E-01
        1   -1    0    0  501    0  0.00000000000E+00  0.00000000000E+00  0.18461372661E+04  0.18461372661E+04  0.50400001928E-02 0. -1.
       -1   -1    0    0    0  501  0.00000000000E+00  0.00000000000E+00 -0.95040953750E+03  0.95040953751E+03  0.50400001928E-02 0.  1.
    10030    2    1    2    0    0  0.00000000000E+00  0.00000000000E+00  0.89572772859E+03  0.27965468036E+04  0.26492160842E+04 0.  0.
        5    1    3    3  502    0  0.76342941493E+03 -0.48823713956E+03  0.14676998327E+04  0.17249245969E+04  0.46999998093E+01 0. -1.
       -5    1    3    3    0  502 -0.76342941493E+03  0.48823713956E+03 -0.57197210413E+03  0.10716222067E+04  0.46999998093E+01 0.  1.
</event>
<event>
 5   0  0.1302063E-05  0.2789652E+04  0.7818609E-02  0.8306488E-01
        2   -1    0    0  501    0  0.00000000000E+00  0.00000000000E+00  0.14934322720E+04  0.14934322720E+04  0.25500000920E-02 0.  1.
       -2   -1    0    0    0  501  0.00000000000E+00  0.00000000000E+00 -0.13027302935E+04  0.13027302935E+04  0.25500000920E-02 0. -1.
    10030    2    1    2    0    0  0.00000000000E+00  0.00000000000E+00  0.19070197853E+03  0.27961625655E+04  0.27896519224E+04 0.  0.
        2    1    3    3  502    0 -0.76882402690E+03  0.53428487148E+03 -0.94098115150E+03  0.13274020626E+04  0.25500000920E-02 0. -1.
       -2    1    3    3    0  502  0.76882402690E+03 -0.53428487148E+03  0.11316831300E+04  0.14687605030E+04  0.25500000920E-02 0.  1.
</event>
<event>
 5   0  0.1350863E-05  0.2783473E+04  0.7818609E-02  0.8308418E-01
       -2   -1    0    0    0  501  0.00000000000E+00  0.00000000000E+00  0.15382858538E+04  0.15382858538E+04  0.25500000920E-02 0.  1.
        2   -1    0    0  501    0  0.00000000000E+00  0.00000000000E+00 -0.12591490343E+04  0.12591490343E+04  0.25500000920E-02 0. -1.
    10030    2    1    2    0    0  0.00000000000E+00  0.00000000000E+00  0.27913681951E+03  0.27974348882E+04  0.27834734756E+04 0.  0.
        3    1    3    3  502    0  0.26136265216E+03  0.13553622739E+04 -0.39126138865E+02  0.13808867421E+04  0.10100000352E+00 0.  1.
       -3    1    3    3    0  502 -0.26136265216E+03 -0.13553622739E+04  0.31826295837E+03  0.14165481461E+04  0.10100000352E+00 0. -1.
</event>
<event>
 5   0  0.5107453E-06  0.2597997E+04  0.7818609E-02  0.8368882E-01
        1   -1    0    0  501    0  0.00000000000E+00  0.00000000000E+00  0.11926880900E+04  0.11926880900E+04  0.50400001928E-02 0. -1.
       -1   -1    0    0    0  501  0.00000000000E+00  0.00000000000E+00 -0.14147851547E+04  0.14147851547E+04  0.50400001928E-02 0.  1.
    10030    2    1    2    0    0  0.00000000000E+00  0.00000000000E+00 -0.22209706471E+03  0.26074732447E+04  0.25979972316E+04 0.  0.
        2    1    3    3  502    0  0.94019764427E+03  0.18936831861E+03 -0.99035219287E+03  0.13786331769E+04  0.25500000920E-02 0.  1.
       -2    1    3    3    0  502 -0.94019764427E+03 -0.18936831861E+03  0.76825512816E+03  0.12288400678E+04  0.25500000920E-02 0. -1.
</event>
<event>
 5   0  0.5023691E-06  0.2844135E+04  0.7818609E-02  0.8289696E-01
       -1   -1    0    0    0  501  0.00000000000E+00  0.00000000000E+00  0.10978153533E+04  0.10978153533E+04  0.50400001928E-02 0. -1.
        1   -1    0    0  501    0  0.00000000000E+00  0.00000000000E+00 -0.18420916292E+04  0.18420916292E+04  0.50400001928E-02 0.  1.
    10030    2    1    2    0    0  0.00000000000E+00  0.00000000000E+00 -0.74427627591E+03  0.29399069824E+04  0.28441353502E+04 0.  0.
        5    1    3    3  502    0 -0.11220679464E+04 -0.22013208987E+03  0.50176516221E+03  0.12487133303E+04  0.46999998093E+01 0. -1.
       -5    1    3    3    0  502  0.11220679464E+04  0.22013208987E+03 -0.12460414381E+04  0.16911936521E+04  0.46999998093E+01 0.  1.
</event>
<event>
 5   0  0.1350863E-05  0.2792639E+04  0.7818609E-02  0.8305557E-01
        2   -1    0    0  501    0  0.00000000000E+00  0.00000000000E+00  0.15588277584E+04  0.15588277584E+04  0.25500000920E-02 0. -1.
       -2   -1    0    0    0  501  0.00000000000E+00  0.00000000000E+00 -0.12507523541E+04  0.12507523541E+04  0.25500000920E-02 0.  1.
    10030    2    1    2    0    0  0.00000000000E+00  0.00000000000E+00  0.30807540434E+03  0.28095801125E+04  0.27926385290E+04 0.  0.
        3    1    3    3  502    0  0.13660738869E+04 -0.15170981555E+03 -0.93490944951E+02  0.13776481044E+04  0.10100000352E+00 0. -1.
       -3    1    3    3    0  502 -0.13660738869E+04  0.15170981555E+03  0.40156634929E+03  0.14319320081E+04  0.10100000352E+00 0.  1.
</event>
<event>
 5   0  0.1350863E-05  0.2790465E+04  0.7818609E-02  0.8306235E-01
       -2   -1    0    0    0  501  0.00000000000E+00  0.00000000000E+00  0.16215825188E+04  0.16215825188E+04  0.25500000920E-02 0. -1.
        2   -1    0    0  501    0  0.00000000000E+00  0.00000000000E+00 -0.12004776932E+04  0.12004776932E+04  0.25500000920E-02 0.  1.
    10030    2    1    2    0    0  0.00000000000E+00  0.00000000000E+00  0.42110482561E+03  0.28220602119E+04  0.27904649372E+04 0.  0.
        3    1    3    3  502    0  0.59289244999E+03  0.12603039375E+04  0.29386329331E+03  0.14234616670E+04  0.10100000352E+00 0.  1.
       -3    1    3    3    0  502 -0.59289244999E+03 -0.12603039375E+04  0.12724153231E+03  0.13985985449E+04  0.10100000352E+00 0. -1.
</event>
<event>
 5   0  0.1302063E-05  0.2876675E+04  0.7818609E-02  0.8279851E-01
        2   -1    0    0  501    0  0.00000000000E+00  0.00000000000E+00  0.17212340586E+04  0.17212340586E+04  0.25500000920E-02 0. -1.
       -2   -1    0    0    0  501  0.00000000000E+00  0.00000000000E+00 -0.12019366794E+04  0.12019366794E+04  0.25500000920E-02 0.  1.
    10030    2    1    2    0    0  0.00000000000E+00  0.00000000000E+00  0.51929737922E+03  0.29231707380E+04  0.28766747115E+04 0.  0.
        2    1    3    3  502    0  0.69742437801E+03 -0.12185082181E+04  0.57719162879E+03  0.15179964483E+04  0.25500000920E-02 0.  1.
       -2    1    3    3    0  502 -0.69742437801E+03  0.12185082181E+04 -0.57894249575E+02  0.14051742898E+04  0.25500000920E-02 0. -1.
</event>
<event>
 5   0  0.5217999E-06  0.2794595E+04  0.7818609E-02  0.8304948E-01
        1   -1    0    0  501    0  0.00000000000E+00  0.00000000000E+00  0.24659822191E+04  0.24659822191E+04  0.50400001928E-02 0.  1.
       -1   -1    0    0    0  501  0.00000000000E+00  0.00000000000E+00 -0.79174972808E+03  0.79174972809E+03  0.50400001928E-02 0. -1.
    10030    2    1    2    0    0  0.00000000000E+00  0.00000000000E+00  0.16742324910E+04  0.32577319472E+04  0.27945953206E+04 0.  0.
        1    1    3    3  502    0 -0.95850061435E+03 -0.91620057559E+03  0.32327859545E+03  0.13647915492E+04  0.50400001928E-02 0. -1.
       -1    1    3    3    0  502  0.95850061435E+03  0.91620057559E+03  0.13509538955E+04  0.18929403980E+04  0.50400001928E-02 0.  1.
</event>
<event>
 5   0  0.1330962E-05  0.2809021E+04  0.7818609E-02  0.8300473E-01
        2   -1    0    0  501    0  0.00000000000E+00  0.00000000000E+00  0.22138090726E+04  0.22138090726E+04  0.25500000920E-02 0.  1.
       -2   -1    0    0    0  501  0.00000000000E+00  0.00000000000E+00 -0.89106615725E+03  0.89106615725E+03  0.25500000920E-02 0. -1.
    10030    2    1    2    0    0  0.00000000000E+00  0.00000000000E+00  0.13227429153E+04  0.31048752298E+04  0.28090214262E+04 0.  0.
        4    1    3    3  502    0  0.10808069380E+04 -0.15781657824E+03 -0.31457219365E+03  0.11366648527E+04  0.12699999809E+01 0. -1.
       -4    1    3    3    0  502 -0.10808069380E+04  0.15781657824E+03  0.16373151090E+04  0.19682103771E+04  0.12699999809E+01 0.  1.
</event>
<event>
 5   0  0.1350863E-05  0.2726785E+04  0.7818609E-02  0.8326366E-01
       -2   -1    0    0    0  501  0.00000000000E+00  0.00000000000E+00  0.12021685746E+04  0.12021685746E+04  0.25500000920E-02 0.  1.
        2   -1    0    0  501    0  0.00000000000E+00  0.00000000000E+00 -0.15462385003E+04  0.15462385003E+04  0.25500000920E-02 0. -1.
    10030    2    1    2    0    0  0.00000000000E+00  0.00000000000E+00 -0.34406992571E+03  0.27484070749E+04  0.27267851649E+04 0.  0.
        3    1    3    3  502    0  0.14817679982E+02 -0.13321029327E+04 -0.46437192832E+03  0.14108008665E+04  0.10100000352E+00 0. -1.
       -3    1    3    3    0  502 -0.14817679982E+02  0.13321029327E+04  0.12030200261E+03  0.13376062084E+04  0.10100000352E+00 0.  1.
</event>
<event>
 5   0  0.5107453E-06  0.2934608E+04  0.7818609E-02  0.8262655E-01
        1   -1    0    0  501    0  0.00000000000E+00  0.00000000000E+00  0.11454545845E+04  0.11454545845E+04  0.50400001928E-02 0. -1.
       -1   -1    0    0    0  501  0.00000000000E+00  0.00000000000E+00 -0.18795860391E+04  0.18795860391E+04  0.50400001928E-02 0.  1.
    10030    2    1    2    0    0  0.00000000000E+00  0.00000000000E+00 -0.73413145464E+03  0.30250406237E+04  0.29346076027E+04 0.  0.
        2    1    3    3  502    0 -0.23461470976E+03  0.49303437008E+03  0.10368336423E+04  0.11718152389E+04  0.25500000920E-02 0. -1.
       -2    1    3    3    0  502  0.23461470976E+03 -0.49303437008E+03 -0.17709650970E+04  0.18532253848E+04  0.25500000920E-02 0.  1.
</event>
<event>
 5   0  0.5217999E-06  0.2694082E+04  0.7818609E-02  0.8336928E-01
        1   -1    0    0  501    0  0.00000000000E+00  0.00000000000E+00  0.18484204074E+04  0.18484204074E+04  0.50400001928E-02 0. -1.
       -1   -1    0    0    0  501  0.00000000000E+00  0.00000000000E+00 -0.98165942654E+03  0.98165942655E+03  0.50400001928E-02 0.  1.
    10030    2    1    2    0    0  0.00000000000E+00  0.00000000000E+00  0.86676098088E+03  0.28300798340E+04  0.26940818972E+04 0.  0.
        1    1    3    3  502    0 -0.85246361267E+03 -0.82304881102E+03 -0.23959602366E+03  0.12089292001E+04  0.50400001928E-02 0.  1.
       -1    1    3    3    0  502  0.85246361267E+03  0.82304881102E+03  0.11063570045E+04  0.16211506339E+04  0.50400001928E-02 0. -1.
</event>
<event>
 5   0  0.1388269E-05  0.2781589E+04  0.7818609E-02  0.8309007E-01
        2   -1    0    0  501    0  0.00000000000E+00  0.00000000000E+00  0.12163427169E+04  0.12163427169E+04  0.25500000920E-02 0.  1.
       -2   -1    0    0    0  501  0.00000000000E+00  0.00000000000E+00 -0.15902670793E+04  0.15902670793E+04  0.25500000920E-02 0. -1.
    10030    2    1    2    0    0  0.00000000000E+00  0.00000000000E+00 -0.37392436231E+03  0.28066097962E+04  0.27815893154E+04 0.  0.
        1    1    3    3  502    0  0.85013929089E+03 -0.10705016703E+04  0.71464946057E+02  0.13688746760E+04  0.50400001928E-02 0.  1.
       -1    1    3    3    0  502 -0.85013929089E+03  0.10705016703E+04 -0.44538930837E+03  0.14377351202E+04  0.50400001928E-02 0. -1.
</event>
<event>
 5   0  0.5023691E-06  0.2828999E+04  0.7818609E-02  0.8294322E-01
        1   -1    0    0  501    0  0.00000000000E+00  0.00000000000E+00  0.31720058163E+04  0.31720058163E+04  0.50400001928E-02 0. -1.
       -1   -1    0    0    0  501  0.00000000000E+00  0.00000000000E+00 -0.63077070815E+03  0.63077070817E+03  0.50400001928E-02 0.  1.
    10030    2    1    2    0    0  0.00000000000E+00  0.00000000000E+00  0.25412351081E+04  0.38027765245E+04  0.28289986603E+04 0.  0.
        5    1    3    3  502    0  0.47169185151E+03  0.72785382213E+03  0.27726044391E+04  0.29051027271E+04  0.46999998093E+01 0. -1.
       -5    1    3    3    0  502 -0.47169185151E+03 -0.72785382213E+03 -0.23136933098E+03  0.89767379737E+03  0.46999998093E+01 0.  1.
</event>
<event>
 5   0  0.5217999E-06  0.2572117E+04  0.7818609E-02  0.8377735E-01
       -1   -1    0    0    0  501  0.00000000000E+00  0.00000000000E+00  0.48509647413E+03  0.48509647416E+03  0.50400001928E-02 0.  1.
        1   -1    0    0  501    0  0.00000000000E+00  0.00000000000E+00 -0.34095205940E+04  0.34095205940E+04  0.50400001928E-02 0. -1.
    10030    2    1    2    0    0  0.00000000000E+00  0.00000000000E+00 -0.29244241199E+04  0.38946170682E+04  0.25721169637E+04 0.  0.
        1    1    3    3  502    0  0.99204910433E+03 -0.11459051546E+03 -0.23521831566E+03  0.10259727422E+04  0.50400001928E-02 0.  1.
       -1    1    3    3    0  502 -0.99204910433E+03  0.11459051546E+03 -0.26892058042E+04  0.28686443260E+04  0.50400001928E-02 0. -1.
</event>
<event>
 5   0  0.1350863E-05  0.2838211E+04  0.7818609E-02  0.8291503E-01
        2   -1    0    0  501    0  0.00000000000E+00  0.00000000000E+00  0.13438714063E+04  0.13438714063E+04  0.25500000920E-02 0. -1.
       -2   -1    0    0    0  501  0.00000000000E+00  0.00000000000E+00 -0.14985517256E+04  0.14985517256E+04  0.25500000920E-02 0.  1.
    10030    2    1    2    0    0  0.00000000000E+00  0.00000000000E+00 -0.15468031931E+03  0.28424231318E+04  0.28382112781E+04 0.  0.
        3    1    3    3  502    0  0.12112946097E+04  0.15496952400E+03  0.64665076570E+03  0.13818130871E+04  0.10100000352E+00 0. -1.
       -3    1    3    3    0  502 -0.12112946097E+04 -0.15496952400E+03 -0.80133108501E+03  0.14606100447E+04  0.10100000352E+00 0.  1.
</event>
<event>
 5   0  0.5217999E-06  0.2789215E+04  0.7818609E-02  0.8306625E-01
        1   -1    0    0  501    0  0.00000000000E+00  0.00000000000E+00  0.17880289698E+04  0.17880289698E+04  0.50400001928E-02 0.  1.
       -1   -1    0    0    0  501  0.00000000000E+00  0.00000000000E+00 -0.10877505775E+04  0.10877505775E+04  0.50400001928E-02 0. -1.
    10030    2    1    2    0    0  0.00000000000E+00  0.00000000000E+00  0.70027839230E+03  0.28757795474E+04  0.27892146168E+04 0.  0.
        1    1    3    3  502    0 -0.23829764073E+03  0.13740575431E+04  0.36093543553E+03  0.14405187559E+04  0.50400001928E-02 0.  1.
       -1    1    3    3    0  502  0.23829764073E+03 -0.13740575431E+04  0.33934295677E+03  0.14352607915E+04  0.50400001928E-02 0. -1.
</event>
<event>
 5   0  0.5217999E-06  0.2754507E+04  0.7818609E-02  0.8317533E-01
        1   -1    0    0  501    0  0.00000000000E+00  0.00000000000E+00  0.17632601922E+04  0.17632601922E+04  0.50400001928E-02 0.  1.
       -1   -1    0    0    0  501  0.00000000000E+00  0.00000000000E+00 -0.10757496537E+04  0.10757496537E+04  0.50400001928E-02 0. -1.
    10030    2    1    2    0    0  0.00000000000E+00  0.00000000000E+00  0.68751053852E+03  0.28390098459E+04  0.27545065193E+04 0.  0.
        1    1    3    3  502    0  0.83243445552E+03  0.73815266793E+01  0.14746046403E+04  0.16933577457E+04  0.50400001928E-02 0.  1.
       -1    1    3    3    0  502 -0.83243445552E+03 -0.73815266793E+01 -0.78709410180E+03  0.11456521002E+04  0.50400001928E-02 0. -1.
</event>
<event>
 5   0  0.5107453E-06  0.2788783E+04  0.7818609E-02  0.8306759E-01
        1   -1    0    0  501    0  0.00000000000E+00  0.00000000000E+00  0.14847976379E+04  0.14847976379E+04  0.50400001928E-02 0. -1.
       -1   -1    0    0    0  501  0.00000000000E+00  0.00000000000E+00 -0.13094897993E+04  0.13094897993E+04  0.50400001928E-02 0.  1.
    10030    2    1    2    0    0  0.00000000000E+00  0.00000000000E+00  0.17530783859E+03  0.27942874372E+04  0.27887827888E+04 0.  0.
        2    1    3    3  502    0  0.94875053604E+03 -0.44244712776E+03 -0.83527241554E+03  0.13392412212E+04  0.25500000920E-02 0.  1.
       -2    1    3    3    0  502 -0.94875053604E+03  0.44244712776E+03  0.10105802541E+04  0.14550462159E+04  0.25500000920E-02 0. -1.
</event>
<event>
 5   0  0.1388269E-05  0.2805341E+04  0.7818609E-02  0.8301612E-01
        2   -1    0    0  501    0  0.00000000000E+00  0.00000000000E+00  0.22063660362E+04  0.22063660362E+04  0.25500000920E-02 0.  1.
       -2   -1    0    0    0  501  0.00000000000E+00  0.00000000000E+00 -0.89173082277E+03  0.89173082277E+03  0.25500000920E-02 0. -1.
    10030    2    1    2    0    0  0.00000000000E+00  0.00000000000E+00  0.13146352135E+04  0.30980968590E+04  0.28053410494E+04 0.  0.
        1    1    3    3  502    0 -0.51937713166E+03  0.16215227553E+03  0.20850754124E+04  0.21548980117E+04  0.50400001928E-02 0.  1.
       -1    1    3    3    0  502  0.51937713166E+03 -0.16215227553E+03 -0.77044019896E+03  0.94319884730E+03  0.50400001928E-02 0. -1.
</event>
<event>
 5   0  0.4447500E-06  0.2710343E+04  0.7818609E-02  0.8331657E-01
       -3   -1    0    0    0  501  0.00000000000E+00  0.00000000000E+00  0.16839199557E+04  0.16839199587E+04  0.10100000352E+00 0. -1.
        3   -1    0    0  501    0  0.00000000000E+00  0.00000000000E+00 -0.10906039562E+04  0.10906039609E+04  0.10100000352E+00 0.  1.
    10030    2    1    2    0    0  0.00000000000E+00  0.00000000000E+00  0.59331599947E+03  0.27745239196E+04  0.27103429866E+04 0.  0.
        4    1    3    3  502    0 -0.73785822438E+03  0.67084528428E+03  0.12360036441E+04  0.15881356289E+04  0.12699999809E+01 0.  1.
       -4    1    3    3    0  502  0.73785822438E+03 -0.67084528428E+03 -0.64268764464E+03  0.11863882907E+04  0.12699999809E+01 0. -1.
</event>
<event>
 5   0  0.1350863E-05  0.2834949E+04  0.7818609E-02  0.8292499E-01
        2   -1    0    0  501    0  0.00000000000E+00  0.00000000000E+00  0.21181735646E+04  0.21181735646E+04  0.25500000920E-02 0. -1.
       -2   -1    0    0    0  501  0.00000000000E+00  0.00000000000E+00 -0.94856927490E+03  0.94856927490E+03  0.25500000920E-02 0.  1.
    10030    2    1    2    0    0  0.00000000000E+00  0.00000000000E+00  0.11696042897E+04  0.30667428395E+04  0.28349492851E+04 0.  0.
        3    1    3    3  502    0  0.84508732786E+03  0.11356506338E+03  0.18097115801E+04  0.20005313366E+04  0.10100000352E+00 0. -1.
       -3    1    3    3    0  502 -0.84508732786E+03 -0.11356506338E+03 -0.64010729046E+03  0.10662115029E+04  0.10100000352E+00 0.  1.
</event>
<event>
 5   0  0.1302063E-05  0.2791597E+04  0.7818609E-02  0.8305882E-01
        2   -1    0    0  501    0  0.00000000000E+00  0.00000000000E+00  0.15430608407E+04  0.15430608407E+04  0.25500000920E-02 0.  1.
       -2   -1    0    0    0  501  0.00000000000E+00  0.00000000000E+00 -0.12625898665E+04  0.12625898665E+04  0.25500000920E-02 0. -1.
    10030    2    1    2    0    0  0.00000000000E+00  0.00000000000E+00  0.28047097421E+03  0.28056507071E+04  0.27915966619E+04 0.  0.
        2    1    3    3  502    0 -0.39553497181E+02 -0.76744404460E+03  0.13113132703E+04  0.15198938560E+04  0.25500000920E-02 0.  1.
       -2    1    3    3    0  502  0.39553497181E+02  0.76744404460E+03 -0.10308422961E+04  0.12857568511E+04  0.25500000920E-02 0. -1.
</event>
<event>
 5   0  0.1330962E-05  0.2795684E+04  0.7818609E-02  0.8304609E-01
       -2   -1    0    0    0  501  0.00000000000E+00  0.00000000000E+00  0.17997113243E+04  0.17997113243E+04  0.25500000920E-02 0.  1.
        2   -1    0    0  501    0  0.00000000000E+00  0.00000000000E+00 -0.10857090445E+04  0.10857090445E+04  0.25500000920E-02 0. -1.
    10030    2    1    2    0    0  0.00000000000E+00  0.00000000000E+00  0.71400227981E+03  0.28854203689E+04  0.27956844331E+04 0.  0.
        4    1    3    3  502    0  0.66412368033E+03 -0.74858134591E+02 -0.91012659805E+03  0.11291572258E+04  0.12699999809E+01 0. -1.
       -4    1    3    3    0  502 -0.66412368033E+03  0.74858134591E+02  0.16241288779E+04  0.17562631431E+04  0.12699999809E+01 0.  1.
</event>
<event>
 5   0  0.1350863E-05  0.2734164E+04  0.7818609E-02  0.8324004E-01
        2   -1    0    0  501    0  0.00000000000E+00  0.00000000000E+00  0.12041959198E+04  0.12041959198E+04  0.25500000920E-02 0. -1.
       -2   -1    0    0    0  501  0.00000000000E+00  0.00000000000E+00 -0.15520004316E+04  0.15520004316E+04  0.25500000920E-02 0.  1.
    10030    2    1    2    0    0  0.00000000000E+00  0.00000000000E+00 -0.34780451179E+03  0.27561963514E+04  0.27341635556E+04 0.  0.
        3    1    3    3  502    0  0.95462991482E+03  0.94687326585E+02  0.80792203645E+03  0.12542017347E+04  0.10100000352E+00 0. -1.
       -3    1    3    3    0  502 -0.95462991482E+03 -0.94687326585E+02 -0.11557265482E+04  0.15019946167E+04  0.10100000352E+00 0.  1.
</event>
<event>
 5   0  0.5217999E-06  0.2767732E+04  0.7818609E-02  0.8313357E-01
       -1   -1    0    0    0  501  0.00000000000E+00  0.00000000000E+00  0.10904485884E+04  0.10904485884E+04  0.50400001928E-02 0.  1.
        1   -1    0    0  501    0  0.00000000000E+00  0.00000000000E+00 -0.17562360051E+04  0.17562360051E+04  0.50400001928E-02 0. -1.
    10030    2    1    2    0    0  0.00000000000E+00  0.00000000000E+00 -0.66578741672E+03  0.28466845935E+04  0.27677319759E+04 0.  0.
        1    1    3    3  502    0 -0.11329187252E+04  0.34184660595E+02 -0.11495276616E+04  0.16143380296E+04  0.50400001928E-02 0. -1.
       -1    1    3    3    0  502  0.11329187252E+04 -0.34184660595E+02  0.48374024486E+03  0.12323465639E+04  0.50400001928E-02 0.  1.
</event>
<event>
 5   0  0.4447500E-06  0.2018713E+04  0.7818609E-02  0.8597922E-01
       -3   -1    0    0    0  501  0.00000000000E+00  0.00000000000E+00  0.71615742603E+03  0.71615743315E+03  0.10100000352E+00 0.  1.
        3   -1    0    0  501    0  0.00000000000E+00  0.00000000000E+00 -0.14225924048E+04  0.14225924084E+04  0.10100000352E+00 0. -1.
    10030    2    1    2    0    0  0.00000000000E+00  0.00000000000E+00 -0.70643497877E+03  0.21387498415E+04  0.20187125861E+04 0.  0.
        2    1    3    3  502    0  0.66521957163E+03 -0.71269120452E+03 -0.63021024030E+03  0.11608663913E+04  0.25500000920E-02 0.  1.
       -2    1    3    3    0  502 -0.66521957163E+03  0.71269120452E+03 -0.76224738474E+02  0.97788345023E+03  0.25500000920E-02 0. -1.
</event>
<event>
 5   0  0.4447500E-06  0.2783333E+04  0.7818609E-02  0.8308461E-01
       -3   -1    0    0    0  501  0.00000000000E+00  0.00000000000E+00  0.18506585404E+04  0.18506585432E+04  0.10100000352E+00 0. -1.
        3   -1    0    0  501    0  0.00000000000E+00  0.00000000000E+00 -0.10465116928E+04  0.10465116977E+04  0.10100000352E+00 0.  1.
    10030    2    1    2    0    0  0.00000000000E+00  0.00000000000E+00  0.80414684765E+03  0.28971702409E+04  0.27833331191E+04 0.  0.
        5    1    3    3  502    0 -0.11088649764E+03  0.10909803025E+04  0.12939609083E+04  0.16961399582E+04  0.46999998093E+01 0. -1.
       -5    1    3    3    0  502  0.11088649764E+03 -0.10909803025E+04 -0.48981406060E+03  0.12010302826E+04  0.46999998093E+01 0.  1.
</event>
<event>
 5   0  0.1330962E-05  0.2812049E+04  0.7818609E-02  0.8299537E-01
       -2   -1    0    0    0  501  0.00000000000E+00  0.00000000000E+00  0.59989802366E+03  0.59989802367E+03  0.25500000920E-02 0.  1.
        2   -1    0    0  501    0  0.00000000000E+00  0.00000000000E+00 -0.32954010577E+04  0.32954010577E+04  0.25500000920E-02 0. -1.
    10030    2    1    2    0    0  0.00000000000E+00  0.00000000000E+00 -0.26955030341E+04  0.38952990814E+04  0.28120487775E+04 0.  0.
        4    1    3    3  502    0  0.71491040467E+03  0.84946736739E+03 -0.15275653618E+03  0.11207264908E+04  0.12699999809E+01 0.  1.
       -4    1    3    3    0  502 -0.71491040467E+03 -0.84946736739E+03 -0.25427464979E+04  0.27745725906E+04  0.12699999809E+01 0. -1.
</event>
<event>
 5   0  0.1302063E-05  0.2796152E+04  0.7818609E-02  0.8304464E-01
       -2   -1    0    0    0  501  0.00000000000E+00  0.00000000000E+00  0.10191504023E+04  0.10191504023E+04  0.25500000920E-02 0.  1.
        2   -1    0    0  501    0  0.00000000000E+00  0.00000000000E+00 -0.19178882634E+04  0.19178882634E+04  0.25500000920E-02 0. -1.
    10030    2    1    2    0    0  0.00000000000E+00  0.00000000000E+00 -0.89873786102E+03  0.29370386657E+04  0.27961520669E+04 0.  0.
        2    1    3    3  502    0  0.42501799938E+03  0.13577777367E+03 -0.18410968114E+04  0.18943899737E+04  0.25500000920E-02 0. -1.
       -2    1    3    3    0  502 -0.42501799938E+03 -0.13577777367E+03  0.94235895035E+03  0.10426486920E+04  0.25500000920E-02 0.  1.
</event>
<event>
 5   0  0.5107453E-06  0.2766373E+04  0.7818609E-02  0.8313785E-01
       -1   -1    0    0    0  501  0.00000000000E+00  0.00000000000E+00  0.28653530523E+04  0.28653530523E+04  0.50400001928E-02 0.  1.
        1   -1    0    0  501    0  0.00000000000E+00  0.00000000000E+00 -0.66770293914E+03  0.66770293916E+03  0.50400001928E-02 0. -1.
    10030    2    1    2    0    0  0.00000000000E+00  0.00000000000E+00  0.21976501132E+04  0.35330559915E+04  0.27663728272E+04 0.  0.
        2    1    3    3  502    0  0.13422010530E+03 -0.10850893236E+04  0.16811513472E+02  0.10934882275E+04  0.25500000920E-02 0. -1.
       -2    1    3    3    0  502 -0.13422010530E+03  0.10850893236E+04  0.21808385997E+04  0.24395677639E+04  0.25500000920E-02 0.  1.
</event>
<event>
 5   0  0.5107453E-06  0.2774807E+04  0.7818609E-02  0.8311133E-01
       -1   -1    0    0    0  501  0.00000000000E+00  0.00000000000E+00  0.79439257641E+03  0.79439257642E+03  0.50400001928E-02 0.  1.
        1   -1    0    0  501    0  0.00000000000E+00  0.00000000000E+00 -0.24230945713E+04  0.24230945713E+04  0.50400001928E-02 0. -1.
    10030    2    1    2    0    0  0.00000000000E+00  0.00000000000E+00 -0.16287019948E+04  0.32174871477E+04  0.27748069045E+04 0.  0.
        2    1    3    3  502    0  0.99553806810E+03 -0.33458133384E+01 -0.19348374087E+04  0.21759372780E+04  0.25500000920E-02 0. -1.
       -2    1    3    3    0  502 -0.99553806810E+03  0.33458133384E+01  0.30613541386E+03  0.10415498697E+04  0.25500000920E-02 0.  1.
</event>
<event>
 5   0  0.1388269E-05  0.2799035E+04  0.7818609E-02  0.8303568E-01
        2   -1    0    0  501    0  0.00000000000E+00  0.00000000000E+00  0.14997530003E+04  0.14997530003E+04  0.25500000920E-02 0.  1.
       -2   -1    0    0    0  501  0.00000000000E+00  0.00000000000E+00 -0.13059811206E+04  0.13059811206E+04  0.25500000920E-02 0. -1.
    10030    2    1    2    0    0  0.00000000000E+00  0.00000000000E+00  0.19377187978E+03  0.28057341209E+04  0.27990349079E+04 0.  0.
        1    1    3    3  502    0 -0.17064624330E+03  0.73363549784E+02 -0.12935702029E+04  0.13068382534E+04  0.50400001928E-02 0. -1.
       -1    1    3    3    0  502  0.17064624330E+03 -0.73363549784E+02  0.14873420826E+04  0.14988958675E+04  0.50400001928E-02 0.  1.
</event>
<event>
 5   0  0.5217999E-06  0.2785511E+04  0.7818609E-02  0.8307781E-01
       -1   -1    0    0    0  501  0.00000000000E+00  0.00000000000E+00  0.13998759600E+04  0.13998759600E+04  0.50400001928E-02 0. -1.
        1   -1    0    0  501    0  0.00000000000E+00  0.00000000000E+00 -0.13856711611E+04  0.13856711611E+04  0.50400001928E-02 0.  1.
    10030    2    1    2    0    0  0.00000000000E+00  0.00000000000E+00  0.14204798892E+02  0.27855471212E+04  0.27855109025E+04 0.  0.
        1    1    3    3  502    0 -0.10293113474E+04 -0.87080905312E+03 -0.34215490123E+03  0.13909925353E+04  0.50400001928E-02 0.  1.
       -1    1    3    3    0  502  0.10293113474E+04  0.87080905312E+03  0.35635970012E+03  0.13945545858E+04  0.50400001928E-02 0. -1.
</event>
<event>
 5   0  0.5023691E-06  0.2714246E+04  0.7818609E-02  0.8330397E-01
       -1   -1    0    0    0  501  0.00000000000E+00  0.00000000000E+00  0.13861989622E+04  0.13861989622E+04  0.50400001928E-02 0. -1.
        1   -1    0    0  501    0  0.00000000000E+00  0.00000000000E+00 -0.13286569778E+04  0.13286569778E+04  0.50400001928E-02 0.  1.
    10030    2    1    2    0    0  0.00000000000E+00  0.00000000000E+00  0.57541984462E+02  0.27148559400E+04  0.27142460638E+04 0.  0.
        5    1    3    3  502    0  0.88190506373E+03 -0.95569618073E+03  0.41699362181E+03  0.13656564363E+04  0.46999998093E+01 0. -1.
       -5    1    3    3    0  502 -0.88190506373E+03  0.95569618073E+03 -0.35945163735E+03  0.13491995037E+04  0.46999998093E+01 0.  1.
</event>
<event>
 5   0  0.5217999E-06  0.2832757E+04  0.7818609E-02  0.8293170E-01
        1   -1    0    0  501    0  0.00000000000E+00  0.00000000000E+00  0.11123921110E+04  0.11123921110E+04  0.50400001928E-02 0. -1.
       -1   -1    0    0    0  501  0.00000000000E+00  0.00000000000E+00 -0.18034366884E+04  0.18034366884E+04  0.50400001928E-02 0.  1.
    10030    2    1    2    0    0  0.00000000000E+00  0.00000000000E+00 -0.69104457735E+03  0.29158287994E+04  0.28327574869E+04 0.  0.
        1    1    3    3  502    0 -0.26432252698E+03 -0.53864075654E+02  0.10857066302E+04  0.11187165073E+04  0.50400001928E-02 0. -1.
       -1    1    3    3    0  502  0.26432252698E+03  0.53864075654E+02 -0.17767512075E+04  0.17971122921E+04  0.50400001928E-02 0.  1.
</event>
<event>
 5   0  0.4764214E-06  0.2838160E+04  0.7818609E-02  0.8291518E-01
       -1   -1    0    0    0  501  0.00000000000E+00  0.00000000000E+00  0.14595528746E+04  0.14595528746E+04  0.50400001928E-02 0.  1.
        1   -1    0    0  501    0  0.00000000000E+00  0.00000000000E+00 -0.13797294631E+04  0.13797294631E+04  0.50400001928E-02 0. -1.
    10030    2    1    2    0    0  0.00000000000E+00  0.00000000000E+00  0.79823411524E+02  0.28392823376E+04  0.28381600406E+04 0.  0.
        3    1    3    3  502    0 -0.10966699211E+04 -0.42304468877E+03  0.83529614168E+03  0.14420025586E+04  0.10100000352E+00 0.  1.
       -3    1    3    3    0  502  0.10966699211E+04  0.42304468877E+03 -0.75547273016E+03  0.13972797790E+04  0.10100000352E+00 0. -1.
</event>
<event>
 5   0  0.1350863E-05  0.2788648E+04  0.7818609E-02  0.8306801E-01
        2   -1    0    0  501    0  0.00000000000E+00  0.00000000000E+00  0.29244782750E+04  0.29244782750E+04  0.25500000920E-02 0.  1.
       -2   -1    0    0    0  501  0.00000000000E+00  0.00000000000E+00 -0.66478151562E+03  0.66478151562E+03  0.25500000920E-02 0. -1.
    10030    2    1    2    0    0  0.00000000000E+00  0.00000000000E+00  0.22596967593E+04  0.35892597906E+04  0.27886477727E+04 0.  0.
        3    1    3    3  502    0 -0.76566218571E+03  0.99579509273E+03  0.19088266213E+04  0.22850526317E+04  0.10100000352E+00 0. -1.
       -3    1    3    3    0  502  0.76566218571E+03 -0.99579509273E+03  0.35087013808E+03  0.13042071589E+04  0.10100000352E+00 0.  1.
</event>
<event>
 5   0  0.1388269E-05  0.2766908E+04  0.7818609E-02  0.8313616E-01
       -2   -1    0    0    0  501  0.00000000000E+00  0.00000000000E+00  0.96018605949E+03  0.96018605949E+03  0.25500000920E-02 0. -1.
        2   -1    0    0  501    0  0.00000000000E+00  0.00000000000E+00 -0.19933066649E+04  0.19933066649E+04  0.25500000920E-02 0.  1.
    10030    2    1    2    0    0  0.00000000000E+00  0.00000000000E+00 -0.10331206054E+04  0.29534927244E+04  0.27669082182E+04 0.  0.
        1    1    3    3  502    0 -0.10446382019E+04 -0.81629078576E+03 -0.94490718724E+02  0.13291080151E+04  0.50400001928E-02 0. -1.
       -1    1    3    3    0  502  0.10446382019E+04  0.81629078576E+03 -0.93862988668E+03  0.16243847093E+04  0.50400001928E-02 0.  1.
</event>
<event>
 5   0  0.4447500E-06  0.2787414E+04  0.7818609E-02  0.8307186E-01
       -3   -1    0    0    0  501  0.00000000000E+00  0.00000000000E+00  0.11926639079E+04  0.11926639122E+04  0.10100000352E+00 0.  1.
        3   -1    0    0  501    0  0.00000000000E+00  0.00000000000E+00 -0.16286395727E+04  0.16286395758E+04  0.10100000352E+00 0. -1.
    10030    2    1    2    0    0  0.00000000000E+00  0.00000000000E+00 -0.43597566477E+03  0.28213034880E+04  0.27874143199E+04 0.  0.
        1    1    3    3  502    0  0.50855245018E+03  0.12794562354E+04  0.94217134534E+00  0.13768205187E+04  0.50400001928E-02 0. -1.
       -1    1    3    3    0  502 -0.50855245018E+03 -0.12794562354E+04 -0.43691783611E+03  0.14444829693E+04  0.50400001928E-02 0.  1.
</event>
<event>
 5   0  0.1330962E-05  0.2787664E+04  0.7818609E-02  0.8307108E-01
        2   -1    0    0  501    0  0.00000000000E+00  0.00000000000E+00  0.20005054124E+04  0.20005054124E+04  0.25500000920E-02 0.  1.
       -2   -1    0    0    0  501  0.00000000000E+00  0.00000000000E+00 -0.97113841774E+03  0.97113841774E+03  0.25500000920E-02 0. -1.
    10030    2    1    2    0    0  0.00000000000E+00  0.00000000000E+00  0.10293669946E+04  0.29716438301E+04  0.27876640119E+04 0.  0.
        4    1    3    3  502    0  0.98234051152E+03  0.65999268354E+02  0.15664173404E+04  0.18501388275E+04  0.12699999809E+01 0.  1.
       -4    1    3    3    0  502 -0.98234051152E+03 -0.65999268354E+02 -0.53705034577E+03  0.11215050026E+04  0.12699999809E+01 0. -1.
</event>
<event>
 5   0  0.5107453E-06  0.2807546E+04  0.7818609E-02  0.8300930E-01
       -1   -1    0    0    0  501  0.00000000000E+00  0.00000000000E+00  0.14495874561E+04  0.14495874562E+04  0.50400001928E-02 0.  1.
        1   -1    0    0  501    0  0.00000000000E+00  0.00000000000E+00 -0.13594063061E+04  0.13594063062E+04  0.50400001928E-02 0. -1.
    10030    2    1    2    0    0  0.00000000000E+00  0.00000000000E+00  0.90181150005E+02  0.28089937623E+04  0.28075457818E+04 0.  0.
        2    1    3    3  502    0 -0.32461096412E+03  0.80886415319E+03  0.11460875027E+04  0.14398437625E+04  0.25500000920E-02 0.  1.
       -2    1    3    3    0  502  0.32461096412E+03 -0.80886415319E+03 -0.10559063527E+04  0.13691499999E+04  0.25500000920E-02 0. -1.
</event>
<event>
 5   0  0.1283052E-05  0.2805993E+04  0.7818609E-02  0.8301410E-01
        2   -1    0    0  501    0  0.00000000000E+00  0.00000000000E+00  0.18197870443E+04  0.18197870443E+04  0.25500000920E-02 0. -1.
       -2   -1    0    0    0  501  0.00000000000E+00  0.00000000000E+00 -0.10816642582E+04  0.10816642582E+04  0.25500000920E-02 0.  1.
    10030    2    1    2    0    0  0.00000000000E+00  0.00000000000E+00  0.73812278606E+03  0.29014513025E+04  0.28059925897E+04 0.  0.
        5    1    3    3  502    0  0.31649253861E+03  0.94596096404E+03 -0.65109566759E+03  0.11911999542E+04  0.46999998093E+01 0.  1.
       -5    1    3    3    0  502 -0.31649253861E+03 -0.94596096404E+03  0.13892184536E+04  0.17102513483E+04  0.46999998093E+01 0. -1.
</event>
<event>
 5   0  0.1283052E-05  0.2795735E+04  0.7818609E-02  0.8304594E-01
       -2   -1    0    0    0  501  0.00000000000E+00  0.00000000000E+00  0.94047828179E+03  0.94047828179E+03  0.25500000920E-02 0. -1.
        2   -1    0    0  501    0  0.00000000000E+00  0.00000000000E+00 -0.20777012159E+04  0.20777012159E+04  0.25500000920E-02 0.  1.
    10030    2    1    2    0    0  0.00000000000E+00  0.00000000000E+00 -0.11372229341E+04  0.30181794977E+04  0.27957345150E+04 0.  0.
        5    1    3    3  502    0 -0.85270923856E+02  0.88272792295E+03  0.59788481422E+03  0.10695644242E+04  0.46999998093E+01 0. -1.
       -5    1    3    3    0  502  0.85270923856E+02 -0.88272792295E+03 -0.17351077484E+04  0.19486150735E+04  0.46999998093E+01 0.  1.
</event>
<event>
 5   0  0.1350863E-05  0.2695930E+04  0.7818609E-02  0.8336327E-01
       -2   -1    0    0    0  501  0.00000000000E+00  0.00000000000E+00  0.12915830049E+04  0.12915830049E+04  0.25500000920E-02 0.  1.
        2   -1    0    0  501    0  0.00000000000E+00  0.00000000000E+00 -0.14068085418E+04  0.14068085418E+04  0.25500000920E-02 0. -1.
    10030    2    1    2    0    0  0.00000000000E+00  0.00000000000E+00 -0.11522553688E+03  0.26983915468E+04  0.26959302690E+04 0.  0.
        3    1    3    3  502    0 -0.12992888648E+04 -0.94316024286E+02 -0.40428562545E+03  0.13639992463E+04  0.10100000352E+00 0. -1.
       -3    1    3    3    0  502  0.12992888648E+04  0.94316024286E+02  0.28906008858E+03  0.13343923005E+04  0.10100000352E+00 0.  1.
</event>
<event>
 5   0  0.1283052E-05  0.2808083E+04  0.7818609E-02  0.8300763E-01
        2   -1    0    0  501    0  0.00000000000E+00  0.00000000000E+00  0.14348497500E+04  0.14348497500E+04  0.25500000920E-02 0. -1.
       -2   -1    0    0    0  501  0.00000000000E+00  0.00000000000E+00 -0.13738948255E+04  0.13738948255E+04  0.25500000920E-02 0.  1.
    10030    2    1    2    0    0  0.00000000000E+00  0.00000000000E+00  0.60954924436E+02  0.28087445755E+04  0.28080830806E+04 0.  0.
        5    1    3    3  502    0  0.58255962573E+03 -0.52509669604E+03  0.11953153623E+04  0.14296514131E+04  0.46999998093E+01 0. -1.
       -5    1    3    3    0  502 -0.58255962573E+03  0.52509669604E+03 -0.11343604378E+04  0.13790931624E+04  0.46999998093E+01 0.  1.
</event>
<event>
 5   0  0.1302063E-05  0.2793640E+04  0.7818609E-02  0.8305245E-01
       -2   -1    0    0    0  501  0.00000000000E+00  0.00000000000E+00  0.73505350449E+03  0.73505350450E+03  0.25500000920E-02 0. -1.
        2   -1    0    0  501    0  0.00000000000E+00  0.00000000000E+00 -0.26543735477E+04  0.26543735477E+04  0.25500000920E-02 0.  1.
    10030    2    1    2    0    0  0.00000000000E+00  0.00000000000E+00 -0.19193200432E+04  0.33894270522E+04  0.27936403337E+04 0.  0.
        2    1    3    3  502    0 -0.69882965775E+03  0.11807431682E+04 -0.12774087734E+04  0.18746440980E+04  0.25500000920E-02 0. -1.
       -2    1    3    3    0  502  0.69882965775E+03 -0.11807431682E+04 -0.64191126975E+03  0.15147829541E+04  0.25500000920E-02 0.  1.
</event>
<event>
 5   0  0.1283052E-05  0.2773356E+04  0.7818609E-02  0.8311588E-01
       -2   -1    0    0    0  501  0.00000000000E+00  0.00000000000E+00  0.78294459482E+03  0.78294459482E+03  0.25500000920E-02 0.  1.
        2   -1    0    0  501    0  0.00000000000E+00  0.00000000000E+00 -0.24559535814E+04  0.24559535814E+04  0.25500000920E-02 0. -1.
    10030    2    1    2    0    0  0.00000000000E+00  0.00000000000E+00 -0.16730089866E+04  0.32388981762E+04  0.27733557880E+04 0.  0.
        5    1    3    3  502    0 -0.35841830042E+03  0.20169123657E+03  0.71006932250E+03  0.82058732974E+03  0.46999998093E+01 0.  1.
       -5    1    3    3    0  502  0.35841830042E+03 -0.20169123657E+03 -0.23830783091E+04  0.24183108465E+04  0.46999998093E+01 0. -1.
</event>
<event>
 5   0  0.1302063E-05  0.2889525E+04  0.7818609E-02  0.8276001E-01
        2   -1    0    0  501    0  0.00000000000E+00  0.00000000000E+00  0.22373923112E+04  0.22373923113E+04  0.25500000920E-02 0.  1.
       -2   -1    0    0    0  501  0.00000000000E+00  0.00000000000E+00 -0.93293372497E+03  0.93293372498E+03  0.25500000920E-02 0. -1.
    10030    2    1    2    0    0  0.00000000000E+00  0.00000000000E+00  0.13044585863E+04  0.31703260362E+04  0.28895250428E+04 0.  0.
        2    1    3    3  502    0  0.77638910886E+03  0.12004172128E+04  0.88121453455E+03  0.16793810136E+04  0.25500000920E-02 0.  1.
       -2    1    3    3    0  502 -0.77638910886E+03 -0.12004172128E+04  0.42324405172E+03  0.14909450226E+04  0.25500000920E-02 0. -1.
</event>
<event>
 5   0  0.1330962E-05  0.2653530E+04  0.7818609E-02  0.8350242E-01
        2   -1    0    0  501    0  0.00000000000E+00  0.00000000000E+00  0.98473990828E+03  0.98473990829E+03  0.25500000920E-02 0. -1.
       -2   -1    0    0    0  501  0.00000000000E+00  0.00000000000E+00 -0.17875845050E+04  0.17875845050E+04  0.25500000920E-02 0.  1.
    10030    2    1    2    0    0  0.00000000000E+00  0.00000000000E+00 -0.80284459672E+03  0.27723244133E+04  0.26535303288E+04 0.  0.
        4    1    3    3  502    0  0.46933351944E+03 -0.11096227672E+03  0.88992047324E+03  0.10121989137E+04  0.12699999809E+01 0. -1.
       -4    1    3    3    0  502 -0.46933351944E+03  0.11096227672E+03 -0.16927650700E+04  0.17601254996E+04  0.12699999809E+01 0.  1.
</event>
<event>
 5   0  0.1388269E-05  0.2751009E+04  0.7818609E-02  0.8318642E-01
        2   -1    0    0  501    0  0.00000000000E+00  0.00000000000E+00  0.18373723062E+04  0.18373723062E+04  0.25500000920E-02 0.  1.
       -2   -1    0    0    0  501  0.00000000000E+00  0.00000000000E+00 -0.10297379740E+04  0.10297379740E+04  0.25500000920E-02 0. -1.
    10030    2    1    2    0    0  0.00000000000E+00  0.00000000000E+00  0.80763433221E+03  0.28671102802E+04  0.27510085685E+04 0.  0.
        1    1    3    3  502    0  0.54506991103E+03  0.83656122997E+03  0.13898297194E+04  0.17113043413E+04  0.50400001928E-02 0.  1.
       -1    1    3    3    0  502 -0.54506991103E+03 -0.83656122997E+03 -0.58219538723E+03  0.11558059389E+04  0.50400001928E-02 0. -1.
</event>
<event>
 5   0  0.5217999E-06  0.2745963E+04  0.7818609E-02  0.8320244E-01
        1   -1    0    0  501    0  0.00000000000E+00  0.00000000000E+00  0.15884349134E+04  0.15884349134E+04  0.50400001928E-02 0.  1.
       -1   -1    0    0    0  501  0.00000000000E+00  0.00000000000E+00 -0.11867520661E+04  0.11867520661E+04  0.50400001928E-02 0. -1.
    10030    2    1    2    0    0  0.00000000000E+00  0.00000000000E+00  0.40168284732E+03  0.27751869796E+04  0.27459631574E+04 0.  0.
        1    1    3    3  502    0  0.27205449411E+02 -0.77641634205E+03 -0.94324689114E+03  0.12219972055E+04  0.50400001928E-02 0. -1.
       -1    1    3    3    0  502 -0.27205449411E+02  0.77641634205E+03  0.13449297385E+04  0.15531897740E+04  0.50400001928E-02 0.  1.
</event>
<event>
 5   0  0.5023691E-06  0.2298473E+04  0.7818609E-02  0.8478523E-01
       -1   -1    0    0    0  501  0.00000000000E+00  0.00000000000E+00  0.14925072357E+04  0.14925072357E+04  0.50400001928E-02 0. -1.
        1   -1    0    0  501    0  0.00000000000E+00  0.00000000000E+00 -0.88491686166E+03  0.88491686167E+03  0.50400001928E-02 0.  1.
    10030    2    1    2    0    0  0.00000000000E+00  0.00000000000E+00  0.60759037401E+03  0.23774240973E+04  0.22984732489E+04 0.  0.
        5    1    3    3  502    0 -0.34433507051E+02 -0.19826195260E+03 -0.86654220649E+03  0.88961281121E+03  0.46999998093E+01 0.  1.
       -5    1    3    3    0  502  0.34433507051E+02  0.19826195260E+03  0.14741325805E+04  0.14878112861E+04  0.46999998093E+01 0. -1.
</event>
<event>
 5   0  0.5107453E-06  0.2804100E+04  0.7818609E-02  0.8301997E-01
        1   -1    0    0  501    0  0.00000000000E+00  0.00000000000E+00  0.24603062704E+04  0.24603062704E+04  0.50400001928E-02 0. -1.
       -1   -1    0    0    0  501  0.00000000000E+00  0.00000000000E+00 -0.79898359438E+03  0.79898359440E+03  0.50400001928E-02 0.  1.
    10030    2    1    2    0    0  0.00000000000E+00  0.00000000000E+00  0.16613226760E+04  0.32592898648E+04  0.28041001032E+04 0.  0.
        2    1    3    3  502    0  0.12531372140E+03  0.74368927984E+02 -0.79015786056E+03  0.80348224052E+03  0.25500000920E-02 0.  1.
       -2    1    3    3    0  502 -0.12531372140E+03 -0.74368927984E+02  0.24514805366E+04  0.24558076242E+04  0.25500000920E-02 0. -1.
</event>
<event>
 5   0  0.5023691E-06  0.2923831E+04  0.7818609E-02  0.8265822E-01
        1   -1    0    0  501    0  0.00000000000E+00  0.00000000000E+00  0.16560438284E+04  0.16560438284E+04  0.50400001928E-02 0. -1.
       -1   -1    0    0    0  501  0.00000000000E+00  0.00000000000E+00 -0.12905435010E+04  0.12905435011E+04  0.50400001928E-02 0.  1.
    10030    2    1    2    0    0  0.00000000000E+00  0.00000000000E+00  0.36550032740E+03  0.29465873295E+04  0.29238307750E+04 0.  0.
        5    1    3    3  502    0 -0.86155379098E+03  0.46571147198E+03 -0.91106015250E+03  0.13376153413E+04  0.46999998093E+01 0.  1.
       -5    1    3    3    0  502  0.86155379098E+03 -0.46571147198E+03  0.12765604799E+04  0.16089719882E+04  0.46999998093E+01 0. -1.
</event>
<event>
 5   0  0.1388269E-05  0.2807945E+04  0.7818609E-02  0.8300806E-01
        2   -1    0    0  501    0  0.00000000000E+00  0.00000000000E+00  0.80723104082E+03  0.80723104083E+03  0.25500000920E-02 0.  1.
       -2   -1    0    0    0  501  0.00000000000E+00  0.00000000000E+00 -0.24418512514E+04  0.24418512514E+04  0.25500000920E-02 0. -1.
    10030    2    1    2    0    0  0.00000000000E+00  0.00000000000E+00 -0.16346202105E+04  0.32490822922E+04  0.28079445345E+04 0.  0.
        1    1    3    3  502    0  0.19376857605E+03 -0.26372019106E+03 -0.23971031991E+04  0.24193384111E+04  0.50400001928E-02 0. -1.
       -1    1    3    3    0  502 -0.19376857605E+03  0.26372019106E+03  0.76248298859E+03  0.82974388106E+03  0.50400001928E-02 0.  1.
</event>
<event>
 5   0  0.1330962E-05  0.2793941E+04  0.7818609E-02  0.8305152E-01
       -2   -1    0    0    0  501  0.00000000000E+00  0.00000000000E+00  0.10514058529E+04  0.10514058529E+04  0.25500000920E-02 0. -1.
        2   -1    0    0  501    0  0.00000000000E+00  0.00000000000E+00 -0.18561112478E+04  0.18561112478E+04  0.25500000920E-02 0.  1.
    10030    2    1    2    0    0  0.00000000000E+00  0.00000000000E+00 -0.80470539491E+03  0.29075171007E+04  0.27939407506E+04 0.  0.
        4    1    3    3  502    0  0.12364576028E+04  0.63643201626E+03 -0.26409289970E+03  0.14154927719E+04  0.12699999809E+01 0.  1.
       -4    1    3    3    0  502 -0.12364576028E+04 -0.63643201626E+03 -0.54061249521E+03  0.14920243288E+04  0.12699999809E+01 0. -1.
</event>
<event>
 5   0  0.5281919E-06  0.2799060E+04  0.7818609E-02  0.8303560E-01
       -1   -1    0    0    0  501  0.00000000000E+00  0.00000000000E+00  0.11929151212E+04  0.11929151212E+04  0.50400001928E-02 0.  1.
        1   -1    0    0  501    0  0.00000000000E+00  0.00000000000E+00 -0.16419308364E+04  0.16419308364E+04  0.50400001928E-02 0. -1.
    10030    2    1    2    0    0  0.00000000000E+00  0.00000000000E+00 -0.44901571522E+03  0.28348459576E+04  0.27990599298E+04 0.  0.
        4    1    3    3  502    0  0.58511115343E+03 -0.97988062139E+03  0.59588640059E+03  0.12874794404E+04  0.12699999809E+01 0.  1.
       -4    1    3    3    0  502 -0.58511115343E+03  0.97988062139E+03 -0.10449021158E+04  0.15473665172E+04  0.12699999809E+01 0. -1.
</event>
<event>
 5   0  0.5107453E-06  0.2716554E+04  0.7818609E-02  0.8329654E-01
        1   -1    0    0  501    0  0.00000000000E+00  0.00000000000E+00  0.17318353927E+04  0.17318353927E+04  0.50400001928E-02 0. -1.
       -1   -1    0    0    0  501  0.00000000000E+00  0.00000000000E+00 -0.10652958125E+04  0.10652958125E+04  0.50400001928E-02 0.  1.
    10030    2    1    2    0    0  0.00000000000E+00  0.00000000000E+00  0.66653958018E+03  0.27971312052E+04  0.27165544293E+04 0.  0.
        2    1    3    3  502    0  0.67841971228E+03 -0.11724945121E+04  0.43582481291E+03  0.14230038491E+04  0.25500000920E-02 0.  1.
       -2    1    3    3    0  502 -0.67841971228E+03  0.11724945121E+04  0.23071476727E+03  0.13741273561E+04  0.25500000920E-02 0. -1.
</event>
<event>
 5   0  0.5107453E-06  0.2753440E+04  0.7818609E-02  0.8317871E-01
       -1   -1    0    0    0  501  0.00000000000E+00  0.00000000000E+00  0.14589754651E+04  0.14589754651E+04  0.50400001928E-02 0.  1.
        1   -1    0    0  501    0  0.00000000000E+00  0.00000000000E+00 -0.12991016523E+04  0.12991016523E+04  0.50400001928E-02 0. -1.
    10030    2    1    2    0    0  0.00000000000E+00  0.00000000000E+00  0.15987381280E+03  0.27580771174E+04  0.27534396216E+04 0.  0.
        2    1    3    3  502    0 -0.24815309229E+03 -0.11536607386E+03  0.14314566363E+04  0.14573803175E+04  0.25500000920E-02 0.  1.
       -2    1    3    3    0  502  0.24815309229E+03  0.11536607386E+03 -0.12715828235E+04  0.13006967999E+04  0.25500000920E-02 0. -1.
</event>
<event>
 5   0  0.1302063E-05  0.2498275E+04  0.7818609E-02  0.8403600E-01
       -2   -1    0    0    0  501  0.00000000000E+00  0.00000000000E+00  0.15030340212E+04  0.15030340212E+04  0.25500000920E-02 0.  1.
        2   -1    0    0  501    0  0.00000000000E+00  0.00000000000E+00 -0.10381297331E+04  0.10381297331E+04  0.25500000920E-02 0. -1.
    10030    2    1    2    0    0  0.00000000000E+00  0.00000000000E+00  0.46490428811E+03  0.25411637543E+04  0.24982748506E+04 0.  0.
        2    1    3    3  502    0  0.44467609098E+03 -0.13680178794E+03  0.14116175839E+04  0.14863094423E+04  0.25500000920E-02 0.  1.
       -2    1    3    3    0  502 -0.44467609098E+03  0.13680178794E+03 -0.94671329579E+03  0.10548543120E+04  0.25500000920E-02 0. -1.
</event>
<event>
 5   0  0.5217999E-06  0.2814263E+04  0.7818609E-02  0.8298854E-01
        1   -1    0    0  501    0  0.00000000000E+00  0.00000000000E+00  0.19649035424E+04  0.19649035424E+04  0.50400001928E-02 0.  1.
       -1   -1    0    0    0  501  0.00000000000E+00  0.00000000000E+00 -0.10076924804E+04  0.10076924804E+04  0.50400001928E-02 0. -1.
    10030    2    1    2    0    0  0.00000000000E+00  0.00000000000E+00  0.95721106195E+03  0.29725960228E+04  0.28142626206E+04 0.  0.
        1    1    3    3  502    0  0.22831412204E+03  0.13667638819E+04  0.73700696520E+03  0.15695063281E+04  0.50400001928E-02 0. -1.
       -1    1    3    3    0  502 -0.22831412204E+03 -0.13667638819E+04  0.22020409676E+03  0.14030896947E+04  0.50400001928E-02 0.  1.
</event>
<event>
 5   0  0.5281919E-06  0.2803801E+04  0.7818609E-02  0.8302089E-01
       -1   -1    0    0    0  501  0.00000000000E+00  0.00000000000E+00  0.25418514144E+04  0.25418514144E+04  0.50400001928E-02 0. -1.
        1   -1    0    0  501    0  0.00000000000E+00  0.00000000000E+00 -0.77318646362E+03  0.77318646363E+03  0.50400001928E-02 0.  1.
    10030    2    1    2    0    0  0.00000000000E+00  0.00000000000E+00  0.17686649508E+04  0.33150378780E+04  0.28038010672E+04 0.  0.
        4    1    3    3  502    0  0.34551423358E+03  0.14970368731E+01 -0.72205469132E+03  0.80046668693E+03  0.12699999809E+01 0.  1.
       -4    1    3    3    0  502 -0.34551423358E+03 -0.14970368731E+01  0.24907196421E+04  0.25145711911E+04  0.12699999809E+01 0. -1.
</event>
<event>
 5   0  0.4764214E-06  0.2640419E+04  0.7818609E-02  0.8354600E-01
       -1   -1    0    0    0  501  0.00000000000E+00  0.00000000000E+00  0.81340769894E+03  0.81340769896E+03  0.50400001928E-02 0. -1.
        1   -1    0    0  501    0  0.00000000000E+00  0.00000000000E+00 -0.21427786627E+04  0.21427786627E+04  0.50400001928E-02 0.  1.
    10030    2    1    2    0    0  0.00000000000E+00  0.00000000000E+00 -0.13293709637E+04  0.29561863616E+04  0.26404186497E+04 0.  0.
        3    1    3    3  502    0 -0.26309747468E+03  0.66460335475E+03  0.57802653045E+03  0.91925653679E+03  0.10100000352E+00 0. -1.
       -3    1    3    3    0  502  0.26309747468E+03 -0.66460335475E+03 -0.19073974942E+04  0.20369298248E+04  0.10100000352E+00 0.  1.
</event>
<event>
 5   0  0.5281919E-06  0.2719541E+04  0.7818609E-02  0.8328692E-01
        1   -1    0    0  501    0  0.00000000000E+00  0.00000000000E+00  0.21045859543E+04  0.21045859543E+04  0.50400001928E-02 0. -1.
       -1   -1    0    0    0  501  0.00000000000E+00  0.00000000000E+00 -0.87854638035E+03  0.87854638036E+03  0.50400001928E-02 0.  1.
    10030    2    1    2    0    0  0.00000000000E+00  0.00000000000E+00  0.12260395740E+04  0.29831323347E+04  0.27195414116E+04 0.  0.
        4    1    3    3  502    0 -0.13548721355E+04 -0.81708485456E+02  0.52377041663E+03  0.14548855083E+04  0.12699999809E+01 0.  1.
       -4    1    3    3    0  502  0.13548721355E+04  0.81708485456E+02  0.70226915735E+03  0.15282468264E+04  0.12699999809E+01 0. -1.
</event>
<event>
 5   0  0.1330962E-05  0.2785575E+04  0.7818609E-02  0.8307761E-01
       -2   -1    0    0    0  501  0.00000000000E+00  0.00000000000E+00  0.15642210962E+04  0.15642210962E+04  0.25500000920E-02 0.  1.
        2   -1    0    0  501    0  0.00000000000E+00  0.00000000000E+00 -0.12401420870E+04  0.12401420871E+04  0.25500000920E-02 0. -1.
    10030    2    1    2    0    0  0.00000000000E+00  0.00000000000E+00  0.32407900920E+03  0.28043631833E+04  0.27855745654E+04 0.  0.
        4    1    3    3  502    0  0.70986607571E+03  0.69690541035E+03 -0.81935241203E+03  0.12887695622E+04  0.12699999809E+01 0. -1.
       -4    1    3    3    0  502 -0.70986607571E+03 -0.69690541035E+03  0.11434314212E+04  0.15155936211E+04  0.12699999809E+01 0.  1.
</event>
<event>
 5   0  0.1302063E-05  0.2566296E+04  0.7818609E-02  0.8379741E-01
       -2   -1    0    0    0  501  0.00000000000E+00  0.00000000000E+00  0.94305790667E+03  0.94305790667E+03  0.25500000920E-02 0. -1.
        2   -1    0    0  501    0  0.00000000000E+00  0.00000000000E+00 -0.17458824105E+04  0.17458824105E+04  0.25500000920E-02 0.  1.
    10030    2    1    2    0    0  0.00000000000E+00  0.00000000000E+00 -0.80282450385E+03  0.26889403172E+04  0.25662955491E+04 0.  0.
        2    1    3    3  502    0  0.45804211173E+03  0.11784770592E+04 -0.63063055710E+03  0.14129068104E+04  0.25500000920E-02 0.  1.
       -2    1    3    3    0  502 -0.45804211173E+03 -0.11784770592E+04 -0.17219394676E+03  0.12760335068E+04  0.25500000920E-02 0. -1.
</event>
<event>
 5   0  0.1283052E-05  0.2466051E+04  0.7818609E-02  0.8415181E-01
        2   -1    0    0  501    0  0.00000000000E+00  0.00000000000E+00  0.16294907096E+04  0.16294907096E+04  0.25500000920E-02 0.  1.
       -2   -1    0    0    0  501  0.00000000000E+00  0.00000000000E+00 -0.93302250569E+03  0.93302250570E+03  0.25500000920E-02 0. -1.
    10030    2    1    2    0    0  0.00000000000E+00  0.00000000000E+00  0.69646820387E+03  0.25625132153E+04  0.24660506928E+04 0.  0.
        5    1    3    3  502    0 -0.75143358943E+03 -0.64248240647E+03  0.11138683786E+04  0.14893491655E+04  0.46999998093E+01 0.  1.
       -5    1    3    3    0  502  0.75143358943E+03  0.64248240647E+03 -0.41740017468E+03  0.10731640498E+04  0.46999998093E+01 0. -1.
</event>
<event>
 5   0  0.1350863E-05  0.2808752E+04  0.7818609E-02  0.8300556E-01
        2   -1    0    0  501    0  0.00000000000E+00  0.00000000000E+00  0.23903649639E+04  0.23903649639E+04  0.25500000920E-02 0.  1.
       -2   -1    0    0    0  501  0.00000000000E+00  0.00000000000E+00 -0.82509238876E+03  0.82509238877E+03  0.25500000920E-02 0. -1.
    10030    2    1    2    0    0  0.00000000000E+00  0.00000000000E+00  0.15652725751E+04  0.32154573526E+04  0.28087519919E+04 0.  0.
        3    1    3    3  502    0 -0.92691143145E+03  0.58343642304E+03  0.17889592077E+04  0.20976028982E+04  0.10100000352E+00 0.  1.
       -3    1    3    3    0  502  0.92691143145E+03 -0.58343642304E+03 -0.22368663261E+03  0.11178544544E+04  0.10100000352E+00 0. -1.
</event>
<event>
 5   0  0.1388269E-05  0.2772707E+04  0.7818609E-02  0.8311792E-01
        2   -1    0    0  501    0  0.00000000000E+00  0.00000000000E+00  0.25262878563E+04  0.25262878563E+04  0.25500000920E-02 0.  1.
       -2   -1    0    0    0  501  0.00000000000E+00  0.00000000000E+00 -0.76079075110E+03  0.76079075110E+03  0.25500000920E-02 0. -1.
    10030    2    1    2    0    0  0.00000000000E+00  0.00000000000E+00  0.17654971052E+04  0.32870786074E+04  0.27727072948E+04 0.  0.
        1    1    3    3  502    0 -0.13043189600E+04  0.23987285603E+03  0.40384046680E+03  0.13863167240E+04  0.50400001928E-02 0.  1.
       -1    1    3    3    0  502  0.13043189600E+04 -0.23987285603E+03  0.13616566384E+04  0.19007618834E+04  0.50400001928E-02 0. -1.
</event>
<event>
 5   0  0.4764214E-06  0.2869407E+04  0.7818609E-02  0.8282038E-01
       -1   -1    0    0    0  501  0.00000000000E+00  0.00000000000E+00  0.10884531475E+04  0.10884531475E+04  0.50400001928E-02 0.  1.
        1   -1    0    0  501    0  0.00000000000E+00  0.00000000000E+00 -0.18911007257E+04  0.18911007257E+04  0.50400001928E-02 0. -1.
    10030    2    1    2    0    0  0.00000000000E+00  0.00000000000E+00 -0.80264757820E+03  0.29795538731E+04  0.28694072817E+04 0.  0.
        3    1    3    3  502    0  0.28039669663E+03  0.99008627190E+03 -0.14394410282E+04  0.17694303086E+04  0.10100000352E+00 0.  1.
       -3    1    3    3    0  502 -0.28039669663E+03 -0.99008627190E+03  0.63679344997E+03  0.12101235645E+04  0.10100000352E+00 0. -1.
</event>
<event>
 5   0  0.4764214E-06  0.2774280E+04  0.7818609E-02  0.8311298E-01
       -1   -1    0    0    0  501  0.00000000000E+00  0.00000000000E+00  0.14096075050E+04  0.14096075050E+04  0.50400001928E-02 0.  1.
        1   -1    0    0  501    0  0.00000000000E+00  0.00000000000E+00 -0.13650301655E+04  0.13650301655E+04  0.50400001928E-02 0. -1.
    10030    2    1    2    0    0  0.00000000000E+00  0.00000000000E+00  0.44577339459E+02  0.27746376706E+04  0.27742795576E+04 0.  0.
        3    1    3    3  502    0  0.35525663156E+03  0.12767070280E+04 -0.38760401481E+03  0.13807334978E+04  0.10100000352E+00 0. -1.
       -3    1    3    3    0  502 -0.35525663156E+03 -0.12767070280E+04  0.43218135427E+03  0.13939041727E+04  0.10100000352E+00 0.  1.
</event>
<event>
 5   0  0.1283052E-05  0.2763814E+04  0.7818609E-02  0.8314591E-01
       -2   -1    0    0    0  501  0.00000000000E+00  0.00000000000E+00  0.13981774379E+04  0.13981774379E+04  0.25500000920E-02 0.  1.
        2   -1    0    0  501    0  0.00000000000E+00  0.00000000000E+00 -0.13658261487E+04  0.13658261487E+04  0.25500000920E-02 0. -1.
    10030    2    1    2    0    0  0.00000000000E+00  0.00000000000E+00  0.32351289184E+02  0.27640035866E+04  0.27638142522E+04 0.  0.
        5    1    3    3  502    0  0.10865784550E+04 -0.43756762419E+03 -0.71703694351E+03  0.13734199041E+04  0.46999998093E+01 0. -1.
       -5    1    3    3    0  502 -0.10865784550E+04  0.43756762419E+03  0.74938823270E+03  0.13905836825E+04  0.46999998093E+01 0.  1.
</event>
<event>
 5   0  0.5281919E-06  0.2777711E+04  0.7818609E-02  0.8310222E-01
        1   -1    0    0  501    0  0.00000000000E+00  0.00000000000E+00  0.25090122254E+04  0.25090122254E+04  0.50400001928E-02 0.  1.
       -1   -1    0    0    0  501  0.00000000000E+00  0.00000000000E+00 -0.76879636776E+03  0.76879636778E+03  0.50400001928E-02 0. -1.
    10030    2    1    2    0    0  0.00000000000E+00  0.00000000000E+00  0.17402158577E+04  0.32778085932E+04  0.27777109177E+04 0.  0.
        4    1    3    3  502    0  0.71620723914E+03 -0.11753733004E+04  0.10891719182E+04  0.17552071915E+04  0.12699999809E+01 0. -1.
       -4    1    3    3    0  502 -0.71620723914E+03  0.11753733004E+04  0.65104393946E+03  0.15226014018E+04  0.12699999809E+01 0.  1.
</event>
<event>
 5   0  0.1388269E-05  0.2714944E+04  0.7818609E-02  0.8330173E-01
        2   -1    0    0  501    0  0.00000000000E+00  0.00000000000E+00  0.10451989864E+04  0.10451989864E+04  0.25500000920E-02 0.  1.
       -2   -1    0    0    0  501  0.00000000000E+00  0.00000000000E+00 -0.17630419195E+04  0.17630419195E+04  0.25500000920E-02 0. -1.
    10030    2    1    2    0    0  0.00000000000E+00  0.00000000000E+00 -0.71784293308E+03  0.28082409059E+04  0.27149435554E+04 0.  0.
        1    1    3    3  502    0  0.38096566501E+03 -0.57989525400E+02  0.98743480270E+03  0.10599646752E+04  0.50400001928E-02 0.  1.
       -1    1    3    3    0  502 -0.38096566501E+03  0.57989525400E+02 -0.17052777358E+04  0.17482762308E+04  0.50400001928E-02 0. -1.
</event>
<event>
 5   0  0.1350863E-05  0.2806266E+04  0.7818609E-02  0.8301326E-01
        2   -1    0    0  501    0  0.00000000000E+00  0.00000000000E+00  0.16000138136E+04  0.16000138136E+04  0.25500000920E-02 0.  1.
       -2   -1    0    0    0  501  0.00000000000E+00  0.00000000000E+00 -0.12304782456E+04  0.12304782456E+04  0.25500000920E-02 0. -1.
    10030    2    1    2    0    0  0.00000000000E+00  0.00000000000E+00  0.36953556804E+03  0.28304920592E+04  0.28062659819E+04 0.  0.
        3    1    3    3  502    0  0.13925035162E+04  0.16805301890E+03  0.22349613536E+03  0.14203022188E+04  0.10100000352E+00 0.  1.
       -3    1    3    3    0  502 -0.13925035162E+04 -0.16805301890E+03  0.14603943268E+03  0.14101898404E+04  0.10100000352E+00 0. -1.
</event>
<event>
 5   0  0.4764214E-06  0.2843622E+04  0.7818609E-02  0.8289852E-01
       -1   -1    0    0    0  501  0.00000000000E+00  0.00000000000E+00  0.10040768611E+04  0.10040768611E+04  0.50400001928E-02 0. -1.
        1   -1    0    0  501    0  0.00000000000E+00  0.00000000000E+00 -0.20133388697E+04  0.20133388697E+04  0.50400001928E-02 0.  1.
    10030    2    1    2    0    0  0.00000000000E+00  0.00000000000E+00 -0.10092620086E+04  0.30174157308E+04  0.28436223185E+04 0.  0.
        3    1    3    3  502    0  0.69760700954E+01  0.10266857855E+04  0.53905426404E+03  0.11596171254E+04  0.10100000352E+00 0. -1.
       -3    1    3    3    0  502 -0.69760700954E+01 -0.10266857855E+04 -0.15483162727E+04  0.18577986054E+04  0.10100000352E+00 0.  1.
</event>
<event>
 5   0  0.1350863E-05  0.2790621E+04  0.7818609E-02  0.8306186E-01
        2   -1    0    0  501    0  0.00000000000E+00  0.00000000000E+00  0.11308257727E+04  0.11308257727E+04  0.25500000920E-02 0. -1.
       -2   -1    0    0    0  501  0.00000000000E+00  0.00000000000E+00 -0.17216549326E+04  0.17216549326E+04  0.25500000920E-02 0.  1.
    10030    2    1    2    0    0  0.00000000000E+00  0.00000000000E+00 -0.59082915985E+03  0.28524807053E+04  0.27906212709E+04 0.  0.
        3    1    3    3  502    0 -0.16088195751E+03  0.13260487384E+04  0.11676527087E+03  0.13408662870E+04  0.10100000352E+00 0. -1.
       -3    1    3    3    0  502  0.16088195751E+03 -0.13260487384E+04 -0.70759443072E+03  0.15116144183E+04  0.10100000352E+00 0.  1.
</event>
<event>
 5   0  0.1388269E-05  0.2793539E+04  0.7818609E-02  0.8305277E-01
       -2   -1    0    0    0  501  0.00000000000E+00  0.00000000000E+00  0.69317936375E+03  0.69317936376E+03  0.25500000920E-02 0.  1.
        2   -1    0    0  501    0  0.00000000000E+00  0.00000000000E+00 -0.28145167471E+04  0.28145167471E+04  0.25500000920E-02 0. -1.
    10030    2    1    2    0    0  0.00000000000E+00  0.00000000000E+00 -0.21213373834E+04  0.35076961109E+04  0.27935389226E+04 0.  0.
        1    1    3    3  502    0 -0.12032105605E+03 -0.12815494157E+04 -0.37969759918E+03  0.13420194962E+04  0.50400001928E-02 0. -1.
       -1    1    3    3    0  502  0.12032105605E+03  0.12815494157E+04 -0.17416397842E+04  0.21656766147E+04  0.50400001928E-02 0.  1.
</event>
<event>
 5   0  0.5107453E-06  0.2811355E+04  0.7818609E-02  0.8299752E-01
       -1   -1    0    0    0  501  0.00000000000E+00  0.00000000000E+00  0.89844002625E+03  0.89844002626E+03  0.50400001928E-02 0.  1.
        1   -1    0    0  501    0  0.00000000000E+00  0.00000000000E+00 -0.21992896741E+04  0.21992896741E+04  0.50400001928E-02 0. -1.
    10030    2    1    2    0    0  0.00000000000E+00  0.00000000000E+00 -0.13008496479E+04  0.30977297004E+04  0.28113554543E+04 0.  0.
        2    1    3    3  502    0  0.31209380531E+03  0.11705605783E+04 -0.14360119091E+04  0.18787615106E+04  0.25500000920E-02 0. -1.
       -2    1    3    3    0  502 -0.31209380531E+03 -0.11705605783E+04  0.13516226128E+03  0.12189681897E+04  0.25500000920E-02 0.  1.
</event>
<event>
 5   0  0.1330962E-05  0.2801483E+04  0.7818609E-02  0.8302808E-01
       -2   -1    0    0    0  501  0.00000000000E+00  0.00000000000E+00  0.13707667543E+04  0.13707667543E+04  0.25500000920E-02 0.  1.
        2   -1    0    0  501    0  0.00000000000E+00  0.00000000000E+00 -0.14313720590E+04  0.14313720590E+04  0.25500000920E-02 0. -1.
    10030    2    1    2    0    0  0.00000000000E+00  0.00000000000E+00 -0.60605304652E+02  0.28021388133E+04  0.28014833439E+04 0.  0.
        4    1    3    3  502    0 -0.94428789903E+02 -0.13727924205E+04  0.23167424936E+03  0.13954033098E+04  0.12699999809E+01 0. -1.
       -4    1    3    3    0  502  0.94428789903E+02  0.13727924205E+04 -0.29227955401E+03  0.14067355035E+04  0.12699999809E+01 0.  1.
</event>
<event>
 5   0  0.1302063E-05  0.2129112E+04  0.7818609E-02  0.8548527E-01
       -2   -1    0    0    0  501  0.00000000000E+00  0.00000000000E+00  0.66323235845E+03  0.66323235845E+03  0.25500000920E-02 0.  1.
        2   -1    0    0  501    0  0.00000000000E+00  0.00000000000E+00 -0.17087217456E+04  0.17087217456E+04  0.25500000920E-02 0. -1.
    10030    2    1    2    0    0  0.00000000000E+00  0.00000000000E+00 -0.10454893872E+04  0.23719541041E+04  0.21291120715E+04 0.  0.
        2    1    3    3  502    0  0.86811338910E+03  0.10049629718E+03  0.15450647506E+03  0.88746414740E+03  0.25500000920E-02 0.  1.
       -2    1    3    3    0  502 -0.86811338910E+03 -0.10049629718E+03 -0.11999958622E+04  0.14844899567E+04  0.25500000920E-02 0. -1.
</event>
<event>
 5   0  0.4764214E-06  0.2820033E+04  0.7818609E-02  0.8297076E-01
       -1   -1    0    0    0  501  0.00000000000E+00  0.00000000000E+00  0.15782976258E+04  0.15782976258E+04  0.50400001928E-02 0. -1.
        1   -1    0    0  501    0  0.00000000000E+00  0.00000000000E+00 -0.12596781716E+04  0.12596781716E+04  0.50400001928E-02 0.  1.
    10030    2    1    2    0    0  0.00000000000E+00  0.00000000000E+00  0.31861945417E+03  0.28379757974E+04  0.28200333810E+04 0.  0.
        3    1    3    3  502    0 -0.18858278760E+03  0.13970492820E+04  0.13019655940E+03  0.14157193643E+04  0.10100000352E+00 0.  1.
       -3    1    3    3    0  502  0.18858278760E+03 -0.13970492820E+04  0.18842289477E+03  0.14222564331E+04  0.10100000352E+00 0. -1.
</event>
<event>
 5   0  0.5281919E-06  0.2831095E+04  0.7818609E-02  0.8293679E-01
        1   -1    0    0  501    0  0.00000000000E+00  0.00000000000E+00  0.15540370215E+04  0.15540370215E+04  0.50400001928E-02 0. -1.
       -1   -1    0    0    0  501  0.00000000000E+00  0.00000000000E+00 -0.12893995561E+04  0.12893995561E+04  0.50400001928E-02 0.  1.
    10030    2    1    2    0    0  0.00000000000E+00  0.00000000000E+00  0.26463746539E+03  0.28434365776E+04  0.28310949442E+04 0.  0.
        4    1    3    3  502    0 -0.95586813705E+03  0.52185865645E+03  0.10405576345E+04  0.15062477075E+04  0.12699999809E+01 0. -1.
       -4    1    3    3    0  502  0.95586813705E+03 -0.52185865645E+03 -0.77592016909E+03  0.13371888701E+04  0.12699999809E+01 0.  1.
</event>
<event>
 5   0  0.5023691E-06  0.2798760E+04  0.7818609E-02  0.8303653E-01
       -1   -1    0    0    0  501  0.00000000000E+00  0.00000000000E+00  0.94673191776E+03  0.94673191778E+03  0.50400001928E-02 0. -1.
        1   -1    0    0  501    0  0.00000000000E+00  0.00000000000E+00 -0.20684466644E+04  0.20684466644E+04  0.50400001928E-02 0.  1.
    10030    2    1    2    0    0  0.00000000000E+00  0.00000000000E+00 -0.11217147466E+04  0.30151785822E+04  0.27987600665E+04 0.  0.
        5    1    3    3  502    0 -0.91043467194E+03  0.53654818003E+03 -0.15491053935E+04  0.18752399450E+04  0.46999998093E+01 0.  1.
       -5    1    3    3    0  502  0.91043467194E+03 -0.53654818003E+03  0.42739064687E+03  0.11399386371E+04  0.46999998093E+01 0. -1.
</event>
<event>
 5   0  0.5281919E-06  0.2764857E+04  0.7818609E-02  0.8314263E-01
       -1   -1    0    0    0  501  0.00000000000E+00  0.00000000000E+00  0.13446943071E+04  0.13446943071E+04  0.50400001928E-02 0.  1.
        1   -1    0    0  501    0  0.00000000000E+00  0.00000000000E+00 -0.14212218135E+04  0.14212218135E+04  0.50400001928E-02 0. -1.
    10030    2    1    2    0    0  0.00000000000E+00  0.00000000000E+00 -0.76527506468E+02  0.27659161206E+04  0.27648572345E+04 0.  0.
        4    1    3    3  502    0 -0.14409795646E+02  0.13818123535E+04  0.40653545389E+00  0.13818881288E+04  0.12699999809E+01 0. -1.
       -4    1    3    3    0  502  0.14409795646E+02 -0.13818123535E+04 -0.76934041922E+02  0.13840279918E+04  0.12699999809E+01 0.  1.
</event>
<event>
 5   0  0.5217999E-06  0.2827317E+04  0.7818609E-02  0.8294837E-01
        1   -1    0    0  501    0  0.00000000000E+00  0.00000000000E+00  0.16292765282E+04  0.16292765282E+04  0.50400001928E-02 0.  1.
       -1   -1    0    0    0  501  0.00000000000E+00  0.00000000000E+00 -0.12265755355E+04  0.12265755355E+04  0.50400001928E-02 0. -1.
    10030    2    1    2    0    0  0.00000000000E+00  0.00000000000E+00  0.40270099276E+03  0.28558520637E+04  0.28273172656E+04 0.  0.
        1    1    3    3  502    0  0.14750813917E+03 -0.57399842765E+03 -0.10950346588E+04  0.12451239898E+04  0.50400001928E-02 0. -1.
       -1    1    3    3    0  502 -0.14750813917E+03  0.57399842765E+03  0.14977356516E+04  0.16107280739E+04  0.50400001928E-02 0.  1.
</event>
<event>
 5   0  0.1283052E-05  0.2797645E+04  0.7818609E-02  0.8304000E-01
        2   -1    0    0  501    0  0.00000000000E+00  0.00000000000E+00  0.26578942616E+04  0.26578942616E+04  0.25500000920E-02 0. -1.
       -2   -1    0    0    0  501  0.00000000000E+00  0.00000000000E+00 -0.73618577541E+03  0.73618577542E+03  0.25500000920E-02 0.  1.
    10030    2    1    2    0    0  0.00000000000E+00  0.00000000000E+00  0.19217084862E+04  0.33940800370E+04  0.27976446865E+04 0.  0.
        5    1    3    3  502    0  0.71474743191E+03 -0.10330828260E+04  0.17072955183E+04  0.21196707513E+04  0.46999998093E+01 0. -1.
       -5    1    3    3    0  502 -0.71474743191E+03  0.10330828260E+04  0.21441296786E+03  0.12744092858E+04  0.46999998093E+01 0.  1.
</event>
<event>
 5   0  0.5281919E-06  0.2578770E+04  0.7818609E-02  0.8375449E-01
        1   -1    0    0  501    0  0.00000000000E+00  0.00000000000E+00  0.18981495538E+04  0.18981495538E+04  0.50400001928E-02 0.  1.
       -1   -1    0    0    0  501  0.00000000000E+00  0.00000000000E+00 -0.87585990640E+03  0.87585990641E+03  0.50400001928E-02 0. -1.
    10030    2    1    2    0    0  0.00000000000E+00  0.00000000000E+00  0.10222896474E+04  0.27740094602E+04  0.25787695442E+04 0.  0.
        4    1    3    3  502    0  0.10555450713E+04  0.64837128754E+03  0.89592866825E+03  0.15288068928E+04  0.12699999809E+01 0. -1.
       -4    1    3    3    0  502 -0.10555450713E+04 -0.64837128754E+03  0.12636097915E+03  0.12452025674E+04  0.12699999809E+01 0.  1.
</event>
<event>
 5   0  0.4447500E-06  0.2797001E+04  0.7818609E-02  0.8304200E-01
        4   -1    0    0  501    0  0.00000000000E+00  0.00000000000E+00  0.96270122900E+03  0.96270206670E+03  0.12699999809E+01 0.  1.
       -4   -1    0    0    0  501  0.00000000000E+00  0.00000000000E+00 -0.20315778411E+04  0.20315782380E+04  0.12699999809E+01 0. -1.
    10030    2    1    2    0    0  0.00000000000E+00  0.00000000000E+00 -0.10688766121E+04  0.29942803047E+04  0.27970014894E+04 0.  0.
        4    1    3    3  502    0  0.16052101947E+03  0.84664692371E+03  0.64471528895E+03  0.10762143968E+04  0.12699999809E+01 0.  1.
       -4    1    3    3    0  502 -0.16052101947E+03 -0.84664692371E+03 -0.17135919010E+04  0.19180659080E+04  0.12699999809E+01 0. -1.
</event>
<event>
 5   0  0.1350863E-05  0.2851059E+04  0.7818609E-02  0.8287590E-01
       -2   -1    0    0    0  501  0.00000000000E+00  0.00000000000E+00  0.13326783489E+04  0.13326783489E+04  0.25500000920E-02 0.  1.
        2   -1    0    0  501    0  0.00000000000E+00  0.00000000000E+00 -0.15248493208E+04  0.15248493208E+04  0.25500000920E-02 0. -1.
    10030    2    1    2    0    0  0.00000000000E+00  0.00000000000E+00 -0.19217097191E+03  0.28575276697E+04  0.28510585229E+04 0.  0.
        3    1    3    3  502    0  0.45505989157E+03  0.73573897363E+03 -0.12316798856E+04  0.15051334469E+04  0.10100000352E+00 0. -1.
       -3    1    3    3    0  502 -0.45505989157E+03 -0.73573897363E+03  0.10395089137E+04  0.13523942229E+04  0.10100000352E+00 0.  1.
</event>
<event>
 5   0  0.1350863E-05  0.2792262E+04  0.7818609E-02  0.8305675E-01
       -2   -1    0    0    0  501  0.00000000000E+00  0.00000000000E+00  0.84226649342E+03  0.84226649342E+03  0.25500000920E-02 0. -1.
        2   -1    0    0  501    0  0.00000000000E+00  0.00000000000E+00 -0.23142095099E+04  0.23142095100E+04  0.25500000920E-02 0.  1.
    10030    2    1    2    0    0  0.00000000000E+00  0.00000000000E+00 -0.14719430165E+04  0.31564760034E+04  0.27922615415E+04 0.  0.
        3    1    3    3  502    0  0.12751935545E+04  0.35809586904E+03 -0.23700182062E+03  0.13455560658E+04  0.10100000352E+00 0. -1.
       -3    1    3    3    0  502 -0.12751935545E+04 -0.35809586904E+03 -0.12349411959E+04  0.18109199376E+04  0.10100000352E+00 0.  1.
</event>
<event>
 5   0  0.5023691E-06  0.2735424E+04  0.7818609E-02  0.8323602E-01
       -1   -1    0    0    0  501  0.00000000000E+00  0.00000000000E+00  0.17224505811E+04  0.17224505811E+04  0.50400001928E-02 0. -1.
        1   -1    0    0  501    0  0.00000000000E+00  0.00000000000E+00 -0.10860318936E+04  0.10860318936E+04  0.50400001928E-02 0.  1.
    10030    2    1    2    0    0  0.00000000000E+00  0.00000000000E+00  0.63641868747E+03  0.28084824747E+04  0.27354241106E+04 0.  0.
        5    1    3    3  502    0  0.82409599771E+03  0.22331869705E+03  0.14152069673E+04  0.16528273667E+04  0.46999998093E+01 0. -1.
       -5    1    3    3    0  502 -0.82409599771E+03 -0.22331869705E+03 -0.77878827980E+03  0.11556551080E+04  0.46999998093E+01 0.  1.
</event>
<event>
 5   0  0.1283052E-05  0.2827702E+04  0.7818609E-02  0.8294719E-01
        2   -1    0    0  501    0  0.00000000000E+00  0.00000000000E+00  0.25316197479E+04  0.25316197479E+04  0.25500000920E-02 0. -1.
       -2   -1    0    0    0  501  0.00000000000E+00  0.00000000000E+00 -0.78960280964E+03  0.78960280964E+03  0.25500000920E-02 0.  1.
    10030    2    1    2    0    0  0.00000000000E+00  0.00000000000E+00  0.17420169383E+04  0.33212225576E+04  0.28277015867E+04 0.  0.
        5    1    3    3  502    0 -0.11954946923E+04 -0.73719066096E+03  0.10614648776E+04  0.17605077127E+04  0.46999998093E+01 0. -1.
       -5    1    3    3    0  502  0.11954946923E+04  0.73719066096E+03  0.68055206068E+03  0.15607148449E+04  0.46999998093E+01 0.  1.
</event>
<event>
 5   0  0.1350863E-05  0.2732450E+04  0.7818609E-02  0.8324552E-01
        2   -1    0    0  501    0  0.00000000000E+00  0.00000000000E+00  0.19335641884E+04  0.19335641884E+04  0.25500000920E-02 0.  1.
       -2   -1    0    0    0  501  0.00000000000E+00  0.00000000000E+00 -0.96535247355E+03  0.96535247355E+03  0.25500000920E-02 0. -1.
    10030    2    1    2    0    0  0.00000000000E+00  0.00000000000E+00  0.96821171481E+03  0.28989166619E+04  0.27324501620E+04 0.  0.
        3    1    3    3  502    0 -0.11563152496E+04 -0.71057176409E+03  0.31772779419E+03  0.13938895759E+04  0.10100000352E+00 0. -1.
       -3    1    3    3    0  502  0.11563152496E+04  0.71057176409E+03  0.65048392063E+03  0.15050270860E+04  0.10100000352E+00 0.  1.
</event>
<event>
 5   0  0.4764214E-06  0.2785669E+04  0.7818609E-02  0.8307731E-01
        1   -1    0    0  501    0  0.00000000000E+00  0.00000000000E+00  0.23795499433E+04  0.23795499433E+04  0.50400001928E-02 0. -1.
       -1   -1    0    0    0  501  0.00000000000E+00  0.00000000000E+00 -0.81527523055E+03  0.81527523056E+03  0.50400001928E-02 0.  1.
    10030    2    1    2    0    0  0.00000000000E+00  0.00000000000E+00  0.15642747128E+04  0.31948251739E+04  0.27856691323E+04 0.  0.
        3    1    3    3  502    0 -0.21686222566E+03 -0.50896777074E+03  0.22481297761E+04  0.23152029969E+04  0.10100000352E+00 0. -1.
       -3    1    3    3    0  502  0.21686222566E+03  0.50896777074E+03 -0.68385506326E+03  0.87962217703E+03  0.10100000352E+00 0.  1.
</event>
<event>
 5   0  0.4764214E-06  0.2752211E+04  0.7818609E-02  0.8318260E-01
       -1   -1    0    0    0  501  0.00000000000E+00  0.00000000000E+00  0.12994593921E+04  0.12994593921E+04  0.50400001928E-02 0. -1.
        1   -1    0    0  501    0  0.00000000000E+00  0.00000000000E+00 -0.14572728022E+04  0.14572728022E+04  0.50400001928E-02 0.  1.
    10030    2    1    2    0    0  0.00000000000E+00  0.00000000000E+00 -0.15781341010E+03  0.27567321942E+04  0.27522113506E+04 0.  0.
        3    1    3    3  502    0  0.80454996552E+03  0.79479893686E+03  0.70638419132E+03  0.13334109018E+04  0.10100000352E+00 0. -1.
       -3    1    3    3    0  502 -0.80454996552E+03 -0.79479893686E+03 -0.86419760142E+03  0.14233212925E+04  0.10100000352E+00 0.  1.
</event>
<event>
 5   0  0.5281919E-06  0.3431203E+04  0.7818609E-02  0.8130290E-01
        1   -1    0    0  501    0  0.00000000000E+00  0.00000000000E+00  0.17336523340E+04  0.17336523340E+04  0.50400001928E-02 0. -1.
       -1   -1    0    0    0  501  0.00000000000E+00  0.00000000000E+00 -0.16977385959E+04  0.16977385959E+04  0.50400001928E-02 0.  1.
    10030    2    1    2    0    0  0.00000000000E+00  0.00000000000E+00  0.35913738112E+02  0.34313909299E+04  0.34312029840E+04 0.  0.
        4    1    3    3  502    0  0.46888525928E+03  0.40142191078E+03  0.16187612416E+04  0.17324498570E+04  0.12699999809E+01 0. -1.
       -4    1    3    3    0  502 -0.46888525928E+03 -0.40142191078E+03 -0.15828475035E+04  0.16989410729E+04  0.12699999809E+01 0.  1.
</event>
<event>
 5   0  0.1388269E-05  0.2981275E+04  0.7818609E-02  0.8249098E-01
        2   -1    0    0  501    0  0.00000000000E+00  0.00000000000E+00  0.19560384530E+04  0.19560384530E+04  0.25500000920E-02 0. -1.
       -2   -1    0    0    0  501  0.00000000000E+00  0.00000000000E+00 -0.11359695169E+04  0.11359695169E+04  0.25500000920E-02 0.  1.
    10030    2    1    2    0    0  0.00000000000E+00  0.00000000000E+00  0.82006893611E+03  0.30920079699E+04  0.29812749330E+04 0.  0.
        1    1    3    3  502    0 -0.21207045387E+02  0.27450470799E+03 -0.11093700616E+04  0.11430242811E+04  0.50400001928E-02 0.  1.
       -1    1    3    3    0  502  0.21207045387E+02 -0.27450470799E+03  0.19294389977E+04  0.19489836889E+04  0.50400001928E-02 0. -1.
</event>
<event>
 5   0  0.1283052E-05  0.2769334E+04  0.7818609E-02  0.8312853E-01
        2   -1    0    0  501    0  0.00000000000E+00  0.00000000000E+00  0.18870649405E+04  0.18870649405E+04  0.25500000920E-02 0. -1.
       -2   -1    0    0    0  501  0.00000000000E+00  0.00000000000E+00 -0.10160238459E+04  0.10160238459E+04  0.25500000920E-02 0.  1.
    10030    2    1    2    0    0  0.00000000000E+00  0.00000000000E+00  0.87104109462E+03  0.29030887864E+04  0.27693342004E+04 0.  0.
        5    1    3    3  502    0  0.78976187371E+03  0.11063557486E+04  0.15909152020E+03  0.13686047864E+04  0.46999998093E+01 0. -1.
       -5    1    3    3    0  502 -0.78976187371E+03 -0.11063557486E+04  0.71194957442E+03  0.15344840000E+04  0.46999998093E+01 0.  1.
</event>
<event>
 5   0  0.1302063E-05  0.2767592E+04  0.7818609E-02  0.8313401E-01
        2   -1    0    0  501    0  0.00000000000E+00  0.00000000000E+00  0.28067640803E+04  0.28067640803E+04  0.25500000920E-02 0.  1.
       -2   -1    0    0    0  501  0.00000000000E+00  0.00000000000E+00 -0.68224178738E+03  0.68224178738E+03  0.25500000920E-02 0. -1.
    10030    2    1    2    0    0  0.00000000000E+00  0.00000000000E+00  0.21245222929E+04  0.34890058677E+04  0.27675922698E+04 0.  0.
        2    1    3    3  502    0  0.57186764629E+03 -0.11209978982E+04  0.17877984322E+04  0.21862964407E+04  0.25500000920E-02 0.  1.
       -2    1    3    3    0  502 -0.57186764629E+03  0.11209978982E+04  0.33672386078E+03  0.13027094270E+04  0.25500000920E-02 0. -1.
</event>
<event>
 5   0  0.1350863E-05  0.2845963E+04  0.7818609E-02  0.8289139E-01
        2   -1    0    0  501    0  0.00000000000E+00  0.00000000000E+00  0.14257924199E+04  0.14257924199E+04  0.25500000920E-02 0. -1.
       -2   -1    0    0    0  501  0.00000000000E+00  0.00000000000E+00 -0.14201756382E+04  0.14201756382E+04  0.25500000920E-02 0.  1.
    10030    2    1    2    0    0  0.00000000000E+00  0.00000000000E+00  0.56167817409E+01  0.28459680581E+04  0.28459625155E+04 0.  0.
        3    1    3    3  502    0  0.10912030431E+04  0.94075145243E+02 -0.90565440419E+03  0.14211910935E+04  0.10100000352E+00 0.  1.
       -3    1    3    3    0  502 -0.10912030431E+04 -0.94075145243E+02  0.91127118593E+03  0.14247769646E+04  0.10100000352E+00 0. -1.
</event>
<event>
 5   0  0.5107453E-06  0.2771278E+04  0.7818609E-02  0.8312241E-01
       -1   -1    0    0    0  501  0.00000000000E+00  0.00000000000E+00  0.11570778179E+04  0.11570778179E+04  0.50400001928E-02 0. -1.
        1   -1    0    0  501    0  0.00000000000E+00  0.00000000000E+00 -0.16593491755E+04  0.16593491755E+04  0.50400001928E-02 0.  1.
    10030    2    1    2    0    0  0.00000000000E+00  0.00000000000E+00 -0.50227135765E+03  0.28164269935E+04  0.27712784943E+04 0.  0.
        2    1    3    3  502    0 -0.28766194006E+03  0.95892568462E+03 -0.12247134456E+04  0.15818378185E+04  0.25500000920E-02 0.  1.
       -2    1    3    3    0  502  0.28766194006E+03 -0.95892568462E+03  0.72244208793E+03  0.12345891749E+04  0.25500000920E-02 0. -1.
</event>
<event>
 5   0  0.5217999E-06  0.2618876E+04  0.7818609E-02  0.8361818E-01
        1   -1    0    0  501    0  0.00000000000E+00  0.00000000000E+00  0.15216198835E+04  0.15216198835E+04  0.50400001928E-02 0.  1.
       -1   -1    0    0    0  501  0.00000000000E+00  0.00000000000E+00 -0.11268433571E+04  0.11268433571E+04  0.50400001928E-02 0. -1.
    10030    2    1    2    0    0  0.00000000000E+00  0.00000000000E+00  0.39477652635E+03  0.26484632406E+04  0.26188755280E+04 0.  0.
        1    1    3    3  502    0 -0.12263677264E+04 -0.40166430476E+03  0.42196754224E+03  0.13577071190E+04  0.50400001928E-02 0.  1.
       -1    1    3    3    0  502  0.12263677264E+04  0.40166430476E+03 -0.27191015892E+02  0.12907561216E+04  0.50400001928E-02 0. -1.
</event>
<event>
 5   0  0.1350863E-05  0.2824583E+04  0.7818609E-02  0.8295677E-01
       -2   -1    0    0    0  501  0.00000000000E+00  0.00000000000E+00  0.10643067046E+04  0.10643067046E+04  0.25500000920E-02 0. -1.
        2   -1    0    0  501    0  0.00000000000E+00  0.00000000000E+00 -0.18740533381E+04  0.18740533381E+04  0.25500000920E-02 0.  1.
    10030    2    1    2    0    0  0.00000000000E+00  0.00000000000E+00 -0.80974663351E+03  0.29383600427E+04  0.28245831781E+04 0.  0.
        3    1    3    3  502    0  0.13341032124E+03  0.71556339697E+03 -0.16638875801E+04  0.18161363325E+04  0.10100000352E+00 0.  1.
       -3    1    3    3    0  502 -0.13341032124E+03 -0.71556339697E+03  0.85414094655E+03  0.11222237102E+04  0.10100000352E+00 0. -1.
</event>
<event>
 5   0  0.1283052E-05  0.2787988E+04  0.7818609E-02  0.8307007E-01
       -2   -1    0    0    0  501  0.00000000000E+00  0.00000000000E+00  0.89531637231E+03  0.89531637232E+03  0.25500000920E-02 0. -1.
        2   -1    0    0  501    0  0.00000000000E+00  0.00000000000E+00 -0.21704275206E+04  0.21704275206E+04  0.25500000920E-02 0.  1.
    10030    2    1    2    0    0  0.00000000000E+00  0.00000000000E+00 -0.12751111483E+04  0.30657438929E+04  0.27879880158E+04 0.  0.
        5    1    3    3  502    0  0.57717300291E+03  0.42330503696E+03 -0.19529220969E+04  0.20799621718E+04  0.46999998093E+01 0.  1.
       -5    1    3    3    0  502 -0.57717300291E+03 -0.42330503696E+03  0.67781094862E+03  0.98578172110E+03  0.46999998093E+01 0. -1.
</event>
<event>
 5   0  0.4764214E-06  0.2797594E+04  0.7818609E-02  0.8304016E-01
       -1   -1    0    0    0  501  0.00000000000E+00  0.00000000000E+00  0.10973293684E+04  0.10973293684E+04  0.50400001928E-02 0. -1.
        1   -1    0    0  501    0  0.00000000000E+00  0.00000000000E+00 -0.17830865155E+04  0.17830865155E+04  0.50400001928E-02 0.  1.
    10030    2    1    2    0    0  0.00000000000E+00  0.00000000000E+00 -0.68575714711E+03  0.28804158839E+04  0.27975941091E+04 0.  0.
        3    1    3    3  502    0  0.10390042995E+04  0.42382998132E+03 -0.12027503513E+04  0.16449225530E+04  0.10100000352E+00 0.  1.
       -3    1    3    3    0  502 -0.10390042995E+04 -0.42382998132E+03  0.51699320420E+03  0.12354933310E+04  0.10100000352E+00 0. -1.
</event>
<event>
 5   0  0.5281919E-06  0.2828056E+04  0.7818609E-02  0.8294611E-01
        1   -1    0    0  501    0  0.00000000000E+00  0.00000000000E+00  0.10513381730E+04  0.10513381730E+04  0.50400001928E-02 0.  1.
       -1   -1    0    0    0  501  0.00000000000E+00  0.00000000000E+00 -0.19018376931E+04  0.19018376931E+04  0.50400001928E-02 0. -1.
    10030    2    1    2    0    0  0.00000000000E+00  0.00000000000E+00 -0.85049952009E+03  0.29531758662E+04  0.28280555622E+04 0.  0.
        4    1    3    3  502    0 -0.52446905824E+03 -0.12764931679E+04 -0.74705669356E+03  0.15692666813E+04  0.12699999809E+01 0.  1.
       -4    1    3    3    0  502  0.52446905824E+03  0.12764931679E+04 -0.10344282653E+03  0.13839091849E+04  0.12699999809E+01 0. -1.
</event>
<event>
 5   0  0.5107453E-06  0.2793868E+04  0.7818609E-02  0.8305175E-01
       -1   -1    0    0    0  501  0.00000000000E+00  0.00000000000E+00  0.11038753897E+04  0.11038753897E+04  0.50400001928E-02 0.  1.
        1   -1    0    0  501    0  0.00000000000E+00  0.00000000000E+00 -0.17677945370E+04  0.17677945370E+04  0.50400001928E-02 0. -1.
    10030    2    1    2    0    0  0.00000000000E+00  0.00000000000E+00 -0.66391914733E+03  0.28716699267E+04  0.27938682026E+04 0.  0.
        2    1    3    3  502    0 -0.43655714930E+03  0.92102757391E+03 -0.13138367504E+04  0.16628412261E+04  0.25500000920E-02 0. -1.
       -2    1    3    3    0  502  0.43655714930E+03 -0.92102757391E+03  0.64991760310E+03  0.12088287006E+04  0.25500000920E-02 0.  1.
</event>
<event>
 5   0  0.1330962E-05  0.2802435E+04  0.7818609E-02  0.8302513E-01
        2   -1    0    0  501    0  0.00000000000E+00  0.00000000000E+00  0.16715976843E+04  0.16715976843E+04  0.25500000920E-02 0.  1.
       -2   -1    0    0    0  501  0.00000000000E+00  0.00000000000E+00 -0.11745714050E+04  0.11745714050E+04  0.25500000920E-02 0. -1.
    10030    2    1    2    0    0  0.00000000000E+00  0.00000000000E+00  0.49702627939E+03  0.28461690893E+04  0.28024352557E+04 0.  0.
        4    1    3    3  502    0 -0.89233691883E+03  0.83047741726E+02 -0.84544413335E+03  0.12320468740E+04  0.12699999809E+01 0. -1.
       -4    1    3    3    0  502  0.89233691883E+03 -0.83047741726E+02  0.13424704127E+04  0.16141222153E+04  0.12699999809E+01 0.  1.
</event>
<event>
 5   0  0.5023691E-06  0.2896234E+04  0.7818609E-02  0.8273999E-01
        1   -1    0    0  501    0  0.00000000000E+00  0.00000000000E+00  0.14468327984E+04  0.14468327985E+04  0.50400001928E-02 0.  1.
       -1   -1    0    0    0  501  0.00000000000E+00  0.00000000000E+00 -0.14494022122E+04  0.14494022123E+04  0.50400001928E-02 0. -1.
    10030    2    1    2    0    0  0.00000000000E+00  0.00000000000E+00 -0.25694137941E+01  0.28962350107E+04  0.28962338710E+04 0.  0.
        5    1    3    3  502    0 -0.13152807057E+04 -0.53867867514E+03 -0.27856178746E+03  0.14483634935E+04  0.46999998093E+01 0.  1.
       -5    1    3    3    0  502  0.13152807057E+04  0.53867867514E+03  0.27599237367E+03  0.14478715172E+04  0.46999998093E+01 0. -1.
</event>
<event>
 5   0  0.1283052E-05  0.2781840E+04  0.7818609E-02  0.8308929E-01
       -2   -1    0    0    0  501  0.00000000000E+00  0.00000000000E+00  0.63495787464E+03  0.63495787464E+03  0.25500000920E-02 0.  1.
        2   -1    0    0  501    0  0.00000000000E+00  0.00000000000E+00 -0.30469075968E+04  0.30469075968E+04  0.25500000920E-02 0. -1.
    10030    2    1    2    0    0  0.00000000000E+00  0.00000000000E+00 -0.24119497221E+04  0.36818654714E+04  0.27818396588E+04 0.  0.
        5    1    3    3  502    0  0.13234320236E+04  0.33363875575E+03 -0.15607436490E+04  0.20733378809E+04  0.46999998093E+01 0.  1.
       -5    1    3    3    0  502 -0.13234320236E+04 -0.33363875575E+03 -0.85120607317E+03  0.16085275905E+04  0.46999998093E+01 0. -1.
</event>
<event>
 5   0  0.5107453E-06  0.2792551E+04  0.7818609E-02  0.8305585E-01
       -1   -1    0    0    0  501  0.00000000000E+00  0.00000000000E+00  0.98203584833E+03  0.98203584834E+03  0.50400001928E-02 0.  1.
        1   -1    0    0  501    0  0.00000000000E+00  0.00000000000E+00 -0.19852484887E+04  0.19852484887E+04  0.50400001928E-02 0. -1.
    10030    2    1    2    0    0  0.00000000000E+00  0.00000000000E+00 -0.10032126404E+04  0.29672843371E+04  0.27925509369E+04 0.  0.
        2    1    3    3  502    0 -0.85901552994E+03  0.18806772130E+03 -0.16540470332E+04  0.18732722003E+04  0.25500000920E-02 0. -1.
       -2    1    3    3    0  502  0.85901552994E+03 -0.18806772130E+03  0.65083439281E+03  0.10940121367E+04  0.25500000920E-02 0.  1.
</event>
<event>
 5   0  0.1388269E-05  0.2774398E+04  0.7818609E-02  0.8311261E-01
       -2   -1    0    0    0  501  0.00000000000E+00  0.00000000000E+00  0.15856769339E+04  0.15856769339E+04  0.25500000920E-02 0.  1.
        2   -1    0    0  501    0  0.00000000000E+00  0.00000000000E+00 -0.12135639674E+04  0.12135639674E+04  0.25500000920E-02 0. -1.
    10030    2    1    2    0    0  0.00000000000E+00  0.00000000000E+00  0.37211296650E+03  0.27992409014E+04  0.27743975137E+04 0.  0.
        1    1    3    3  502    0  0.27339897139E+03 -0.62321499289E+03 -0.10335589828E+04  0.12374926650E+04  0.50400001928E-02 0. -1.
       -1    1    3    3    0  502 -0.27339897139E+03  0.62321499289E+03  0.14056719493E+04  0.15617482364E+04  0.50400001928E-02 0.  1.
</event>
<event>
 5   0  0.5023691E-06  0.2778060E+04  0.7818609E-02  0.8310112E-01
       -1   -1    0    0    0  501  0.00000000000E+00  0.00000000000E+00  0.81773261668E+03  0.81773261670E+03  0.50400001928E-02 0. -1.
        1   -1    0    0  501    0  0.00000000000E+00  0.00000000000E+00 -0.23594561276E+04  0.23594561276E+04  0.50400001928E-02 0.  1.
    10030    2    1    2    0    0  0.00000000000E+00  0.00000000000E+00 -0.15417235109E+04  0.31771887443E+04  0.27780599225E+04 0.  0.
        5    1    3    3  502    0  0.21243435879E+03  0.13192074175E+04 -0.12047726627E+04  0.17991486392E+04  0.46999998093E+01 0.  1.
       -5    1    3    3    0  502 -0.21243435879E+03 -0.13192074175E+04 -0.33695084827E+03  0.13780401051E+04  0.46999998093E+01 0. -1.
</event>
<event>
 5   0  0.5107453E-06  0.2752666E+04  0.7818609E-02  0.8318116E-01
        1   -1    0    0  501    0  0.00000000000E+00  0.00000000000E+00  0.26102641833E+04  0.26102641833E+04  0.50400001928E-02 0.  1.
       -1   -1    0    0    0  501  0.00000000000E+00  0.00000000000E+00 -0.72570887126E+03  0.72570887128E+03  0.50400001928E-02 0. -1.
    10030    2    1    2    0    0  0.00000000000E+00  0.00000000000E+00  0.18845553120E+04  0.33359730546E+04  0.27526655258E+04 0.  0.
        2    1    3    3  502    0  0.52041231318E+03 -0.16185925213E+03  0.24739205042E+04  0.25332410178E+04  0.25500000920E-02 0.  1.
       -2    1    3    3    0  502 -0.52041231318E+03  0.16185925213E+03 -0.58936519213E+03  0.80273203680E+03  0.25500000920E-02 0. -1.
</event>
<event>
 5   0  0.1302063E-05  0.2853516E+04  0.7818609E-02  0.8286844E-01
       -2   -1    0    0    0  501  0.00000000000E+00  0.00000000000E+00  0.16209337166E+04  0.16209337166E+04  0.25500000920E-02 0. -1.
        2   -1    0    0  501    0  0.00000000000E+00  0.00000000000E+00 -0.12558426714E+04  0.12558426714E+04  0.25500000920E-02 0.  1.
    10030    2    1    2    0    0  0.00000000000E+00  0.00000000000E+00  0.36509104514E+03  0.28767763880E+04  0.28535155362E+04 0.  0.
        2    1    3    3  502    0  0.14433298268E+03 -0.59323842758E+03 -0.11174909024E+04  0.12734008634E+04  0.25500000920E-02 0.  1.
       -2    1    3    3    0  502 -0.14433298268E+03  0.59323842758E+03  0.14825819475E+04  0.16033755246E+04  0.25500000920E-02 0. -1.
</event>
<event>
 5   0  0.1302063E-05  0.2748193E+04  0.7818609E-02  0.8319535E-01
       -2   -1    0    0    0  501  0.00000000000E+00  0.00000000000E+00  0.11024212586E+04  0.11024212586E+04  0.25500000920E-02 0. -1.
        2   -1    0    0  501    0  0.00000000000E+00  0.00000000000E+00 -0.17127219787E+04  0.17127219787E+04  0.25500000920E-02 0.  1.
    10030    2    1    2    0    0  0.00000000000E+00  0.00000000000E+00 -0.61030072007E+03  0.28151432374E+04  0.27481929477E+04 0.  0.
        2    1    3    3  502    0 -0.21451273785E+03 -0.10732893634E+03 -0.16911103897E+04  0.17080367577E+04  0.25500000920E-02 0.  1.
       -2    1    3    3    0  502  0.21451273785E+03  0.10732893634E+03  0.10808096697E+04  0.11071064797E+04  0.25500000920E-02 0. -1.
</event>
<event>
 5   0  0.1330962E-05  0.2801917E+04  0.7818609E-02  0.8302673E-01
        2   -1    0    0  501    0  0.00000000000E+00  0.00000000000E+00  0.98513069556E+03  0.98513069556E+03  0.25500000920E-02 0.  1.
       -2   -1    0    0    0  501  0.00000000000E+00  0.00000000000E+00 -0.19923095398E+04  0.19923095398E+04  0.25500000920E-02 0. -1.
    10030    2    1    2    0    0  0.00000000000E+00  0.00000000000E+00 -0.10071788442E+04  0.29774402354E+04  0.28019174026E+04 0.  0.
        4    1    3    3  502    0 -0.11523181144E+04  0.19821496991E+03  0.31647799774E+03  0.12113158742E+04  0.12699999809E+01 0.  1.
       -4    1    3    3    0  502  0.11523181144E+04 -0.19821496991E+03 -0.13236568420E+04  0.17661243612E+04  0.12699999809E+01 0. -1.
</event>
<event>
 5   0  0.1302063E-05  0.2815691E+04  0.7818609E-02  0.8298413E-01
        2   -1    0    0  501    0  0.00000000000E+00  0.00000000000E+00  0.18532792331E+04  0.18532792331E+04  0.25500000920E-02 0. -1.
       -2   -1    0    0    0  501  0.00000000000E+00  0.00000000000E+00 -0.10694711828E+04  0.10694711828E+04  0.25500000920E-02 0.  1.
    10030    2    1    2    0    0  0.00000000000E+00  0.00000000000E+00  0.78380805023E+03  0.29227504159E+04  0.28156908449E+04 0.  0.
        2    1    3    3  502    0  0.85872097795E+03  0.96107886904E+03 -0.19616518950E+03  0.13036698555E+04  0.25500000920E-02 0.  1.
       -2    1    3    3    0  502 -0.85872097795E+03 -0.96107886904E+03  0.97997323973E+03  0.16190805604E+04  0.25500000920E-02 0. -1.
</event>
<event>
 5   0  0.1302063E-05  0.2800561E+04  0.7818609E-02  0.8303094E-01
        2   -1    0    0  501    0  0.00000000000E+00  0.00000000000E+00  0.17450696362E+04  0.17450696362E+04  0.25500000920E-02 0.  1.
       -2   -1    0    0    0  501  0.00000000000E+00  0.00000000000E+00 -0.11236146109E+04  0.11236146109E+04  0.25500000920E-02 0. -1.
    10030    2    1    2    0    0  0.00000000000E+00  0.00000000000E+00  0.62145502527E+03  0.28686842472E+04  0.28005611869E+04 0.  0.
        2    1    3    3  502    0 -0.32651176959E+03 -0.12760789320E+04  0.79746867897E+03  0.15397868912E+04  0.25500000920E-02 0.  1.
       -2    1    3    3    0  502  0.32651176959E+03  0.12760789320E+04 -0.17601365369E+03  0.13288973560E+04  0.25500000920E-02 0. -1.
</event>
<event>
 5   0  0.1350863E-05  0.2777724E+04  0.7818609E-02  0.8310218E-01
       -2   -1    0    0    0  501  0.00000000000E+00  0.00000000000E+00  0.13903592323E+04  0.13903592323E+04  0.25500000920E-02 0. -1.
        2   -1    0    0  501    0  0.00000000000E+00  0.00000000000E+00 -0.13873665656E+04  0.13873665656E+04  0.25500000920E-02 0.  1.
    10030    2    1    2    0    0  0.00000000000E+00  0.00000000000E+00  0.29926667168E+01  0.27777257979E+04  0.27777241858E+04 0.  0.
        3    1    3    3  502    0  0.51648397395E+03  0.15199470783E+03  0.12817626021E+04  0.13902422324E+04  0.10100000352E+00 0. -1.
       -3    1    3    3    0  502 -0.51648397395E+03 -0.15199470783E+03 -0.12787699354E+04  0.13874835654E+04  0.10100000352E+00 0.  1.
</event>
<event>
 5   0  0.5281919E-06  0.2809615E+04  0.7818609E-02  0.8300289E-01
       -1   -1    0    0    0  501  0.00000000000E+00  0.00000000000E+00  0.13346434193E+04  0.13346434193E+04  0.50400001928E-02 0. -1.
        1   -1    0    0  501    0  0.00000000000E+00  0.00000000000E+00 -0.14786603352E+04  0.14786603352E+04  0.50400001928E-02 0.  1.
    10030    2    1    2    0    0  0.00000000000E+00  0.00000000000E+00 -0.14401691589E+03  0.28133037545E+04  0.28096151237E+04 0.  0.
        4    1    3    3  502    0  0.26396284643E+02  0.10200680525E+03 -0.14746975055E+04  0.14784574725E+04  0.12699999809E+01 0.  1.
       -4    1    3    3    0  502 -0.26396284643E+02 -0.10200680525E+03  0.13306805896E+04  0.13348462821E+04  0.12699999809E+01 0. -1.
</event>
<event>
 5   0  0.5217999E-06  0.2367447E+04  0.7818609E-02  0.8451792E-01
       -1   -1    0    0    0  501  0.00000000000E+00  0.00000000000E+00  0.16457222307E+04  0.16457222307E+04  0.50400001928E-02 0.  1.
        1   -1    0    0  501    0  0.00000000000E+00  0.00000000000E+00 -0.85142065578E+03  0.85142065579E+03  0.50400001928E-02 0. -1.
    10030    2    1    2    0    0  0.00000000000E+00  0.00000000000E+00  0.79430157494E+03  0.24971428865E+04  0.23674474870E+04 0.  0.
        1    1    3    3  502    0  0.11840154909E+03 -0.11241590247E+04  0.26548890118E+02  0.11306888534E+04  0.50400001928E-02 0. -1.
       -1    1    3    3    0  502 -0.11840154909E+03  0.11241590247E+04  0.76775268482E+03  0.13664540331E+04  0.50400001928E-02 0.  1.
</event>
<event>
 5   0  0.4764214E-06  0.2665663E+04  0.7818609E-02  0.8346233E-01
       -1   -1    0    0    0  501  0.00000000000E+00  0.00000000000E+00  0.15553969219E+04  0.15553969219E+04  0.50400001928E-02 0.  1.
        1   -1    0    0  501    0  0.00000000000E+00  0.00000000000E+00 -0.11421138478E+04  0.11421138478E+04  0.50400001928E-02 0. -1.
    10030    2    1    2    0    0  0.00000000000E+00  0.00000000000E+00  0.41328307409E+03  0.26975107697E+04  0.26656634171E+04 0.  0.
        3    1    3    3  502    0  0.25328879159E+03 -0.64438847370E+03  0.13591284595E+04  0.15253268164E+04  0.10100000352E+00 0.  1.
       -3    1    3    3    0  502 -0.25328879159E+03  0.64438847370E+03 -0.94584538546E+03  0.11721839533E+04  0.10100000352E+00 0. -1.
</event>
<event>
 5   0  0.5107453E-06  0.2780340E+04  0.7818609E-02  0.8309398E-01
        1   -1    0    0  501    0  0.00000000000E+00  0.00000000000E+00  0.18116918798E+04  0.18116918798E+04  0.50400001928E-02 0. -1.
       -1   -1    0    0    0  501  0.00000000000E+00  0.00000000000E+00 -0.10667224291E+04  0.10667224292E+04  0.50400001928E-02 0.  1.
    10030    2    1    2    0    0  0.00000000000E+00  0.00000000000E+00  0.74496945062E+03  0.28784143089E+04  0.27803398086E+04 0.  0.
        2    1    3    3  502    0  0.24930393911E+03  0.68098037195E+03 -0.85538970145E+03  0.11214179695E+04  0.25500000920E-02 0.  1.
       -2    1    3    3    0  502 -0.24930393911E+03 -0.68098037195E+03  0.16003591521E+04  0.17569963394E+04  0.25500000920E-02 0. -1.
</event>
<event>
 5   0  0.4764214E-06  0.2762173E+04  0.7818609E-02  0.8315109E-01
       -1   -1    0    0    0  501  0.00000000000E+00  0.00000000000E+00  0.17358757179E+04  0.17358757179E+04  0.50400001928E-02 0. -1.
        1   -1    0    0  501    0  0.00000000000E+00  0.00000000000E+00 -0.10988117253E+04  0.10988117253E+04  0.50400001928E-02 0.  1.
    10030    2    1    2    0    0  0.00000000000E+00  0.00000000000E+00  0.63706399258E+03  0.28346874431E+04  0.27621734865E+04 0.  0.
        3    1    3    3  502    0 -0.83482612721E+03 -0.74752483963E+03 -0.50992302804E+03  0.12311578101E+04  0.10100000352E+00 0.  1.
       -3    1    3    3    0  502  0.83482612721E+03  0.74752483963E+03  0.11469870206E+04  0.16035296331E+04  0.10100000352E+00 0. -1.
</event>
<event>
 5   0  0.1330962E-05  0.2794375E+04  0.7818609E-02  0.8305017E-01
        2   -1    0    0  501    0  0.00000000000E+00  0.00000000000E+00  0.13379891977E+04  0.13379891977E+04  0.25500000920E-02 0. -1.
       -2   -1    0    0    0  501  0.00000000000E+00  0.00000000000E+00 -0.14590052106E+04  0.14590052106E+04  0.25500000920E-02 0.  1.
    10030    2    1    2    0    0  0.00000000000E+00  0.00000000000E+00 -0.12101601290E+03  0.27969944083E+04  0.27943752155E+04 0.  0.
        4    1    3    3  502    0 -0.11855965769E+04 -0.23581878267E+03 -0.76179432745E+03  0.14288393723E+04  0.12699999809E+01 0.  1.
       -4    1    3    3    0  502  0.11855965769E+04  0.23581878267E+03  0.64077831454E+03  0.13681550361E+04  0.12699999809E+01 0. -1.
</event>
<event>
 5   0  0.1330962E-05  0.2818223E+04  0.7818609E-02  0.8297633E-01
        2   -1    0    0  501    0  0.00000000000E+00  0.00000000000E+00  0.15266395080E+04  0.15266395080E+04  0.25500000920E-02 0.  1.
       -2   -1    0    0    0  501  0.00000000000E+00  0.00000000000E+00 -0.13006314321E+04  0.13006314321E+04  0.25500000920E-02 0. -1.
    10030    2    1    2    0    0  0.00000000000E+00  0.00000000000E+00  0.22600807588E+03  0.28272709401E+04  0.28182230782E+04 0.  0.
        4    1    3    3  502    0 -0.80102755698E+03  0.20578493072E+03 -0.10315360831E+04  0.13221425371E+04  0.12699999809E+01 0. -1.
       -4    1    3    3    0  502  0.80102755698E+03 -0.20578493072E+03  0.12575441590E+04  0.15051284030E+04  0.12699999809E+01 0.  1.
</event>
<event>
 5   0  0.1302063E-05  0.2564966E+04  0.7818609E-02  0.8380200E-01
        2   -1    0    0  501    0  0.00000000000E+00  0.00000000000E+00  0.23716965742E+04  0.23716965742E+04  0.25500000920E-02 0. -1.
       -2   -1    0    0    0  501  0.00000000000E+00  0.00000000000E+00 -0.69349611127E+03  0.69349611127E+03  0.25500000920E-02 0.  1.
    10030    2    1    2    0    0  0.00000000000E+00  0.00000000000E+00  0.16782004629E+04  0.30651926855E+04  0.25649657708E+04 0.  0.
        2    1    3    3  502    0  0.97964526769E+03  0.35817660538E+03  0.17307883046E+04  0.20207977352E+04  0.25500000920E-02 0. -1.
       -2    1    3    3    0  502 -0.97964526769E+03 -0.35817660538E+03 -0.52587841645E+02  0.10443949503E+04  0.25500000920E-02 0.  1.
</event>
<event>
 5   0  0.4447500E-06  0.2680225E+04  0.7818609E-02  0.8341450E-01
       -3   -1    0    0    0  501  0.00000000000E+00  0.00000000000E+00  0.21296305619E+04  0.21296305643E+04  0.10100000352E+00 0.  1.
        3   -1    0    0  501    0  0.00000000000E+00  0.00000000000E+00 -0.84329233115E+03  0.84329233720E+03  0.10100000352E+00 0. -1.
    10030    2    1    2    0    0  0.00000000000E+00  0.00000000000E+00  0.12863382308E+04  0.29729229015E+04  0.26802247172E+04 0.  0.
        2    1    3    3  502    0 -0.15347815675E+03 -0.12257560761E+04  0.12193884635E+04  0.17357827421E+04  0.25500000920E-02 0.  1.
       -2    1    3    3    0  502  0.15347815675E+03  0.12257560761E+04  0.66949767262E+02  0.12371401594E+04  0.25500000920E-02 0. -1.
</event>
<event>
 5   0  0.5281919E-06  0.2803233E+04  0.7818609E-02  0.8302265E-01
       -1   -1    0    0    0  501  0.00000000000E+00  0.00000000000E+00  0.90374497331E+03  0.90374497332E+03  0.50400001928E-02 0. -1.
        1   -1    0    0  501    0  0.00000000000E+00  0.00000000000E+00 -0.21737649311E+04  0.21737649311E+04  0.50400001928E-02 0.  1.
    10030    2    1    2    0    0  0.00000000000E+00  0.00000000000E+00 -0.12700199578E+04  0.30775099044E+04  0.28032332259E+04 0.  0.
        4    1    3    3  502    0  0.51706196408E+03  0.85461411339E+03 -0.17144800487E+04  0.19842282651E+04  0.12699999809E+01 0.  1.
       -4    1    3    3    0  502 -0.51706196408E+03 -0.85461411339E+03  0.44446009097E+03  0.10932816393E+04  0.12699999809E+01 0. -1.
</event>
<event>
 5   0  0.4764214E-06  0.2789144E+04  0.7818609E-02  0.8306647E-01
        1   -1    0    0  501    0  0.00000000000E+00  0.00000000000E+00  0.24704993533E+04  0.24704993534E+04  0.50400001928E-02 0.  1.
       -1   -1    0    0    0  501  0.00000000000E+00  0.00000000000E+00 -0.78722177791E+03  0.78722177793E+03  0.50400001928E-02 0. -1.
    10030    2    1    2    0    0  0.00000000000E+00  0.00000000000E+00  0.16832775754E+04  0.32577211313E+04  0.27891438782E+04 0.  0.
        3    1    3    3  502    0 -0.76668871820E+03 -0.37079427724E+03 -0.44821175493E+03  0.96238961659E+03  0.10100000352E+00 0. -1.
       -3    1    3    3    0  502  0.76668871820E+03  0.37079427724E+03  0.21314893304E+04  0.22953315147E+04  0.10100000352E+00 0.  1.
</event>
<event>
 5   0  0.5281919E-06  0.2818078E+04  0.7818609E-02  0.8297678E-01
        1   -1    0    0  501    0  0.00000000000E+00  0.00000000000E+00  0.17974204600E+04  0.17974204600E+04  0.50400001928E-02 0.  1.
       -1   -1    0    0    0  501  0.00000000000E+00  0.00000000000E+00 -0.11045775548E+04  0.11045775549E+04  0.50400001928E-02 0. -1.
    10030    2    1    2    0    0  0.00000000000E+00  0.00000000000E+00  0.69284290517E+03  0.29019980149E+04  0.28180775694E+04 0.  0.
        4    1    3    3  502    0 -0.81842731187E+03 -0.99210582347E+03 -0.24629814154E+03  0.13094890672E+04  0.12699999809E+01 0. -1.
       -4    1    3    3    0  502  0.81842731187E+03  0.99210582347E+03  0.93914104671E+03  0.15925089476E+04  0.12699999809E+01 0.  1.
</event>
<event>
 5   0  0.5281919E-06  0.2796018E+04  0.7818609E-02  0.8304506E-01
        1   -1    0    0  501    0  0.00000000000E+00  0.00000000000E+00  0.12383138150E+04  0.12383138150E+04  0.50400001928E-02 0.  1.
       -1   -1    0    0    0  501  0.00000000000E+00  0.00000000000E+00 -0.15782987847E+04  0.15782987847E+04  0.50400001928E-02 0. -1.
    10030    2    1    2    0    0  0.00000000000E+00  0.00000000000E+00 -0.33998496971E+03  0.28166125997E+04  0.27960180180E+04 0.  0.
        4    1    3    3  502    0  0.50052398747E+03  0.19546104252E+03 -0.14701181231E+04  0.15652406172E+04  0.12699999809E+01 0. -1.
       -4    1    3    3    0  502 -0.50052398747E+03 -0.19546104252E+03  0.11301331534E+04  0.12513719824E+04  0.12699999809E+01 0.  1.
</event>
<event>
 5   0  0.1388269E-05  0.2826060E+04  0.7818609E-02  0.8295223E-01
        2   -1    0    0  501    0  0.00000000000E+00  0.00000000000E+00  0.22791671649E+04  0.22791671649E+04  0.25500000920E-02 0. -1.
       -2   -1    0    0    0  501  0.00000000000E+00  0.00000000000E+00 -0.87604545895E+03  0.87604545895E+03  0.25500000920E-02 0.  1.
    10030    2    1    2    0    0  0.00000000000E+00  0.00000000000E+00  0.14031217059E+04  0.31552126238E+04  0.28260601869E+04 0.  0.
        1    1    3    3  502    0  0.41233741969E+03  0.89601497036E+03 -0.42811141737E+03  0.10752415359E+04  0.50400001928E-02 0.  1.
       -1    1    3    3    0  502 -0.41233741969E+03 -0.89601497036E+03  0.18312331233E+04  0.20799710880E+04  0.50400001928E-02 0. -1.
</event>
<event>
 5   0  0.1302063E-05  0.2850699E+04  0.7818609E-02  0.8287699E-01
        2   -1    0    0  501    0  0.00000000000E+00  0.00000000000E+00  0.13250217015E+04  0.13250217015E+04  0.25500000920E-02 0.  1.
       -2   -1    0    0    0  501  0.00000000000E+00  0.00000000000E+00 -0.15332741649E+04  0.15332741649E+04  0.25500000920E-02 0. -1.
    10030    2    1    2    0    0  0.00000000000E+00  0.00000000000E+00 -0.20825246340E+03  0.28582958664E+04  0.28506992426E+04 0.  0.
        2    1    3    3  502    0 -0.41077423373E+03  0.28395483638E+03  0.12344428512E+04  0.13316211823E+04  0.25500000920E-02 0.  1.
       -2    1    3    3    0  502  0.41077423373E+03 -0.28395483638E+03 -0.14426953146E+04  0.15266746841E+04  0.25500000920E-02 0. -1.
</event>
<event>
 5   0  0.1350863E-05  0.2809818E+04  0.7818609E-02  0.8300227E-01
        2   -1    0    0  501    0  0.00000000000E+00  0.00000000000E+00  0.78534527668E+03  0.78534527668E+03  0.25500000920E-02 0. -1.
       -2   -1    0    0    0  501  0.00000000000E+00  0.00000000000E+00 -0.25132499397E+04  0.25132499397E+04  0.25500000920E-02 0.  1.
    10030    2    1    2    0    0  0.00000000000E+00  0.00000000000E+00 -0.17279046630E+04  0.32985952164E+04  0.28098177658E+04 0.  0.
        3    1    3    3  502    0 -0.80391539944E+03  0.11038998365E+04 -0.12513465423E+04  0.18522264974E+04  0.10100000352E+00 0.  1.
       -3    1    3    3    0  502  0.80391539944E+03 -0.11038998365E+04 -0.47655812065E+03  0.14463687189E+04  0.10100000352E+00 0. -1.
</event>
<event>
 5   0  0.1283052E-05  0.2939215E+04  0.7818609E-02  0.8261305E-01
       -2   -1    0    0    0  501  0.00000000000E+00  0.00000000000E+00  0.99247867439E+03  0.99247867440E+03  0.25500000920E-02 0. -1.
        2   -1    0    0  501    0  0.00000000000E+00  0.00000000000E+00 -0.21761131135E+04  0.21761131135E+04  0.25500000920E-02 0.  1.
    10030    2    1    2    0    0  0.00000000000E+00  0.00000000000E+00 -0.11836344391E+04  0.31685917879E+04  0.29392147647E+04 0.  0.
        5    1    3    3  502    0  0.58309902524E+03  0.53344695050E+02 -0.20449233452E+04  0.21271068867E+04  0.46999998093E+01 0.  1.
       -5    1    3    3    0  502 -0.58309902524E+03 -0.53344695050E+02  0.86128890607E+03  0.10414849012E+04  0.46999998093E+01 0. -1.
</event>
<event>
 5   0  0.5023691E-06  0.2258430E+04  0.7818609E-02  0.8494494E-01
       -1   -1    0    0    0  501  0.00000000000E+00  0.00000000000E+00  0.47136146853E+03  0.47136146856E+03  0.50400001928E-02 0.  1.
        1   -1    0    0  501    0  0.00000000000E+00  0.00000000000E+00 -0.27051997249E+04  0.27051997249E+04  0.50400001928E-02 0. -1.
    10030    2    1    2    0    0  0.00000000000E+00  0.00000000000E+00 -0.22338382564E+04  0.31765611935E+04  0.22584303532E+04 0.  0.
        5    1    3    3  502    0 -0.98453249621E+03  0.17524449137E+03 -0.37920535504E+03  0.10695015938E+04  0.46999998093E+01 0. -1.
       -5    1    3    3    0  502  0.98453249621E+03 -0.17524449137E+03 -0.18546329014E+04  0.21070595997E+04  0.46999998093E+01 0.  1.
</event>
<event>
 5   0  0.5107453E-06  0.2653638E+04  0.7818609E-02  0.8350207E-01
       -1   -1    0    0    0  501  0.00000000000E+00  0.00000000000E+00  0.12304875549E+04  0.12304875549E+04  0.50400001928E-02 0.  1.
        1   -1    0    0  501    0  0.00000000000E+00  0.00000000000E+00 -0.14306915298E+04  0.14306915299E+04  0.50400001928E-02 0. -1.
    10030    2    1    2    0    0  0.00000000000E+00  0.00000000000E+00 -0.20020397494E+03  0.26611790848E+04  0.26536375958E+04 0.  0.
        2    1    3    3  502    0  0.51310615456E+02  0.13256417661E+04 -0.12228386806E+03  0.13322583142E+04  0.25500000920E-02 0.  1.
       -2    1    3    3    0  502 -0.51310615456E+02 -0.13256417661E+04 -0.77920106888E+02  0.13289207706E+04  0.25500000920E-02 0. -1.
</event>
<event>
 5   0  0.5023691E-06  0.2348080E+04  0.7818609E-02  0.8459202E-01
       -1   -1    0    0    0  501  0.00000000000E+00  0.00000000000E+00  0.90636107828E+03  0.90636107830E+03  0.50400001928E-02 0. -1.
        1   -1    0    0  501    0  0.00000000000E+00  0.00000000000E+00 -0.15207731713E+04  0.15207731713E+04  0.50400001928E-02 0.  1.
    10030    2    1    2    0    0  0.00000000000E+00  0.00000000000E+00 -0.61441209302E+03  0.24271342496E+04  0.23480797358E+04 0.  0.
        5    1    3    3  502    0  0.10663352798E+04 -0.29604877068E+03  0.97949138826E+02  0.11110049178E+04  0.46999998093E+01 0. -1.
       -5    1    3    3    0  502 -0.10663352798E+04  0.29604877068E+03 -0.71236123185E+03  0.13161293318E+04  0.46999998093E+01 0.  1.
</event>
<event>
 5   0  0.1302063E-05  0.2946067E+04  0.7818609E-02  0.8259302E-01
       -2   -1    0    0    0  501  0.00000000000E+00  0.00000000000E+00  0.18908871285E+04  0.18908871285E+04  0.25500000920E-02 0. -1.
        2   -1    0    0  501    0  0.00000000000E+00  0.00000000000E+00 -0.11475185232E+04  0.11475185232E+04  0.25500000920E-02 0.  1.
    10030    2    1    2    0    0  0.00000000000E+00  0.00000000000E+00  0.74336860531E+03  0.30384056517E+04  0.29460672126E+04 0.  0.
        2    1    3    3  502    0  0.52863778004E+03 -0.13489270763E+04  0.64604061374E+03  0.15863261437E+04  0.25500000920E-02 0. -1.
       -2    1    3    3    0  502 -0.52863778004E+03  0.13489270763E+04  0.97327991569E+02  0.14520795080E+04  0.25500000920E-02 0.  1.
</event>
<event>
 5   0  0.1388269E-05  0.2802301E+04  0.7818609E-02  0.8302554E-01
        2   -1    0    0  501    0  0.00000000000E+00  0.00000000000E+00  0.95891079112E+03  0.95891079113E+03  0.25500000920E-02 0. -1.
       -2   -1    0    0    0  501  0.00000000000E+00  0.00000000000E+00 -0.20473462086E+04  0.20473462086E+04  0.25500000920E-02 0.  1.
    10030    2    1    2    0    0  0.00000000000E+00  0.00000000000E+00 -0.10884354174E+04  0.30062569997E+04  0.28023007494E+04 0.  0.
        1    1    3    3  502    0  0.23227313352E+03 -0.13792110708E+04 -0.45415267728E+03  0.14705198539E+04  0.50400001928E-02 0.  1.
       -1    1    3    3    0  502 -0.23227313352E+03  0.13792110708E+04 -0.63428274015E+03  0.15357371458E+04  0.50400001928E-02 0. -1.
</event>
<event>
 5   0  0.1388269E-05  0.2726090E+04  0.7818609E-02  0.8326589E-01
       -2   -1    0    0    0  501  0.00000000000E+00  0.00000000000E+00  0.10245677245E+04  0.10245677245E+04  0.25500000920E-02 0.  1.
        2   -1    0    0  501    0  0.00000000000E+00  0.00000000000E+00 -0.18133415068E+04  0.18133415068E+04  0.25500000920E-02 0. -1.
    10030    2    1    2    0    0  0.00000000000E+00  0.00000000000E+00 -0.78877378224E+03  0.28379092313E+04  0.27260896401E+04 0.  0.
        1    1    3    3  502    0  0.37968019848E+03 -0.58733923089E+03 -0.16123190354E+04  0.17574689463E+04  0.50400001928E-02 0. -1.
       -1    1    3    3    0  502 -0.37968019848E+03  0.58733923089E+03  0.82354525321E+03  0.10804402850E+04  0.50400001928E-02 0.  1.
</event>
<event>
 5   0  0.1350863E-05  0.2785484E+04  0.7818609E-02  0.8307789E-01
       -2   -1    0    0    0  501  0.00000000000E+00  0.00000000000E+00  0.84631224662E+03  0.84631224662E+03  0.25500000920E-02 0.  1.
        2   -1    0    0  501    0  0.00000000000E+00  0.00000000000E+00 -0.22919798693E+04  0.22919798693E+04  0.25500000920E-02 0. -1.
    10030    2    1    2    0    0  0.00000000000E+00  0.00000000000E+00 -0.14456676227E+04  0.31382921159E+04  0.27854842541E+04 0.  0.
        3    1    3    3  502    0  0.98418307105E+03 -0.78658161356E+03 -0.54008239850E+02  0.12610487113E+04  0.10100000352E+00 0.  1.
       -3    1    3    3    0  502 -0.98418307105E+03  0.78658161356E+03 -0.13916593828E+04  0.18772434046E+04  0.10100000352E+00 0. -1.
</event>
<event>
 5   0  0.5281919E-06  0.2767638E+04  0.7818609E-02  0.8313387E-01
        1   -1    0    0  501    0  0.00000000000E+00  0.00000000000E+00  0.13677300037E+04  0.13677300038E+04  0.50400001928E-02 0.  1.
       -1   -1    0    0    0  501  0.00000000000E+00  0.00000000000E+00 -0.14000970447E+04  0.14000970447E+04  0.50400001928E-02 0. -1.
    10030    2    1    2    0    0  0.00000000000E+00  0.00000000000E+00 -0.32367040983E+02  0.27678270485E+04  0.27676377915E+04 0.  0.
        4    1    3    3  502    0  0.15757759582E+03 -0.41733194574E+03  0.12938512734E+04  0.13685939435E+04  0.12699999809E+01 0.  1.
       -4    1    3    3    0  502 -0.15757759582E+03  0.41733194574E+03 -0.13262183144E+04  0.13992331050E+04  0.12699999809E+01 0. -1.
</event>
<event>
 5   0  0.1350863E-05  0.2796101E+04  0.7818609E-02  0.8304480E-01
        2   -1    0    0  501    0  0.00000000000E+00  0.00000000000E+00  0.18150962392E+04  0.18150962392E+04  0.25500000920E-02 0. -1.
       -2   -1    0    0    0  501  0.00000000000E+00  0.00000000000E+00 -0.10768269866E+04  0.10768269866E+04  0.25500000920E-02 0.  1.
    10030    2    1    2    0    0  0.00000000000E+00  0.00000000000E+00  0.73826925262E+03  0.28919232258E+04  0.27961005802E+04 0.  0.
        3    1    3    3  502    0  0.30838898773E+03 -0.12265159997E+03  0.17737623069E+04  0.18045442401E+04  0.10100000352E+00 0. -1.
       -3    1    3    3    0  502 -0.30838898773E+03  0.12265159997E+03 -0.10354930543E+04  0.10873789857E+04  0.10100000352E+00 0.  1.
</event>
<event>
 5   0  0.5107453E-06  0.2785740E+04  0.7818609E-02  0.8307709E-01
        1   -1    0    0  501    0  0.00000000000E+00  0.00000000000E+00  0.12417408789E+04  0.12417408789E+04  0.50400001928E-02 0. -1.
       -1   -1    0    0    0  501  0.00000000000E+00  0.00000000000E+00 -0.15623930053E+04  0.15623930053E+04  0.50400001928E-02 0.  1.
    10030    2    1    2    0    0  0.00000000000E+00  0.00000000000E+00 -0.32065212640E+03  0.28041338842E+04  0.27857403063E+04 0.  0.
        2    1    3    3  502    0  0.99371360490E+02  0.10101791549E+03 -0.15551186609E+04  0.15615611855E+04  0.25500000920E-02 0.  1.
       -2    1    3    3    0  502 -0.99371360490E+02 -0.10101791549E+03  0.12344665345E+04  0.12425726987E+04  0.25500000920E-02 0. -1.
</event>
<event>
 5   0  0.1283052E-05  0.2745664E+04  0.7818609E-02  0.8320339E-01
        2   -1    0    0  501    0  0.00000000000E+00  0.00000000000E+00  0.24856952677E+04  0.24856952677E+04  0.25500000920E-02 0.  1.
       -2   -1    0    0    0  501  0.00000000000E+00  0.00000000000E+00 -0.75820529733E+03  0.75820529733E+03  0.25500000920E-02 0. -1.
    10030    2    1    2    0    0  0.00000000000E+00  0.00000000000E+00  0.17274899704E+04  0.32439005651E+04  0.27456637227E+04 0.  0.
        5    1    3    3  502    0  0.53335392071E+03  0.15098876243E+03  0.23475899266E+04  0.24121493662E+04  0.46999998093E+01 0.  1.
       -5    1    3    3    0  502 -0.53335392071E+03 -0.15098876243E+03 -0.62009995624E+03  0.83175119888E+03  0.46999998093E+01 0. -1.
</event>
<event>
 5   0  0.1350863E-05  0.2789738E+04  0.7818609E-02  0.8306461E-01
        2   -1    0    0  501    0  0.00000000000E+00  0.00000000000E+00  0.25679001837E+04  0.25679001837E+04  0.25500000920E-02 0. -1.
       -2   -1    0    0    0  501  0.00000000000E+00  0.00000000000E+00 -0.75768527222E+03  0.75768527222E+03  0.25500000920E-02 0.  1.
    10030    2    1    2    0    0  0.00000000000E+00  0.00000000000E+00  0.18102149114E+04  0.33255854559E+04  0.27897384463E+04 0.  0.
        3    1    3    3  502    0  0.66715503416E+03 -0.21239250926E+03 -0.53304135026E+03  0.87996562938E+03  0.10100000352E+00 0.  1.
       -3    1    3    3    0  502 -0.66715503416E+03  0.21239250926E+03  0.23432562617E+04  0.24456198265E+04  0.10100000352E+00 0. -1.
</event>
<event>
 5   0  0.5107453E-06  0.2898848E+04  0.7818609E-02  0.8273220E-01
       -1   -1    0    0    0  501  0.00000000000E+00  0.00000000000E+00  0.13477104653E+04  0.13477104653E+04  0.50400001928E-02 0.  1.
        1   -1    0    0  501    0  0.00000000000E+00  0.00000000000E+00 -0.15588136595E+04  0.15588136596E+04  0.50400001928E-02 0. -1.
    10030    2    1    2    0    0  0.00000000000E+00  0.00000000000E+00 -0.21110319424E+03  0.29065241249E+04  0.28988476900E+04 0.  0.
        2    1    3    3  502    0 -0.71739996438E+03 -0.12364233700E+04 -0.34581927151E+03  0.14707128976E+04  0.25500000920E-02 0. -1.
       -2    1    3    3    0  502  0.71739996438E+03  0.12364233700E+04  0.13471607726E+03  0.14358112272E+04  0.25500000920E-02 0.  1.
</event>
<event>
 5   0  0.5107453E-06  0.2814708E+04  0.7818609E-02  0.8298717E-01
       -1   -1    0    0    0  501  0.00000000000E+00  0.00000000000E+00  0.10469456046E+04  0.10469456046E+04  0.50400001928E-02 0. -1.
        1   -1    0    0  501    0  0.00000000000E+00  0.00000000000E+00 -0.18918320558E+04  0.18918320558E+04  0.50400001928E-02 0.  1.
    10030    2    1    2    0    0  0.00000000000E+00  0.00000000000E+00 -0.84488645121E+03  0.29387776604E+04  0.28147079817E+04 0.  0.
        2    1    3    3  502    0  0.10310249409E+04 -0.19508374181E+03  0.55675329876E+03  0.11878738699E+04  0.25500000920E-02 0. -1.
       -2    1    3    3    0  502 -0.10310249409E+04  0.19508374181E+03 -0.14016397500E+04  0.17509037906E+04  0.25500000920E-02 0.  1.
</event>
<event>
 5   0  0.5023691E-06  0.2766027E+04  0.7818609E-02  0.8313894E-01
        1   -1    0    0  501    0  0.00000000000E+00  0.00000000000E+00  0.16589177358E+04  0.16589177358E+04  0.50400001928E-02 0.  1.
       -1   -1    0    0    0  501  0.00000000000E+00  0.00000000000E+00 -0.11529966980E+04  0.11529966980E+04  0.50400001928E-02 0. -1.
    10030    2    1    2    0    0  0.00000000000E+00  0.00000000000E+00  0.50592103783E+03  0.28119144338E+04  0.27660272389E+04 0.  0.
        5    1    3    3  502    0 -0.59465161796E+03 -0.12253682378E+04  0.49687151411E+03  0.14498418040E+04  0.46999998093E+01 0.  1.
       -5    1    3    3    0  502  0.59465161796E+03  0.12253682378E+04  0.90495237229E+01  0.13620726298E+04  0.46999998093E+01 0. -1.
</event>
<event>
 5   0  0.1302063E-05  0.2795444E+04  0.7818609E-02  0.8304684E-01
       -2   -1    0    0    0  501  0.00000000000E+00  0.00000000000E+00  0.80920508136E+03  0.80920508136E+03  0.25500000920E-02 0.  1.
        2   -1    0    0  501    0  0.00000000000E+00  0.00000000000E+00 -0.24142544280E+04  0.24142544280E+04  0.25500000920E-02 0. -1.
    10030    2    1    2    0    0  0.00000000000E+00  0.00000000000E+00 -0.16050493466E+04  0.32234595093E+04  0.27954441156E+04 0.  0.
        2    1    3    3  502    0  0.14715444564E+03 -0.17160295457E+03 -0.23930353351E+04  0.24036888567E+04  0.25500000920E-02 0. -1.
       -2    1    3    3    0  502 -0.14715444564E+03  0.17160295457E+03  0.78798598847E+03  0.81977065263E+03  0.25500000920E-02 0.  1.
</event>
<event>
 5   0  0.1302063E-05  0.2784850E+04  0.7818609E-02  0.8307987E-01
       -2   -1    0    0    0  501  0.00000000000E+00  0.00000000000E+00  0.14354444901E+04  0.14354444901E+04  0.25500000920E-02 0. -1.
        2   -1    0    0  501    0  0.00000000000E+00  0.00000000000E+00 -0.13506945568E+04  0.13506945568E+04  0.25500000920E-02 0.  1.
    10030    2    1    2    0    0  0.00000000000E+00  0.00000000000E+00  0.84749933324E+02  0.27861390469E+04  0.27848497692E+04 0.  0.
        2    1    3    3  502    0  0.67092718058E+03 -0.61134718640E+03  0.10987797184E+04  0.14252036814E+04  0.25500000920E-02 0. -1.
       -2    1    3    3    0  502 -0.67092718058E+03  0.61134718640E+03 -0.10140297851E+04  0.13609353655E+04  0.25500000920E-02 0.  1.
</event>
<event>
 5   0  0.4764214E-06  0.2738014E+04  0.7818609E-02  0.8322775E-01
       -1   -1    0    0    0  501  0.00000000000E+00  0.00000000000E+00  0.28183880200E+04  0.28183880200E+04  0.50400001928E-02 0.  1.
        1   -1    0    0  501    0  0.00000000000E+00  0.00000000000E+00 -0.66498281505E+03  0.66498281507E+03  0.50400001928E-02 0. -1.
    10030    2    1    2    0    0  0.00000000000E+00  0.00000000000E+00  0.21534052050E+04  0.34833708351E+04  0.27380135862E+04 0.  0.
        3    1    3    3  502    0 -0.10717352254E+04  0.46597598037E+03  0.16955173955E+03  0.11808885681E+04  0.10100000352E+00 0. -1.
       -3    1    3    3    0  502  0.10717352254E+04 -0.46597598037E+03  0.19838534654E+04  0.23024822670E+04  0.10100000352E+00 0.  1.
</event>
<event>
 5   0  0.1330962E-05  0.2847169E+04  0.7818609E-02  0.8288772E-01
       -2   -1    0    0    0  501  0.00000000000E+00  0.00000000000E+00  0.12133678570E+04  0.12133678571E+04  0.25500000920E-02 0. -1.
        2   -1    0    0  501    0  0.00000000000E+00  0.00000000000E+00 -0.16702218042E+04  0.16702218042E+04  0.25500000920E-02 0.  1.
    10030    2    1    2    0    0  0.00000000000E+00  0.00000000000E+00 -0.45685394717E+03  0.28835896613E+04  0.28471694374E+04 0.  0.
        4    1    3    3  502    0 -0.33481552124E+03  0.10823823699E+04 -0.11013916478E+04  0.15801006938E+04  0.12699999809E+01 0.  1.
       -4    1    3    3    0  502  0.33481552124E+03 -0.10823823699E+04  0.64453770059E+03  0.13034889675E+04  0.12699999809E+01 0. -1.
</event>
<event>
 5   0  0.5217999E-06  0.2773006E+04  0.7818609E-02  0.8311698E-01
       -1   -1    0    0    0  501  0.00000000000E+00  0.00000000000E+00  0.15406468657E+04  0.15406468657E+04  0.50400001928E-02 0. -1.
        1   -1    0    0  501    0  0.00000000000E+00  0.00000000000E+00 -0.12477810482E+04  0.12477810482E+04  0.50400001928E-02 0.  1.
    10030    2    1    2    0    0  0.00000000000E+00  0.00000000000E+00  0.29286581755E+03  0.27884279139E+04  0.27730055614E+04 0.  0.
        1    1    3    3  502    0 -0.43068827013E+03 -0.52056633364E+03 -0.10710477710E+04  0.12663431689E+04  0.50400001928E-02 0.  1.
       -1    1    3    3    0  502  0.43068827013E+03  0.52056633364E+03  0.13639135885E+04  0.15220847449E+04  0.50400001928E-02 0. -1.
</event>
<event>
 5   0  0.1302063E-05  0.2743375E+04  0.7818609E-02  0.8321067E-01
        2   -1    0    0  501    0  0.00000000000E+00  0.00000000000E+00  0.28653831040E+04  0.28653831040E+04  0.25500000920E-02 0. -1.
       -2   -1    0    0    0  501  0.00000000000E+00  0.00000000000E+00 -0.65664060672E+03  0.65664060672E+03  0.25500000920E-02 0.  1.
    10030    2    1    2    0    0  0.00000000000E+00  0.00000000000E+00  0.22087424972E+04  0.35220237107E+04  0.27433752203E+04 0.  0.
        2    1    3    3  502    0 -0.63077048288E+03 -0.53441896352E+03  0.25095930348E+04  0.26422589258E+04  0.25500000920E-02 0. -1.
       -2    1    3    3    0  502  0.63077048288E+03  0.53441896352E+03 -0.30085053761E+03  0.87976478484E+03  0.25500000920E-02 0.  1.
</event>
<event>
 5   0  0.4764214E-06  0.2545024E+04  0.7818609E-02  0.8387119E-01
       -1   -1    0    0    0  501  0.00000000000E+00  0.00000000000E+00  0.12792388013E+04  0.12792388013E+04  0.50400001928E-02 0.  1.
        1   -1    0    0  501    0  0.00000000000E+00  0.00000000000E+00 -0.12658203302E+04  0.12658203302E+04  0.50400001928E-02 0. -1.
    10030    2    1    2    0    0  0.00000000000E+00  0.00000000000E+00  0.13418471098E+02  0.25450591314E+04  0.25450237577E+04 0.  0.
        3    1    3    3  502    0 -0.65131871907E+03  0.10438489263E+04  0.33144412477E+03  0.12742416854E+04  0.10100000352E+00 0. -1.
       -3    1    3    3    0  502  0.65131871907E+03 -0.10438489263E+04 -0.31802565367E+03  0.12708174461E+04  0.10100000352E+00 0.  1.
</event>
<event>
 5   0  0.1388269E-05  0.2742668E+04  0.7818609E-02  0.8321292E-01
        2   -1    0    0  501    0  0.00000000000E+00  0.00000000000E+00  0.21034285182E+04  0.21034285182E+04  0.25500000920E-02 0. -1.
       -2   -1    0    0    0  501  0.00000000000E+00  0.00000000000E+00 -0.89404373158E+03  0.89404373158E+03  0.25500000920E-02 0.  1.
    10030    2    1    2    0    0  0.00000000000E+00  0.00000000000E+00  0.12093847867E+04  0.29974722498E+04  0.27426681036E+04 0.  0.
        1    1    3    3  502    0 -0.10357654701E+04  0.89581738877E+03  0.52544233835E+03  0.14667612465E+04  0.50400001928E-02 0.  1.
       -1    1    3    3    0  502  0.10357654701E+04 -0.89581738877E+03  0.68394244831E+03  0.15307110034E+04  0.50400001928E-02 0. -1.
</event>
<event>
 5   0  0.1283052E-05  0.2769960E+04  0.7818609E-02  0.8312656E-01
       -2   -1    0    0    0  501  0.00000000000E+00  0.00000000000E+00  0.67914586126E+03  0.67914586127E+03  0.25500000920E-02 0.  1.
        2   -1    0    0  501    0  0.00000000000E+00  0.00000000000E+00 -0.28243847439E+04  0.28243847439E+04  0.25500000920E-02 0. -1.
    10030    2    1    2    0    0  0.00000000000E+00  0.00000000000E+00 -0.21452388827E+04  0.35035306052E+04  0.27699597177E+04 0.  0.
        5    1    3    3  502    0 -0.81850652392E+03 -0.17226216328E+02  0.34031467113E+03  0.88661481920E+03  0.46999998093E+01 0.  1.
       -5    1    3    3    0  502  0.81850652392E+03  0.17226216328E+02 -0.24855535538E+04  0.26169157860E+04  0.46999998093E+01 0. -1.
</event>
<event>
 5   0  0.5217999E-06  0.2727017E+04  0.7818609E-02  0.8326292E-01
       -1   -1    0    0    0  501  0.00000000000E+00  0.00000000000E+00  0.61980529392E+03  0.61980529394E+03  0.50400001928E-02 0. -1.
        1   -1    0    0  501    0  0.00000000000E+00  0.00000000000E+00 -0.29995800525E+04  0.29995800525E+04  0.50400001928E-02 0.  1.
    10030    2    1    2    0    0  0.00000000000E+00  0.00000000000E+00 -0.23797747585E+04  0.36193853464E+04  0.27270171221E+04 0.  0.
        1    1    3    3  502    0  0.82376991442E+03 -0.58122241734E+03 -0.24082976841E+04  0.26108071751E+04  0.50400001928E-02 0.  1.
       -1    1    3    3    0  502 -0.82376991442E+03  0.58122241734E+03  0.28522925549E+02  0.10085781713E+04  0.50400001928E-02 0. -1.
</event>
<event>
 5   0  0.5281919E-06  0.2760826E+04  0.7818609E-02  0.8315534E-01
        1   -1    0    0  501    0  0.00000000000E+00  0.00000000000E+00  0.20909109927E+04  0.20909109927E+04  0.50400001928E-02 0. -1.
       -1   -1    0    0    0  501  0.00000000000E+00  0.00000000000E+00 -0.91134451586E+03  0.91134451588E+03  0.50400001928E-02 0.  1.
    10030    2    1    2    0    0  0.00000000000E+00  0.00000000000E+00  0.11795664768E+04  0.30022555085E+04  0.27608261563E+04 0.  0.
        4    1    3    3  502    0 -0.24047512833E+03  0.28253075796E+02  0.20676378335E+04  0.20817671213E+04  0.12699999809E+01 0. -1.
       -4    1    3    3    0  502  0.24047512833E+03 -0.28253075796E+02 -0.88807135671E+03  0.92048838730E+03  0.12699999809E+01 0.  1.
</event>
<event>
 5   0  0.5281919E-06  0.2793554E+04  0.7818609E-02  0.8305273E-01
       -1   -1    0    0    0  501  0.00000000000E+00  0.00000000000E+00  0.12571807114E+04  0.12571807114E+04  0.50400001928E-02 0.  1.
        1   -1    0    0  501    0  0.00000000000E+00  0.00000000000E+00 -0.15518734290E+04  0.15518734290E+04  0.50400001928E-02 0. -1.
    10030    2    1    2    0    0  0.00000000000E+00  0.00000000000E+00 -0.29469271761E+03  0.28090541404E+04  0.27935535374E+04 0.  0.
        4    1    3    3  502    0  0.11675978530E+04 -0.23129118704E+02  0.62317171576E+03  0.13236934323E+04  0.12699999809E+01 0.  1.
       -4    1    3    3    0  502 -0.11675978530E+04  0.23129118704E+02 -0.91786443337E+03  0.14853607082E+04  0.12699999809E+01 0. -1.
</event>
<event>
 5   0  0.1302063E-05  0.2853135E+04  0.7818609E-02  0.8286959E-01
        2   -1    0    0  501    0  0.00000000000E+00  0.00000000000E+00  0.12078713233E+04  0.12078713233E+04  0.25500000920E-02 0.  1.
       -2   -1    0    0    0  501  0.00000000000E+00  0.00000000000E+00 -0.16848606507E+04  0.16848606507E+04  0.25500000920E-02 0. -1.
    10030    2    1    2    0    0  0.00000000000E+00  0.00000000000E+00 -0.47698932732E+03  0.28927319740E+04  0.28531350222E+04 0.  0.
        2    1    3    3  502    0 -0.57699860638E+03  0.70160650658E+03  0.87673276447E+03  0.12624735332E+04  0.25500000920E-02 0.  1.
       -2    1    3    3    0  502  0.57699860638E+03 -0.70160650658E+03 -0.13537220918E+04  0.16302584408E+04  0.25500000920E-02 0. -1.
</event>
<event>
 5   0  0.1302063E-05  0.2248250E+04  0.7818609E-02  0.8498609E-01
       -2   -1    0    0    0  501  0.00000000000E+00  0.00000000000E+00  0.12988366053E+04  0.12988366053E+04  0.25500000920E-02 0. -1.
        2   -1    0    0  501    0  0.00000000000E+00  0.00000000000E+00 -0.97291464724E+03  0.97291464724E+03  0.25500000920E-02 0.  1.
    10030    2    1    2    0    0  0.00000000000E+00  0.00000000000E+00  0.32592195808E+03  0.22717512526E+04  0.22482501264E+04 0.  0.
        2    1    3    3  502    0 -0.59665704319E+03  0.64507816481E+03 -0.54546081247E+03  0.10342402834E+04  0.25500000920E-02 0.  1.
       -2    1    3    3    0  502  0.59665704319E+03 -0.64507816481E+03  0.87138277055E+03  0.12375109691E+04  0.25500000920E-02 0. -1.
</event>
<event>
 5   0  0.1330962E-05  0.2804405E+04  0.7818609E-02  0.8301902E-01
       -2   -1    0    0    0  501  0.00000000000E+00  0.00000000000E+00  0.13126832134E+04  0.13126832134E+04  0.25500000920E-02 0.  1.
        2   -1    0    0  501    0  0.00000000000E+00  0.00000000000E+00 -0.14978271011E+04  0.14978271011E+04  0.25500000920E-02 0. -1.
    10030    2    1    2    0    0  0.00000000000E+00  0.00000000000E+00 -0.18514388768E+03  0.28105103145E+04  0.28044054573E+04 0.  0.
        4    1    3    3  502    0  0.25524641054E+03  0.61599953505E+03  0.11436304924E+04  0.13238196529E+04  0.12699999809E+01 0.  1.
       -4    1    3    3    0  502 -0.25524641054E+03 -0.61599953505E+03 -0.13287743801E+04  0.14866906616E+04  0.12699999809E+01 0. -1.
</event>
<event>
 5   0  0.1283052E-05  0.2812868E+04  0.7818609E-02  0.8299285E-01
       -2   -1    0    0    0  501  0.00000000000E+00  0.00000000000E+00  0.14814152388E+04  0.14814152388E+04  0.25500000920E-02 0.  1.
        2   -1    0    0  501    0  0.00000000000E+00  0.00000000000E+00 -0.13352478088E+04  0.13352478088E+04  0.25500000920E-02 0. -1.
    10030    2    1    2    0    0  0.00000000000E+00  0.00000000000E+00  0.14616742998E+03  0.28166630477E+04  0.28128678971E+04 0.  0.
        5    1    3    3  502    0  0.12181032951E+03 -0.13920031714E+04  0.23306088959E+03  0.14166333519E+04  0.46999998093E+01 0.  1.
       -5    1    3    3    0  502 -0.12181032951E+03  0.13920031714E+04 -0.86893459609E+02  0.14000296957E+04  0.46999998093E+01 0. -1.
</event>
<event>
 5   0  0.1302063E-05  0.2806427E+04  0.7818609E-02  0.8301276E-01
        2   -1    0    0  501    0  0.00000000000E+00  0.00000000000E+00  0.15023622926E+04  0.15023622926E+04  0.25500000920E-02 0. -1.
       -2   -1    0    0    0  501  0.00000000000E+00  0.00000000000E+00 -0.13106080602E+04  0.13106080602E+04  0.25500000920E-02 0.  1.
    10030    2    1    2    0    0  0.00000000000E+00  0.00000000000E+00  0.19175423246E+03  0.28129703528E+04  0.28064270025E+04 0.  0.
        2    1    3    3  502    0 -0.69155229841E+03  0.76162250441E+03 -0.86065115680E+03  0.13412806695E+04  0.25500000920E-02 0.  1.
       -2    1    3    3    0  502  0.69155229841E+03 -0.76162250441E+03  0.10524053893E+04  0.14716896833E+04  0.25500000920E-02 0. -1.
</event>
<event>
 5   0  0.1388269E-05  0.2788526E+04  0.7818609E-02  0.8306839E-01
        2   -1    0    0  501    0  0.00000000000E+00  0.00000000000E+00  0.16089769578E+04  0.16089769578E+04  0.25500000920E-02 0.  1.
       -2   -1    0    0    0  501  0.00000000000E+00  0.00000000000E+00 -0.12082020929E+04  0.12082020929E+04  0.25500000920E-02 0. -1.
    10030    2    1    2    0    0  0.00000000000E+00  0.00000000000E+00  0.40077486491E+03  0.28171790506E+04  0.27885260105E+04 0.  0.
        1    1    3    3  502    0 -0.58626864118E+03 -0.11520708738E+04  0.72824165803E+03  0.14836826245E+04  0.50400001928E-02 0. -1.
       -1    1    3    3    0  502  0.58626864118E+03  0.11520708738E+04 -0.32746679311E+03  0.13334964261E+04  0.50400001928E-02 0.  1.
</event>
<event>
 5   0  0.1330962E-05  0.2552065E+04  0.7818609E-02  0.8384668E-01
       -2   -1    0    0    0  501  0.00000000000E+00  0.00000000000E+00  0.53768410131E+03  0.53768410132E+03  0.25500000920E-02 0.  1.
        2   -1    0    0  501    0  0.00000000000E+00  0.00000000000E+00 -0.30282818299E+04  0.30282818299E+04  0.25500000920E-02 0. -1.
    10030    2    1    2    0    0  0.00000000000E+00  0.00000000000E+00 -0.24905977286E+04  0.35659659313E+04  0.25520650417E+04 0.  0.
        4    1    3    3  502    0  0.10628815186E+04 -0.26459433843E+03 -0.33060426556E+03  0.11441276501E+04  0.12699999809E+01 0.  1.
       -4    1    3    3    0  502 -0.10628815186E+04  0.26459433843E+03 -0.21599934631E+04  0.24218382811E+04  0.12699999809E+01 0. -1.
</event>
<event>
 5   0  0.1330962E-05  0.2803804E+04  0.7818609E-02  0.8302089E-01
       -2   -1    0    0    0  501  0.00000000000E+00  0.00000000000E+00  0.18932255701E+04  0.18932255701E+04  0.25500000920E-02 0. -1.
        2   -1    0    0  501    0  0.00000000000E+00  0.00000000000E+00 -0.10380847137E+04  0.10380847137E+04  0.25500000920E-02 0.  1.
    10030    2    1    2    0    0  0.00000000000E+00  0.00000000000E+00  0.85514085649E+03  0.29313102838E+04  0.28038035051E+04 0.  0.
        4    1    3    3  502    0 -0.48547401427E+03  0.98110871465E+03 -0.48808280202E+03  0.11985348401E+04  0.12699999809E+01 0.  1.
       -4    1    3    3    0  502  0.48547401427E+03 -0.98110871465E+03  0.13432236585E+04  0.17327754437E+04  0.12699999809E+01 0. -1.
</event>
<event>
 5   0  0.1283052E-05  0.2805569E+04  0.7818609E-02  0.8301541E-01
       -2   -1    0    0    0  501  0.00000000000E+00  0.00000000000E+00  0.13993707992E+04  0.13993707992E+04  0.25500000920E-02 0. -1.
        2   -1    0    0  501    0  0.00000000000E+00  0.00000000000E+00 -0.14062069786E+04  0.14062069786E+04  0.25500000920E-02 0.  1.
    10030    2    1    2    0    0  0.00000000000E+00  0.00000000000E+00 -0.68361794110E+01  0.28055777779E+04  0.28055694492E+04 0.  0.
        5    1    3    3  502    0  0.60414619271E+03  0.11136896637E+04 -0.60548765082E+03  0.14042559149E+04  0.46999998093E+01 0.  1.
       -5    1    3    3    0  502 -0.60414619271E+03 -0.11136896637E+04  0.59865147141E+03  0.14013218629E+04  0.46999998093E+01 0. -1.
</event>
<event>
 5   0  0.5281919E-06  0.2798735E+04  0.7818609E-02  0.8303661E-01
        1   -1    0    0  501    0  0.00000000000E+00  0.00000000000E+00  0.25027687898E+04  0.25027687898E+04  0.50400001928E-02 0. -1.
       -1   -1    0    0    0  501  0.00000000000E+00  0.00000000000E+00 -0.78242541040E+03  0.78242541042E+03  0.50400001928E-02 0.  1.
    10030    2    1    2    0    0  0.00000000000E+00  0.00000000000E+00  0.17203433794E+04  0.32851942002E+04  0.27987353555E+04 0.  0.
        4    1    3    3  502    0 -0.11870366411E+04  0.10411601256E+03  0.17214120486E+04  0.20935990985E+04  0.12699999809E+01 0. -1.
       -4    1    3    3    0  502  0.11870366411E+04 -0.10411601256E+03 -0.10686691487E+01  0.11915951017E+04  0.12699999809E+01 0.  1.
</event>
<event>
 5   0  0.1283052E-05  0.2849933E+04  0.7818609E-02  0.8287932E-01
       -2   -1    0    0    0  501  0.00000000000E+00  0.00000000000E+00  0.12636084577E+04  0.12636084577E+04  0.25500000920E-02 0. -1.
        2   -1    0    0  501    0  0.00000000000E+00  0.00000000000E+00 -0.16069291839E+04  0.16069291839E+04  0.25500000920E-02 0.  1.
    10030    2    1    2    0    0  0.00000000000E+00  0.00000000000E+00 -0.34332072620E+03  0.28705376415E+04  0.28499328466E+04 0.  0.
        5    1    3    3  502    0 -0.13705352959E+04 -0.15124568388E+03  0.19047341295E+03  0.13919570630E+04  0.46999998093E+01 0. -1.
       -5    1    3    3    0  502  0.13705352959E+04  0.15124568388E+03 -0.53379413914E+03  0.14785805785E+04  0.46999998093E+01 0.  1.
</event>
<event>
 5   0  0.1350863E-05  0.2818800E+04  0.7818609E-02  0.8297455E-01
       -2   -1    0    0    0  501  0.00000000000E+00  0.00000000000E+00  0.28247898970E+04  0.28247898970E+04  0.25500000920E-02 0. -1.
        2   -1    0    0  501    0  0.00000000000E+00  0.00000000000E+00 -0.70320589105E+03  0.70320589105E+03  0.25500000920E-02 0.  1.
    10030    2    1    2    0    0  0.00000000000E+00  0.00000000000E+00  0.21215840059E+04  0.35279957880E+04  0.28188003807E+04 0.  0.
        3    1    3    3  502    0  0.80745119515E+03  0.22797223429E+03  0.24781699457E+04  0.26163476570E+04  0.10100000352E+00 0. -1.
       -3    1    3    3    0  502 -0.80745119515E+03 -0.22797223429E+03 -0.35658593980E+03  0.91164813104E+03  0.10100000352E+00 0.  1.
</event>
<event>
 5   0  0.4447500E-06  0.2803409E+04  0.7818609E-02  0.8302211E-01
       -4   -1    0    0    0  501  0.00000000000E+00  0.00000000000E+00  0.16936821247E+04  0.16936826008E+04  0.12699999809E+01 0.  1.
        4   -1    0    0  501    0  0.00000000000E+00  0.00000000000E+00 -0.11600608694E+04  0.11600615646E+04  0.12699999809E+01 0. -1.
    10030    2    1    2    0    0  0.00000000000E+00  0.00000000000E+00  0.53362125522E+03  0.28537441654E+04  0.28034093739E+04 0.  0.
        1    1    3    3  502    0  0.53783790832E+03  0.10871618929E+04 -0.44836002091E+03  0.12931424149E+04  0.50400001928E-02 0. -1.
       -1    1    3    3    0  502 -0.53783790832E+03 -0.10871618929E+04  0.98198127614E+03  0.15606017505E+04  0.50400001928E-02 0.  1.
</event>
<event>
 5   0  0.5217999E-06  0.2810253E+04  0.7818609E-02  0.8300092E-01
       -1   -1    0    0    0  501  0.00000000000E+00  0.00000000000E+00  0.99906841215E+03  0.99906841217E+03  0.50400001928E-02 0. -1.
        1   -1    0    0  501    0  0.00000000000E+00  0.00000000000E+00 -0.19762214021E+04  0.19762214021E+04  0.50400001928E-02 0.  1.
    10030    2    1    2    0    0  0.00000000000E+00  0.00000000000E+00 -0.97715298996E+03  0.29752898143E+04  0.28102529269E+04 0.  0.
        1    1    3    3  502    0 -0.17208598960E+03  0.62468183074E+03  0.83145633857E+03  0.10541160375E+04  0.50400001928E-02 0. -1.
       -1    1    3    3    0  502  0.17208598960E+03 -0.62468183074E+03 -0.18086093285E+04  0.19211737768E+04  0.50400001928E-02 0.  1.
</event>
<event>
 5   0  0.5023691E-06  0.2812287E+04  0.7818609E-02  0.8299464E-01
        1   -1    0    0  501    0  0.00000000000E+00  0.00000000000E+00  0.15941540201E+04  0.15941540202E+04  0.50400001928E-02 0.  1.
       -1   -1    0    0    0  501  0.00000000000E+00  0.00000000000E+00 -0.12403063241E+04  0.12403063241E+04  0.50400001928E-02 0. -1.
    10030    2    1    2    0    0  0.00000000000E+00  0.00000000000E+00  0.35384769602E+03  0.28344603443E+04  0.28122868366E+04 0.  0.
        5    1    3    3  502    0  0.32444491010E+03 -0.72766029255E+03  0.13447063663E+04  0.15630135324E+04  0.46999998093E+01 0.  1.
       -5    1    3    3    0  502 -0.32444491010E+03  0.72766029255E+03 -0.99085867025E+03  0.12714468119E+04  0.46999998093E+01 0. -1.
</event>
<event>
 5   0  0.5023691E-06  0.2786149E+04  0.7818609E-02  0.8307581E-01
        1   -1    0    0  501    0  0.00000000000E+00  0.00000000000E+00  0.16743169227E+04  0.16743169227E+04  0.50400001928E-02 0.  1.
       -1   -1    0    0    0  501  0.00000000000E+00  0.00000000000E+00 -0.11590738920E+04  0.11590738920E+04  0.50400001928E-02 0. -1.
    10030    2    1    2    0    0  0.00000000000E+00  0.00000000000E+00  0.51524303072E+03  0.28333908147E+04  0.27861493370E+04 0.  0.
        5    1    3    3  502    0 -0.51556829877E+03  0.24650051833E+03 -0.10343774500E+04  0.11817495400E+04  0.46999998093E+01 0. -1.
       -5    1    3    3    0  502  0.51556829877E+03 -0.24650051833E+03  0.15496204807E+04  0.16516412747E+04  0.46999998093E+01 0.  1.
</event>
<event>
 5   0  0.1388269E-05  0.2847319E+04  0.7818609E-02  0.8288727E-01
        2   -1    0    0  501    0  0.00000000000E+00  0.00000000000E+00  0.14741534882E+04  0.14741534882E+04  0.25500000920E-02 0. -1.
       -2   -1    0    0    0  501  0.00000000000E+00  0.00000000000E+00 -0.13748948295E+04  0.13748948295E+04  0.25500000920E-02 0.  1.
    10030    2    1    2    0    0  0.00000000000E+00  0.00000000000E+00  0.99258658738E+02  0.28490483177E+04  0.28473187449E+04 0.  0.
        1    1    3    3  502    0  0.26439715213E+03  0.10801728146E+04 -0.83980141256E+03  0.13935370738E+04  0.50400001928E-02 0.  1.
       -1    1    3    3    0  502 -0.26439715213E+03 -0.10801728146E+04  0.93906007130E+03  0.14555112439E+04  0.50400001928E-02 0. -1.
</event>
<event>
 5   0  0.1388269E-05  0.2842877E+04  0.7818609E-02  0.8290079E-01
       -2   -1    0    0    0  501  0.00000000000E+00  0.00000000000E+00  0.12859339377E+04  0.12859339377E+04  0.25500000920E-02 0.  1.
        2   -1    0    0  501    0  0.00000000000E+00  0.00000000000E+00 -0.15712213250E+04  0.15712213250E+04  0.25500000920E-02 0. -1.
    10030    2    1    2    0    0  0.00000000000E+00  0.00000000000E+00 -0.28528738732E+03  0.28571552628E+04  0.28428765893E+04 0.  0.
        1    1    3    3  502    0 -0.68896694342E+02 -0.11437817070E+04 -0.98800063613E+03  0.15129866506E+04  0.50400001928E-02 0. -1.
       -1    1    3    3    0  502  0.68896694342E+02  0.11437817070E+04  0.70271324881E+03  0.13441686122E+04  0.50400001928E-02 0.  1.
</event>
<event>
 5   0  0.5281919E-06  0.2787153E+04  0.7818609E-02  0.8307268E-01
       -1   -1    0    0    0  501  0.00000000000E+00  0.00000000000E+00  0.71890414097E+03  0.71890414099E+03  0.50400001928E-02 0. -1.
        1   -1    0    0  501    0  0.00000000000E+00  0.00000000000E+00 -0.27014107693E+04  0.27014107694E+04  0.50400001928E-02 0.  1.
    10030    2    1    2    0    0  0.00000000000E+00  0.00000000000E+00 -0.19825066284E+04  0.34203149103E+04  0.27871529478E+04 0.  0.
        4    1    3    3  502    0 -0.11219605939E+03  0.36742494007E+03  0.65263669380E+03  0.75731453790E+03  0.12699999809E+01 0. -1.
       -4    1    3    3    0  502  0.11219605939E+03 -0.36742494007E+03 -0.26351433222E+04  0.26630003724E+04  0.12699999809E+01 0.  1.
</event>
<event>
 5   0  0.1302063E-05  0.2805652E+04  0.7818609E-02  0.8301516E-01
        2   -1    0    0  501    0  0.00000000000E+00  0.00000000000E+00  0.17298157935E+04  0.17298157935E+04  0.25500000920E-02 0. -1.
       -2   -1    0    0    0  501  0.00000000000E+00  0.00000000000E+00 -0.11376476103E+04  0.11376476103E+04  0.25500000920E-02 0.  1.
    10030    2    1    2    0    0  0.00000000000E+00  0.00000000000E+00  0.59216818317E+03  0.28674634038E+04  0.28056520125E+04 0.  0.
        2    1    3    3  502    0  0.11097004923E+04  0.28206873342E+03  0.11244481825E+04  0.16047995726E+04  0.25500000920E-02 0. -1.
       -2    1    3    3    0  502 -0.11097004923E+04 -0.28206873342E+03 -0.53227999936E+03  0.12626638312E+04  0.25500000920E-02 0.  1.
</event>
<event>
 5   0  0.4447500E-06  0.2783690E+04  0.7818609E-02  0.8308350E-01
        3   -1    0    0  501    0  0.00000000000E+00  0.00000000000E+00  0.15957521453E+04  0.15957521485E+04  0.10100000352E+00 0.  1.
       -3   -1    0    0    0  501  0.00000000000E+00  0.00000000000E+00 -0.12139932147E+04  0.12139932189E+04  0.10100000352E+00 0. -1.
    10030    2    1    2    0    0  0.00000000000E+00  0.00000000000E+00  0.38175893062E+03  0.28097453674E+04  0.27836898442E+04 0.  0.
        3    1    3    3  502    0 -0.83674710473E+03  0.10678552205E+04 -0.12311392116E+03  0.13622105333E+04  0.10100000352E+00 0. -1.
       -3    1    3    3    0  502  0.83674710473E+03 -0.10678552205E+04  0.50487285178E+03  0.14475348341E+04  0.10100000352E+00 0.  1.
</event>
<event>
 5   0  0.1283052E-05  0.2785887E+04  0.7818609E-02  0.8307663E-01
        2   -1    0    0  501    0  0.00000000000E+00  0.00000000000E+00  0.23055210891E+04  0.23055210891E+04  0.25500000920E-02 0. -1.
       -2   -1    0    0    0  501  0.00000000000E+00  0.00000000000E+00 -0.84158457332E+03  0.84158457333E+03  0.25500000920E-02 0.  1.
    10030    2    1    2    0    0  0.00000000000E+00  0.00000000000E+00  0.14639365158E+04  0.31471056624E+04  0.27858865605E+04 0.  0.
        5    1    3    3  502    0  0.43026551826E+03  0.47987916083E+03  0.21269302638E+04  0.22224461439E+04  0.46999998093E+01 0. -1.
       -5    1    3    3    0  502 -0.43026551826E+03 -0.47987916083E+03 -0.66299374809E+03  0.92465951853E+03  0.46999998093E+01 0.  1.
</event>
<event>
 5   0  0.1283052E-05  0.2676961E+04  0.7818609E-02  0.8342519E-01
       -2   -1    0    0    0  501  0.00000000000E+00  0.00000000000E+00  0.15904759656E+04  0.15904759656E+04  0.25500000920E-02 0. -1.
        2   -1    0    0  501    0  0.00000000000E+00  0.00000000000E+00 -0.11264115727E+04  0.11264115727E+04  0.25500000920E-02 0.  1.
    10030    2    1    2    0    0  0.00000000000E+00  0.00000000000E+00  0.46406439283E+03  0.27168875383E+04  0.26769613622E+04 0.  0.
        5    1    3    3  502    0 -0.11974271228E+03  0.98515265312E+03 -0.67949706393E+03  0.12027478609E+04  0.46999998093E+01 0.  1.
       -5    1    3    3    0  502  0.11974271228E+03 -0.98515265312E+03  0.11435614568E+04  0.15141396773E+04  0.46999998093E+01 0. -1.
</event>
<event>
 5   0  0.5217999E-06  0.2814746E+04  0.7818609E-02  0.8298705E-01
        1   -1    0    0  501    0  0.00000000000E+00  0.00000000000E+00  0.18451716519E+04  0.18451716519E+04  0.50400001928E-02 0. -1.
       -1   -1    0    0    0  501  0.00000000000E+00  0.00000000000E+00 -0.10734497198E+04  0.10734497198E+04  0.50400001928E-02 0.  1.
    10030    2    1    2    0    0  0.00000000000E+00  0.00000000000E+00  0.77172193209E+03  0.29186213717E+04  0.28147461645E+04 0.  0.
        1    1    3    3  502    0  0.90012501549E+03 -0.62496135596E+03 -0.52984747488E+03  0.12171853132E+04  0.50400001928E-02 0.  1.
       -1    1    3    3    0  502 -0.90012501549E+03  0.62496135596E+03  0.13015694070E+04  0.17014360585E+04  0.50400001928E-02 0. -1.
</event>
<event>
 5   0  0.5281919E-06  0.2719504E+04  0.7818609E-02  0.8328704E-01
        1   -1    0    0  501    0  0.00000000000E+00  0.00000000000E+00  0.26111431115E+04  0.26111431115E+04  0.50400001928E-02 0.  1.
       -1   -1    0    0    0  501  0.00000000000E+00  0.00000000000E+00 -0.70809067420E+03  0.70809067422E+03  0.50400001928E-02 0. -1.
    10030    2    1    2    0    0  0.00000000000E+00  0.00000000000E+00  0.19030524373E+04  0.33192337858E+04  0.27195044301E+04 0.  0.
        4    1    3    3  502    0 -0.41482372392E+03  0.19999749275E+03 -0.61001007476E+03  0.76432429193E+03  0.12699999809E+01 0. -1.
       -4    1    3    3    0  502  0.41482372392E+03 -0.19999749275E+03  0.25130625121E+04  0.25549094938E+04  0.12699999809E+01 0.  1.
</event>
<event>
 5   0  0.1350863E-05  0.2784094E+04  0.7818609E-02  0.8308224E-01
        2   -1    0    0  501    0  0.00000000000E+00  0.00000000000E+00  0.17738493305E+04  0.17738493305E+04  0.25500000920E-02 0. -1.
       -2   -1    0    0    0  501  0.00000000000E+00  0.00000000000E+00 -0.10924235804E+04  0.10924235804E+04  0.25500000920E-02 0.  1.
    10030    2    1    2    0    0  0.00000000000E+00  0.00000000000E+00  0.68142575013E+03  0.28662729109E+04  0.27840939903E+04 0.  0.
        3    1    3    3  502    0 -0.34186077811E+02  0.13699616535E+04  0.88888638078E+02  0.13732679346E+04  0.10100000352E+00 0. -1.
       -3    1    3    3    0  502  0.34186077811E+02 -0.13699616535E+04  0.59253711205E+03  0.14930049763E+04  0.10100000352E+00 0.  1.
</event>
<event>
 5   0  0.1388269E-05  0.2855488E+04  0.7818609E-02  0.8286245E-01
       -2   -1    0    0    0  501  0.00000000000E+00  0.00000000000E+00  0.19707606875E+04  0.19707606875E+04  0.25500000920E-02 0. -1.
        2   -1    0    0  501    0  0.00000000000E+00  0.00000000000E+00 -0.10343486219E+04  0.10343486219E+04  0.25500000920E-02 0.  1.
    10030    2    1    2    0    0  0.00000000000E+00  0.00000000000E+00  0.93641206560E+03  0.30051093095E+04  0.28554884705E+04 0.  0.
        1    1    3    3  502    0  0.74202250558E+03  0.67981194154E+02 -0.81348932177E+03  0.11031698501E+04  0.50400001928E-02 0.  1.
       -1    1    3    3    0  502 -0.74202250558E+03 -0.67981194154E+02  0.17499013874E+04  0.19019394594E+04  0.50400001928E-02 0. -1.
</event>
<event>
 5   0  0.1283052E-05  0.2802457E+04  0.7818609E-02  0.8302506E-01
        2   -1    0    0  501    0  0.00000000000E+00  0.00000000000E+00  0.18599164327E+04  0.18599164327E+04  0.25500000920E-02 0.  1.
       -2   -1    0    0    0  501  0.00000000000E+00  0.00000000000E+00 -0.10556613875E+04  0.10556613875E+04  0.25500000920E-02 0. -1.
    10030    2    1    2    0    0  0.00000000000E+00  0.00000000000E+00  0.80425504520E+03  0.29155778202E+04  0.28024574658E+04 0.  0.
        5    1    3    3  502    0 -0.25979804439E+03 -0.65918345742E+02 -0.10287350405E+04  0.10630889548E+04  0.46999998093E+01 0. -1.
       -5    1    3    3    0  502  0.25979804439E+03  0.65918345742E+02  0.18329900857E+04  0.18524888654E+04  0.46999998093E+01 0.  1.
</event>
<event>
 5   0  0.4447500E-06  0.2658029E+04  0.7818609E-02  0.8348753E-01
        4   -1    0    0  501    0  0.00000000000E+00  0.00000000000E+00  0.15524796254E+04  0.15524801449E+04  0.12699999809E+01 0.  1.
       -4   -1    0    0    0  501  0.00000000000E+00  0.00000000000E+00 -0.11377143833E+04  0.11377150921E+04  0.12699999809E+01 0. -1.
    10030    2    1    2    0    0  0.00000000000E+00  0.00000000000E+00  0.41476524214E+03  0.26901952370E+04  0.26580293842E+04 0.  0.
        5    1    3    3  502    0 -0.13255331011E+04 -0.24828289448E+02  0.30126022525E+03  0.13595713514E+04  0.46999998093E+01 0. -1.
       -5    1    3    3    0  502  0.13255331011E+04  0.24828289448E+02  0.11350501689E+03  0.13306238856E+04  0.46999998093E+01 0.  1.
</event>
<event>
 5   0  0.1350863E-05  0.2815385E+04  0.7818609E-02  0.8298508E-01
        2   -1    0    0  501    0  0.00000000000E+00  0.00000000000E+00  0.14129531988E+04  0.14129531988E+04  0.25500000920E-02 0. -1.
       -2   -1    0    0    0  501  0.00000000000E+00  0.00000000000E+00 -0.14024513364E+04  0.14024513364E+04  0.25500000920E-02 0.  1.
    10030    2    1    2    0    0  0.00000000000E+00  0.00000000000E+00  0.10501862429E+02  0.28154045352E+04  0.28153849484E+04 0.  0.
        3    1    3    3  502    0 -0.69661955870E+03 -0.33369346242E+02 -0.12175436441E+04  0.14031410686E+04  0.10100000352E+00 0.  1.
       -3    1    3    3    0  502  0.69661955870E+03  0.33369346242E+02  0.12280455065E+04  0.14122634666E+04  0.10100000352E+00 0. -1.
</event>
<event>
 5   0  0.1330962E-05  0.2803906E+04  0.7818609E-02  0.8302057E-01
        2   -1    0    0  501    0  0.00000000000E+00  0.00000000000E+00  0.17199137196E+04  0.17199137196E+04  0.25500000920E-02 0. -1.
       -2   -1    0    0    0  501  0.00000000000E+00  0.00000000000E+00 -0.11427739214E+04  0.11427739214E+04  0.25500000920E-02 0.  1.
    10030    2    1    2    0    0  0.00000000000E+00  0.00000000000E+00  0.57713979825E+03  0.28626876410E+04  0.28039062365E+04 0.  0.
        4    1    3    3  502    0  0.13665208707E+04 -0.31235927048E+03  0.26521393006E+03  0.14266350779E+04  0.12699999809E+01 0.  1.
       -4    1    3    3    0  502 -0.13665208707E+04  0.31235927048E+03  0.31192586820E+03  0.14360525631E+04  0.12699999809E+01 0. -1.
</event>
<event>
 5   0  0.4447500E-06  0.2825002E+04  0.7818609E-02  0.8295548E-01
        3   -1    0    0  501    0  0.00000000000E+00  0.00000000000E+00  0.12032864489E+04  0.12032864531E+04  0.10100000352E+00 0. -1.
       -3   -1    0    0    0  501  0.00000000000E+00  0.00000000000E+00 -0.16580910273E+04  0.16580910304E+04  0.10100000352E+00 0.  1.
    10030    2    1    2    0    0  0.00000000000E+00  0.00000000000E+00 -0.45480457842E+03  0.28613774835E+04  0.28250015749E+04 0.  0.
        2    1    3    3  502    0  0.95974002963E+03 -0.34785236228E+03 -0.12162188598E+04  0.15878572056E+04  0.25500000920E-02 0.  1.
       -2    1    3    3    0  502 -0.95974002963E+03  0.34785236228E+03  0.76141428133E+03  0.12735202779E+04  0.25500000920E-02 0. -1.
</event>
<event>
 5   0  0.1350863E-05  0.2768883E+04  0.7818609E-02  0.8312994E-01
       -2   -1    0    0    0  501  0.00000000000E+00  0.00000000000E+00  0.16171235209E+04  0.16171235210E+04  0.25500000920E-02 0.  1.
        2   -1    0    0  501    0  0.00000000000E+00  0.00000000000E+00 -0.11852395436E+04  0.11852395437E+04  0.25500000920E-02 0. -1.
    10030    2    1    2    0    0  0.00000000000E+00  0.00000000000E+00  0.43188397730E+03  0.28023630646E+04  0.27688833446E+04 0.  0.
        3    1    3    3  502    0 -0.13759019723E+03 -0.11453268602E+04 -0.55880328400E+03  0.12817822746E+04  0.10100000352E+00 0.  1.
       -3    1    3    3    0  502  0.13759019723E+03  0.11453268602E+04  0.99068726130E+03  0.15205807900E+04  0.10100000352E+00 0. -1.
</event>
<event>
 5   0  0.1330962E-05  0.2788348E+04  0.7818609E-02  0.8306895E-01
        2   -1    0    0  501    0  0.00000000000E+00  0.00000000000E+00  0.14622686676E+04  0.14622686676E+04  0.25500000920E-02 0.  1.
       -2   -1    0    0    0  501  0.00000000000E+00  0.00000000000E+00 -0.13292505195E+04  0.13292505195E+04  0.25500000920E-02 0. -1.
    10030    2    1    2    0    0  0.00000000000E+00  0.00000000000E+00  0.13301814808E+03  0.27915191870E+04  0.27883481748E+04 0.  0.
        4    1    3    3  502    0  0.68403302477E+03 -0.22930155397E+03 -0.11278436178E+04  0.13388477213E+04  0.12699999809E+01 0. -1.
       -4    1    3    3    0  502 -0.68403302477E+03  0.22930155397E+03  0.12608617659E+04  0.14526714657E+04  0.12699999809E+01 0.  1.
</event>
<event>
 5   0  0.1388269E-05  0.2775184E+04  0.7818609E-02  0.8311014E-01
       -2   -1    0    0    0  501  0.00000000000E+00  0.00000000000E+00  0.18802871300E+04  0.18802871300E+04  0.25500000920E-02 0.  1.
        2   -1    0    0  501    0  0.00000000000E+00  0.00000000000E+00 -0.10239986537E+04  0.10239986537E+04  0.25500000920E-02 0. -1.
    10030    2    1    2    0    0  0.00000000000E+00  0.00000000000E+00  0.85628847630E+03  0.29042857837E+04  0.27751839504E+04 0.  0.
        1    1    3    3  502    0 -0.10348021730E+04  0.91271686668E+03  0.27453778142E+03  0.14068541535E+04  0.50400001928E-02 0.  1.
       -1    1    3    3    0  502  0.10348021730E+04 -0.91271686668E+03  0.58175069489E+03  0.14974316301E+04  0.50400001928E-02 0. -1.
</event>
<event>
 5   0  0.5281919E-06  0.2798160E+04  0.7818609E-02  0.8303840E-01
       -1   -1    0    0    0  501  0.00000000000E+00  0.00000000000E+00  0.24658031703E+04  0.24658031703E+04  0.50400001928E-02 0.  1.
        1   -1    0    0  501    0  0.00000000000E+00  0.00000000000E+00 -0.79382864593E+03  0.79382864594E+03  0.50400001928E-02 0. -1.
    10030    2    1    2    0    0  0.00000000000E+00  0.00000000000E+00  0.16719745243E+04  0.32596318162E+04  0.27981602469E+04 0.  0.
        4    1    3    3  502    0 -0.81152627358E+03  0.73340205461E+03 -0.18021408382E+03  0.11085721426E+04  0.12699999809E+01 0. -1.
       -4    1    3    3    0  502  0.81152627358E+03 -0.73340205461E+03  0.18521886082E+04  0.21510596736E+04  0.12699999809E+01 0.  1.
</event>
<event>
 5   0  0.1350863E-05  0.2599603E+04  0.7818609E-02  0.8368336E-01
        2   -1    0    0  501    0  0.00000000000E+00  0.00000000000E+00  0.17877075699E+04  0.17877075699E+04  0.25500000920E-02 0. -1.
       -2   -1    0    0    0  501  0.00000000000E+00  0.00000000000E+00 -0.94505591925E+03  0.94505591925E+03  0.25500000920E-02 0.  1.
    10030    2    1    2    0    0  0.00000000000E+00  0.00000000000E+00  0.84265165060E+03  0.27327634891E+04  0.25996027549E+04 0.  0.
        3    1    3    3  502    0  0.95597156168E+03  0.12269819127E+03 -0.49543938939E+03  0.10836958391E+04  0.10100000352E+00 0.  1.
       -3    1    3    3    0  502 -0.95597156168E+03 -0.12269819127E+03  0.13380910400E+04  0.16490676500E+04  0.10100000352E+00 0. -1.
</event>
<event>
 5   0  0.1283052E-05  0.2356559E+04  0.7818609E-02  0.8455949E-01
        2   -1    0    0  501    0  0.00000000000E+00  0.00000000000E+00  0.18342004607E+04  0.18342004607E+04  0.25500000920E-02 0.  1.
       -2   -1    0    0    0  501  0.00000000000E+00  0.00000000000E+00 -0.75691982976E+03  0.75691982977E+03  0.25500000920E-02 0. -1.
    10030    2    1    2    0    0  0.00000000000E+00  0.00000000000E+00  0.10772806309E+04  0.25911202904E+04  0.23565591021E+04 0.  0.
        5    1    3    3  502    0 -0.46582508540E+03 -0.15092585257E+03  0.17170166190E+04  0.17854802668E+04  0.46999998093E+01 0.  1.
       -5    1    3    3    0  502  0.46582508540E+03  0.15092585257E+03 -0.63973598812E+03  0.80564002362E+03  0.46999998093E+01 0. -1.
</event>
<event>
 5   0  0.4764214E-06  0.2653698E+04  0.7818609E-02  0.8350187E-01
       -1   -1    0    0    0  501  0.00000000000E+00  0.00000000000E+00  0.12624619805E+04  0.12624619805E+04  0.50400001928E-02 0.  1.
        1   -1    0    0  501    0  0.00000000000E+00  0.00000000000E+00 -0.13945198568E+04  0.13945198568E+04  0.50400001928E-02 0. -1.
    10030    2    1    2    0    0  0.00000000000E+00  0.00000000000E+00 -0.13205787627E+03  0.26569818374E+04  0.26536980238E+04 0.  0.
        3    1    3    3  502    0 -0.11522329243E+04  0.30320116101E+02 -0.72408517196E+03  0.13611977695E+04  0.10100000352E+00 0. -1.
       -3    1    3    3    0  502  0.11522329243E+04 -0.30320116101E+02  0.59202729569E+03  0.12957840678E+04  0.10100000352E+00 0.  1.
</event>
<event>
 5   0  0.5281919E-06  0.2741195E+04  0.7818609E-02  0.8321761E-01
        1   -1    0    0  501    0  0.00000000000E+00  0.00000000000E+00  0.96922313668E+03  0.96922313669E+03  0.50400001928E-02 0. -1.
       -1   -1    0    0    0  501  0.00000000000E+00  0.00000000000E+00 -0.19381891431E+04  0.19381891431E+04  0.50400001928E-02 0.  1.
    10030    2    1    2    0    0  0.00000000000E+00  0.00000000000E+00 -0.96896600645E+03  0.29074122798E+04  0.27411951852E+04 0.  0.
        4    1    3    3  502    0 -0.10846795827E+04 -0.70593848160E+03 -0.58346644203E+01  0.12941849146E+04  0.12699999809E+01 0. -1.
       -4    1    3    3    0  502  0.10846795827E+04  0.70593848160E+03 -0.96313134202E+03  0.16132273652E+04  0.12699999809E+01 0.  1.
</event>
<event>
 5   0  0.1330962E-05  0.2786474E+04  0.7818609E-02  0.8307480E-01
       -2   -1    0    0    0  501  0.00000000000E+00  0.00000000000E+00  0.10390659475E+04  0.10390659475E+04  0.25500000920E-02 0. -1.
        2   -1    0    0  501    0  0.00000000000E+00  0.00000000000E+00 -0.18681297621E+04  0.18681297621E+04  0.25500000920E-02 0.  1.
    10030    2    1    2    0    0  0.00000000000E+00  0.00000000000E+00 -0.82906381459E+03  0.29071957095E+04  0.27864744902E+04 0.  0.
        4    1    3    3  502    0 -0.35111082735E+03 -0.39766350098E+03 -0.17586366779E+04  0.18369049107E+04  0.12699999809E+01 0.  1.
       -4    1    3    3    0  502  0.35111082735E+03  0.39766350098E+03  0.92957286328E+03  0.10702907989E+04  0.12699999809E+01 0. -1.
</event>
<event>
 5   0  0.4764214E-06  0.2778029E+04  0.7818609E-02  0.8310122E-01
       -1   -1    0    0    0  501  0.00000000000E+00  0.00000000000E+00  0.11724364275E+04  0.11724364275E+04  0.50400001928E-02 0. -1.
        1   -1    0    0  501    0  0.00000000000E+00  0.00000000000E+00 -0.16456003283E+04  0.16456003283E+04  0.50400001928E-02 0.  1.
    10030    2    1    2    0    0  0.00000000000E+00  0.00000000000E+00 -0.47316390085E+03  0.28180367558E+04  0.27780293519E+04 0.  0.
        3    1    3    3  502    0 -0.84344493666E+03  0.10063453917E+04  0.22296689095E+03  0.13318575950E+04  0.10100000352E+00 0. -1.
       -3    1    3    3    0  502  0.84344493666E+03 -0.10063453917E+04 -0.69613079180E+03  0.14861791608E+04  0.10100000352E+00 0.  1.
</event>
<event>
 5   0  0.1283052E-05  0.2672801E+04  0.7818609E-02  0.8343884E-01
        2   -1    0    0  501    0  0.00000000000E+00  0.00000000000E+00  0.11401810102E+04  0.11401810102E+04  0.25500000920E-02 0. -1.
       -2   -1    0    0    0  501  0.00000000000E+00  0.00000000000E+00 -0.15663884824E+04  0.15663884824E+04  0.25500000920E-02 0.  1.
    10030    2    1    2    0    0  0.00000000000E+00  0.00000000000E+00 -0.42620747222E+03  0.27065694926E+04  0.26728010792E+04 0.  0.
        5    1    3    3  502    0  0.53068462310E+03  0.44251263440E+03  0.94524552472E+03  0.11708777873E+04  0.46999998093E+01 0. -1.
       -5    1    3    3    0  502 -0.53068462310E+03 -0.44251263440E+03 -0.13714529969E+04  0.15356917053E+04  0.46999998093E+01 0.  1.
</event>
<event>
 5   0  0.1302063E-05  0.2798899E+04  0.7818609E-02  0.8303610E-01
        2   -1    0    0  501    0  0.00000000000E+00  0.00000000000E+00  0.28140198211E+04  0.28140198211E+04  0.25500000920E-02 0. -1.
       -2   -1    0    0    0  501  0.00000000000E+00  0.00000000000E+00 -0.69596478187E+03  0.69596478188E+03  0.25500000920E-02 0.  1.
    10030    2    1    2    0    0  0.00000000000E+00  0.00000000000E+00  0.21180550393E+04  0.35099846030E+04  0.27988988485E+04 0.  0.
        2    1    3    3  502    0  0.18849332686E+02  0.89302697272E+03 -0.29198836327E+03  0.93973915298E+03  0.25500000920E-02 0.  1.
       -2    1    3    3    0  502 -0.18849332686E+02 -0.89302697272E+03  0.24100434025E+04  0.25702454500E+04  0.25500000920E-02 0. -1.
</event>
<event>
 5   0  0.1283052E-05  0.2799096E+04  0.7818609E-02  0.8303549E-01
        2   -1    0    0  501    0  0.00000000000E+00  0.00000000000E+00  0.15470216147E+04  0.15470216147E+04  0.25500000920E-02 0.  1.
       -2   -1    0    0    0  501  0.00000000000E+00  0.00000000000E+00 -0.12661323725E+04  0.12661323725E+04  0.25500000920E-02 0. -1.
    10030    2    1    2    0    0  0.00000000000E+00  0.00000000000E+00  0.28088924215E+03  0.28131539872E+04  0.27990956735E+04 0.  0.
        5    1    3    3  502    0 -0.32061801362E+03 -0.38252349171E+02 -0.12281778511E+04  0.12699220750E+04  0.46999998093E+01 0. -1.
       -5    1    3    3    0  502  0.32061801362E+03  0.38252349171E+02  0.15090670932E+04  0.15432319121E+04  0.46999998093E+01 0.  1.
</event>
<event>
 5   0  0.5023691E-06  0.2834173E+04  0.7818609E-02  0.8292737E-01
        1   -1    0    0  501    0  0.00000000000E+00  0.00000000000E+00  0.20961693824E+04  0.20961693824E+04  0.50400001928E-02 0.  1.
       -1   -1    0    0    0  501  0.00000000000E+00  0.00000000000E+00 -0.95800215314E+03  0.95800215316E+03  0.50400001928E-02 0. -1.
    10030    2    1    2    0    0  0.00000000000E+00  0.00000000000E+00  0.11381672293E+04  0.30541715356E+04  0.28341734469E+04 0.  0.
        5    1    3    3  502    0 -0.70017097247E+03  0.11962505451E+03  0.18904639418E+04  0.20195112155E+04  0.46999998093E+01 0.  1.
       -5    1    3    3    0  502  0.70017097247E+03 -0.11962505451E+03 -0.75229671249E+03  0.10346603201E+04  0.46999998093E+01 0. -1.
</event>
<event>
 5   0  0.5281919E-06  0.2691709E+04  0.7818609E-02  0.8337700E-01
        1   -1    0    0  501    0  0.00000000000E+00  0.00000000000E+00  0.19030624872E+04  0.19030624872E+04  0.50400001928E-02 0.  1.
       -1   -1    0    0    0  501  0.00000000000E+00  0.00000000000E+00 -0.95179448406E+03  0.95179448407E+03  0.50400001928E-02 0. -1.
    10030    2    1    2    0    0  0.00000000000E+00  0.00000000000E+00  0.95126800317E+03  0.28548569713E+04  0.26917090320E+04 0.  0.
        4    1    3    3  502    0 -0.13059055210E+03  0.49221428165E+03  0.17969334645E+04  0.18676991943E+04  0.12699999809E+01 0.  1.
       -4    1    3    3    0  502  0.13059055210E+03 -0.49221428165E+03 -0.84566546136E+03  0.98715777706E+03  0.12699999809E+01 0. -1.
</event>
<event>
 5   0  0.1350863E-05  0.2873147E+04  0.7818609E-02  0.8280912E-01
        2   -1    0    0  501    0  0.00000000000E+00  0.00000000000E+00  0.21149022815E+04  0.21149022815E+04  0.25500000920E-02 0. -1.
       -2   -1    0    0    0  501  0.00000000000E+00  0.00000000000E+00 -0.97581021620E+03  0.97581021620E+03  0.25500000920E-02 0.  1.
    10030    2    1    2    0    0  0.00000000000E+00  0.00000000000E+00  0.11390920653E+04  0.30907124977E+04  0.28731468828E+04 0.  0.
        3    1    3    3  502    0 -0.12758173117E+04  0.65661318573E+03  0.49430260162E+03  0.15176250395E+04  0.10100000352E+00 0. -1.
       -3    1    3    3    0  502  0.12758173117E+04 -0.65661318573E+03  0.64478946367E+03  0.15730874582E+04  0.10100000352E+00 0.  1.
</event>
<event>
 5   0  0.5107453E-06  0.2793554E+04  0.7818609E-02  0.8305273E-01
       -1   -1    0    0    0  501  0.00000000000E+00  0.00000000000E+00  0.96755250431E+03  0.96755250432E+03  0.50400001928E-02 0.  1.
        1   -1    0    0  501    0  0.00000000000E+00  0.00000000000E+00 -0.20164128443E+04  0.20164128444E+04  0.50400001928E-02 0. -1.
    10030    2    1    2    0    0  0.00000000000E+00  0.00000000000E+00 -0.10488603400E+04  0.29839653487E+04  0.27935535057E+04 0.  0.
        2    1    3    3  502    0 -0.11353353735E+04 -0.34780557429E+03  0.26125313211E+03  0.12158159099E+04  0.25500000920E-02 0.  1.
       -2    1    3    3    0  502  0.11353353735E+04  0.34780557429E+03 -0.13101134721E+04  0.17681494387E+04  0.25500000920E-02 0. -1.
</event>
<event>
 5   0  0.1330962E-05  0.2784820E+04  0.7818609E-02  0.8307997E-01
       -2   -1    0    0    0  501  0.00000000000E+00  0.00000000000E+00  0.13411113347E+04  0.13411113347E+04  0.25500000920E-02 0.  1.
        2   -1    0    0  501    0  0.00000000000E+00  0.00000000000E+00 -0.14456712117E+04  0.14456712117E+04  0.25500000920E-02 0. -1.
    10030    2    1    2    0    0  0.00000000000E+00  0.00000000000E+00 -0.10455987700E+03  0.27867825464E+04  0.27848203161E+04 0.  0.
        4    1    3    3  502    0  0.13866388423E+04 -0.63526083099E+02 -0.16190891336E+03  0.13975045443E+04  0.12699999809E+01 0.  1.
       -4    1    3    3    0  502 -0.13866388423E+04  0.63526083099E+02  0.57349036365E+02  0.13892780021E+04  0.12699999809E+01 0. -1.
</event>
<event>
 5   0  0.5281919E-06  0.2989031E+04  0.7818609E-02  0.8246870E-01
       -1   -1    0    0    0  501  0.00000000000E+00  0.00000000000E+00  0.17619512779E+04  0.17619512779E+04  0.50400001928E-02 0.  1.
        1   -1    0    0  501    0  0.00000000000E+00  0.00000000000E+00 -0.12676719105E+04  0.12676719105E+04  0.50400001928E-02 0. -1.
    10030    2    1    2    0    0  0.00000000000E+00  0.00000000000E+00  0.49427936747E+03  0.30296231884E+04  0.29890307075E+04 0.  0.
        4    1    3    3  502    0  0.35690033733E+03 -0.11308180668E+04  0.11691342875E+04  0.16652339013E+04  0.12699999809E+01 0.  1.
       -4    1    3    3    0  502 -0.35690033733E+03  0.11308180668E+04 -0.67485492001E+03  0.13643892871E+04  0.12699999809E+01 0. -1.
</event>
<event>
 5   0  0.5217999E-06  0.2824242E+04  0.7818609E-02  0.8295781E-01
        1   -1    0    0  501    0  0.00000000000E+00  0.00000000000E+00  0.19418502554E+04  0.19418502554E+04  0.50400001928E-02 0. -1.
       -1   -1    0    0    0  501  0.00000000000E+00  0.00000000000E+00 -0.10268999167E+04  0.10268999167E+04  0.50400001928E-02 0.  1.
    10030    2    1    2    0    0  0.00000000000E+00  0.00000000000E+00  0.91495033870E+03  0.29687501722E+04  0.28242421041E+04 0.  0.
        1    1    3    3  502    0  0.34337164746E+03 -0.10359235331E+04 -0.48450434208E+03  0.11940628594E+04  0.50400001928E-02 0.  1.
       -1    1    3    3    0  502 -0.34337164746E+03  0.10359235331E+04  0.13994546808E+04  0.17746873128E+04  0.50400001928E-02 0. -1.
</event>
<event>
 5   0  0.5023691E-06  0.2871664E+04  0.7818609E-02  0.8281358E-01
       -1   -1    0    0    0  501  0.00000000000E+00  0.00000000000E+00  0.15180051369E+04  0.15180051369E+04  0.50400001928E-02 0.  1.
        1   -1    0    0  501    0  0.00000000000E+00  0.00000000000E+00 -0.13581072063E+04  0.13581072063E+04  0.50400001928E-02 0. -1.
    10030    2    1    2    0    0  0.00000000000E+00  0.00000000000E+00  0.15989793052E+03  0.28761123432E+04  0.28716641277E+04 0.  0.
        5    1    3    3  502    0 -0.12741034743E+04 -0.83979631913E+02 -0.57772593662E+03  0.14014926292E+04  0.46999998093E+01 0. -1.
       -5    1    3    3    0  502  0.12741034743E+04  0.83979631913E+02  0.73762386713E+03  0.14746197141E+04  0.46999998093E+01 0.  1.
</event>
<event>
 5   0  0.4764214E-06  0.2804998E+04  0.7818609E-02  0.8301718E-01
       -1   -1    0    0    0  501  0.00000000000E+00  0.00000000000E+00  0.98636999274E+03  0.98636999276E+03  0.50400001928E-02 0.  1.
        1   -1    0    0  501    0  0.00000000000E+00  0.00000000000E+00 -0.19941840444E+04  0.19941840444E+04  0.50400001928E-02 0. -1.
    10030    2    1    2    0    0  0.00000000000E+00  0.00000000000E+00 -0.10078140516E+04  0.29805540371E+04  0.28049978976E+04 0.  0.
        3    1    3    3  502    0 -0.94777466447E+03  0.13403411557E+03 -0.15931292680E+04  0.18585754850E+04  0.10100000352E+00 0. -1.
       -3    1    3    3    0  502  0.94777466447E+03 -0.13403411557E+03  0.58531521636E+03  0.11219785521E+04  0.10100000352E+00 0.  1.
</event>
<event>
 5   0  0.1302063E-05  0.2156791E+04  0.7818609E-02  0.8536631E-01
       -2   -1    0    0    0  501  0.00000000000E+00  0.00000000000E+00  0.86347035029E+03  0.86347035029E+03  0.25500000920E-02 0. -1.
        2   -1    0    0  501    0  0.00000000000E+00  0.00000000000E+00 -0.13468169917E+04  0.13468169917E+04  0.25500000920E-02 0.  1.
    10030    2    1    2    0    0  0.00000000000E+00  0.00000000000E+00 -0.48334664137E+03  0.22102873420E+04  0.21567907080E+04 0.  0.
        2    1    3    3  502    0  0.10685323702E+04 -0.75017828460E+01 -0.39060110483E+03  0.11377112666E+04  0.25500000920E-02 0. -1.
       -2    1    3    3    0  502 -0.10685323702E+04  0.75017828460E+01 -0.92745536541E+02  0.10725760754E+04  0.25500000920E-02 0.  1.
</event>
<event>
 5   0  0.5281919E-06  0.2825694E+04  0.7818609E-02  0.8295336E-01
       -1   -1    0    0    0  501  0.00000000000E+00  0.00000000000E+00  0.14585433168E+04  0.14585433168E+04  0.50400001928E-02 0.  1.
        1   -1    0    0  501    0  0.00000000000E+00  0.00000000000E+00 -0.13685820256E+04  0.13685820256E+04  0.50400001928E-02 0. -1.
    10030    2    1    2    0    0  0.00000000000E+00  0.00000000000E+00  0.89961291179E+02  0.28271253424E+04  0.28256936613E+04 0.  0.
        4    1    3    3  502    0 -0.11028406843E+04 -0.14953868591E+02  0.92840783998E+03  0.14416740004E+04  0.12699999809E+01 0.  1.
       -4    1    3    3    0  502  0.11028406843E+04  0.14953868591E+02 -0.83844654880E+03  0.13854513420E+04  0.12699999809E+01 0. -1.
</event>
<event>
 5   0  0.1283052E-05  0.2748669E+04  0.7818609E-02  0.8319384E-01
       -2   -1    0    0    0  501  0.00000000000E+00  0.00000000000E+00  0.12350616918E+04  0.12350616918E+04  0.25500000920E-02 0. -1.
        2   -1    0    0  501    0  0.00000000000E+00  0.00000000000E+00 -0.15293127303E+04  0.15293127304E+04  0.25500000920E-02 0.  1.
    10030    2    1    2    0    0  0.00000000000E+00  0.00000000000E+00 -0.29425103853E+03  0.27643744222E+04  0.27486691820E+04 0.  0.
        5    1    3    3  502    0  0.16867691855E+03 -0.26012611745E+03  0.11994256757E+04  0.12388549315E+04  0.46999998093E+01 0. -1.
       -5    1    3    3    0  502 -0.16867691855E+03  0.26012611745E+03 -0.14936767142E+04  0.15255194907E+04  0.46999998093E+01 0.  1.
</event>
<event>
 5   0  0.1330962E-05  0.2784578E+04  0.7818609E-02  0.8308072E-01
        2   -1    0    0  501    0  0.00000000000E+00  0.00000000000E+00  0.17394765916E+04  0.17394765916E+04  0.25500000920E-02 0. -1.
       -2   -1    0    0    0  501  0.00000000000E+00  0.00000000000E+00 -0.11143974884E+04  0.11143974884E+04  0.25500000920E-02 0.  1.
    10030    2    1    2    0    0  0.00000000000E+00  0.00000000000E+00  0.62507910318E+03  0.28538740799E+04  0.27845777739E+04 0.  0.
        4    1    3    3  502    0 -0.46355936342E+02  0.82412803972E+03 -0.83658126972E+03  0.11752470942E+04  0.12699999809E+01 0.  1.
       -4    1    3    3    0  502  0.46355936342E+02 -0.82412803972E+03  0.14616603729E+04  0.16786269857E+04  0.12699999809E+01 0. -1.
</event>
<event>
 5   0  0.5217999E-06  0.2793149E+04  0.7818609E-02  0.8305399E-01
       -1   -1    0    0    0  501  0.00000000000E+00  0.00000000000E+00  0.15443394834E+04  0.15443394834E+04  0.50400001928E-02 0. -1.
        1   -1    0    0  501    0  0.00000000000E+00  0.00000000000E+00 -0.12629475499E+04  0.12629475499E+04  0.50400001928E-02 0.  1.
    10030    2    1    2    0    0  0.00000000000E+00  0.00000000000E+00  0.28139193343E+03  0.28072870333E+04  0.27931485938E+04 0.  0.
        1    1    3    3  502    0 -0.10916265397E+03  0.11174953471E+04 -0.69399407412E+03  0.13199773145E+04  0.50400001928E-02 0.  1.
       -1    1    3    3    0  502  0.10916265397E+03 -0.11174953471E+04  0.97538600756E+03  0.14873097188E+04  0.50400001928E-02 0. -1.
</event>
<event>
 5   0  0.1283052E-05  0.2885635E+04  0.7818609E-02  0.8277164E-01
        2   -1    0    0  501    0  0.00000000000E+00  0.00000000000E+00  0.10761786215E+04  0.10761786215E+04  0.25500000920E-02 0. -1.
       -2   -1    0    0    0  501  0.00000000000E+00  0.00000000000E+00 -0.19343651234E+04  0.19343651234E+04  0.25500000920E-02 0.  1.
    10030    2    1    2    0    0  0.00000000000E+00  0.00000000000E+00 -0.85818650190E+03  0.30105437449E+04  0.28856350372E+04 0.  0.
        5    1    3    3  502    0  0.14111695039E+04  0.29388217191E+03 -0.49453153227E+03  0.15239257285E+04  0.46999998093E+01 0. -1.
       -5    1    3    3    0  502 -0.14111695039E+04 -0.29388217191E+03 -0.36365496964E+03  0.14866180164E+04  0.46999998093E+01 0.  1.
</event>
<event>
 5   0  0.1388269E-05  0.2796346E+04  0.7818609E-02  0.8304404E-01
        2   -1    0    0  501    0  0.00000000000E+00  0.00000000000E+00  0.16567003455E+04  0.16567003455E+04  0.25500000920E-02 0. -1.
       -2   -1    0    0    0  501  0.00000000000E+00  0.00000000000E+00 -0.11799886794E+04  0.11799886794E+04  0.25500000920E-02 0.  1.
    10030    2    1    2    0    0  0.00000000000E+00  0.00000000000E+00  0.47671166609E+03  0.28366890249E+04  0.27963459391E+04 0.  0.
        1    1    3    3  502    0  0.73631385719E+03 -0.92038441647E+03 -0.52457296630E+03  0.12901326937E+04  0.50400001928E-02 0. -1.
       -1    1    3    3    0  502 -0.73631385719E+03  0.92038441647E+03  0.10012846324E+04  0.15465563312E+04  0.50400001928E-02 0.  1.
</event>
<event>
 5   0  0.1350863E-05  0.2768856E+04  0.7818609E-02  0.8313003E-01
       -2   -1    0    0    0  501  0.00000000000E+00  0.00000000000E+00  0.16362445001E+04  0.16362445001E+04  0.25500000920E-02 0. -1.
        2   -1    0    0  501    0  0.00000000000E+00  0.00000000000E+00 -0.11713659718E+04  0.11713659718E+04  0.25500000920E-02 0.  1.
    10030    2    1    2    0    0  0.00000000000E+00  0.00000000000E+00  0.46487852833E+03  0.28076104719E+04  0.27688561747E+04 0.  0.
        3    1    3    3  502    0 -0.49575911464E+03 -0.11385302238E+04 -0.38818371045E+03  0.13010437247E+04  0.10100000352E+00 0.  1.
       -3    1    3    3    0  502  0.49575911464E+03  0.11385302238E+04  0.85306223878E+03  0.15065667472E+04  0.10100000352E+00 0. -1.
</event>
<event>
 5   0  0.5217999E-06  0.2227315E+04  0.7818609E-02  0.8507144E-01
        1   -1    0    0  501    0  0.00000000000E+00  0.00000000000E+00  0.17175223172E+04  0.17175223172E+04  0.50400001928E-02 0.  1.
       -1   -1    0    0    0  501  0.00000000000E+00  0.00000000000E+00 -0.72210605335E+03  0.72210605337E+03  0.50400001928E-02 0. -1.
    10030    2    1    2    0    0  0.00000000000E+00  0.00000000000E+00  0.99541626386E+03  0.24396283706E+04  0.22273152108E+04 0.  0.
        1    1    3    3  502    0 -0.87108603778E+03  0.67881000533E+03  0.34027347014E+03  0.11555777529E+04  0.50400001928E-02 0.  1.
       -1    1    3    3    0  502  0.87108603778E+03 -0.67881000533E+03  0.65514279373E+03  0.12840506177E+04  0.50400001928E-02 0. -1.
</event>
<event>
 5   0  0.5107453E-06  0.2823637E+04  0.7818609E-02  0.8295967E-01
       -1   -1    0    0    0  501  0.00000000000E+00  0.00000000000E+00  0.13329253010E+04  0.13329253010E+04  0.50400001928E-02 0.  1.
        1   -1    0    0  501    0  0.00000000000E+00  0.00000000000E+00 -0.14953817194E+04  0.14953817194E+04  0.50400001928E-02 0. -1.
    10030    2    1    2    0    0  0.00000000000E+00  0.00000000000E+00 -0.16245641840E+03  0.28283070205E+04  0.28236374615E+04 0.  0.
        2    1    3    3  502    0  0.11762591907E+04 -0.26410502881E+03  0.65476237887E+03  0.13718786108E+04  0.25500000920E-02 0.  1.
       -2    1    3    3    0  502 -0.11762591907E+04  0.26410502881E+03 -0.81721879728E+03  0.14564284097E+04  0.25500000920E-02 0. -1.
</event>
<event>
 5   0  0.1388269E-05  0.2836079E+04  0.7818609E-02  0.8292154E-01
        2   -1    0    0  501    0  0.00000000000E+00  0.00000000000E+00  0.13196145758E+04  0.13196145758E+04  0.25500000920E-02 0.  1.
       -2   -1    0    0    0  501  0.00000000000E+00  0.00000000000E+00 -0.15238054182E+04  0.15238054182E+04  0.25500000920E-02 0. -1.
    10030    2    1    2    0    0  0.00000000000E+00  0.00000000000E+00 -0.20419084242E+03  0.28434199940E+04  0.28360788710E+04 0.  0.
        1    1    3    3  502    0  0.14407851943E+03 -0.14059123647E+04 -0.21853235167E+03  0.14300715317E+04  0.50400001928E-02 0.  1.
       -1    1    3    3    0  502 -0.14407851943E+03  0.14059123647E+04  0.14341509245E+02  0.14133484623E+04  0.50400001928E-02 0. -1.
</event>
<event>
 5   0  0.1350863E-05  0.2738165E+04  0.7818609E-02  0.8322727E-01
        2   -1    0    0  501    0  0.00000000000E+00  0.00000000000E+00  0.22228914809E+04  0.22228914809E+04  0.25500000920E-02 0. -1.
       -2   -1    0    0    0  501  0.00000000000E+00  0.00000000000E+00 -0.84322016392E+03  0.84322016393E+03  0.25500000920E-02 0.  1.
    10030    2    1    2    0    0  0.00000000000E+00  0.00000000000E+00  0.13796713169E+04  0.30661116448E+04  0.27381650198E+04 0.  0.
        3    1    3    3  502    0  0.90784878751E+03 -0.53814964332E+03  0.16664078455E+04  0.19724881691E+04  0.10100000352E+00 0. -1.
       -3    1    3    3    0  502 -0.90784878751E+03  0.53814964332E+03 -0.28673652854E+03  0.10936234757E+04  0.10100000352E+00 0.  1.
</event>
<event>
 5   0  0.5023691E-06  0.2784261E+04  0.7818609E-02  0.8308171E-01
       -1   -1    0    0    0  501  0.00000000000E+00  0.00000000000E+00  0.19468061181E+04  0.19468061181E+04  0.50400001928E-02 0. -1.
        1   -1    0    0  501    0  0.00000000000E+00  0.00000000000E+00 -0.99549088342E+03  0.99549088343E+03  0.50400001928E-02 0.  1.
    10030    2    1    2    0    0  0.00000000000E+00  0.00000000000E+00  0.95131523472E+03  0.29422970016E+04  0.27842612969E+04 0.  0.
        5    1    3    3  502    0 -0.10333470931E+04  0.53779593778E+03  0.12811384840E+04  0.17315797962E+04  0.46999998093E+01 0. -1.
       -5    1    3    3    0  502  0.10333470931E+04 -0.53779593778E+03 -0.32982324931E+03  0.12107172053E+04  0.46999998093E+01 0.  1.
</event>
<event>
 5   0  0.1350863E-05  0.2812929E+04  0.7818609E-02  0.8299266E-01
       -2   -1    0    0    0  501  0.00000000000E+00  0.00000000000E+00  0.90681105905E+03  0.90681105906E+03  0.25500000920E-02 0.  1.
        2   -1    0    0  501    0  0.00000000000E+00  0.00000000000E+00 -0.21814267963E+04  0.21814267963E+04  0.25500000920E-02 0. -1.
    10030    2    1    2    0    0  0.00000000000E+00  0.00000000000E+00 -0.12746157372E+04  0.30882378554E+04  0.28129286826E+04 0.  0.
        3    1    3    3  502    0 -0.66763832468E+03  0.50974621232E+03 -0.18757939227E+04  0.20552822152E+04  0.10100000352E+00 0. -1.
       -3    1    3    3    0  502  0.66763832468E+03 -0.50974621232E+03  0.60117818548E+03  0.10329556401E+04  0.10100000352E+00 0.  1.
</event>
<event>
 5   0  0.5281919E-06  0.2818938E+04  0.7818609E-02  0.8297413E-01
       -1   -1    0    0    0  501  0.00000000000E+00  0.00000000000E+00  0.15633334881E+04  0.15633334881E+04  0.50400001928E-02 0.  1.
        1   -1    0    0  501    0  0.00000000000E+00  0.00000000000E+00 -0.12707483641E+04  0.12707483641E+04  0.50400001928E-02 0. -1.
    10030    2    1    2    0    0  0.00000000000E+00  0.00000000000E+00  0.29258512398E+03  0.28340818521E+04  0.28189384331E+04 0.  0.
        4    1    3    3  502    0 -0.10402650284E+03  0.12428878928E+04 -0.51374779082E+03  0.13488996378E+04  0.12699999809E+01 0. -1.
       -4    1    3    3    0  502  0.10402650284E+03 -0.12428878928E+04  0.80633291481E+03  0.14851822143E+04  0.12699999809E+01 0.  1.
</event>
<event>
 5   0  0.5281919E-06  0.2828741E+04  0.7818609E-02  0.8294401E-01
        1   -1    0    0  501    0  0.00000000000E+00  0.00000000000E+00  0.19631808995E+04  0.19631808995E+04  0.50400001928E-02 0. -1.
       -1   -1    0    0    0  501  0.00000000000E+00  0.00000000000E+00 -0.10189806131E+04  0.10189806131E+04  0.50400001928E-02 0.  1.
    10030    2    1    2    0    0  0.00000000000E+00  0.00000000000E+00  0.94420028640E+03  0.29821615126E+04  0.28287405512E+04 0.  0.
        4    1    3    3  502    0  0.90827691427E+03  0.61542088520E+03 -0.46890962702E+03  0.11931419321E+04  0.12699999809E+01 0.  1.
       -4    1    3    3    0  502 -0.90827691427E+03 -0.61542088520E+03  0.14131099134E+04  0.17890195805E+04  0.12699999809E+01 0. -1.
</event>
<event>
 5   0  0.1350863E-05  0.2851583E+04  0.7818609E-02  0.8287430E-01
       -2   -1    0    0    0  501  0.00000000000E+00  0.00000000000E+00  0.11960451725E+04  0.11960451725E+04  0.25500000920E-02 0.  1.
        2   -1    0    0  501    0  0.00000000000E+00  0.00000000000E+00 -0.16996693548E+04  0.16996693548E+04  0.25500000920E-02 0. -1.
    10030    2    1    2    0    0  0.00000000000E+00  0.00000000000E+00 -0.50362418230E+03  0.28957145273E+04  0.28515829475E+04 0.  0.
        3    1    3    3  502    0  0.68264448553E+03 -0.22002719835E+03  0.99951904562E+03  0.12302250991E+04  0.10100000352E+00 0.  1.
       -3    1    3    3    0  502 -0.68264448553E+03  0.22002719835E+03 -0.15031432279E+04  0.16654894282E+04  0.10100000352E+00 0. -1.
</event>
<event>
 5   0  0.4764214E-06  0.2798413E+04  0.7818609E-02  0.8303761E-01
       -1   -1    0    0    0  501  0.00000000000E+00  0.00000000000E+00  0.12409855921E+04  0.12409855921E+04  0.50400001928E-02 0. -1.
        1   -1    0    0  501    0  0.00000000000E+00  0.00000000000E+00 -0.15776001021E+04  0.15776001021E+04  0.50400001928E-02 0.  1.
    10030    2    1    2    0    0  0.00000000000E+00  0.00000000000E+00 -0.33661450998E+03  0.28185856941E+04  0.27984131194E+04 0.  0.
        3    1    3    3  502    0  0.11883590955E+03 -0.41668152276E+03  0.11717092907E+04  0.12492590351E+04  0.10100000352E+00 0. -1.
       -3    1    3    3    0  502 -0.11883590955E+03  0.41668152276E+03 -0.15083238007E+04  0.15693266590E+04  0.10100000352E+00 0.  1.
</event>
<event>
 5   0  0.5217999E-06  0.2794457E+04  0.7818609E-02  0.8304991E-01
        1   -1    0    0  501    0  0.00000000000E+00  0.00000000000E+00  0.13133325391E+04  0.13133325391E+04  0.50400001928E-02 0. -1.
       -1   -1    0    0    0  501  0.00000000000E+00  0.00000000000E+00 -0.14864841527E+04  0.14864841527E+04  0.50400001928E-02 0.  1.
    10030    2    1    2    0    0  0.00000000000E+00  0.00000000000E+00 -0.17315161362E+03  0.27998166919E+04  0.27944573761E+04 0.  0.
        1    1    3    3  502    0 -0.68361019428E+03 -0.81096368142E+03 -0.99786015957E+03  0.14562657341E+04  0.50400001928E-02 0.  1.
       -1    1    3    3    0  502  0.68361019428E+03  0.81096368142E+03  0.82470854595E+03  0.13435509578E+04  0.50400001928E-02 0. -1.
</event>
<event>
 5   0  0.5281919E-06  0.2664931E+04  0.7818609E-02  0.8346474E-01
       -1   -1    0    0    0  501  0.00000000000E+00  0.00000000000E+00  0.13011279842E+04  0.13011279842E+04  0.50400001928E-02 0.  1.
        1   -1    0    0  501    0  0.00000000000E+00  0.00000000000E+00 -0.13645577231E+04  0.13645577232E+04  0.50400001928E-02 0. -1.
    10030    2    1    2    0    0  0.00000000000E+00  0.00000000000E+00 -0.63429738926E+02  0.26656857074E+04  0.26649309482E+04 0.  0.
        4    1    3    3  502    0  0.27996303166E+03 -0.41467821066E+03 -0.12670242723E+04  0.13622369239E+04  0.12699999809E+01 0. -1.
       -4    1    3    3    0  502 -0.27996303166E+03  0.41467821066E+03  0.12035945333E+04  0.13034487835E+04  0.12699999809E+01 0.  1.
</event>
<event>
 5   0  0.1302063E-05  0.2798875E+04  0.7818609E-02  0.8303618E-01
       -2   -1    0    0    0  501  0.00000000000E+00  0.00000000000E+00  0.10278098229E+04  0.10278098229E+04  0.25500000920E-02 0. -1.
        2   -1    0    0  501    0  0.00000000000E+00  0.00000000000E+00 -0.19054357025E+04  0.19054357025E+04  0.25500000920E-02 0.  1.
    10030    2    1    2    0    0  0.00000000000E+00  0.00000000000E+00 -0.87762587968E+03  0.29332455254E+04  0.27988751540E+04 0.  0.
        2    1    3    3  502    0 -0.29164771267E+03  0.74776851096E+03 -0.16402393491E+04  0.18260890604E+04  0.25500000920E-02 0.  1.
       -2    1    3    3    0  502  0.29164771267E+03 -0.74776851096E+03  0.76261346939E+03  0.11071564650E+04  0.25500000920E-02 0. -1.
</event>
<event>
 5   0  0.1302063E-05  0.2817598E+04  0.7818609E-02  0.8297826E-01
        2   -1    0    0  501    0  0.00000000000E+00  0.00000000000E+00  0.16252822769E+04  0.16252822769E+04  0.25500000920E-02 0.  1.
       -2   -1    0    0    0  501  0.00000000000E+00  0.00000000000E+00 -0.12211506865E+04  0.12211506865E+04  0.25500000920E-02 0. -1.
    10030    2    1    2    0    0  0.00000000000E+00  0.00000000000E+00  0.40413159033E+03  0.28464329634E+04  0.28175979615E+04 0.  0.
        2    1    3    3  502    0  0.12217772080E+03  0.11069526007E+04  0.10737068827E+04  0.15469705639E+04  0.25500000920E-02 0.  1.
       -2    1    3    3    0  502 -0.12217772080E+03 -0.11069526007E+04 -0.66957529238E+03  0.12994623995E+04  0.25500000920E-02 0. -1.
</event>
<event>
 5   0  0.1302063E-05  0.2454368E+04  0.7818609E-02  0.8419425E-01
        2   -1    0    0  501    0  0.00000000000E+00  0.00000000000E+00  0.99723598299E+03  0.99723598299E+03  0.25500000920E-02 0.  1.
       -2   -1    0    0    0  501  0.00000000000E+00  0.00000000000E+00 -0.15101550621E+04  0.15101550621E+04  0.25500000920E-02 0. -1.
    10030    2    1    2    0    0  0.00000000000E+00  0.00000000000E+00 -0.51291907911E+03  0.25073910451E+04  0.24543683243E+04 0.  0.
        2    1    3    3  502    0  0.11738803190E+03 -0.90413051400E+03  0.58271725899E+03  0.10820311180E+04  0.25500000920E-02 0.  1.
       -2    1    3    3    0  502 -0.11738803190E+03  0.90413051400E+03 -0.10956363381E+04  0.14253599271E+04  0.25500000920E-02 0. -1.
</event>
<event>
 5   0  0.5107453E-06  0.2771619E+04  0.7818609E-02  0.8312134E-01
       -1   -1    0    0    0  501  0.00000000000E+00  0.00000000000E+00  0.82262770083E+03  0.82262770084E+03  0.50400001928E-02 0. -1.
        1   -1    0    0  501    0  0.00000000000E+00  0.00000000000E+00 -0.23345530056E+04  0.23345530056E+04  0.50400001928E-02 0.  1.
    10030    2    1    2    0    0  0.00000000000E+00  0.00000000000E+00 -0.15119253048E+04  0.31571807065E+04  0.27716190009E+04 0.  0.
        2    1    3    3  502    0 -0.30568757087E+03 -0.13469102452E+04 -0.88511927497E+03  0.16404414742E+04  0.25500000920E-02 0. -1.
       -2    1    3    3    0  502  0.30568757087E+03  0.13469102452E+04 -0.62680602981E+03  0.15167392322E+04  0.25500000920E-02 0.  1.
</event>
<event>
 5   0  0.5281919E-06  0.2635072E+04  0.7818609E-02  0.8356385E-01
       -1   -1    0    0    0  501  0.00000000000E+00  0.00000000000E+00  0.12107962233E+04  0.12107962233E+04  0.50400001928E-02 0. -1.
        1   -1    0    0  501    0  0.00000000000E+00  0.00000000000E+00 -0.14336854230E+04  0.14336854230E+04  0.50400001928E-02 0.  1.
    10030    2    1    2    0    0  0.00000000000E+00  0.00000000000E+00 -0.22288919973E+03  0.26444816463E+04  0.26350718363E+04 0.  0.
        4    1    3    3  502    0 -0.16945917977E+03  0.60614896793E+03 -0.12730606988E+04  0.14201472250E+04  0.12699999809E+01 0.  1.
       -4    1    3    3    0  502  0.16945917977E+03 -0.60614896793E+03  0.10501714991E+04  0.12243344213E+04  0.12699999809E+01 0. -1.
</event>
<event>
 5   0  0.4764214E-06  0.2814069E+04  0.7818609E-02  0.8298914E-01
       -1   -1    0    0    0  501  0.00000000000E+00  0.00000000000E+00  0.36855720015E+04  0.36855720015E+04  0.50400001928E-02 0.  1.
        1   -1    0    0  501    0  0.00000000000E+00  0.00000000000E+00 -0.53716131264E+03  0.53716131267E+03  0.50400001928E-02 0. -1.
    10030    2    1    2    0    0  0.00000000000E+00  0.00000000000E+00  0.31484106889E+04  0.42227333142E+04  0.28140694336E+04 0.  0.
        3    1    3    3  502    0  0.21351433397E+03  0.38957313766E+03 -0.42916087330E+03  0.61768492435E+03  0.10100000352E+00 0. -1.
       -3    1    3    3    0  502 -0.21351433397E+03 -0.38957313766E+03  0.35775715622E+04  0.36050483898E+04  0.10100000352E+00 0.  1.
</event>
<event>
 5   0  0.1283052E-05  0.2956657E+04  0.7818609E-02  0.8256217E-01
        2   -1    0    0  501    0  0.00000000000E+00  0.00000000000E+00  0.14983938437E+04  0.14983938437E+04  0.25500000920E-02 0. -1.
       -2   -1    0    0    0  501  0.00000000000E+00  0.00000000000E+00 -0.14585317478E+04  0.14585317478E+04  0.25500000920E-02 0.  1.
    10030    2    1    2    0    0  0.00000000000E+00  0.00000000000E+00  0.39862095953E+02  0.29569255915E+04  0.29566568903E+04 0.  0.
        5    1    3    3  502    0 -0.16885199684E+03 -0.11767324206E+04  0.89877294545E+03  0.14903103986E+04  0.46999998093E+01 0. -1.
       -5    1    3    3    0  502  0.16885199684E+03  0.11767324206E+04 -0.85891084950E+03  0.14666151929E+04  0.46999998093E+01 0.  1.
</event>
<event>
 5   0  0.5281919E-06  0.2731006E+04  0.7818609E-02  0.8325014E-01
       -1   -1    0    0    0  501  0.00000000000E+00  0.00000000000E+00  0.12035598447E+04  0.12035598448E+04  0.50400001928E-02 0. -1.
        1   -1    0    0  501    0  0.00000000000E+00  0.00000000000E+00 -0.15492357463E+04  0.15492357463E+04  0.50400001928E-02 0.  1.
    10030    2    1    2    0    0  0.00000000000E+00  0.00000000000E+00 -0.34567590154E+03  0.27527955911E+04  0.27310056275E+04 0.  0.
        4    1    3    3  502    0 -0.22539116239E+03 -0.13084934470E+04 -0.49419201153E+03  0.14167510840E+04  0.12699999809E+01 0.  1.
       -4    1    3    3    0  502  0.22539116239E+03  0.13084934470E+04  0.14851610998E+03  0.13360445070E+04  0.12699999809E+01 0. -1.
</event>
<event>
 5   0  0.1283052E-05  0.2747760E+04  0.7818609E-02  0.8319673E-01
        2   -1    0    0  501    0  0.00000000000E+00  0.00000000000E+00  0.22244907206E+04  0.22244907206E+04  0.25500000920E-02 0. -1.
       -2   -1    0    0    0  501  0.00000000000E+00  0.00000000000E+00 -0.84852983298E+03  0.84852983298E+03  0.25500000920E-02 0.  1.
    10030    2    1    2    0    0  0.00000000000E+00  0.00000000000E+00  0.13759608876E+04  0.30730205536E+04  0.27477603532E+04 0.  0.
        5    1    3    3  502    0  0.12090151096E+04 -0.62731681949E+03  0.88891666637E+03  0.16264805124E+04  0.46999998093E+01 0. -1.
       -5    1    3    3    0  502 -0.12090151096E+04  0.62731681949E+03  0.48704422122E+03  0.14465400412E+04  0.46999998093E+01 0.  1.
</event>
<event>
 5   0  0.5281919E-06  0.2810716E+04  0.7818609E-02  0.8299949E-01
        1   -1    0    0  501    0  0.00000000000E+00  0.00000000000E+00  0.14768071938E+04  0.14768071938E+04  0.50400001928E-02 0.  1.
       -1   -1    0    0    0  501  0.00000000000E+00  0.00000000000E+00 -0.13373654033E+04  0.13373654033E+04  0.50400001928E-02 0. -1.
    10030    2    1    2    0    0  0.00000000000E+00  0.00000000000E+00  0.13944179055E+03  0.28141725971E+04  0.28107158151E+04 0.  0.
        4    1    3    3  502    0  0.12438035335E+03  0.13375079728E+04 -0.34386240735E+03  0.13865933138E+04  0.12699999809E+01 0.  1.
       -4    1    3    3    0  502 -0.12438035335E+03 -0.13375079728E+04  0.48330419790E+03  0.14275792834E+04  0.12699999809E+01 0. -1.
</event>
<event>
 5   0  0.5023691E-06  0.2863137E+04  0.7818609E-02  0.8283931E-01
        1   -1    0    0  501    0  0.00000000000E+00  0.00000000000E+00  0.15442660489E+04  0.15442660489E+04  0.50400001928E-02 0.  1.
       -1   -1    0    0    0  501  0.00000000000E+00  0.00000000000E+00 -0.13270954288E+04  0.13270954288E+04  0.50400001928E-02 0. -1.
    10030    2    1    2    0    0  0.00000000000E+00  0.00000000000E+00  0.21717062004E+03  0.28713614777E+04  0.28631370309E+04 0.  0.
        5    1    3    3  502    0  0.34985442421E+03 -0.13358561154E+04  0.48710379399E+03  0.14643093509E+04  0.46999998093E+01 0.  1.
       -5    1    3    3    0  502 -0.34985442421E+03  0.13358561154E+04 -0.26993317395E+03  0.14070521268E+04  0.46999998093E+01 0. -1.
</event>
<event>
 5   0  0.4764214E-06  0.2757664E+04  0.7818609E-02  0.8316534E-01
        1   -1    0    0  501    0  0.00000000000E+00  0.00000000000E+00  0.13138634278E+04  0.13138634278E+04  0.50400001928E-02 0. -1.
       -1   -1    0    0    0  501  0.00000000000E+00  0.00000000000E+00 -0.14470136590E+04  0.14470136590E+04  0.50400001928E-02 0.  1.
    10030    2    1    2    0    0  0.00000000000E+00  0.00000000000E+00 -0.13315023127E+03  0.27608770868E+04  0.27576644655E+04 0.  0.
        3    1    3    3  502    0  0.77377635744E+02  0.84820482412E+03  0.10190033538E+04  0.13280837954E+04  0.10100000352E+00 0. -1.
       -3    1    3    3    0  502 -0.77377635744E+02 -0.84820482412E+03 -0.11521535851E+04  0.14327932915E+04  0.10100000352E+00 0.  1.
</event>
<event>
 5   0  0.4764214E-06  0.2751979E+04  0.7818609E-02  0.8318334E-01
       -1   -1    0    0    0  501  0.00000000000E+00  0.00000000000E+00  0.16131350526E+04  0.16131350527E+04  0.50400001928E-02 0. -1.
        1   -1    0    0  501    0  0.00000000000E+00  0.00000000000E+00 -0.11737067769E+04  0.11737067769E+04  0.50400001928E-02 0.  1.
    10030    2    1    2    0    0  0.00000000000E+00  0.00000000000E+00  0.43942827573E+03  0.27868418296E+04  0.27519793193E+04 0.  0.
        3    1    3    3  502    0 -0.35212935352E+03 -0.12791423098E+04 -0.14980208024E+03  0.13351557227E+04  0.10100000352E+00 0.  1.
       -3    1    3    3    0  502  0.35212935352E+03  0.12791423098E+04  0.58923035597E+03  0.14516861069E+04  0.10100000352E+00 0. -1.
</event>
<event>
 5   0  0.1330962E-05  0.2807305E+04  0.7818609E-02  0.8301004E-01
       -2   -1    0    0    0  501  0.00000000000E+00  0.00000000000E+00  0.10461127113E+04  0.10461127113E+04  0.25500000920E-02 0.  1.
        2   -1    0    0  501    0  0.00000000000E+00  0.00000000000E+00 -0.18833915585E+04  0.18833915585E+04  0.25500000920E-02 0. -1.
    10030    2    1    2    0    0  0.00000000000E+00  0.00000000000E+00 -0.83727884723E+03  0.29295042699E+04  0.28073046502E+04 0.  0.
        4    1    3    3  502    0  0.69163128697E+03 -0.54173062123E+03  0.72373303794E+03  0.11382517411E+04  0.12699999809E+01 0.  1.
       -4    1    3    3    0  502 -0.69163128697E+03  0.54173062123E+03 -0.15610118852E+04  0.17912525287E+04  0.12699999809E+01 0. -1.
</event>
<event>
 5   0  0.1302063E-05  0.2836105E+04  0.7818609E-02  0.8292146E-01
        2   -1    0    0  501    0  0.00000000000E+00  0.00000000000E+00  0.22975454600E+04  0.22975454600E+04  0.25500000920E-02 0.  1.
       -2   -1    0    0    0  501  0.00000000000E+00  0.00000000000E+00 -0.87522665561E+03  0.87522665561E+03  0.25500000920E-02 0. -1.
    10030    2    1    2    0    0  0.00000000000E+00  0.00000000000E+00  0.14223188044E+04  0.31727721156E+04  0.28361050961E+04 0.  0.
        2    1    3    3  502    0  0.65533575081E+03  0.11640591476E+04  0.17889159447E+03  0.13477762603E+04  0.25500000920E-02 0. -1.
       -2    1    3    3    0  502 -0.65533575081E+03 -0.11640591476E+04  0.12434272099E+04  0.18249958553E+04  0.25500000920E-02 0.  1.
</event>
<event>
 5   0  0.4764214E-06  0.2654541E+04  0.7818609E-02  0.8349907E-01
        1   -1    0    0  501    0  0.00000000000E+00  0.00000000000E+00  0.10868486053E+04  0.10868486053E+04  0.50400001928E-02 0. -1.
       -1   -1    0    0    0  501  0.00000000000E+00  0.00000000000E+00 -0.16208763516E+04  0.16208763516E+04  0.50400001928E-02 0.  1.
    10030    2    1    2    0    0  0.00000000000E+00  0.00000000000E+00 -0.53402774629E+03  0.27077249569E+04  0.26545411672E+04 0.  0.
        3    1    3    3  502    0  0.85503929259E+03 -0.31796751416E+03 -0.12504099846E+04  0.15478115750E+04  0.10100000352E+00 0.  1.
       -3    1    3    3    0  502 -0.85503929259E+03  0.31796751416E+03  0.71638223830E+03  0.11599133819E+04  0.10100000352E+00 0. -1.
</event>
<event>
 5   0  0.1350863E-05  0.2878966E+04  0.7818609E-02  0.8279163E-01
       -2   -1    0    0    0  501  0.00000000000E+00  0.00000000000E+00  0.15156183136E+04  0.15156183136E+04  0.25500000920E-02 0.  1.
        2   -1    0    0  501    0  0.00000000000E+00  0.00000000000E+00 -0.13671722878E+04  0.13671722878E+04  0.25500000920E-02 0. -1.
    10030    2    1    2    0    0  0.00000000000E+00  0.00000000000E+00  0.14844602582E+03  0.28827906014E+04  0.28789660347E+04 0.  0.
        3    1    3    3  502    0  0.84988264943E+03  0.39330715430E+03  0.11688908801E+04  0.14977639784E+04  0.10100000352E+00 0.  1.
       -3    1    3    3    0  502 -0.84988264943E+03 -0.39330715430E+03 -0.10204448542E+04  0.13850266229E+04  0.10100000352E+00 0. -1.
</event>
<event>
 5   0  0.5217999E-06  0.2832178E+04  0.7818609E-02  0.8293347E-01
       -1   -1    0    0    0  501  0.00000000000E+00  0.00000000000E+00  0.12500026612E+04  0.12500026612E+04  0.50400001928E-02 0.  1.
        1   -1    0    0  501    0  0.00000000000E+00  0.00000000000E+00 -0.16042430936E+04  0.16042430936E+04  0.50400001928E-02 0. -1.
    10030    2    1    2    0    0  0.00000000000E+00  0.00000000000E+00 -0.35424043242E+03  0.28542457548E+04  0.28321780567E+04 0.  0.
        1    1    3    3  502    0 -0.45183516292E+03 -0.39359224466E+03  0.11159352558E+04  0.12666417665E+04  0.50400001928E-02 0.  1.
       -1    1    3    3    0  502  0.45183516292E+03  0.39359224466E+03 -0.14701756882E+04  0.15876039883E+04  0.50400001928E-02 0. -1.
</event>
<event>
 5   0  0.5281919E-06  0.2815151E+04  0.7818609E-02  0.8298580E-01
        1   -1    0    0  501    0  0.00000000000E+00  0.00000000000E+00  0.11470256797E+04  0.11470256797E+04  0.50400001928E-02 0.  1.
       -1   -1    0    0    0  501  0.00000000000E+00  0.00000000000E+00 -0.17273095321E+04  0.17273095321E+04  0.50400001928E-02 0. -1.
    10030    2    1    2    0    0  0.00000000000E+00  0.00000000000E+00 -0.58028385243E+03  0.28743352118E+04  0.28151507172E+04 0.  0.
        4    1    3    3  502    0 -0.24463965449E+03 -0.31928559843E+03  0.10870954534E+04  0.11591246661E+04  0.12699999809E+01 0.  1.
       -4    1    3    3    0  502  0.24463965449E+03  0.31928559843E+03 -0.16673793058E+04  0.17152105457E+04  0.12699999809E+01 0. -1.
</event>
<event>
 5   0  0.5023691E-06  0.2845996E+04  0.7818609E-02  0.8289129E-01
       -1   -1    0    0    0  501  0.00000000000E+00  0.00000000000E+00  0.10809705930E+04  0.10809705930E+04  0.50400001928E-02 0. -1.
        1   -1    0    0  501    0  0.00000000000E+00  0.00000000000E+00 -0.18732451500E+04  0.18732451500E+04  0.50400001928E-02 0.  1.
    10030    2    1    2    0    0  0.00000000000E+00  0.00000000000E+00 -0.79227455696E+03  0.29542157430E+04  0.28459957278E+04 0.  0.
        5    1    3    3  502    0  0.44912840003E+03  0.61680590991E+03 -0.16429500586E+04  0.18114836006E+04  0.46999998093E+01 0.  1.
       -5    1    3    3    0  502 -0.44912840003E+03 -0.61680590991E+03  0.85067550165E+03  0.11427321424E+04  0.46999998093E+01 0. -1.
</event>
<event>
 5   0  0.1350863E-05  0.2802441E+04  0.7818609E-02  0.8302511E-01
        2   -1    0    0  501    0  0.00000000000E+00  0.00000000000E+00  0.26581099460E+04  0.26581099460E+04  0.25500000920E-02 0.  1.
       -2   -1    0    0    0  501  0.00000000000E+00  0.00000000000E+00 -0.73865225664E+03  0.73865225664E+03  0.25500000920E-02 0. -1.
    10030    2    1    2    0    0  0.00000000000E+00  0.00000000000E+00  0.19194576894E+04  0.33967622027E+04  0.28024410146E+04 0.  0.
        3    1    3    3  502    0  0.51181903064E+03  0.12300581309E+03  0.25337114002E+04  0.25878142553E+04  0.10100000352E+00 0.  1.
       -3    1    3    3    0  502 -0.51181903064E+03 -0.12300581309E+03 -0.61425371079E+03  0.80894794740E+03  0.10100000352E+00 0. -1.
</event>
<event>
 5   0  0.5217999E-06  0.2827216E+04  0.7818609E-02  0.8294869E-01
        1   -1    0    0  501    0  0.00000000000E+00  0.00000000000E+00  0.10619310824E+04  0.10619310824E+04  0.50400001928E-02 0. -1.
       -1   -1    0    0    0  501  0.00000000000E+00  0.00000000000E+00 -0.18817482089E+04  0.18817482089E+04  0.50400001928E-02 0.  1.
    10030    2    1    2    0    0  0.00000000000E+00  0.00000000000E+00 -0.81981712645E+03  0.29436792913E+04  0.28272155294E+04 0.  0.
        1    1    3    3  502    0  0.68100792008E+03 -0.71635602128E+03 -0.14621579864E+04  0.17648919836E+04  0.50400001928E-02 0.  1.
       -1    1    3    3    0  502 -0.68100792008E+03  0.71635602128E+03  0.64234085999E+03  0.11787873077E+04  0.50400001928E-02 0. -1.
</event>
<event>
 5   0  0.1388269E-05  0.2908089E+04  0.7818609E-02  0.8270475E-01
       -2   -1    0    0    0  501  0.00000000000E+00  0.00000000000E+00  0.14367053731E+04  0.14367053731E+04  0.25500000920E-02 0. -1.
        2   -1    0    0  501    0  0.00000000000E+00  0.00000000000E+00 -0.14715930042E+04  0.14715930042E+04  0.25500000920E-02 0.  1.
    10030    2    1    2    0    0  0.00000000000E+00  0.00000000000E+00 -0.34887631039E+02  0.29082983773E+04  0.29080891157E+04 0.  0.
        1    1    3    3  502    0  0.11748342917E+04  0.75010402838E+03 -0.43142276600E+03  0.14591152351E+04  0.50400001928E-02 0. -1.
       -1    1    3    3    0  502 -0.11748342917E+04 -0.75010402838E+03  0.39653513496E+03  0.14491831422E+04  0.50400001928E-02 0.  1.
</event>
<event>
 5   0  0.5281919E-06  0.2819645E+04  0.7818609E-02  0.8297195E-01
        1   -1    0    0  501    0  0.00000000000E+00  0.00000000000E+00  0.17518707280E+04  0.17518707281E+04  0.50400001928E-02 0.  1.
       -1   -1    0    0    0  501  0.00000000000E+00  0.00000000000E+00 -0.11345584859E+04  0.11345584859E+04  0.50400001928E-02 0. -1.
    10030    2    1    2    0    0  0.00000000000E+00  0.00000000000E+00  0.61731224218E+03  0.28864292139E+04  0.28196452264E+04 0.  0.
        4    1    3    3  502    0 -0.83226801663E+02  0.68443895376E+03  0.15675038086E+04  0.17124407099E+04  0.12699999809E+01 0.  1.
       -4    1    3    3    0  502  0.83226801663E+02 -0.68443895376E+03 -0.95019156641E+03  0.11739885041E+04  0.12699999809E+01 0. -1.
</event>
<event>
 5   0  0.5023691E-06  0.2682382E+04  0.7818609E-02  0.8340744E-01
       -1   -1    0    0    0  501  0.00000000000E+00  0.00000000000E+00  0.92510021025E+03  0.92510021027E+03  0.50400001928E-02 0.  1.
        1   -1    0    0  501    0  0.00000000000E+00  0.00000000000E+00 -0.19444309725E+04  0.19444309725E+04  0.50400001928E-02 0. -1.
    10030    2    1    2    0    0  0.00000000000E+00  0.00000000000E+00 -0.10193307623E+04  0.28695311828E+04  0.26823821514E+04 0.  0.
        5    1    3    3  502    0  0.16557468795E+02 -0.89597099835E+03 -0.15771504243E+04  0.18139635417E+04  0.46999998093E+01 0. -1.
       -5    1    3    3    0  502 -0.16557468795E+02  0.89597099835E+03  0.55781966203E+03  0.10555676411E+04  0.46999998093E+01 0.  1.
</event>
<event>
 5   0  0.5107453E-06  0.2732692E+04  0.7818609E-02  0.8324475E-01
       -1   -1    0    0    0  501  0.00000000000E+00  0.00000000000E+00  0.14960862122E+04  0.14960862122E+04  0.50400001928E-02 0. -1.
        1   -1    0    0  501    0  0.00000000000E+00  0.00000000000E+00 -0.12478572327E+04  0.12478572327E+04  0.50400001928E-02 0.  1.
    10030    2    1    2    0    0  0.00000000000E+00  0.00000000000E+00  0.24822897954E+03  0.27439434449E+04  0.27326924457E+04 0.  0.
        2    1    3    3  502    0  0.40033287372E+03 -0.65282710107E+03  0.12603441275E+04  0.14747599647E+04  0.25500000920E-02 0. -1.
       -2    1    3    3    0  502 -0.40033287372E+03  0.65282710107E+03 -0.10121151480E+04  0.12691834802E+04  0.25500000920E-02 0.  1.
</event>
<event>
 5   0  0.5281919E-06  0.2795892E+04  0.7818609E-02  0.8304545E-01
       -1   -1    0    0    0  501  0.00000000000E+00  0.00000000000E+00  0.15445656844E+04  0.15445656844E+04  0.50400001928E-02 0.  1.
        1   -1    0    0  501    0  0.00000000000E+00  0.00000000000E+00 -0.12652440285E+04  0.12652440285E+04  0.50400001928E-02 0. -1.
    10030    2    1    2    0    0  0.00000000000E+00  0.00000000000E+00  0.27932165595E+03  0.28098097129E+04  0.27958916351E+04 0.  0.
        4    1    3    3  502    0 -0.59463113678E+03 -0.93449622799E+01 -0.11317763663E+04  0.12785119762E+04  0.12699999809E+01 0. -1.
       -4    1    3    3    0  502  0.59463113678E+03  0.93449622799E+01  0.14110980222E+04  0.15312977367E+04  0.12699999809E+01 0.  1.
</event>
<event>
 5   0  0.5023691E-06  0.2764993E+04  0.7818609E-02  0.8314220E-01
       -1   -1    0    0    0  501  0.00000000000E+00  0.00000000000E+00  0.10595808945E+04  0.10595808945E+04  0.50400001928E-02 0.  1.
        1   -1    0    0  501    0  0.00000000000E+00  0.00000000000E+00 -0.18038236542E+04  0.18038236542E+04  0.50400001928E-02 0. -1.
    10030    2    1    2    0    0  0.00000000000E+00  0.00000000000E+00 -0.74424275965E+03  0.28634045487E+04  0.27649933678E+04 0.  0.
        5    1    3    3  502    0 -0.11119568894E+03  0.66691168944E+03  0.87667497915E+03  0.11071209472E+04  0.46999998093E+01 0.  1.
       -5    1    3    3    0  502  0.11119568894E+03 -0.66691168944E+03 -0.16209177388E+04  0.17562836014E+04  0.46999998093E+01 0. -1.
</event>
<event>
 5   0  0.1302063E-05  0.2942625E+04  0.7818609E-02  0.8260307E-01
        2   -1    0    0  501    0  0.00000000000E+00  0.00000000000E+00  0.16052046414E+04  0.16052046414E+04  0.25500000920E-02 0.  1.
       -2   -1    0    0    0  501  0.00000000000E+00  0.00000000000E+00 -0.13485885661E+04  0.13485885661E+04  0.25500000920E-02 0. -1.
    10030    2    1    2    0    0  0.00000000000E+00  0.00000000000E+00  0.25661607532E+03  0.29537932076E+04  0.29426251040E+04 0.  0.
        2    1    3    3  502    0 -0.11444508251E+04  0.53230124738E+03  0.88725183561E+03  0.15428312055E+04  0.25500000920E-02 0. -1.
       -2    1    3    3    0  502  0.11444508251E+04 -0.53230124738E+03 -0.63063576029E+03  0.14109620020E+04  0.25500000920E-02 0.  1.
</event>
<event>
 5   0  0.5217999E-06  0.2790064E+04  0.7818609E-02  0.8306360E-01
        1   -1    0    0  501    0  0.00000000000E+00  0.00000000000E+00  0.10507598078E+04  0.10507598078E+04  0.50400001928E-02 0.  1.
       -1   -1    0    0    0  501  0.00000000000E+00  0.00000000000E+00 -0.18521022318E+04  0.18521022318E+04  0.50400001928E-02 0. -1.
    10030    2    1    2    0    0  0.00000000000E+00  0.00000000000E+00 -0.80134242394E+03  0.29028620396E+04  0.27900642180E+04 0.  0.
        1    1    3    3  502    0  0.73143692508E+03  0.18088295865E+03  0.82084488202E+03  0.11142284059E+04  0.50400001928E-02 0.  1.
       -1    1    3    3    0  502 -0.73143692508E+03 -0.18088295865E+03 -0.16221873060E+04  0.17886336337E+04  0.50400001928E-02 0. -1.
</event>
<event>
 5   0  0.5217999E-06  0.2842450E+04  0.7818609E-02  0.8290209E-01
       -1   -1    0    0    0  501  0.00000000000E+00  0.00000000000E+00  0.18322312080E+04  0.18322312081E+04  0.50400001928E-02 0.  1.
        1   -1    0    0  501    0  0.00000000000E+00  0.00000000000E+00 -0.11024154840E+04  0.11024154840E+04  0.50400001928E-02 0. -1.
    10030    2    1    2    0    0  0.00000000000E+00  0.00000000000E+00  0.72981572407E+03  0.29346466920E+04  0.28424496858E+04 0.  0.
        1    1    3    3  502    0 -0.88370226666E+03  0.20135624874E+03 -0.76531744646E+03  0.11862482155E+04  0.50400001928E-02 0. -1.
       -1    1    3    3    0  502  0.88370226666E+03 -0.20135624874E+03  0.14951331705E+04  0.17483984765E+04  0.50400001928E-02 0.  1.
</event>
<event>
 5   0  0.5217999E-06  0.2681761E+04  0.7818609E-02  0.8340947E-01
        1   -1    0    0  501    0  0.00000000000E+00  0.00000000000E+00  0.16421514084E+04  0.16421514084E+04  0.50400001928E-02 0. -1.
       -1   -1    0    0    0  501  0.00000000000E+00  0.00000000000E+00 -0.10948814227E+04  0.10948814228E+04  0.50400001928E-02 0.  1.
    10030    2    1    2    0    0  0.00000000000E+00  0.00000000000E+00  0.54726998567E+03  0.27370328312E+04  0.26817614140E+04 0.  0.
        1    1    3    3  502    0 -0.25431987584E+03  0.58241672110E+03  0.14786783240E+04  0.16094649490E+04  0.50400001928E-02 0. -1.
       -1    1    3    3    0  502  0.25431987584E+03 -0.58241672110E+03 -0.93140833830E+03  0.11275678822E+04  0.50400001928E-02 0.  1.
</event>
<event>
 5   0  0.1330962E-05  0.2829861E+04  0.7818609E-02  0.8294057E-01
       -2   -1    0    0    0  501  0.00000000000E+00  0.00000000000E+00  0.30181919181E+04  0.30181919181E+04  0.25500000920E-02 0. -1.
        2   -1    0    0  501    0  0.00000000000E+00  0.00000000000E+00 -0.66332043328E+03  0.66332043328E+03  0.25500000920E-02 0.  1.
    10030    2    1    2    0    0  0.00000000000E+00  0.00000000000E+00  0.23548714849E+04  0.36815123514E+04  0.28298610361E+04 0.  0.
        4    1    3    3  502    0 -0.12341773140E+04  0.58691434733E+02  0.28045017204E+03  0.12670012782E+04  0.12699999809E+01 0.  1.
       -4    1    3    3    0  502  0.12341773140E+04 -0.58691434733E+02  0.20744213128E+04  0.24145110733E+04  0.12699999809E+01 0. -1.
</event>
<event>
 5   0  0.4764214E-06  0.2786491E+04  0.7818609E-02  0.8307475E-01
        1   -1    0    0  501    0  0.00000000000E+00  0.00000000000E+00  0.16766172820E+04  0.16766172820E+04  0.50400001928E-02 0.  1.
       -1   -1    0    0    0  501  0.00000000000E+00  0.00000000000E+00 -0.11577677430E+04  0.11577677430E+04  0.50400001928E-02 0. -1.
    10030    2    1    2    0    0  0.00000000000E+00  0.00000000000E+00  0.51884953905E+03  0.28343850250E+04  0.27864912750E+04 0.  0.
        3    1    3    3  502    0  0.47578321970E+03  0.28930827140E+03 -0.10396576876E+04  0.11793884287E+04  0.10100000352E+00 0. -1.
       -3    1    3    3    0  502 -0.47578321970E+03 -0.28930827140E+03  0.15585072267E+04  0.16549965963E+04  0.10100000352E+00 0.  1.
</event>
<event>
 5   0  0.1330962E-05  0.2840467E+04  0.7818609E-02  0.8290814E-01
        2   -1    0    0  501    0  0.00000000000E+00  0.00000000000E+00  0.22266300586E+04  0.22266300586E+04  0.25500000920E-02 0.  1.
       -2   -1    0    0    0  501  0.00000000000E+00  0.00000000000E+00 -0.90588148122E+03  0.90588148122E+03  0.25500000920E-02 0. -1.
    10030    2    1    2    0    0  0.00000000000E+00  0.00000000000E+00  0.13207485774E+04  0.31325115398E+04  0.28404668177E+04 0.  0.
        4    1    3    3  502    0  0.60959100035E+03  0.91528101818E+03 -0.33076248706E+03  0.11483666512E+04  0.12699999809E+01 0. -1.
       -4    1    3    3    0  502 -0.60959100035E+03 -0.91528101818E+03  0.16515110644E+04  0.19841448885E+04  0.12699999809E+01 0.  1.
</event>
<event>
 5   0  0.1350863E-05  0.2700297E+04  0.7818609E-02  0.8334909E-01
        2   -1    0    0  501    0  0.00000000000E+00  0.00000000000E+00  0.14730426755E+04  0.14730426755E+04  0.25500000920E-02 0.  1.
       -2   -1    0    0    0  501  0.00000000000E+00  0.00000000000E+00 -0.12375071341E+04  0.12375071341E+04  0.25500000920E-02 0. -1.
    10030    2    1    2    0    0  0.00000000000E+00  0.00000000000E+00  0.23553554138E+03  0.27105498096E+04  0.27002968872E+04 0.  0.
        3    1    3    3  502    0 -0.77830421488E+03 -0.21480025486E+03  0.12040060532E+04  0.14496645083E+04  0.10100000352E+00 0.  1.
       -3    1    3    3    0  502  0.77830421488E+03  0.21480025486E+03 -0.96847051182E+03  0.12608853012E+04  0.10100000352E+00 0. -1.
</event>
<event>
 5   0  0.1388269E-05  0.2832123E+04  0.7818609E-02  0.8293364E-01
        2   -1    0    0  501    0  0.00000000000E+00  0.00000000000E+00  0.86476443884E+03  0.86476443884E+03  0.25500000920E-02 0.  1.
       -2   -1    0    0    0  501  0.00000000000E+00  0.00000000000E+00 -0.23188171541E+04  0.23188171541E+04  0.25500000920E-02 0. -1.
    10030    2    1    2    0    0  0.00000000000E+00  0.00000000000E+00 -0.14540527153E+04  0.31835815930E+04  0.28321233130E+04 0.  0.
        1    1    3    3  502    0 -0.48943795998E+03  0.66110042485E+03  0.56867649917E+03  0.99999812457E+03  0.50400001928E-02 0.  1.
       -1    1    3    3    0  502  0.48943795998E+03 -0.66110042485E+03 -0.20227292145E+04  0.21835834684E+04  0.50400001928E-02 0. -1.
</event>
<event>
 5   0  0.1330962E-05  0.2848725E+04  0.7818609E-02  0.8288299E-01
        2   -1    0    0  501    0  0.00000000000E+00  0.00000000000E+00  0.18566437118E+04  0.18566437119E+04  0.25500000920E-02 0.  1.
       -2   -1    0    0    0  501  0.00000000000E+00  0.00000000000E+00 -0.10927291361E+04  0.10927291361E+04  0.25500000920E-02 0. -1.
    10030    2    1    2    0    0  0.00000000000E+00  0.00000000000E+00  0.76391457577E+03  0.29493728479E+04  0.28487251038E+04 0.  0.
        4    1    3    3  502    0 -0.92218875173E+03  0.84545503329E+03 -0.32296596445E+03  0.12921048465E+04  0.12699999809E+01 0. -1.
       -4    1    3    3    0  502  0.92218875173E+03 -0.84545503329E+03  0.10868805402E+04  0.16572680015E+04  0.12699999809E+01 0.  1.
</event>
<event>
 5   0  0.4764214E-06  0.2637797E+04  0.7818609E-02  0.8355475E-01
       -1   -1    0    0    0  501  0.00000000000E+00  0.00000000000E+00  0.13596504675E+04  0.13596504675E+04  0.50400001928E-02 0. -1.
        1   -1    0    0  501    0  0.00000000000E+00  0.00000000000E+00 -0.12793676448E+04  0.12793676448E+04  0.50400001928E-02 0.  1.
    10030    2    1    2    0    0  0.00000000000E+00  0.00000000000E+00  0.80282822743E+02  0.26390181123E+04  0.26377966687E+04 0.  0.
        3    1    3    3  502    0  0.10666702415E+04 -0.71180910662E+03 -0.26827913129E+03  0.13101264484E+04  0.10100000352E+00 0. -1.
       -3    1    3    3    0  502 -0.10666702415E+04  0.71180910662E+03  0.34856195403E+03  0.13288916639E+04  0.10100000352E+00 0.  1.
</event>
<event>
 5   0  0.1350863E-05  0.2797636E+04  0.7818609E-02  0.8304003E-01
        2   -1    0    0  501    0  0.00000000000E+00  0.00000000000E+00  0.16735087214E+04  0.16735087214E+04  0.25500000920E-02 0.  1.
       -2   -1    0    0    0  501  0.00000000000E+00  0.00000000000E+00 -0.11692151930E+04  0.11692151930E+04  0.25500000920E-02 0. -1.
    10030    2    1    2    0    0  0.00000000000E+00  0.00000000000E+00  0.50429352842E+03  0.28427239144E+04  0.27976360182E+04 0.  0.
        3    1    3    3  502    0  0.18199140327E+03  0.36334719683E+03  0.16122062676E+04  0.16626337889E+04  0.10100000352E+00 0.  1.
       -3    1    3    3    0  502 -0.18199140327E+03 -0.36334719683E+03 -0.11079127392E+04  0.11800901255E+04  0.10100000352E+00 0. -1.
</event>
<event>
 5   0  0.4764214E-06  0.2814213E+04  0.7818609E-02  0.8298869E-01
        1   -1    0    0  501    0  0.00000000000E+00  0.00000000000E+00  0.18775269218E+04  0.18775269218E+04  0.50400001928E-02 0.  1.
       -1   -1    0    0    0  501  0.00000000000E+00  0.00000000000E+00 -0.10545517129E+04  0.10545517129E+04  0.50400001928E-02 0. -1.
    10030    2    1    2    0    0  0.00000000000E+00  0.00000000000E+00  0.82297520884E+03  0.29320786347E+04  0.28142133760E+04 0.  0.
        3    1    3    3  502    0 -0.75013998351E+03 -0.72535320550E+03  0.13950055494E+04  0.17420929254E+04  0.10100000352E+00 0.  1.
       -3    1    3    3    0  502  0.75013998351E+03  0.72535320550E+03 -0.57203034059E+03  0.11899857093E+04  0.10100000352E+00 0. -1.
</event>
<event>
 5   0  0.1330962E-05  0.2822740E+04  0.7818609E-02  0.8296243E-01
       -2   -1    0    0    0  501  0.00000000000E+00  0.00000000000E+00  0.10526502950E+04  0.10526502950E+04  0.25500000920E-02 0.  1.
        2   -1    0    0  501    0  0.00000000000E+00  0.00000000000E+00 -0.18923335077E+04  0.18923335077E+04  0.25500000920E-02 0. -1.
    10030    2    1    2    0    0  0.00000000000E+00  0.00000000000E+00 -0.83968321279E+03  0.29449838027E+04  0.28227401050E+04 0.  0.
        4    1    3    3  502    0  0.25662623153E+02  0.33950039457E+03 -0.18488461532E+04  0.18799342540E+04  0.12699999809E+01 0. -1.
       -4    1    3    3    0  502 -0.25662623153E+02 -0.33950039457E+03  0.10091629404E+04  0.10650495488E+04  0.12699999809E+01 0.  1.
</event>
<event>
 5   0  0.1302063E-05  0.2801269E+04  0.7818609E-02  0.8302875E-01
       -2   -1    0    0    0  501  0.00000000000E+00  0.00000000000E+00  0.71438671520E+03  0.71438671521E+03  0.25500000920E-02 0. -1.
        2   -1    0    0  501    0  0.00000000000E+00  0.00000000000E+00 -0.27460992353E+04  0.27460992353E+04  0.25500000920E-02 0.  1.
    10030    2    1    2    0    0  0.00000000000E+00  0.00000000000E+00 -0.20317125201E+04  0.34604859505E+04  0.28012688641E+04 0.  0.
        2    1    3    3  502    0  0.38986316985E+03  0.13685671806E+03  0.63738641458E+03  0.75959495389E+03  0.25500000920E-02 0. -1.
       -2    1    3    3    0  502 -0.38986316985E+03 -0.13685671806E+03 -0.26690989346E+04  0.27008909966E+04  0.25500000920E-02 0.  1.
</event>
<event>
 5   0  0.1388269E-05  0.2780700E+04  0.7818609E-02  0.8309285E-01
       -2   -1    0    0    0  501  0.00000000000E+00  0.00000000000E+00  0.86261718861E+03  0.86261718861E+03  0.25500000920E-02 0. -1.
        2   -1    0    0  501    0  0.00000000000E+00  0.00000000000E+00 -0.22409393340E+04  0.22409393340E+04  0.25500000920E-02 0.  1.
    10030    2    1    2    0    0  0.00000000000E+00  0.00000000000E+00 -0.13783221454E+04  0.31035565226E+04  0.27806997595E+04 0.  0.
        1    1    3    3  502    0  0.59599207731E+03  0.12381906143E+04 -0.92526500339E+03  0.16566345041E+04  0.50400001928E-02 0. -1.
       -1    1    3    3    0  502 -0.59599207731E+03 -0.12381906143E+04 -0.45305714197E+03  0.14469220185E+04  0.50400001928E-02 0.  1.
</event>
<event>
 5   0  0.1350863E-05  0.2779657E+04  0.7818609E-02  0.8309612E-01
       -2   -1    0    0    0  501  0.00000000000E+00  0.00000000000E+00  0.11731820041E+04  0.11731820041E+04  0.25500000920E-02 0.  1.
        2   -1    0    0  501    0  0.00000000000E+00  0.00000000000E+00 -0.16464816761E+04  0.16464816761E+04  0.25500000920E-02 0. -1.
    10030    2    1    2    0    0  0.00000000000E+00  0.00000000000E+00 -0.47329967203E+03  0.28196636803E+04  0.27796565778E+04 0.  0.
        3    1    3    3  502    0  0.68236065294E+03  0.82428015834E+03 -0.11363017980E+04  0.15608445235E+04  0.10100000352E+00 0. -1.
       -3    1    3    3    0  502 -0.68236065294E+03 -0.82428015834E+03  0.66300212601E+03  0.12588191568E+04  0.10100000352E+00 0.  1.
</event>
<event>
 5   0  0.1302063E-05  0.2771885E+04  0.7818609E-02  0.8312050E-01
       -2   -1    0    0    0  501  0.00000000000E+00  0.00000000000E+00  0.10148530666E+04  0.10148530666E+04  0.25500000920E-02 0. -1.
        2   -1    0    0  501    0  0.00000000000E+00  0.00000000000E+00 -0.18927239257E+04  0.18927239257E+04  0.25500000920E-02 0.  1.
    10030    2    1    2    0    0  0.00000000000E+00  0.00000000000E+00 -0.87787085918E+03  0.29075769923E+04  0.27718850483E+04 0.  0.
        2    1    3    3  502    0 -0.51729292928E+03 -0.31225337283E+03 -0.17472882377E+04  0.18488132218E+04  0.25500000920E-02 0.  1.
       -2    1    3    3    0  502  0.51729292928E+03  0.31225337283E+03  0.86941737854E+03  0.10587637705E+04  0.25500000920E-02 0. -1.
</event>
<event>
 5   0  0.5107453E-06  0.2195229E+04  0.7818609E-02  0.8520417E-01
       -1   -1    0    0    0  501  0.00000000000E+00  0.00000000000E+00  0.12998933511E+04  0.12998933511E+04  0.50400001928E-02 0.  1.
        1   -1    0    0  501    0  0.00000000000E+00  0.00000000000E+00 -0.92681264189E+03  0.92681264190E+03  0.50400001928E-02 0. -1.
    10030    2    1    2    0    0  0.00000000000E+00  0.00000000000E+00  0.37308070920E+03  0.22267059930E+04  0.21952290003E+04 0.  0.
        2    1    3    3  502    0  0.37166690267E+03 -0.99826417395E+03  0.45508153973E+03  0.11583466042E+04  0.25500000920E-02 0.  1.
       -2    1    3    3    0  502 -0.37166690267E+03  0.99826417395E+03 -0.82000830524E+02  0.10683593889E+04  0.25500000920E-02 0. -1.
</event>
<event>
 5   0  0.5107453E-06  0.2831781E+04  0.7818609E-02  0.8293469E-01
        1   -1    0    0  501    0  0.00000000000E+00  0.00000000000E+00  0.17192886042E+04  0.17192886042E+04  0.50400001928E-02 0.  1.
       -1   -1    0    0    0  501  0.00000000000E+00  0.00000000000E+00 -0.11660324149E+04  0.11660324149E+04  0.50400001928E-02 0. -1.
    10030    2    1    2    0    0  0.00000000000E+00  0.00000000000E+00  0.55325618926E+03  0.28853210191E+04  0.28317812367E+04 0.  0.
        2    1    3    3  502    0 -0.29467587406E+03 -0.13680485189E+04  0.49600234416E+03  0.14847252090E+04  0.25500000920E-02 0. -1.
       -2    1    3    3    0  502  0.29467587406E+03  0.13680485189E+04  0.57253845101E+02  0.14005958102E+04  0.25500000920E-02 0.  1.
</event>
<event>
 5   0  0.5281919E-06  0.2715780E+04  0.7818609E-02  0.8329903E-01
        1   -1    0    0  501    0  0.00000000000E+00  0.00000000000E+00  0.19758926744E+04  0.19758926744E+04  0.50400001928E-02 0.  1.
       -1   -1    0    0    0  501  0.00000000000E+00  0.00000000000E+00 -0.93318063809E+03  0.93318063811E+03  0.50400001928E-02 0. -1.
    10030    2    1    2    0    0  0.00000000000E+00  0.00000000000E+00  0.10427120363E+04  0.29090733125E+04  0.27157796573E+04 0.  0.
        4    1    3    3  502    0 -0.17407503145E+02  0.85943732537E+03  0.16473266247E+04  0.18581232895E+04  0.12699999809E+01 0.  1.
       -4    1    3    3    0  502  0.17407503145E+02 -0.85943732537E+03 -0.60461458845E+03  0.10509500230E+04  0.12699999809E+01 0. -1.
</event>
<event>
 5   0  0.5023691E-06  0.2941671E+04  0.7818609E-02  0.8260586E-01
       -1   -1    0    0    0  501  0.00000000000E+00  0.00000000000E+00  0.82647794649E+03  0.82647794650E+03  0.50400001928E-02 0. -1.
        1   -1    0    0  501    0  0.00000000000E+00  0.00000000000E+00 -0.26175624169E+04  0.26175624169E+04  0.50400001928E-02 0.  1.
    10030    2    1    2    0    0  0.00000000000E+00  0.00000000000E+00 -0.17910844704E+04  0.34440403634E+04  0.29416713692E+04 0.  0.
        5    1    3    3  502    0 -0.13472306509E+04 -0.48303477632E+02 -0.20689870351E+03  0.13638888577E+04  0.46999998093E+01 0. -1.
       -5    1    3    3    0  502  0.13472306509E+04  0.48303477632E+02 -0.15841857669E+04  0.20801515057E+04  0.46999998093E+01 0.  1.
</event>
<event>
 5   0  0.5023691E-06  0.2749786E+04  0.7818609E-02  0.8319030E-01
        1   -1    0    0  501    0  0.00000000000E+00  0.00000000000E+00  0.14140453492E+04  0.14140453492E+04  0.50400001928E-02 0.  1.
       -1   -1    0    0    0  501  0.00000000000E+00  0.00000000000E+00 -0.13368246397E+04  0.13368246397E+04  0.50400001928E-02 0. -1.
    10030    2    1    2    0    0  0.00000000000E+00  0.00000000000E+00  0.77220709479E+02  0.27508699890E+04  0.27497859295E+04 0.  0.
        5    1    3    3  502    0  0.19031250586E+03  0.10118106025E+04  0.95019350867E+03  0.14010243892E+04  0.46999998093E+01 0.  1.
       -5    1    3    3    0  502 -0.19031250586E+03 -0.10118106025E+04 -0.87297279919E+03  0.13498455998E+04  0.46999998093E+01 0. -1.
</event>
<event>
 5   0  0.1350863E-05  0.2810126E+04  0.7818609E-02  0.8300131E-01
        2   -1    0    0  501    0  0.00000000000E+00  0.00000000000E+00  0.14696979839E+04  0.14696979839E+04  0.25500000920E-02 0.  1.
       -2   -1    0    0    0  501  0.00000000000E+00  0.00000000000E+00 -0.13432710298E+04  0.13432710298E+04  0.25500000920E-02 0. -1.
    10030    2    1    2    0    0  0.00000000000E+00  0.00000000000E+00  0.12642695416E+03  0.28129690137E+04  0.28101264914E+04 0.  0.
        3    1    3    3  502    0 -0.83399755967E+03 -0.38845077819E+03  0.11262466126E+04  0.14542617987E+04  0.10100000352E+00 0.  1.
       -3    1    3    3    0  502  0.83399755967E+03  0.38845077819E+03 -0.99981965841E+03  0.13587072150E+04  0.10100000352E+00 0. -1.
</event>
<event>
 5   0  0.1350863E-05  0.2476450E+04  0.7818609E-02  0.8411424E-01
       -2   -1    0    0    0  501  0.00000000000E+00  0.00000000000E+00  0.14044867086E+04  0.14044867086E+04  0.25500000920E-02 0.  1.
        2   -1    0    0  501    0  0.00000000000E+00  0.00000000000E+00 -0.10916448460E+04  0.10916448460E+04  0.25500000920E-02 0. -1.
    10030    2    1    2    0    0  0.00000000000E+00  0.00000000000E+00  0.31284186260E+03  0.24961315547E+04  0.24764496173E+04 0.  0.
        3    1    3    3  502    0  0.10741284341E+04  0.61283559311E+03  0.93625635895E+02  0.12401956003E+04  0.10100000352E+00 0.  1.
       -3    1    3    3    0  502 -0.10741284341E+04 -0.61283559311E+03  0.21921622670E+03  0.12559359543E+04  0.10100000352E+00 0. -1.
</event>
<event>
 5   0  0.5023691E-06  0.2776221E+04  0.7818609E-02  0.8310689E-01
        1   -1    0    0  501    0  0.00000000000E+00  0.00000000000E+00  0.13190275906E+04  0.13190275906E+04  0.50400001928E-02 0. -1.
       -1   -1    0    0    0  501  0.00000000000E+00  0.00000000000E+00 -0.14608114910E+04  0.14608114910E+04  0.50400001928E-02 0.  1.
    10030    2    1    2    0    0  0.00000000000E+00  0.00000000000E+00 -0.14178390043E+03  0.27798390816E+04  0.27762209288E+04 0.  0.
        5    1    3    3  502    0  0.13269547841E+04 -0.97048115930E+02  0.32535252911E+03  0.13697093466E+04  0.46999998093E+01 0.  1.
       -5    1    3    3    0  502 -0.13269547841E+04  0.97048115930E+02 -0.46713642953E+03  0.14101297351E+04  0.46999998093E+01 0. -1.
</event>
<event>
 5   0  0.1388269E-05  0.2718449E+04  0.7818609E-02  0.8329044E-01
       -2   -1    0    0    0  501  0.00000000000E+00  0.00000000000E+00  0.89057952055E+03  0.89057952056E+03  0.25500000920E-02 0. -1.
        2   -1    0    0  501    0  0.00000000000E+00  0.00000000000E+00 -0.20744826481E+04  0.20744826481E+04  0.25500000920E-02 0.  1.
    10030    2    1    2    0    0  0.00000000000E+00  0.00000000000E+00 -0.11839031275E+04  0.29650621686E+04  0.27184493831E+04 0.  0.
        1    1    3    3  502    0 -0.84508805086E+03 -0.44885500096E+03 -0.16448461441E+04  0.19029354859E+04  0.50400001928E-02 0.  1.
       -1    1    3    3    0  502  0.84508805086E+03  0.44885500096E+03  0.46094301661E+03  0.10621266827E+04  0.50400001928E-02 0. -1.
</event>
<event>
 5   0  0.5107453E-06  0.2759371E+04  0.7818609E-02  0.8315994E-01
        1   -1    0    0  501    0  0.00000000000E+00  0.00000000000E+00  0.31653192178E+04  0.31653192178E+04  0.50400001928E-02 0. -1.
       -1   -1    0    0    0  501  0.00000000000E+00  0.00000000000E+00 -0.60137141059E+03  0.60137141062E+03  0.50400001928E-02 0.  1.
    10030    2    1    2    0    0  0.00000000000E+00  0.00000000000E+00  0.25639478072E+04  0.37666906284E+04  0.27593712929E+04 0.  0.
        2    1    3    3  502    0 -0.93115965917E+02 -0.82492145607E+03  0.27862401034E+04  0.29072839396E+04  0.25500000920E-02 0. -1.
       -2    1    3    3    0  502  0.93115965917E+02  0.82492145607E+03 -0.22229229620E+03  0.85940668879E+03  0.25500000920E-02 0.  1.
</event>
<event>
 5   0  0.1350863E-05  0.2767963E+04  0.7818609E-02  0.8313284E-01
       -2   -1    0    0    0  501  0.00000000000E+00  0.00000000000E+00  0.13360180414E+04  0.13360180414E+04  0.25500000920E-02 0.  1.
        2   -1    0    0  501    0  0.00000000000E+00  0.00000000000E+00 -0.14336666952E+04  0.14336666952E+04  0.25500000920E-02 0. -1.
    10030    2    1    2    0    0  0.00000000000E+00  0.00000000000E+00 -0.97648653766E+02  0.27696847365E+04  0.27679628394E+04 0.  0.
        3    1    3    3  502    0  0.11111301892E+04 -0.61101877846E+02  0.77452460185E+03  0.13558141856E+04  0.10100000352E+00 0.  1.
       -3    1    3    3    0  502 -0.11111301892E+04  0.61101877846E+02 -0.87217325562E+03  0.14138705509E+04  0.10100000352E+00 0. -1.
</event>
<event>
 5   0  0.1330962E-05  0.2647896E+04  0.7818609E-02  0.8352112E-01
        2   -1    0    0  501    0  0.00000000000E+00  0.00000000000E+00  0.15535813759E+04  0.15535813759E+04  0.25500000920E-02 0. -1.
       -2   -1    0    0    0  501  0.00000000000E+00  0.00000000000E+00 -0.11282563365E+04  0.11282563365E+04  0.25500000920E-02 0.  1.
    10030    2    1    2    0    0  0.00000000000E+00  0.00000000000E+00  0.42532503945E+03  0.26818377124E+04  0.26478957923E+04 0.  0.
        4    1    3    3  502    0  0.32442844788E+03  0.87017761148E+03  0.11683540193E+04  0.14924863888E+04  0.12699999809E+01 0. -1.
       -4    1    3    3    0  502 -0.32442844788E+03 -0.87017761148E+03 -0.74302897987E+03  0.11893513237E+04  0.12699999809E+01 0.  1.
</event>
<event>
 5   0  0.1283052E-05  0.2769996E+04  0.7818609E-02  0.8312644E-01
       -2   -1    0    0    0  501  0.00000000000E+00  0.00000000000E+00  0.17205473733E+04  0.17205473733E+04  0.25500000920E-02 0. -1.
        2   -1    0    0  501    0  0.00000000000E+00  0.00000000000E+00 -0.11148890570E+04  0.11148890570E+04  0.25500000920E-02 0.  1.
    10030    2    1    2    0    0  0.00000000000E+00  0.00000000000E+00  0.60565831622E+03  0.28354364303E+04  0.27699959845E+04 0.  0.
        5    1    3    3  502    0  0.86077230764E+03 -0.36233404313E+02  0.14128630107E+04  0.16548250065E+04  0.46999998093E+01 0. -1.
       -5    1    3    3    0  502 -0.86077230764E+03  0.36233404313E+02 -0.80720469447E+03  0.11806114238E+04  0.46999998093E+01 0.  1.
</event>
<event>
 5   0  0.5217999E-06  0.2021432E+04  0.7818609E-02  0.8596665E-01
        1   -1    0    0  501    0  0.00000000000E+00  0.00000000000E+00  0.14909864761E+04  0.14909864761E+04  0.50400001928E-02 0. -1.
       -1   -1    0    0    0  501  0.00000000000E+00  0.00000000000E+00 -0.68514850386E+03  0.68514850388E+03  0.50400001928E-02 0.  1.
    10030    2    1    2    0    0  0.00000000000E+00  0.00000000000E+00  0.80583797227E+03  0.21761349800E+04  0.20214323174E+04 0.  0.
        1    1    3    3  502    0 -0.11208561765E+03  0.30061725679E+03 -0.62887495656E+03  0.70598699122E+03  0.50400001928E-02 0.  1.
       -1    1    3    3    0  502  0.11208561765E+03 -0.30061725679E+03  0.14347129288E+04  0.14701479888E+04  0.50400001928E-02 0. -1.
</event>
<event>
 5   0  0.4764214E-06  0.2791819E+04  0.7818609E-02  0.8305813E-01
       -1   -1    0    0    0  501  0.00000000000E+00  0.00000000000E+00  0.15106071651E+04  0.15106071651E+04  0.50400001928E-02 0.  1.
        1   -1    0    0  501    0  0.00000000000E+00  0.00000000000E+00 -0.12899208328E+04  0.12899208328E+04  0.50400001928E-02 0. -1.
    10030    2    1    2    0    0  0.00000000000E+00  0.00000000000E+00  0.22068633230E+03  0.28005279979E+04  0.27918192295E+04 0.  0.
        3    1    3    3  502    0  0.80768126935E+03  0.10980740210E+04 -0.19134080613E+03  0.13764907928E+04  0.10100000352E+00 0. -1.
       -3    1    3    3    0  502 -0.80768126935E+03 -0.10980740210E+04  0.41202713843E+03  0.14240372051E+04  0.10100000352E+00 0.  1.
</event>
<event>
 5   0  0.5281919E-06  0.2753573E+04  0.7818609E-02  0.8317829E-01
       -1   -1    0    0    0  501  0.00000000000E+00  0.00000000000E+00  0.12038483756E+04  0.12038483757E+04  0.50400001928E-02 0.  1.
        1   -1    0    0  501    0  0.00000000000E+00  0.00000000000E+00 -0.15745676313E+04  0.15745676313E+04  0.50400001928E-02 0. -1.
    10030    2    1    2    0    0  0.00000000000E+00  0.00000000000E+00 -0.37071925563E+03  0.27784160069E+04  0.27535727230E+04 0.  0.
        4    1    3    3  502    0  0.25930982579E+03 -0.45240257086E+03  0.11003537860E+04  0.12176574802E+04  0.12699999809E+01 0.  1.
       -4    1    3    3    0  502 -0.25930982579E+03  0.45240257086E+03 -0.14710730417E+04  0.15607585267E+04  0.12699999809E+01 0. -1.
</event>
<event>
 5   0  0.5023691E-06  0.2847057E+04  0.7818609E-02  0.8288806E-01
        1   -1    0    0  501    0  0.00000000000E+00  0.00000000000E+00  0.17873671766E+04  0.17873671766E+04  0.50400001928E-02 0.  1.
       -1   -1    0    0    0  501  0.00000000000E+00  0.00000000000E+00 -0.11337531425E+04  0.11337531425E+04  0.50400001928E-02 0. -1.
    10030    2    1    2    0    0  0.00000000000E+00  0.00000000000E+00  0.65361403407E+03  0.29211203191E+04  0.28470568334E+04 0.  0.
        5    1    3    3  502    0 -0.38980742133E+03  0.12013521270E+04 -0.34694470540E+03  0.13098051295E+04  0.46999998093E+01 0. -1.
       -5    1    3    3    0  502  0.38980742133E+03 -0.12013521270E+04  0.10005587395E+04  0.16113151895E+04  0.46999998093E+01 0.  1.
</event>
<event>
 5   0  0.1350863E-05  0.2829226E+04  0.7818609E-02  0.8294252E-01
       -2   -1    0    0    0  501  0.00000000000E+00  0.00000000000E+00  0.11134221802E+04  0.11134221802E+04  0.25500000920E-02 0. -1.
        2   -1    0    0  501    0  0.00000000000E+00  0.00000000000E+00 -0.17972786151E+04  0.17972786151E+04  0.25500000920E-02 0.  1.
    10030    2    1    2    0    0  0.00000000000E+00  0.00000000000E+00 -0.68385643497E+03  0.29107007953E+04  0.28292259535E+04 0.  0.
        3    1    3    3  502    0 -0.71615003737E+03 -0.10732462288E+04  0.25477572317E+03  0.13151574138E+04  0.10100000352E+00 0. -1.
       -3    1    3    3    0  502  0.71615003737E+03  0.10732462288E+04 -0.93863215814E+03  0.15955433815E+04  0.10100000352E+00 0.  1.
</event>
<event>
 5   0  0.5107453E-06  0.2730687E+04  0.7818609E-02  0.8325116E-01
        1   -1    0    0  501    0  0.00000000000E+00  0.00000000000E+00  0.21399592654E+04  0.21399592654E+04  0.50400001928E-02 0. -1.
       -1   -1    0    0    0  501  0.00000000000E+00  0.00000000000E+00 -0.87112089831E+03  0.87112089833E+03  0.50400001928E-02 0.  1.
    10030    2    1    2    0    0  0.00000000000E+00  0.00000000000E+00  0.12688383671E+04  0.30110801638E+04  0.27306872671E+04 0.  0.
        2    1    3    3  502    0 -0.46959948661E+03  0.12529186673E+04  0.33479307879E+03  0.13792807076E+04  0.25500000920E-02 0. -1.
       -2    1    3    3    0  502  0.46959948661E+03 -0.12529186673E+04  0.93404528833E+03  0.16317994562E+04  0.25500000920E-02 0.  1.
</event>
<event>
 5   0  0.5281919E-06  0.2762434E+04  0.7818609E-02  0.8315027E-01
        1   -1    0    0  501    0  0.00000000000E+00  0.00000000000E+00  0.14540140310E+04  0.14540140310E+04  0.50400001928E-02 0.  1.
       -1   -1    0    0    0  501  0.00000000000E+00  0.00000000000E+00 -0.13120644145E+04  0.13120644145E+04  0.50400001928E-02 0. -1.
    10030    2    1    2    0    0  0.00000000000E+00  0.00000000000E+00  0.14194961644E+03  0.27660784455E+04  0.27624337590E+04 0.  0.
        4    1    3    3  502    0  0.63259163062E+03  0.12278366691E+04  0.69128964721E+02  0.13829444977E+04  0.12699999809E+01 0. -1.
       -4    1    3    3    0  502 -0.63259163062E+03 -0.12278366691E+04  0.72820651714E+02  0.13831339477E+04  0.12699999809E+01 0.  1.
</event>
<event>
 5   0  0.4764214E-06  0.2128023E+04  0.7818609E-02  0.8548999E-01
        1   -1    0    0  501    0  0.00000000000E+00  0.00000000000E+00  0.11711841904E+04  0.11711841904E+04  0.50400001928E-02 0. -1.
       -1   -1    0    0    0  501  0.00000000000E+00  0.00000000000E+00 -0.96664573200E+03  0.96664573201E+03  0.50400001928E-02 0.  1.
    10030    2    1    2    0    0  0.00000000000E+00  0.00000000000E+00  0.20453845843E+03  0.21378299224E+04  0.21280227434E+04 0.  0.
        3    1    3    3  502    0 -0.98782295148E+03 -0.38879133451E+03  0.30053986218E+02  0.10620057145E+04  0.10100000352E+00 0.  1.
       -3    1    3    3    0  502  0.98782295148E+03  0.38879133451E+03  0.17448447221E+03  0.10758242080E+04  0.10100000352E+00 0. -1.
</event>
<event>
 5   0  0.5281919E-06  0.2534472E+04  0.7818609E-02  0.8390807E-01
       -1   -1    0    0    0  501  0.00000000000E+00  0.00000000000E+00  0.11692212448E+04  0.11692212448E+04  0.50400001928E-02 0. -1.
        1   -1    0    0  501    0  0.00000000000E+00  0.00000000000E+00 -0.13734673022E+04  0.13734673022E+04  0.50400001928E-02 0.  1.
    10030    2    1    2    0    0  0.00000000000E+00  0.00000000000E+00 -0.20424605744E+03  0.25426885471E+04  0.25344720546E+04 0.  0.
        4    1    3    3  502    0 -0.95624631316E+03  0.49876426993E+03 -0.76964668886E+03  0.13249643191E+04  0.12699999809E+01 0.  1.
       -4    1    3    3    0  502  0.95624631316E+03 -0.49876426993E+03  0.56540063141E+03  0.12177242279E+04  0.12699999809E+01 0. -1.
</event>
<event>
 5   0  0.1302063E-05  0.2817036E+04  0.7818609E-02  0.8297999E-01
       -2   -1    0    0    0  501  0.00000000000E+00  0.00000000000E+00  0.68726462882E+03  0.68726462883E+03  0.25500000920E-02 0. -1.
        2   -1    0    0  501    0  0.00000000000E+00  0.00000000000E+00 -0.28866934524E+04  0.28866934524E+04  0.25500000920E-02 0.  1.
    10030    2    1    2    0    0  0.00000000000E+00  0.00000000000E+00 -0.21994288236E+04  0.35739580812E+04  0.28170355370E+04 0.  0.
        2    1    3    3  502    0 -0.35679171898E+03  0.78857975153E+03  0.31005829777E+03  0.91939899025E+03  0.25500000920E-02 0. -1.
       -2    1    3    3    0  502  0.35679171898E+03 -0.78857975153E+03 -0.25094871214E+04  0.26545590910E+04  0.25500000920E-02 0.  1.
</event>
<event>
 5   0  0.1283052E-05  0.2707134E+04  0.7818609E-02  0.8332694E-01
        2   -1    0    0  501    0  0.00000000000E+00  0.00000000000E+00  0.12061260294E+04  0.12061260294E+04  0.25500000920E-02 0.  1.
       -2   -1    0    0    0  501  0.00000000000E+00  0.00000000000E+00 -0.15190317088E+04  0.15190317088E+04  0.25500000920E-02 0. -1.
    10030    2    1    2    0    0  0.00000000000E+00  0.00000000000E+00 -0.31290567941E+03  0.27251577381E+04  0.27071340442E+04 0.  0.
        5    1    3    3  502    0  0.27615762644E+03  0.13083253383E+04  0.55049227547E+02  0.13382939636E+04  0.46999998093E+01 0.  1.
       -5    1    3    3    0  502 -0.27615762644E+03 -0.13083253383E+04 -0.36795490695E+03  0.13868637745E+04  0.46999998093E+01 0. -1.
</event>
<event>
 5   0  0.1350863E-05  0.2793474E+04  0.7818609E-02  0.8305297E-01
        2   -1    0    0  501    0  0.00000000000E+00  0.00000000000E+00  0.13284398056E+04  0.13284398057E+04  0.25500000920E-02 0. -1.
       -2   -1    0    0    0  501  0.00000000000E+00  0.00000000000E+00 -0.14685450205E+04  0.14685450205E+04  0.25500000920E-02 0.  1.
    10030    2    1    2    0    0  0.00000000000E+00  0.00000000000E+00 -0.14010521489E+03  0.27969848262E+04  0.27934735808E+04 0.  0.
        3    1    3    3  502    0  0.30515187246E+03  0.28551095500E+03 -0.14044841573E+04  0.14653361147E+04  0.10100000352E+00 0.  1.
       -3    1    3    3    0  502 -0.30515187246E+03 -0.28551095500E+03  0.12643789424E+04  0.13316487115E+04  0.10100000352E+00 0. -1.
</event>
<event>
 5   0  0.1283052E-05  0.2850276E+04  0.7818609E-02  0.8287827E-01
        2   -1    0    0  501    0  0.00000000000E+00  0.00000000000E+00  0.24689204330E+04  0.24689204330E+04  0.25500000920E-02 0.  1.
       -2   -1    0    0    0  501  0.00000000000E+00  0.00000000000E+00 -0.82263435077E+03  0.82263435077E+03  0.25500000920E-02 0. -1.
    10030    2    1    2    0    0  0.00000000000E+00  0.00000000000E+00  0.16462860822E+04  0.32915547838E+04  0.28502763077E+04 0.  0.
        5    1    3    3  502    0 -0.54047575393E+03  0.54165437560E+03 -0.56528106716E+03  0.95135076500E+03  0.46999998093E+01 0. -1.
       -5    1    3    3    0  502  0.54047575393E+03 -0.54165437560E+03  0.22115671494E+04  0.23402040188E+04  0.46999998093E+01 0.  1.
</event>
<event>
 5   0  0.5281919E-06  0.3251283E+04  0.7818609E-02  0.8175403E-01
       -1   -1    0    0    0  501  0.00000000000E+00  0.00000000000E+00  0.97020179350E+03  0.97020179352E+03  0.50400001928E-02 0. -1.
        1   -1    0    0  501    0  0.00000000000E+00  0.00000000000E+00 -0.27238773650E+04  0.27238773650E+04  0.50400001928E-02 0.  1.
    10030    2    1    2    0    0  0.00000000000E+00  0.00000000000E+00 -0.17536755715E+04  0.36940791586E+04  0.32512832573E+04 0.  0.
        4    1    3    3  502    0  0.15852266131E+04  0.31995228296E+03 -0.10648978861E+04  0.19363166061E+04  0.12699999809E+01 0.  1.
       -4    1    3    3    0  502 -0.15852266131E+04 -0.31995228296E+03 -0.68877768543E+03  0.17577625525E+04  0.12699999809E+01 0. -1.
</event>
<event>
 5   0  0.4764214E-06  0.2806792E+04  0.7818609E-02  0.8301163E-01
        1   -1    0    0  501    0  0.00000000000E+00  0.00000000000E+00  0.11931409387E+04  0.11931409387E+04  0.50400001928E-02 0. -1.
       -1   -1    0    0    0  501  0.00000000000E+00  0.00000000000E+00 -0.16507026289E+04  0.16507026289E+04  0.50400001928E-02 0.  1.
    10030    2    1    2    0    0  0.00000000000E+00  0.00000000000E+00 -0.45756169022E+03  0.28438435676E+04  0.28067923929E+04 0.  0.
        3    1    3    3  502    0 -0.10676647840E+04 -0.75024166598E+03  0.29451563094E+03  0.13377257251E+04  0.10100000352E+00 0. -1.
       -3    1    3    3    0  502  0.10676647840E+04  0.75024166598E+03 -0.75207732116E+03  0.15061178426E+04  0.10100000352E+00 0.  1.
</event>
<event>
 5   0  0.4764214E-06  0.2778973E+04  0.7818609E-02  0.8309826E-01
        1   -1    0    0  501    0  0.00000000000E+00  0.00000000000E+00  0.12058033270E+04  0.12058033270E+04  0.50400001928E-02 0.  1.
       -1   -1    0    0    0  501  0.00000000000E+00  0.00000000000E+00 -0.16011501049E+04  0.16011501049E+04  0.50400001928E-02 0. -1.
    10030    2    1    2    0    0  0.00000000000E+00  0.00000000000E+00 -0.39534677782E+03  0.28069534319E+04  0.27789725609E+04 0.  0.
        3    1    3    3  502    0  0.37051347425E+03  0.73299336430E+03  0.93437563907E+03  0.12440326972E+04  0.10100000352E+00 0.  1.
       -3    1    3    3    0  502 -0.37051347425E+03 -0.73299336430E+03 -0.13297224169E+04  0.15629207347E+04  0.10100000352E+00 0. -1.
</event>
<event>
 5   0  0.5023691E-06  0.2761366E+04  0.7818609E-02  0.8315364E-01
       -1   -1    0    0    0  501  0.00000000000E+00  0.00000000000E+00  0.82948150681E+03  0.82948150683E+03  0.50400001928E-02 0.  1.
        1   -1    0    0  501    0  0.00000000000E+00  0.00000000000E+00 -0.22981645083E+04  0.22981645083E+04  0.50400001928E-02 0. -1.
    10030    2    1    2    0    0  0.00000000000E+00  0.00000000000E+00 -0.14686830015E+04  0.31276460152E+04  0.27613655747E+04 0.  0.
        5    1    3    3  502    0  0.64900176049E+03  0.41472561515E+03  0.56354389400E+03  0.95436074492E+03  0.46999998093E+01 0.  1.
       -5    1    3    3    0  502 -0.64900176049E+03 -0.41472561515E+03 -0.20322268955E+04  0.21732852702E+04  0.46999998093E+01 0. -1.
</event>
<event>
 5   0  0.1302063E-05  0.2114461E+04  0.7818609E-02  0.8554900E-01
        2   -1    0    0  501    0  0.00000000000E+00  0.00000000000E+00  0.19871966832E+04  0.19871966832E+04  0.25500000920E-02 0.  1.
       -2   -1    0    0    0  501  0.00000000000E+00  0.00000000000E+00 -0.56246894082E+03  0.56246894083E+03  0.25500000920E-02 0. -1.
    10030    2    1    2    0    0  0.00000000000E+00  0.00000000000E+00  0.14247277424E+04  0.25496656240E+04  0.21144610790E+04 0.  0.
        2    1    3    3  502    0 -0.30977724153E-01  0.77936169287E+03  0.15737737212E+04  0.17561800519E+04  0.25500000920E-02 0.  1.
       -2    1    3    3    0  502  0.30977724153E-01 -0.77936169287E+03 -0.14904597884E+03  0.79348557207E+03  0.25500000920E-02 0. -1.
</event>
<event>
 5   0  0.1350863E-05  0.2814202E+04  0.7818609E-02  0.8298873E-01
        2   -1    0    0  501    0  0.00000000000E+00  0.00000000000E+00  0.15694397742E+04  0.15694397742E+04  0.25500000920E-02 0.  1.
       -2   -1    0    0    0  501  0.00000000000E+00  0.00000000000E+00 -0.12615542593E+04  0.12615542593E+04  0.25500000920E-02 0. -1.
    10030    2    1    2    0    0  0.00000000000E+00  0.00000000000E+00  0.30788551488E+03  0.28309940335E+04  0.28142021476E+04 0.  0.
        3    1    3    3  502    0 -0.98515999101E+02  0.13731501909E+04  0.44668873932E+03  0.14473346845E+04  0.10100000352E+00 0. -1.
       -3    1    3    3    0  502  0.98515999101E+02 -0.13731501909E+04 -0.13880322444E+03  0.13836593490E+04  0.10100000352E+00 0.  1.
</event>
<event>
 5   0  0.1350863E-05  0.2807315E+04  0.7818609E-02  0.8301001E-01
        2   -1    0    0  501    0  0.00000000000E+00  0.00000000000E+00  0.13131445289E+04  0.13131445289E+04  0.25500000920E-02 0. -1.
       -2   -1    0    0    0  501  0.00000000000E+00  0.00000000000E+00 -0.15004093460E+04  0.15004093460E+04  0.25500000920E-02 0.  1.
    10030    2    1    2    0    0  0.00000000000E+00  0.00000000000E+00 -0.18726481717E+03  0.28135538749E+04  0.28073149619E+04 0.  0.
        3    1    3    3  502    0  0.20003887454E+03 -0.77979381910E+03 -0.12460401361E+04  0.14834790132E+04  0.10100000352E+00 0.  1.
       -3    1    3    3    0  502 -0.20003887454E+03  0.77979381910E+03  0.10587753189E+04  0.13300748617E+04  0.10100000352E+00 0. -1.
</event>
<event>
 5   0  0.5107453E-06  0.2725267E+04  0.7818609E-02  0.8326853E-01
        1   -1    0    0  501    0  0.00000000000E+00  0.00000000000E+00  0.14019472614E+04  0.14019472614E+04  0.50400001928E-02 0. -1.
       -1   -1    0    0    0  501  0.00000000000E+00  0.00000000000E+00 -0.13244220369E+04  0.13244220369E+04  0.50400001928E-02 0.  1.
    10030    2    1    2    0    0  0.00000000000E+00  0.00000000000E+00  0.77525224508E+02  0.27263692983E+04  0.27252668475E+04 0.  0.
        2    1    3    3  502    0 -0.42013850508E+03  0.19746306857E+03  0.13203982729E+04  0.13996283886E+04  0.25500000920E-02 0. -1.
       -2    1    3    3    0  502  0.42013850508E+03 -0.19746306857E+03 -0.12428730484E+04  0.13267409097E+04  0.25500000920E-02 0.  1.
</event>
<event>
 5   0  0.1330962E-05  0.2738361E+04  0.7818609E-02  0.8322664E-01
        2   -1    0    0  501    0  0.00000000000E+00  0.00000000000E+00  0.19345406320E+04  0.19345406320E+04  0.25500000920E-02 0.  1.
       -2   -1    0    0    0  501  0.00000000000E+00  0.00000000000E+00 -0.96904409756E+03  0.96904409756E+03  0.25500000920E-02 0. -1.
    10030    2    1    2    0    0  0.00000000000E+00  0.00000000000E+00  0.96549653445E+03  0.29035847296E+04  0.27383609557E+04 0.  0.
        4    1    3    3  502    0  0.78647991631E+03 -0.95572391361E+03  0.11034707990E+04  0.16581942814E+04  0.12699999809E+01 0.  1.
       -4    1    3    3    0  502 -0.78647991631E+03  0.95572391361E+03 -0.13797426452E+03  0.12453904482E+04  0.12699999809E+01 0. -1.
</event>
<event>
 5   0  0.1350863E-05  0.2781526E+04  0.7818609E-02  0.8309027E-01
        2   -1    0    0  501    0  0.00000000000E+00  0.00000000000E+00  0.14987156949E+04  0.14987156949E+04  0.25500000920E-02 0.  1.
       -2   -1    0    0    0  501  0.00000000000E+00  0.00000000000E+00 -0.12905856933E+04  0.12905856933E+04  0.25500000920E-02 0. -1.
    10030    2    1    2    0    0  0.00000000000E+00  0.00000000000E+00  0.20813000154E+03  0.27893013882E+04  0.27815255053E+04 0.  0.
        3    1    3    3  502    0  0.40810062265E+03 -0.76446030271E+03  0.11948905599E+04  0.14760450985E+04  0.10100000352E+00 0.  1.
       -3    1    3    3    0  502 -0.40810062265E+03  0.76446030271E+03 -0.98676055834E+03  0.13132562897E+04  0.10100000352E+00 0. -1.
</event>
<event>
 5   0  0.1350863E-05  0.2734034E+04  0.7818609E-02  0.8324046E-01
       -2   -1    0    0    0  501  0.00000000000E+00  0.00000000000E+00  0.13018985638E+04  0.13018985638E+04  0.25500000920E-02 0. -1.
        2   -1    0    0  501    0  0.00000000000E+00  0.00000000000E+00 -0.14353928775E+04  0.14353928775E+04  0.25500000920E-02 0.  1.
    10030    2    1    2    0    0  0.00000000000E+00  0.00000000000E+00 -0.13349431365E+03  0.27372914413E+04  0.27340343273E+04 0.  0.
        3    1    3    3  502    0 -0.25882603463E+03  0.48409429000E+03  0.11867018815E+04  0.13075165634E+04  0.10100000352E+00 0. -1.
       -3    1    3    3    0  502  0.25882603463E+03 -0.48409429000E+03 -0.13201961951E+04  0.14297748780E+04  0.10100000352E+00 0.  1.
</event>
<event>
 5   0  0.1350863E-05  0.2631607E+04  0.7818609E-02  0.8357544E-01
        2   -1    0    0  501    0  0.00000000000E+00  0.00000000000E+00  0.20377999627E+04  0.20377999627E+04  0.25500000920E-02 0.  1.
       -2   -1    0    0    0  501  0.00000000000E+00  0.00000000000E+00 -0.84961191755E+03  0.84961191756E+03  0.25500000920E-02 0. -1.
    10030    2    1    2    0    0  0.00000000000E+00  0.00000000000E+00  0.11881880452E+04  0.28874118803E+04  0.26316072153E+04 0.  0.
        3    1    3    3  502    0 -0.53070836575E+03  0.11666231092E+04  0.26735854784E+03  0.13092522490E+04  0.10100000352E+00 0.  1.
       -3    1    3    3    0  502  0.53070836575E+03 -0.11666231092E+04  0.92082949733E+03  0.15781596312E+04  0.10100000352E+00 0. -1.
</event>
<event>
 5   0  0.1283052E-05  0.2396959E+04  0.7818609E-02  0.8440643E-01
        2   -1    0    0  501    0  0.00000000000E+00  0.00000000000E+00  0.17307156543E+04  0.17307156543E+04  0.25500000920E-02 0. -1.
       -2   -1    0    0    0  501  0.00000000000E+00  0.00000000000E+00 -0.82991844869E+03  0.82991844869E+03  0.25500000920E-02 0.  1.
    10030    2    1    2    0    0  0.00000000000E+00  0.00000000000E+00  0.90079720562E+03  0.25606341030E+04  0.23969587822E+04 0.  0.
        5    1    3    3  502    0 -0.24979156440E+03  0.77735796649E+03  0.13876011551E+04  0.16100125122E+04  0.46999998093E+01 0. -1.
       -5    1    3    3    0  502  0.24979156440E+03 -0.77735796649E+03 -0.48680394948E+03  0.95062159083E+03  0.46999998093E+01 0.  1.
</event>
<event>
 5   0  0.4764214E-06  0.2795820E+04  0.7818609E-02  0.8304567E-01
        1   -1    0    0  501    0  0.00000000000E+00  0.00000000000E+00  0.16078721531E+04  0.16078721531E+04  0.50400001928E-02 0.  1.
       -1   -1    0    0    0  501  0.00000000000E+00  0.00000000000E+00 -0.12153656437E+04  0.12153656438E+04  0.50400001928E-02 0. -1.
    10030    2    1    2    0    0  0.00000000000E+00  0.00000000000E+00  0.39250650934E+03  0.28232377969E+04  0.27958201476E+04 0.  0.
        3    1    3    3  502    0  0.13073103679E+03 -0.90880488219E+03 -0.86818817500E+03  0.12636327138E+04  0.10100000352E+00 0. -1.
       -3    1    3    3    0  502 -0.13073103679E+03  0.90880488219E+03  0.12606946843E+04  0.15596050831E+04  0.10100000352E+00 0.  1.
</event>
<event>
 5   0  0.5107453E-06  0.2763721E+04  0.7818609E-02  0.8314621E-01
        1   -1    0    0  501    0  0.00000000000E+00  0.00000000000E+00  0.17203338873E+04  0.17203338873E+04  0.50400001928E-02 0.  1.
       -1   -1    0    0    0  501  0.00000000000E+00  0.00000000000E+00 -0.11099812531E+04  0.11099812532E+04  0.50400001928E-02 0. -1.
    10030    2    1    2    0    0  0.00000000000E+00  0.00000000000E+00  0.61035263414E+03  0.28303151404E+04  0.27637209440E+04 0.  0.
        2    1    3    3  502    0 -0.49707543212E+03 -0.10674870331E+04  0.10457369895E+04  0.15748582165E+04  0.25500000920E-02 0.  1.
       -2    1    3    3    0  502  0.49707543212E+03  0.10674870331E+04 -0.43538435533E+03  0.12554569239E+04  0.25500000920E-02 0. -1.
</event>
<event>
 5   0  0.5281919E-06  0.2426162E+04  0.7818609E-02  0.8429774E-01
       -1   -1    0    0    0  501  0.00000000000E+00  0.00000000000E+00  0.82985401816E+03  0.82985401818E+03  0.50400001928E-02 0. -1.
        1   -1    0    0  501    0  0.00000000000E+00  0.00000000000E+00 -0.17732817584E+04  0.17732817584E+04  0.50400001928E-02 0.  1.
    10030    2    1    2    0    0  0.00000000000E+00  0.00000000000E+00 -0.94342774025E+03  0.26031357766E+04  0.24261615714E+04 0.  0.
        4    1    3    3  502    0  0.75786194800E+03 -0.80877318876E+03 -0.10007249113E+04  0.14932919219E+04  0.12699999809E+01 0.  1.
       -4    1    3    3    0  502 -0.75786194800E+03  0.80877318876E+03  0.57297171021E+02  0.11098438547E+04  0.12699999809E+01 0. -1.
</event>
<event>
 5   0  0.1350863E-05  0.2833801E+04  0.7818609E-02  0.8292851E-01
        2   -1    0    0  501    0  0.00000000000E+00  0.00000000000E+00  0.80261929798E+03  0.80261929798E+03  0.25500000920E-02 0.  1.
       -2   -1    0    0    0  501  0.00000000000E+00  0.00000000000E+00 -0.25013190544E+04  0.25013190544E+04  0.25500000920E-02 0. -1.
    10030    2    1    2    0    0  0.00000000000E+00  0.00000000000E+00 -0.16986997565E+04  0.33039383524E+04  0.28338009411E+04 0.  0.
        3    1    3    3  502    0 -0.75718844699E+03 -0.36278275280E+03 -0.21800443252E+04  0.23361376115E+04  0.10100000352E+00 0. -1.
       -3    1    3    3    0  502  0.75718844699E+03  0.36278275280E+03  0.48134456875E+03  0.96780074088E+03  0.10100000352E+00 0.  1.
</event>
<event>
 5   0  0.1350863E-05  0.2444456E+04  0.7818609E-02  0.8423045E-01
        2   -1    0    0  501    0  0.00000000000E+00  0.00000000000E+00  0.21539865581E+04  0.21539865581E+04  0.25500000920E-02 0.  1.
       -2   -1    0    0    0  501  0.00000000000E+00  0.00000000000E+00 -0.69352372290E+03  0.69352372290E+03  0.25500000920E-02 0. -1.
    10030    2    1    2    0    0  0.00000000000E+00  0.00000000000E+00  0.14604628352E+04  0.28475102810E+04  0.24444555851E+04 0.  0.
        3    1    3    3  502    0 -0.69762634546E+02  0.74357597371E+03 -0.39680257461E+03  0.84570937519E+03  0.10100000352E+00 0. -1.
       -3    1    3    3    0  502  0.69762634546E+02 -0.74357597371E+03  0.18572654098E+04  0.20018009058E+04  0.10100000352E+00 0.  1.
</event>
<event>
 5   0  0.1388269E-05  0.2812552E+04  0.7818609E-02  0.8299382E-01
        2   -1    0    0  501    0  0.00000000000E+00  0.00000000000E+00  0.16699613758E+04  0.16699613758E+04  0.25500000920E-02 0. -1.
       -2   -1    0    0    0  501  0.00000000000E+00  0.00000000000E+00 -0.11842262642E+04  0.11842262642E+04  0.25500000920E-02 0.  1.
    10030    2    1    2    0    0  0.00000000000E+00  0.00000000000E+00  0.48573511154E+03  0.28541876400E+04  0.28125519525E+04 0.  0.
        1    1    3    3  502    0  0.11791676508E+03  0.11330921835E+03  0.16602792025E+04  0.16683136314E+04  0.50400001928E-02 0. -1.
       -1    1    3    3    0  502 -0.11791676508E+03 -0.11330921835E+03 -0.11745440910E+04  0.11858740086E+04  0.50400001928E-02 0.  1.
</event>
<event>
 5   0  0.5217999E-06  0.2705946E+04  0.7818609E-02  0.8333078E-01
       -1   -1    0    0    0  501  0.00000000000E+00  0.00000000000E+00  0.12838240443E+04  0.12838240443E+04  0.50400001928E-02 0. -1.
        1   -1    0    0  501    0  0.00000000000E+00  0.00000000000E+00 -0.14258468044E+04  0.14258468044E+04  0.50400001928E-02 0.  1.
    10030    2    1    2    0    0  0.00000000000E+00  0.00000000000E+00 -0.14202276010E+03  0.27096708487E+04  0.27059463490E+04 0.  0.
        1    1    3    3  502    0 -0.88986343857E+02 -0.48047310078E+03  0.11923762502E+04  0.12886171239E+04  0.50400001928E-02 0. -1.
       -1    1    3    3    0  502  0.88986343857E+02  0.48047310078E+03 -0.13343990103E+04  0.14210537248E+04  0.50400001928E-02 0.  1.
</event>
<event>
 5   0  0.1302063E-05  0.2817800E+04  0.7818609E-02  0.8297763E-01
        2   -1    0    0  501    0  0.00000000000E+00  0.00000000000E+00  0.72954860849E+03  0.72954860849E+03  0.25500000920E-02 0. -1.
       -2   -1    0    0    0  501  0.00000000000E+00  0.00000000000E+00 -0.27208598102E+04  0.27208598102E+04  0.25500000920E-02 0.  1.
    10030    2    1    2    0    0  0.00000000000E+00  0.00000000000E+00 -0.19913112017E+04  0.34504084187E+04  0.28178001976E+04 0.  0.
        2    1    3    3  502    0 -0.89164921941E+03 -0.10866847873E+04 -0.87899092069E+03  0.16578743005E+04  0.25500000920E-02 0.  1.
       -2    1    3    3    0  502  0.89164921941E+03  0.10866847873E+04 -0.11123202810E+04  0.17925341182E+04  0.25500000920E-02 0. -1.
</event>
<event>
 5   0  0.1350863E-05  0.2768840E+04  0.7818609E-02  0.8313008E-01
       -2   -1    0    0    0  501  0.00000000000E+00  0.00000000000E+00  0.12128689905E+04  0.12128689905E+04  0.25500000920E-02 0. -1.
        2   -1    0    0  501    0  0.00000000000E+00  0.00000000000E+00 -0.15802354589E+04  0.15802354589E+04  0.25500000920E-02 0.  1.
    10030    2    1    2    0    0  0.00000000000E+00  0.00000000000E+00 -0.36736646837E+03  0.27931044494E+04  0.27688398912E+04 0.  0.
        3    1    3    3  502    0  0.64098459497E+03  0.11743112790E+04  0.17545687275E+03  0.13493158842E+04  0.10100000352E+00 0.  1.
       -3    1    3    3    0  502 -0.64098459497E+03 -0.11743112790E+04 -0.54282334112E+03  0.14437885652E+04  0.10100000352E+00 0. -1.
</event>
<event>
 5   0  0.5217999E-06  0.2838772E+04  0.7818609E-02  0.8291331E-01
       -1   -1    0    0    0  501  0.00000000000E+00  0.00000000000E+00  0.88079685986E+03  0.88079685988E+03  0.50400001928E-02 0. -1.
        1   -1    0    0  501    0  0.00000000000E+00  0.00000000000E+00 -0.22873112943E+04  0.22873112943E+04  0.50400001928E-02 0.  1.
    10030    2    1    2    0    0  0.00000000000E+00  0.00000000000E+00 -0.14065144344E+04  0.31681081542E+04  0.28387719919E+04 0.  0.
        1    1    3    3  502    0  0.12690410313E+04 -0.34463164251E+03 -0.12994848045E+04  0.18487554910E+04  0.50400001928E-02 0. -1.
       -1    1    3    3    0  502 -0.12690410313E+04  0.34463164251E+03 -0.10702962989E+03  0.13193526632E+04  0.50400001928E-02 0.  1.
</event>
<event>
 5   0  0.1330962E-05  0.2417815E+04  0.7818609E-02  0.8432864E-01
       -2   -1    0    0    0  501  0.00000000000E+00  0.00000000000E+00  0.10659616201E+04  0.10659616201E+04  0.25500000920E-02 0. -1.
        2   -1    0    0  501    0  0.00000000000E+00  0.00000000000E+00 -0.13710224224E+04  0.13710224224E+04  0.25500000920E-02 0.  1.
    10030    2    1    2    0    0  0.00000000000E+00  0.00000000000E+00 -0.30506080230E+03  0.24369840425E+04  0.24178149495E+04 0.  0.
        4    1    3    3  502    0 -0.51205509856E+03  0.70418673345E+03  0.69279416297E+03  0.11126745906E+04  0.12699999809E+01 0. -1.
       -4    1    3    3    0  502  0.51205509856E+03 -0.70418673345E+03 -0.99785496527E+03  0.13243094518E+04  0.12699999809E+01 0.  1.
</event>
<event>
 5   0  0.5023691E-06  0.2834484E+04  0.7818609E-02  0.8292642E-01
       -1   -1    0    0    0  501  0.00000000000E+00  0.00000000000E+00  0.15598081552E+04  0.15598081552E+04  0.50400001928E-02 0.  1.
        1   -1    0    0  501    0  0.00000000000E+00  0.00000000000E+00 -0.12877063408E+04  0.12877063408E+04  0.50400001928E-02 0. -1.
    10030    2    1    2    0    0  0.00000000000E+00  0.00000000000E+00  0.27210181446E+03  0.28475144960E+04  0.28344839756E+04 0.  0.
        5    1    3    3  502    0  0.75080686964E+03  0.96266308471E+03  0.85916659429E+03  0.14928564891E+04  0.46999998093E+01 0.  1.
       -5    1    3    3    0  502 -0.75080686964E+03 -0.96266308471E+03 -0.58706477984E+03  0.13546580070E+04  0.46999998093E+01 0. -1.
</event>
<event>
 5   0  0.1283052E-05  0.2388416E+04  0.7818609E-02  0.8443853E-01
       -2   -1    0    0    0  501  0.00000000000E+00  0.00000000000E+00  0.13812135468E+04  0.13812135468E+04  0.25500000920E-02 0.  1.
        2   -1    0    0  501    0  0.00000000000E+00  0.00000000000E+00 -0.10325211155E+04  0.10325211155E+04  0.25500000920E-02 0. -1.
    10030    2    1    2    0    0  0.00000000000E+00  0.00000000000E+00  0.34869243137E+03  0.24137346623E+04  0.23884155016E+04 0.  0.
        5    1    3    3  502    0 -0.25799351697E+03  0.59431317360E+03 -0.83945378048E+03  0.10604119684E+04  0.46999998093E+01 0. -1.
       -5    1    3    3    0  502  0.25799351697E+03 -0.59431317360E+03  0.11881462118E+04  0.13533226939E+04  0.46999998093E+01 0.  1.
</event>
<event>
 5   0  0.1330962E-05  0.2832922E+04  0.7818609E-02  0.8293120E-01
       -2   -1    0    0    0  501  0.00000000000E+00  0.00000000000E+00  0.12055349156E+04  0.12055349156E+04  0.25500000920E-02 0. -1.
        2   -1    0    0  501    0  0.00000000000E+00  0.00000000000E+00 -0.16642919168E+04  0.16642919168E+04  0.25500000920E-02 0.  1.
    10030    2    1    2    0    0  0.00000000000E+00  0.00000000000E+00 -0.45875700119E+03  0.28698268324E+04  0.28329221771E+04 0.  0.
        4    1    3    3  502    0  0.60261938615E+03  0.12356697558E+04 -0.57489429564E+03  0.14901459439E+04  0.12699999809E+01 0.  1.
       -4    1    3    3    0  502 -0.60261938615E+03 -0.12356697558E+04  0.11613729445E+03  0.13796808885E+04  0.12699999809E+01 0. -1.
</event>
<event>
 5   0  0.1350863E-05  0.2771546E+04  0.7818609E-02  0.8312157E-01
       -2   -1    0    0    0  501  0.00000000000E+00  0.00000000000E+00  0.90496627532E+03  0.90496627532E+03  0.25500000920E-02 0.  1.
        2   -1    0    0  501    0  0.00000000000E+00  0.00000000000E+00 -0.21220314161E+04  0.21220314161E+04  0.25500000920E-02 0. -1.
    10030    2    1    2    0    0  0.00000000000E+00  0.00000000000E+00 -0.12170651408E+04  0.30269976915E+04  0.27715460428E+04 0.  0.
        3    1    3    3  502    0  0.10591055405E+04  0.51078435029E+03 -0.14094447702E+04  0.18355216613E+04  0.10100000352E+00 0.  1.
       -3    1    3    3    0  502 -0.10591055405E+04 -0.51078435029E+03  0.19237962942E+03  0.11914760302E+04  0.10100000352E+00 0. -1.
</event>
<event>
 5   0  0.1350863E-05  0.2878134E+04  0.7818609E-02  0.8279413E-01
        2   -1    0    0  501    0  0.00000000000E+00  0.00000000000E+00  0.24832540720E+04  0.24832540720E+04  0.25500000920E-02 0. -1.
       -2   -1    0    0    0  501  0.00000000000E+00  0.00000000000E+00 -0.83395168228E+03  0.83395168228E+03  0.25500000920E-02 0.  1.
    10030    2    1    2    0    0  0.00000000000E+00  0.00000000000E+00  0.16493023897E+04  0.33172057543E+04  0.28781340559E+04 0.  0.
        3    1    3    3  502    0  0.96218553579E+03  0.66499690326E+03 -0.14163482501E+03  0.11781690543E+04  0.10100000352E+00 0.  1.
       -3    1    3    3    0  502 -0.96218553579E+03 -0.66499690326E+03  0.17909372147E+04  0.21390367000E+04  0.10100000352E+00 0. -1.
</event>
<event>
 5   0  0.1302063E-05  0.2787016E+04  0.7818609E-02  0.8307311E-01
        2   -1    0    0  501    0  0.00000000000E+00  0.00000000000E+00  0.12831955588E+04  0.12831955588E+04  0.25500000920E-02 0. -1.
       -2   -1    0    0    0  501  0.00000000000E+00  0.00000000000E+00 -0.15133037178E+04  0.15133037178E+04  0.25500000920E-02 0.  1.
    10030    2    1    2    0    0  0.00000000000E+00  0.00000000000E+00 -0.23010815898E+03  0.27964992766E+04  0.27870160457E+04 0.  0.
        2    1    3    3  502    0  0.16606246220E+03  0.12148204842E+04 -0.77949990222E+03  0.14529231390E+04  0.25500000920E-02 0.  1.
       -2    1    3    3    0  502 -0.16606246220E+03 -0.12148204842E+04  0.54939174325E+03  0.13435761377E+04  0.25500000920E-02 0. -1.
</event>
<event>
 5   0  0.1350863E-05  0.2803441E+04  0.7818609E-02  0.8302201E-01
        2   -1    0    0  501    0  0.00000000000E+00  0.00000000000E+00  0.18972196605E+04  0.18972196605E+04  0.25500000920E-02 0.  1.
       -2   -1    0    0    0  501  0.00000000000E+00  0.00000000000E+00 -0.10356316552E+04  0.10356316552E+04  0.25500000920E-02 0. -1.
    10030    2    1    2    0    0  0.00000000000E+00  0.00000000000E+00  0.86158800532E+03  0.29328513157E+04  0.28034412690E+04 0.  0.
        3    1    3    3  502    0  0.45137506280E+03  0.12033889757E+04 -0.15443591979E+03  0.12945018106E+04  0.10100000352E+00 0. -1.
       -3    1    3    3    0  502 -0.45137506280E+03 -0.12033889757E+04  0.10160239251E+04  0.16383495051E+04  0.10100000352E+00 0.  1.
</event>
<event>
 5   0  0.5023691E-06  0.2725777E+04  0.7818609E-02  0.8326689E-01
        1   -1    0    0  501    0  0.00000000000E+00  0.00000000000E+00  0.14328537910E+04  0.14328537910E+04  0.50400001928E-02 0. -1.
       -1   -1    0    0    0  501  0.00000000000E+00  0.00000000000E+00 -0.12963396636E+04  0.12963396636E+04  0.50400001928E-02 0.  1.
    10030    2    1    2    0    0  0.00000000000E+00  0.00000000000E+00  0.13651412736E+03  0.27291934546E+04  0.27257771013E+04 0.  0.
        5    1    3    3  502    0  0.47894511704E+03  0.18681191509E+03  0.13320418801E+04  0.14278111840E+04  0.46999998093E+01 0. -1.
       -5    1    3    3    0  502 -0.47894511704E+03 -0.18681191509E+03 -0.11955277528E+04  0.13013822706E+04  0.46999998093E+01 0.  1.
</event>
<event>
 5   0  0.1388269E-05  0.2266770E+04  0.7818609E-02  0.8491140E-01
        2   -1    0    0  501    0  0.00000000000E+00  0.00000000000E+00  0.90299007489E+03  0.90299007489E+03  0.25500000920E-02 0. -1.
       -2   -1    0    0    0  501  0.00000000000E+00  0.00000000000E+00 -0.14225639615E+04  0.14225639615E+04  0.25500000920E-02 0.  1.
    10030    2    1    2    0    0  0.00000000000E+00  0.00000000000E+00 -0.51957388658E+03  0.23255540364E+04  0.22667696293E+04 0.  0.
        1    1    3    3  502    0  0.50202267213E+02 -0.73897105641E+03  0.62034328397E+03  0.96613885122E+03  0.50400001928E-02 0. -1.
       -1    1    3    3    0  502 -0.50202267213E+02  0.73897105641E+03 -0.11399171706E+04  0.13594151851E+04  0.50400001928E-02 0.  1.
</event>
<event>
 5   0  0.4764214E-06  0.2803400E+04  0.7818609E-02  0.8302214E-01
        1   -1    0    0  501    0  0.00000000000E+00  0.00000000000E+00  0.13524415983E+04  0.13524415983E+04  0.50400001928E-02 0. -1.
       -1   -1    0    0    0  501  0.00000000000E+00  0.00000000000E+00 -0.14527526903E+04  0.14527526903E+04  0.50400001928E-02 0.  1.
    10030    2    1    2    0    0  0.00000000000E+00  0.00000000000E+00 -0.10031109197E+03  0.28051942886E+04  0.28034002000E+04 0.  0.
        3    1    3    3  502    0  0.37080964141E+03 -0.16668058229E+03  0.12921502738E+04  0.13545975590E+04  0.10100000352E+00 0. -1.
       -3    1    3    3    0  502 -0.37080964141E+03  0.16668058229E+03 -0.13924613657E+04  0.14505967296E+04  0.10100000352E+00 0.  1.
</event>
<event>
 5   0  0.1330962E-05  0.2778177E+04  0.7818609E-02  0.8310076E-01
       -2   -1    0    0    0  501  0.00000000000E+00  0.00000000000E+00  0.13325411540E+04  0.13325411540E+04  0.25500000920E-02 0.  1.
        2   -1    0    0  501    0  0.00000000000E+00  0.00000000000E+00 -0.14480356196E+04  0.14480356196E+04  0.25500000920E-02 0. -1.
    10030    2    1    2    0    0  0.00000000000E+00  0.00000000000E+00 -0.11549446562E+03  0.27805767737E+04  0.27781771403E+04 0.  0.
        4    1    3    3  502    0 -0.13351276759E+04 -0.12297136095E+03  0.30571595842E+03  0.13751915237E+04  0.12699999809E+01 0. -1.
       -4    1    3    3    0  502  0.13351276759E+04  0.12297136095E+03 -0.42121042404E+03  0.14053852500E+04  0.12699999809E+01 0.  1.
</event>
<event>
 5   0  0.1330962E-05  0.2812638E+04  0.7818609E-02  0.8299356E-01
       -2   -1    0    0    0  501  0.00000000000E+00  0.00000000000E+00  0.93447537313E+03  0.93447537313E+03  0.25500000920E-02 0. -1.
        2   -1    0    0  501    0  0.00000000000E+00  0.00000000000E+00 -0.21164098235E+04  0.21164098235E+04  0.25500000920E-02 0.  1.
    10030    2    1    2    0    0  0.00000000000E+00  0.00000000000E+00 -0.11819344504E+04  0.30508851966E+04  0.28126378078E+04 0.  0.
        4    1    3    3  502    0  0.92948796465E+03 -0.78326321315E+03  0.17625211381E+03  0.12282164134E+04  0.12699999809E+01 0. -1.
       -4    1    3    3    0  502 -0.92948796465E+03  0.78326321315E+03 -0.13581865642E+04  0.18226687833E+04  0.12699999809E+01 0.  1.
</event>
<event>
 5   0  0.4447500E-06  0.2841443E+04  0.7818609E-02  0.8290516E-01
       -3   -1    0    0    0  501  0.00000000000E+00  0.00000000000E+00  0.18831194344E+04  0.18831194371E+04  0.10100000352E+00 0. -1.
        3   -1    0    0  501    0  0.00000000000E+00  0.00000000000E+00 -0.10718646002E+04  0.10718646049E+04  0.10100000352E+00 0.  1.
    10030    2    1    2    0    0  0.00000000000E+00  0.00000000000E+00  0.81125483423E+03  0.29549840421E+04  0.28414426411E+04 0.  0.
        3    1    3    3  502    0 -0.36832383500E+03  0.11837039675E+04  0.11273556618E+04  0.16756337095E+04  0.10100000352E+00 0. -1.
       -3    1    3    3    0  502  0.36832383500E+03 -0.11837039675E+04 -0.31610082752E+03  0.12793503326E+04  0.10100000352E+00 0.  1.
</event>
<event>
 5   0  0.1330962E-05  0.2832762E+04  0.7818609E-02  0.8293169E-01
        2   -1    0    0  501    0  0.00000000000E+00  0.00000000000E+00  0.20390470573E+04  0.20390470573E+04  0.25500000920E-02 0. -1.
       -2   -1    0    0    0  501  0.00000000000E+00  0.00000000000E+00 -0.98385949734E+03  0.98385949734E+03  0.25500000920E-02 0.  1.
    10030    2    1    2    0    0  0.00000000000E+00  0.00000000000E+00  0.10551875600E+04  0.30229065547E+04  0.28327624771E+04 0.  0.
        4    1    3    3  502    0 -0.72003746740E+03  0.11972387993E+04  0.77625753568E+03  0.15982528184E+04  0.12699999809E+01 0.  1.
       -4    1    3    3    0  502  0.72003746740E+03 -0.11972387993E+04  0.27893002432E+03  0.14246537363E+04  0.12699999809E+01 0. -1.
</event>
<event>
 5   0  0.1388269E-05  0.2783430E+04  0.7818609E-02  0.8308431E-01
       -2   -1    0    0    0  501  0.00000000000E+00  0.00000000000E+00  0.82613452388E+03  0.82613452388E+03  0.25500000920E-02 0. -1.
        2   -1    0    0  501    0  0.00000000000E+00  0.00000000000E+00 -0.23444981875E+04  0.23444981875E+04  0.25500000920E-02 0.  1.
    10030    2    1    2    0    0  0.00000000000E+00  0.00000000000E+00 -0.15183636637E+04  0.31706327114E+04  0.27834301816E+04 0.  0.
        1    1    3    3  502    0  0.25543590472E+03 -0.12761278801E+04 -0.19751747597E+03  0.13163445678E+04  0.50400001928E-02 0. -1.
       -1    1    3    3    0  502 -0.25543590472E+03  0.12761278801E+04 -0.13208461877E+04  0.18542881436E+04  0.50400001928E-02 0.  1.
</event>
<event>
 5   0  0.5281919E-06  0.2821443E+04  0.7818609E-02  0.8296642E-01
        1   -1    0    0  501    0  0.00000000000E+00  0.00000000000E+00  0.16425748427E+04  0.16425748427E+04  0.50400001928E-02 0. -1.
       -1   -1    0    0    0  501  0.00000000000E+00  0.00000000000E+00 -0.12115945773E+04  0.12115945773E+04  0.50400001928E-02 0.  1.
    10030    2    1    2    0    0  0.00000000000E+00  0.00000000000E+00  0.43098026541E+03  0.28541694199E+04  0.28214427317E+04 0.  0.
        4    1    3    3  502    0 -0.17028160824E+03 -0.13085773936E+04 -0.28905613595E+03  0.13508981027E+04  0.12699999809E+01 0.  1.
       -4    1    3    3    0  502  0.17028160824E+03  0.13085773936E+04  0.72003640136E+03  0.15032713173E+04  0.12699999809E+01 0. -1.
</event>
<event>
 5   0  0.5023691E-06  0.2783536E+04  0.7818609E-02  0.8308398E-01
        1   -1    0    0  501    0  0.00000000000E+00  0.00000000000E+00  0.18694254867E+04  0.18694254867E+04  0.50400001928E-02 0.  1.
       -1   -1    0    0    0  501  0.00000000000E+00  0.00000000000E+00 -0.10361566624E+04  0.10361566624E+04  0.50400001928E-02 0. -1.
    10030    2    1    2    0    0  0.00000000000E+00  0.00000000000E+00  0.83326882434E+03  0.29055821491E+04  0.27835356458E+04 0.  0.
        5    1    3    3  502    0  0.11871678770E+04  0.60558738445E+03  0.83533493970E+03  0.15728668729E+04  0.46999998093E+01 0.  1.
       -5    1    3    3    0  502 -0.11871678770E+04 -0.60558738445E+03 -0.20661153648E+01  0.13327152762E+04  0.46999998093E+01 0. -1.
</event>
<event>
 5   0  0.1330962E-05  0.2809381E+04  0.7818609E-02  0.8300362E-01
        2   -1    0    0  501    0  0.00000000000E+00  0.00000000000E+00  0.98395780281E+03  0.98395780282E+03  0.25500000920E-02 0.  1.
       -2   -1    0    0    0  501  0.00000000000E+00  0.00000000000E+00 -0.20053254813E+04  0.20053254813E+04  0.25500000920E-02 0. -1.
    10030    2    1    2    0    0  0.00000000000E+00  0.00000000000E+00 -0.10213676785E+04  0.29892832842E+04  0.28093811807E+04 0.  0.
        4    1    3    3  502    0  0.43067165197E+03  0.11490479129E+04  0.21673481531E+03  0.12460998239E+04  0.12699999809E+01 0.  1.
       -4    1    3    3    0  502 -0.43067165197E+03 -0.11490479129E+04 -0.12381024938E+04  0.17431834603E+04  0.12699999809E+01 0. -1.
</event>
<event>
 5   0  0.1388269E-05  0.2753891E+04  0.7818609E-02  0.8317728E-01
       -2   -1    0    0    0  501  0.00000000000E+00  0.00000000000E+00  0.11316930486E+04  0.11316930486E+04  0.25500000920E-02 0.  1.
        2   -1    0    0  501    0  0.00000000000E+00  0.00000000000E+00 -0.16753468428E+04  0.16753468428E+04  0.25500000920E-02 0. -1.
    10030    2    1    2    0    0  0.00000000000E+00  0.00000000000E+00 -0.54365379417E+03  0.28070398914E+04  0.27538906122E+04 0.  0.
        1    1    3    3  502    0  0.52319051134E+03 -0.11234253978E+04 -0.88354723242E+03  0.15219949564E+04  0.50400001928E-02 0. -1.
       -1    1    3    3    0  502 -0.52319051134E+03  0.11234253978E+04  0.33989343825E+03  0.12850449350E+04  0.50400001928E-02 0.  1.
</event>
<event>
 5   0  0.1302063E-05  0.2784914E+04  0.7818609E-02  0.8307967E-01
       -2   -1    0    0    0  501  0.00000000000E+00  0.00000000000E+00  0.10911352941E+04  0.10911352941E+04  0.25500000920E-02 0. -1.
        2   -1    0    0  501    0  0.00000000000E+00  0.00000000000E+00 -0.17769904721E+04  0.17769904721E+04  0.25500000920E-02 0.  1.
    10030    2    1    2    0    0  0.00000000000E+00  0.00000000000E+00 -0.68585517797E+03  0.28681257662E+04  0.27849143767E+04 0.  0.
        2    1    3    3  502    0  0.41870182241E+03  0.12218485448E+03  0.10189672842E+04  0.11083928370E+04  0.25500000920E-02 0. -1.
       -2    1    3    3    0  502 -0.41870182241E+03 -0.12218485448E+03 -0.17048224622E+04  0.17597329293E+04  0.25500000920E-02 0.  1.
</event>
<event>
 5   0  0.1283052E-05  0.2885519E+04  0.7818609E-02  0.8277199E-01
        2   -1    0    0  501    0  0.00000000000E+00  0.00000000000E+00  0.16382212287E+04  0.16382212287E+04  0.25500000920E-02 0.  1.
       -2   -1    0    0    0  501  0.00000000000E+00  0.00000000000E+00 -0.12706192524E+04  0.12706192524E+04  0.25500000920E-02 0. -1.
    10030    2    1    2    0    0  0.00000000000E+00  0.00000000000E+00  0.36760197632E+03  0.29088404811E+04  0.28855193175E+04 0.  0.
        5    1    3    3  502    0 -0.14058085326E+04  0.31408727211E+03  0.10199775885E+03  0.14440824345E+04  0.46999998093E+01 0. -1.
       -5    1    3    3    0  502  0.14058085326E+04 -0.31408727211E+03  0.26560421746E+03  0.14647580466E+04  0.46999998093E+01 0.  1.
</event>
<event>
 5   0  0.1302063E-05  0.2777139E+04  0.7818609E-02  0.8310401E-01
       -2   -1    0    0    0  501  0.00000000000E+00  0.00000000000E+00  0.26877247076E+04  0.26877247076E+04  0.25500000920E-02 0.  1.
        2   -1    0    0  501    0  0.00000000000E+00  0.00000000000E+00 -0.71738220460E+03  0.71738220461E+03  0.25500000920E-02 0. -1.
    10030    2    1    2    0    0  0.00000000000E+00  0.00000000000E+00  0.19703425030E+04  0.34051069122E+04  0.27771394464E+04 0.  0.
        2    1    3    3  502    0  0.11755478037E+04  0.39911464184E+03  0.17478542581E+04  0.21438749133E+04  0.25500000920E-02 0.  1.
       -2    1    3    3    0  502 -0.11755478037E+04 -0.39911464184E+03  0.22248824490E+03  0.12612319990E+04  0.25500000920E-02 0. -1.
</event>
<event>
 5   0  0.4764214E-06  0.2808415E+04  0.7818609E-02  0.8300660E-01
       -1   -1    0    0    0  501  0.00000000000E+00  0.00000000000E+00  0.97668557822E+03  0.97668557824E+03  0.50400001928E-02 0. -1.
        1   -1    0    0  501    0  0.00000000000E+00  0.00000000000E+00 -0.20188680529E+04  0.20188680529E+04  0.50400001928E-02 0.  1.
    10030    2    1    2    0    0  0.00000000000E+00  0.00000000000E+00 -0.10421824747E+04  0.29955536312E+04  0.28084154334E+04 0.  0.
        3    1    3    3  502    0  0.19298345320E+03  0.12297078253E+04 -0.12143015774E+04  0.17389514887E+04  0.10100000352E+00 0.  1.
       -3    1    3    3    0  502 -0.19298345320E+03 -0.12297078253E+04  0.17211910276E+03  0.12566021425E+04  0.10100000352E+00 0. -1.
</event>
<event>
 5   0  0.1388269E-05  0.2792833E+04  0.7818609E-02  0.8305497E-01
        2   -1    0    0  501    0  0.00000000000E+00  0.00000000000E+00  0.23411731625E+04  0.23411731625E+04  0.25500000920E-02 0.  1.
       -2   -1    0    0    0  501  0.00000000000E+00  0.00000000000E+00 -0.83290663393E+03  0.83290663394E+03  0.25500000920E-02 0. -1.
    10030    2    1    2    0    0  0.00000000000E+00  0.00000000000E+00  0.15082665286E+04  0.31740797965E+04  0.27928327256E+04 0.  0.
        1    1    3    3  502    0 -0.54671083949E+03  0.12569401685E+04  0.45090179853E+03  0.14429496738E+04  0.50400001928E-02 0. -1.
       -1    1    3    3    0  502  0.54671083949E+03 -0.12569401685E+04  0.10573647300E+04  0.17311301227E+04  0.50400001928E-02 0.  1.
</event>
<event>
 5   0  0.5107453E-06  0.2651059E+04  0.7818609E-02  0.8351061E-01
        1   -1    0    0  501    0  0.00000000000E+00  0.00000000000E+00  0.31459235718E+04  0.31459235718E+04  0.50400001928E-02 0. -1.
       -1   -1    0    0    0  501  0.00000000000E+00  0.00000000000E+00 -0.55850967617E+03  0.55850967619E+03  0.50400001928E-02 0.  1.
    10030    2    1    2    0    0  0.00000000000E+00  0.00000000000E+00  0.25874138956E+04  0.37044332480E+04  0.26510592263E+04 0.  0.
        2    1    3    3  502    0  0.10675407625E+04  0.22619419459E+03  0.23451737935E+04  0.25866285422E+04  0.25500000920E-02 0. -1.
       -2    1    3    3    0  502 -0.10675407625E+04 -0.22619419459E+03  0.24224010210E+03  0.11178047058E+04  0.25500000920E-02 0.  1.
</event>
<event>
 5   0  0.5281919E-06  0.2793019E+04  0.7818609E-02  0.8305439E-01
        1   -1    0    0  501    0  0.00000000000E+00  0.00000000000E+00  0.13195783296E+04  0.13195783296E+04  0.50400001928E-02 0. -1.
       -1   -1    0    0    0  501  0.00000000000E+00  0.00000000000E+00 -0.14779257333E+04  0.14779257333E+04  0.50400001928E-02 0.  1.
    10030    2    1    2    0    0  0.00000000000E+00  0.00000000000E+00 -0.15834740376E+03  0.27975040629E+04  0.27930189906E+04 0.  0.
        4    1    3    3  502    0 -0.45581840860E+03 -0.68903085952E+03  0.10485575931E+04  0.13349189436E+04  0.12699999809E+01 0. -1.
       -4    1    3    3    0  502  0.45581840860E+03  0.68903085952E+03 -0.12069049969E+04  0.14625851193E+04  0.12699999809E+01 0.  1.
</event>
<event>
 5   0  0.1350863E-05  0.2802129E+04  0.7818609E-02  0.8302608E-01
       -2   -1    0    0    0  501  0.00000000000E+00  0.00000000000E+00  0.15334388047E+04  0.15334388047E+04  0.25500000920E-02 0.  1.
        2   -1    0    0  501    0  0.00000000000E+00  0.00000000000E+00 -0.12801176502E+04  0.12801176502E+04  0.25500000920E-02 0. -1.
    10030    2    1    2    0    0  0.00000000000E+00  0.00000000000E+00  0.25332115450E+03  0.28135564548E+04  0.28021292470E+04 0.  0.
        3    1    3    3  502    0  0.45409306769E+03 -0.37304261159E+03 -0.11503833239E+04  0.12917984001E+04  0.10100000352E+00 0. -1.
       -3    1    3    3    0  502 -0.45409306769E+03  0.37304261159E+03  0.14037044784E+04  0.15217580548E+04  0.10100000352E+00 0.  1.
</event>
<event>
 5   0  0.1283052E-05  0.2733475E+04  0.7818609E-02  0.8324225E-01
        2   -1    0    0  501    0  0.00000000000E+00  0.00000000000E+00  0.13969967064E+04  0.13969967064E+04  0.25500000920E-02 0. -1.
       -2   -1    0    0    0  501  0.00000000000E+00  0.00000000000E+00 -0.13371333200E+04  0.13371333200E+04  0.25500000920E-02 0.  1.
    10030    2    1    2    0    0  0.00000000000E+00  0.00000000000E+00  0.59863386422E+02  0.27341300265E+04  0.27334745978E+04 0.  0.
        5    1    3    3  502    0  0.29343080523E+03  0.47794908424E+03  0.12765899578E+04  0.13943604179E+04  0.46999998093E+01 0. -1.
       -5    1    3    3    0  502 -0.29343080523E+03 -0.47794908424E+03 -0.12167265714E+04  0.13397696086E+04  0.46999998093E+01 0.  1.
</event>
<event>
 5   0  0.4447500E-06  0.2603447E+04  0.7818609E-02  0.8367031E-01
       -3   -1    0    0    0  501  0.00000000000E+00  0.00000000000E+00  0.15599386247E+04  0.15599386280E+04  0.10100000352E+00 0.  1.
        3   -1    0    0  501    0  0.00000000000E+00  0.00000000000E+00 -0.10862504923E+04  0.10862504970E+04  0.10100000352E+00 0. -1.
    10030    2    1    2    0    0  0.00000000000E+00  0.00000000000E+00  0.47368813240E+03  0.26461891250E+04  0.26034470301E+04 0.  0.
        5    1    3    3  502    0  0.10961345808E+04 -0.56237195131E+03 -0.19040058197E+03  0.12466144963E+04  0.46999998093E+01 0. -1.
       -5    1    3    3    0  502 -0.10961345808E+04  0.56237195131E+03  0.66408871437E+03  0.13995746287E+04  0.46999998093E+01 0.  1.
</event>
<event>
 5   0  0.1283052E-05  0.2771809E+04  0.7818609E-02  0.8312074E-01
       -2   -1    0    0    0  501  0.00000000000E+00  0.00000000000E+00  0.86639048058E+03  0.86639048058E+03  0.25500000920E-02 0. -1.
        2   -1    0    0  501    0  0.00000000000E+00  0.00000000000E+00 -0.22169342624E+04  0.22169342624E+04  0.25500000920E-02 0.  1.
    10030    2    1    2    0    0  0.00000000000E+00  0.00000000000E+00 -0.13505437818E+04  0.30833247429E+04  0.27718086088E+04 0.  0.
        5    1    3    3  502    0  0.65630343966E+03  0.13332102442E+03 -0.20249786668E+04  0.21328547516E+04  0.46999998093E+01 0.  1.
       -5    1    3    3    0  502 -0.65630343966E+03 -0.13332102442E+03  0.67443488497E+03  0.95046999138E+03  0.46999998093E+01 0. -1.
</event>
<event>
 5   0  0.1388269E-05  0.2800520E+04  0.7818609E-02  0.8303107E-01
        2   -1    0    0  501    0  0.00000000000E+00  0.00000000000E+00  0.94890465339E+03  0.94890465339E+03  0.25500000920E-02 0.  1.
       -2   -1    0    0    0  501  0.00000000000E+00  0.00000000000E+00 -0.20663063525E+04  0.20663063525E+04  0.25500000920E-02 0. -1.
    10030    2    1    2    0    0  0.00000000000E+00  0.00000000000E+00 -0.11174016991E+04  0.30152110059E+04  0.28005197469E+04 0.  0.
        1    1    3    3  502    0  0.11056889257E+04 -0.65297642873E+03 -0.11598997365E+04  0.17304027322E+04  0.50400001928E-02 0. -1.
       -1    1    3    3    0  502 -0.11056889257E+04  0.65297642873E+03  0.42498037362E+02  0.12848082737E+04  0.50400001928E-02 0.  1.
</event>
<event>
 5   0  0.5281919E-06  0.2811457E+04  0.7818609E-02  0.8299720E-01
        1   -1    0    0  501    0  0.00000000000E+00  0.00000000000E+00  0.15340582838E+04  0.15340582838E+04  0.50400001928E-02 0. -1.
       -1   -1    0    0    0  501  0.00000000000E+00  0.00000000000E+00 -0.12881344259E+04  0.12881344259E+04  0.50400001928E-02 0.  1.
    10030    2    1    2    0    0  0.00000000000E+00  0.00000000000E+00  0.24592385791E+03  0.28221927096E+04  0.28114574773E+04 0.  0.
        4    1    3    3  502    0  0.11757865552E+04  0.57672560104E+03 -0.38985589628E+03  0.13664097756E+04  0.12699999809E+01 0.  1.
       -4    1    3    3    0  502 -0.11757865552E+04 -0.57672560104E+03  0.63577975419E+03  0.14557829340E+04  0.12699999809E+01 0. -1.
</event>
<event>
 5   0  0.5023691E-06  0.2360377E+04  0.7818609E-02  0.8454489E-01
        1   -1    0    0  501    0  0.00000000000E+00  0.00000000000E+00  0.18749863383E+04  0.18749863383E+04  0.50400001928E-02 0.  1.
       -1   -1    0    0    0  501  0.00000000000E+00  0.00000000000E+00 -0.74285578151E+03  0.74285578153E+03  0.50400001928E-02 0. -1.
    10030    2    1    2    0    0  0.00000000000E+00  0.00000000000E+00  0.11321305568E+04  0.26178421199E+04  0.23603766155E+04 0.  0.
        5    1    3    3  502    0 -0.36800074067E+03 -0.11209679866E+04  0.59799015776E+03  0.13227275195E+04  0.46999998093E+01 0.  1.
       -5    1    3    3    0  502  0.36800074067E+03  0.11209679866E+04  0.53414039905E+03  0.12951146003E+04  0.46999998093E+01 0. -1.
</event>
<event>
 5   0  0.1283052E-05  0.2796706E+04  0.7818609E-02  0.8304292E-01
       -2   -1    0    0    0  501  0.00000000000E+00  0.00000000000E+00  0.12777539387E+04  0.12777539387E+04  0.25500000920E-02 0. -1.
        2   -1    0    0  501    0  0.00000000000E+00  0.00000000000E+00 -0.15303342607E+04  0.15303342607E+04  0.25500000920E-02 0.  1.
    10030    2    1    2    0    0  0.00000000000E+00  0.00000000000E+00 -0.25258032202E+03  0.28080881994E+04  0.27967056542E+04 0.  0.
        5    1    3    3  502    0  0.75271615114E+03 -0.11252082640E+04 -0.47799180914E+03  0.14356787597E+04  0.46999998093E+01 0.  1.
       -5    1    3    3    0  502 -0.75271615114E+03  0.11252082640E+04  0.22541148713E+03  0.13724094397E+04  0.46999998093E+01 0. -1.
</event>
<event>
 5   0  0.1302063E-05  0.2806205E+04  0.7818609E-02  0.8301345E-01
        2   -1    0    0  501    0  0.00000000000E+00  0.00000000000E+00  0.22698977754E+04  0.22698977754E+04  0.25500000920E-02 0.  1.
       -2   -1    0    0    0  501  0.00000000000E+00  0.00000000000E+00 -0.86730627798E+03  0.86730627799E+03  0.25500000920E-02 0. -1.
    10030    2    1    2    0    0  0.00000000000E+00  0.00000000000E+00  0.14025914975E+04  0.31372040534E+04  0.28062049754E+04 0.  0.
        2    1    3    3  502    0  0.99216675482E+03  0.34616933320E+03 -0.33814076112E+03  0.11038873362E+04  0.25500000920E-02 0. -1.
       -2    1    3    3    0  502 -0.99216675482E+03 -0.34616933320E+03  0.17407322586E+04  0.20333167173E+04  0.25500000920E-02 0.  1.
</event>
<event>
 5   0  0.1350863E-05  0.2803706E+04  0.7818609E-02  0.8302119E-01
        2   -1    0    0  501    0  0.00000000000E+00  0.00000000000E+00  0.86160799855E+03  0.86160799855E+03  0.25500000920E-02 0.  1.
       -2   -1    0    0    0  501  0.00000000000E+00  0.00000000000E+00 -0.22808422550E+04  0.22808422550E+04  0.25500000920E-02 0. -1.
    10030    2    1    2    0    0  0.00000000000E+00  0.00000000000E+00 -0.14192342565E+04  0.31424502536E+04  0.28037060690E+04 0.  0.
        3    1    3    3  502    0 -0.27610364387E+03  0.92302439102E+03 -0.18509756822E+04  0.20867003222E+04  0.10100000352E+00 0. -1.
       -3    1    3    3    0  502  0.27610364387E+03 -0.92302439102E+03  0.43174142574E+03  0.10557499313E+04  0.10100000352E+00 0.  1.
</event>
<event>
 5   0  0.5217999E-06  0.2790862E+04  0.7818609E-02  0.8306111E-01
        1   -1    0    0  501    0  0.00000000000E+00  0.00000000000E+00  0.13795863163E+04  0.13795863163E+04  0.50400001928E-02 0. -1.
       -1   -1    0    0    0  501  0.00000000000E+00  0.00000000000E+00 -0.14114577673E+04  0.14114577673E+04  0.50400001928E-02 0.  1.
    10030    2    1    2    0    0  0.00000000000E+00  0.00000000000E+00 -0.31871451007E+02  0.27910440837E+04  0.27908621047E+04 0.  0.
        1    1    3    3  502    0 -0.10874456835E+04 -0.71784904938E+03 -0.51535035570E+03  0.14012249503E+04  0.50400001928E-02 0.  1.
       -1    1    3    3    0  502  0.10874456835E+04  0.71784904938E+03  0.48347890469E+03  0.13898191334E+04  0.50400001928E-02 0. -1.
</event>
<event>
 5   0  0.1350863E-05  0.2943968E+04  0.7818609E-02  0.8259915E-01
        2   -1    0    0  501    0  0.00000000000E+00  0.00000000000E+00  0.29276730661E+04  0.29276730661E+04  0.25500000920E-02 0. -1.
       -2   -1    0    0    0  501  0.00000000000E+00  0.00000000000E+00 -0.74008857385E+03  0.74008857386E+03  0.25500000920E-02 0.  1.
    10030    2    1    2    0    0  0.00000000000E+00  0.00000000000E+00  0.21875844922E+04  0.36677616399E+04  0.29439683315E+04 0.  0.
        3    1    3    3  502    0 -0.45199365458E+03  0.13929637153E+03  0.28304264581E+04  0.28696717038E+04  0.10100000352E+00 0. -1.
       -3    1    3    3    0  502  0.45199365458E+03 -0.13929637153E+03 -0.64284196584E+03  0.79808993613E+03  0.10100000352E+00 0.  1.
</event>
<event>
 5   0  0.1283052E-05  0.2813819E+04  0.7818609E-02  0.8298991E-01
        2   -1    0    0  501    0  0.00000000000E+00  0.00000000000E+00  0.22307851778E+04  0.22307851778E+04  0.25500000920E-02 0.  1.
       -2   -1    0    0    0  501  0.00000000000E+00  0.00000000000E+00 -0.88730852638E+03  0.88730852638E+03  0.25500000920E-02 0. -1.
    10030    2    1    2    0    0  0.00000000000E+00  0.00000000000E+00  0.13434766514E+04  0.31180937042E+04  0.28138192613E+04 0.  0.
        5    1    3    3  502    0 -0.57106935712E+03  0.12735536225E+04  0.86783007295E+03  0.16435358729E+04  0.46999998093E+01 0. -1.
       -5    1    3    3    0  502  0.57106935712E+03 -0.12735536225E+04  0.47564657845E+03  0.14745578312E+04  0.46999998093E+01 0.  1.
</event>
<event>
 5   0  0.5217999E-06  0.2807720E+04  0.7818609E-02  0.8300876E-01
        1   -1    0    0  501    0  0.00000000000E+00  0.00000000000E+00  0.10693984766E+04  0.10693984766E+04  0.50400001928E-02 0. -1.
       -1   -1    0    0    0  501  0.00000000000E+00  0.00000000000E+00 -0.18429266510E+04  0.18429266510E+04  0.50400001928E-02 0.  1.
    10030    2    1    2    0    0  0.00000000000E+00  0.00000000000E+00 -0.77352817437E+03  0.29123251276E+04  0.28077200381E+04 0.  0.
        1    1    3    3  502    0 -0.14167772964E+03 -0.13615278424E+04 -0.70980289859E+03  0.15419632938E+04  0.50400001928E-02 0.  1.
       -1    1    3    3    0  502  0.14167772964E+03  0.13615278424E+04 -0.63725275779E+02  0.13703618338E+04  0.50400001928E-02 0. -1.
</event>
<event>
 5   0  0.5107453E-06  0.2698820E+04  0.7818609E-02  0.8335388E-01
        1   -1    0    0  501    0  0.00000000000E+00  0.00000000000E+00  0.89742588150E+03  0.89742588152E+03  0.50400001928E-02 0.  1.
       -1   -1    0    0    0  501  0.00000000000E+00  0.00000000000E+00 -0.20290342089E+04  0.20290342089E+04  0.50400001928E-02 0. -1.
    10030    2    1    2    0    0  0.00000000000E+00  0.00000000000E+00 -0.11316083274E+04  0.29264600904E+04  0.26988203449E+04 0.  0.
        2    1    3    3  502    0  0.13203861675E+04  0.15527957633E+03 -0.31528358070E+03  0.13663583404E+04  0.25500000920E-02 0.  1.
       -2    1    3    3    0  502 -0.13203861675E+04 -0.15527957633E+03 -0.81632474672E+03  0.15601017500E+04  0.25500000920E-02 0. -1.
</event>
<event>
 5   0  0.1330962E-05  0.2847240E+04  0.7818609E-02  0.8288751E-01
       -2   -1    0    0    0  501  0.00000000000E+00  0.00000000000E+00  0.13607473938E+04  0.13607473938E+04  0.25500000920E-02 0.  1.
        2   -1    0    0  501    0  0.00000000000E+00  0.00000000000E+00 -0.14893971757E+04  0.14893971757E+04  0.25500000920E-02 0. -1.
    10030    2    1    2    0    0  0.00000000000E+00  0.00000000000E+00 -0.12864978185E+03  0.28501445695E+04  0.28472395932E+04 0.  0.
        4    1    3    3  502    0 -0.13145051289E+04 -0.43601712066E+03  0.26564311194E+03  0.14101781941E+04  0.12699999809E+01 0.  1.
       -4    1    3    3    0  502  0.13145051289E+04  0.43601712066E+03 -0.39429289379E+03  0.14399663754E+04  0.12699999809E+01 0. -1.
</event>
<event>
 5   0  0.1330962E-05  0.2833368E+04  0.7818609E-02  0.8292983E-01
       -2   -1    0    0    0  501  0.00000000000E+00  0.00000000000E+00  0.14064528275E+04  0.14064528275E+04  0.25500000920E-02 0. -1.
        2   -1    0    0  501    0  0.00000000000E+00  0.00000000000E+00 -0.14269893350E+04  0.14269893350E+04  0.25500000920E-02 0.  1.
    10030    2    1    2    0    0  0.00000000000E+00  0.00000000000E+00 -0.20536507435E+02  0.28334421625E+04  0.28333677382E+04 0.  0.
        4    1    3    3  502    0  0.70527388018E+03 -0.10608030509E+03  0.12138257007E+04  0.14078489698E+04  0.12699999809E+01 0. -1.
       -4    1    3    3    0  502 -0.70527388018E+03  0.10608030509E+03 -0.12343622082E+04  0.14255931927E+04  0.12699999809E+01 0.  1.
</event>
<event>
 5   0  0.1302063E-05  0.2787287E+04  0.7818609E-02  0.8307226E-01
       -2   -1    0    0    0  501  0.00000000000E+00  0.00000000000E+00  0.16226231555E+04  0.16226231555E+04  0.25500000920E-02 0. -1.
        2   -1    0    0  501    0  0.00000000000E+00  0.00000000000E+00 -0.11969768003E+04  0.11969768003E+04  0.25500000920E-02 0.  1.
    10030    2    1    2    0    0  0.00000000000E+00  0.00000000000E+00  0.42564635524E+03  0.28195999558E+04  0.27872870486E+04 0.  0.
        2    1    3    3  502    0  0.25018804100E+02 -0.57752935296E+03 -0.10699772840E+04  0.12161486268E+04  0.25500000920E-02 0.  1.
       -2    1    3    3    0  502 -0.25018804100E+02  0.57752935296E+03  0.14956236393E+04  0.16034513290E+04  0.25500000920E-02 0. -1.
</event>
<event>
 5   0  0.1388269E-05  0.2893177E+04  0.7818609E-02  0.8274910E-01
        2   -1    0    0  501    0  0.00000000000E+00  0.00000000000E+00  0.21758340265E+04  0.21758340265E+04  0.25500000920E-02 0.  1.
       -2   -1    0    0    0  501  0.00000000000E+00  0.00000000000E+00 -0.96175457639E+03  0.96175457640E+03  0.25500000920E-02 0. -1.
    10030    2    1    2    0    0  0.00000000000E+00  0.00000000000E+00  0.12140794501E+04  0.31375886029E+04  0.28931770305E+04 0.  0.
        1    1    3    3  502    0 -0.96799133874E+03 -0.53569548427E+03 -0.40370449057E+03  0.11776901967E+04  0.50400001928E-02 0. -1.
       -1    1    3    3    0  502  0.96799133874E+03  0.53569548427E+03  0.16177839406E+04  0.19598984061E+04  0.50400001928E-02 0.  1.
</event>
<event>
 5   0  0.1330962E-05  0.2761240E+04  0.7818609E-02  0.8315404E-01
       -2   -1    0    0    0  501  0.00000000000E+00  0.00000000000E+00  0.84631802259E+03  0.84631802260E+03  0.25500000920E-02 0. -1.
        2   -1    0    0  501    0  0.00000000000E+00  0.00000000000E+00 -0.22522396321E+04  0.22522396321E+04  0.25500000920E-02 0.  1.
    10030    2    1    2    0    0  0.00000000000E+00  0.00000000000E+00 -0.14059216095E+04  0.30985576547E+04  0.27612395708E+04 0.  0.
        4    1    3    3  502    0  0.70124032292E+03  0.10551373715E+03  0.62633366660E+03  0.94613245057E+03  0.12699999809E+01 0. -1.
       -4    1    3    3    0  502 -0.70124032292E+03 -0.10551373715E+03 -0.20322552761E+04  0.21524252041E+04  0.12699999809E+01 0.  1.
</event>
<event>
 5   0  0.1283052E-05  0.2797570E+04  0.7818609E-02  0.8304023E-01
       -2   -1    0    0    0  501  0.00000000000E+00  0.00000000000E+00  0.18127070265E+04  0.18127070265E+04  0.25500000920E-02 0.  1.
        2   -1    0    0  501    0  0.00000000000E+00  0.00000000000E+00 -0.10793797198E+04  0.10793797198E+04  0.25500000920E-02 0. -1.
    10030    2    1    2    0    0  0.00000000000E+00  0.00000000000E+00  0.73332730667E+03  0.28920867464E+04  0.27975698043E+04 0.  0.
        5    1    3    3  502    0  0.62673311943E+03 -0.65461273076E+03  0.14681496629E+04  0.17253398949E+04  0.46999998093E+01 0.  1.
       -5    1    3    3    0  502 -0.62673311943E+03  0.65461273076E+03 -0.73482235620E+03  0.11667468515E+04  0.46999998093E+01 0. -1.
</event>
<event>
 5   0  0.4764214E-06  0.2890029E+04  0.7818609E-02  0.8275850E-01
        1   -1    0    0  501    0  0.00000000000E+00  0.00000000000E+00  0.73259562429E+03  0.73259562431E+03  0.50400001928E-02 0.  1.
       -1   -1    0    0    0  501  0.00000000000E+00  0.00000000000E+00 -0.28502320698E+04  0.28502320698E+04  0.50400001928E-02 0. -1.
    10030    2    1    2    0    0  0.00000000000E+00  0.00000000000E+00 -0.21176364455E+04  0.35828276941E+04  0.28900294411E+04 0.  0.
        3    1    3    3  502    0  0.70987613488E+03  0.69979198686E+03  0.23811781765E+03  0.10248575789E+04  0.10100000352E+00 0.  1.
       -3    1    3    3    0  502 -0.70987613488E+03 -0.69979198686E+03 -0.23557542631E+04  0.25579701152E+04  0.10100000352E+00 0. -1.
</event>
<event>
 5   0  0.4764214E-06  0.2716091E+04  0.7818609E-02  0.8329803E-01
       -1   -1    0    0    0  501  0.00000000000E+00  0.00000000000E+00  0.90283110437E+03  0.90283110439E+03  0.50400001928E-02 0.  1.
        1   -1    0    0  501    0  0.00000000000E+00  0.00000000000E+00 -0.20427828464E+04  0.20427828464E+04  0.50400001928E-02 0. -1.
    10030    2    1    2    0    0  0.00000000000E+00  0.00000000000E+00 -0.11399517420E+04  0.29456139508E+04  0.27160912306E+04 0.  0.
        3    1    3    3  502    0  0.85633434794E+03 -0.98266875801E+03 -0.98342898113E+03  0.16328132087E+04  0.10100000352E+00 0. -1.
       -3    1    3    3    0  502 -0.85633434794E+03  0.98266875801E+03 -0.15652276086E+03  0.13128007420E+04  0.10100000352E+00 0.  1.
</event>
<event>
 5   0  0.5281919E-06  0.2824073E+04  0.7818609E-02  0.8295833E-01
       -1   -1    0    0    0  501  0.00000000000E+00  0.00000000000E+00  0.15457241952E+04  0.15457241952E+04  0.50400001928E-02 0.  1.
        1   -1    0    0  501    0  0.00000000000E+00  0.00000000000E+00 -0.12899114315E+04  0.12899114315E+04  0.50400001928E-02 0. -1.
    10030    2    1    2    0    0  0.00000000000E+00  0.00000000000E+00  0.25581276375E+03  0.28356356267E+04  0.28240731643E+04 0.  0.
        4    1    3    3  502    0  0.17246707097E+02 -0.15229129115E+03 -0.12815342508E+04  0.12906671667E+04  0.12699999809E+01 0. -1.
       -4    1    3    3    0  502 -0.17246707097E+02  0.15229129115E+03  0.15373470146E+04  0.15449684600E+04  0.12699999809E+01 0.  1.
</event>
<event>
 5   0  0.5217999E-06  0.2811044E+04  0.7818609E-02  0.8299848E-01
        1   -1    0    0  501    0  0.00000000000E+00  0.00000000000E+00  0.19579015469E+04  0.19579015469E+04  0.50400001928E-02 0. -1.
       -1   -1    0    0    0  501  0.00000000000E+00  0.00000000000E+00 -0.10089841763E+04  0.10089841763E+04  0.50400001928E-02 0.  1.
    10030    2    1    2    0    0  0.00000000000E+00  0.00000000000E+00  0.94891737058E+03  0.29668857232E+04  0.28110437063E+04 0.  0.
        1    1    3    3  502    0  0.10915518527E+04 -0.75399806221E+03  0.96440665246E+03  0.16401459436E+04  0.50400001928E-02 0. -1.
       -1    1    3    3    0  502 -0.10915518527E+04  0.75399806221E+03 -0.15489281878E+02  0.13267397796E+04  0.50400001928E-02 0.  1.
</event>
<event>
 5   0  0.1388269E-05  0.2808328E+04  0.7818609E-02  0.8300688E-01
       -2   -1    0    0    0  501  0.00000000000E+00  0.00000000000E+00  0.12808622347E+04  0.12808622347E+04  0.25500000920E-02 0.  1.
        2   -1    0    0  501    0  0.00000000000E+00  0.00000000000E+00 -0.15393350645E+04  0.15393350645E+04  0.25500000920E-02 0. -1.
    10030    2    1    2    0    0  0.00000000000E+00  0.00000000000E+00 -0.25847282975E+03  0.28201972992E+04  0.28083277235E+04 0.  0.
        1    1    3    3  502    0 -0.26917521735E+03  0.11670430066E+04 -0.86529507883E+03  0.14775588822E+04  0.50400001928E-02 0. -1.
       -1    1    3    3    0  502  0.26917521735E+03 -0.11670430066E+04  0.60682224908E+03  0.13426384170E+04  0.50400001928E-02 0.  1.
</event>
<event>
 5   0  0.1330962E-05  0.3035387E+04  0.7818609E-02  0.8233697E-01
        2   -1    0    0  501    0  0.00000000000E+00  0.00000000000E+00  0.14060624647E+04  0.14060624647E+04  0.25500000920E-02 0.  1.
       -2   -1    0    0    0  501  0.00000000000E+00  0.00000000000E+00 -0.16381876184E+04  0.16381876184E+04  0.25500000920E-02 0. -1.
    10030    2    1    2    0    0  0.00000000000E+00  0.00000000000E+00 -0.23212515365E+03  0.30442500831E+04  0.30353873693E+04 0.  0.
        4    1    3    3  502    0 -0.47655257702E+03 -0.13928493605E+04  0.25415043901E+03  0.14938961672E+04  0.12699999809E+01 0.  1.
       -4    1    3    3    0  502  0.47655257702E+03  0.13928493605E+04 -0.48627559266E+03  0.15503539160E+04  0.12699999809E+01 0. -1.
</event>
<event>
 5   0  0.1302063E-05  0.2782441E+04  0.7818609E-02  0.8308741E-01
       -2   -1    0    0    0  501  0.00000000000E+00  0.00000000000E+00  0.62587864818E+03  0.62587864819E+03  0.25500000920E-02 0.  1.
        2   -1    0    0  501    0  0.00000000000E+00  0.00000000000E+00 -0.30924437939E+04  0.30924437939E+04  0.25500000920E-02 0. -1.
    10030    2    1    2    0    0  0.00000000000E+00  0.00000000000E+00 -0.24665651457E+04  0.37183224421E+04  0.27824410443E+04 0.  0.
        2    1    3    3  502    0 -0.85798990550E+03  0.68274575485E+03 -0.23775673246E+04  0.26182274208E+04  0.25500000920E-02 0. -1.
       -2    1    3    3    0  502  0.85798990550E+03 -0.68274575485E+03 -0.88997821061E+02  0.11000950213E+04  0.25500000920E-02 0.  1.
</event>
<event>
 5   0  0.5023691E-06  0.2824457E+04  0.7818609E-02  0.8295715E-01
        1   -1    0    0  501    0  0.00000000000E+00  0.00000000000E+00  0.96230488081E+03  0.96230488083E+03  0.50400001928E-02 0. -1.
       -1   -1    0    0    0  501  0.00000000000E+00  0.00000000000E+00 -0.20725128024E+04  0.20725128025E+04  0.50400001928E-02 0.  1.
    10030    2    1    2    0    0  0.00000000000E+00  0.00000000000E+00 -0.11102079216E+04  0.30348176833E+04  0.28244568932E+04 0.  0.
        5    1    3    3  502    0  0.45166882281E+03  0.13165179551E+04 -0.81195337530E+03  0.16113704184E+04  0.46999998093E+01 0. -1.
       -5    1    3    3    0  502 -0.45166882281E+03 -0.13165179551E+04 -0.29825454633E+03  0.14234472649E+04  0.46999998093E+01 0.  1.
</event>
<event>
 5   0  0.4764214E-06  0.2797283E+04  0.7818609E-02  0.8304112E-01
       -1   -1    0    0    0  501  0.00000000000E+00  0.00000000000E+00  0.86978090285E+03  0.86978090286E+03  0.50400001928E-02 0. -1.
        1   -1    0    0  501    0  0.00000000000E+00  0.00000000000E+00 -0.22490705866E+04  0.22490705866E+04  0.50400001928E-02 0.  1.
    10030    2    1    2    0    0  0.00000000000E+00  0.00000000000E+00 -0.13792896838E+04  0.31188514895E+04  0.27972834289E+04 0.  0.
        3    1    3    3  502    0 -0.71581859057E+02  0.48239392548E+03 -0.21512048851E+04  0.22057901826E+04  0.10100000352E+00 0.  1.
       -3    1    3    3    0  502  0.71581859057E+02 -0.48239392548E+03  0.77191520132E+03  0.91306130688E+03  0.10100000352E+00 0. -1.
</event>
<event>
 5   0  0.1388269E-05  0.2840282E+04  0.7818609E-02  0.8290871E-01
       -2   -1    0    0    0  501  0.00000000000E+00  0.00000000000E+00  0.17422442021E+04  0.17422442021E+04  0.25500000920E-02 0.  1.
        2   -1    0    0  501    0  0.00000000000E+00  0.00000000000E+00 -0.11575874368E+04  0.11575874368E+04  0.25500000920E-02 0. -1.
    10030    2    1    2    0    0  0.00000000000E+00  0.00000000000E+00  0.58465676528E+03  0.28998316389E+04  0.28402816764E+04 0.  0.
        1    1    3    3  502    0  0.11834302590E+04 -0.58512051711E+03  0.82668185528E+03  0.15576508233E+04  0.50400001928E-02 0.  1.
       -1    1    3    3    0  502 -0.11834302590E+04  0.58512051711E+03 -0.24202509000E+03  0.13421808156E+04  0.50400001928E-02 0. -1.
</event>
<event>
 5   0  0.5281919E-06  0.2799375E+04  0.7818609E-02  0.8303463E-01
        1   -1    0    0  501    0  0.00000000000E+00  0.00000000000E+00  0.18482416298E+04  0.18482416298E+04  0.50400001928E-02 0. -1.
       -1   -1    0    0    0  501  0.00000000000E+00  0.00000000000E+00 -0.10599937363E+04  0.10599937363E+04  0.50400001928E-02 0.  1.
    10030    2    1    2    0    0  0.00000000000E+00  0.00000000000E+00  0.78824789350E+03  0.29082353661E+04  0.27993746093E+04 0.  0.
        4    1    3    3  502    0  0.32969219748E+03  0.13256886709E+04  0.71090039740E+03  0.15399767483E+04  0.12699999809E+01 0.  1.
       -4    1    3    3    0  502 -0.32969219748E+03 -0.13256886709E+04  0.77347496101E+02  0.13682586179E+04  0.12699999809E+01 0. -1.
</event>
<event>
 5   0  0.4764214E-06  0.2797095E+04  0.7818609E-02  0.8304171E-01
       -1   -1    0    0    0  501  0.00000000000E+00  0.00000000000E+00  0.78789613650E+03  0.78789613651E+03  0.50400001928E-02 0.  1.
        1   -1    0    0  501    0  0.00000000000E+00  0.00000000000E+00 -0.24824781858E+04  0.24824781858E+04  0.50400001928E-02 0. -1.
    10030    2    1    2    0    0  0.00000000000E+00  0.00000000000E+00 -0.16945820493E+04  0.32703743223E+04  0.27970949012E+04 0.  0.
        3    1    3    3  502    0 -0.11589830921E+04  0.46890999240E+03 -0.15800905236E+04  0.20148956454E+04  0.10100000352E+00 0. -1.
       -3    1    3    3    0  502  0.11589830921E+04 -0.46890999240E+03 -0.11449152568E+03  0.12554786770E+04  0.10100000352E+00 0.  1.
</event>
<event>
 5   0  0.5217999E-06  0.2759201E+04  0.7818609E-02  0.8316048E-01
        1   -1    0    0  501    0  0.00000000000E+00  0.00000000000E+00  0.12624117511E+04  0.12624117511E+04  0.50400001928E-02 0. -1.
       -1   -1    0    0    0  501  0.00000000000E+00  0.00000000000E+00 -0.15076679404E+04  0.15076679404E+04  0.50400001928E-02 0.  1.
    10030    2    1    2    0    0  0.00000000000E+00  0.00000000000E+00 -0.24525618926E+03  0.27700796915E+04  0.27592011342E+04 0.  0.
        1    1    3    3  502    0 -0.61948825610E+03 -0.97226390210E+03 -0.88339866967E+03  0.14523966415E+04  0.50400001928E-02 0.  1.
       -1    1    3    3    0  502  0.61948825610E+03  0.97226390210E+03  0.63814248041E+03  0.13176830499E+04  0.50400001928E-02 0. -1.
</event>
<event>
 5   0  0.5023691E-06  0.2810453E+04  0.7818609E-02  0.8300031E-01
       -1   -1    0    0    0  501  0.00000000000E+00  0.00000000000E+00  0.10043507122E+04  0.10043507122E+04  0.50400001928E-02 0. -1.
        1   -1    0    0  501    0  0.00000000000E+00  0.00000000000E+00 -0.19661071134E+04  0.19661071134E+04  0.50400001928E-02 0.  1.
    10030    2    1    2    0    0  0.00000000000E+00  0.00000000000E+00 -0.96175640114E+03  0.29704578256E+04  0.28104526893E+04 0.  0.
        5    1    3    3  502    0 -0.43142513598E+03 -0.49389347958E+03  0.83268930294E+03  0.10599301781E+04  0.46999998093E+01 0. -1.
       -5    1    3    3    0  502  0.43142513598E+03  0.49389347958E+03 -0.17944457041E+04  0.19105276475E+04  0.46999998093E+01 0.  1.
</event>
<event>
 5   0  0.4764214E-06  0.2778956E+04  0.7818609E-02  0.8309832E-01
       -1   -1    0    0    0  501  0.00000000000E+00  0.00000000000E+00  0.12092640704E+04  0.12092640704E+04  0.50400001928E-02 0. -1.
        1   -1    0    0  501    0  0.00000000000E+00  0.00000000000E+00 -0.15965484409E+04  0.15965484409E+04  0.50400001928E-02 0.  1.
    10030    2    1    2    0    0  0.00000000000E+00  0.00000000000E+00 -0.38728437046E+03  0.28058125113E+04  0.27789556788E+04 0.  0.
        3    1    3    3  502    0 -0.14811271483E+03  0.12054195858E+04  0.48791857942E+03  0.13088308922E+04  0.10100000352E+00 0. -1.
       -3    1    3    3    0  502  0.14811271483E+03 -0.12054195858E+04 -0.87520294988E+03  0.14969816191E+04  0.10100000352E+00 0.  1.
</event>
<event>
 5   0  0.1330962E-05  0.2748907E+04  0.7818609E-02  0.8319308E-01
        2   -1    0    0  501    0  0.00000000000E+00  0.00000000000E+00  0.12973582082E+04  0.12973582082E+04  0.25500000920E-02 0. -1.
       -2   -1    0    0    0  501  0.00000000000E+00  0.00000000000E+00 -0.14561305691E+04  0.14561305691E+04  0.25500000920E-02 0.  1.
    10030    2    1    2    0    0  0.00000000000E+00  0.00000000000E+00 -0.15877236094E+03  0.27534887773E+04  0.27489073800E+04 0.  0.
        4    1    3    3  502    0  0.12983040962E+03  0.34015798299E+03 -0.14069470527E+04  0.14532945368E+04  0.12699999809E+01 0.  1.
       -4    1    3    3    0  502 -0.12983040962E+03 -0.34015798299E+03  0.12481746918E+04  0.13001942404E+04  0.12699999809E+01 0. -1.
</event>
<event>
 5   0  0.1388269E-05  0.2779173E+04  0.7818609E-02  0.8309764E-01
       -2   -1    0    0    0  501  0.00000000000E+00  0.00000000000E+00  0.13713965153E+04  0.13713965153E+04  0.25500000920E-02 0.  1.
        2   -1    0    0  501    0  0.00000000000E+00  0.00000000000E+00 -0.14080174958E+04  0.14080174958E+04  0.25500000920E-02 0. -1.
    10030    2    1    2    0    0  0.00000000000E+00  0.00000000000E+00 -0.36620980502E+02  0.27794140111E+04  0.27791727454E+04 0.  0.
        1    1    3    3  502    0  0.31042464523E+03 -0.10086601930E+04 -0.92237538407E+03  0.14016187764E+04  0.50400001928E-02 0. -1.
       -1    1    3    3    0  502 -0.31042464523E+03  0.10086601930E+04  0.88575440356E+03  0.13777952347E+04  0.50400001928E-02 0.  1.
</event>
<event>
 5   0  0.5281919E-06  0.2809534E+04  0.7818609E-02  0.8300315E-01
       -1   -1    0    0    0  501  0.00000000000E+00  0.00000000000E+00  0.14146102351E+04  0.14146102351E+04  0.50400001928E-02 0. -1.
        1   -1    0    0  501    0  0.00000000000E+00  0.00000000000E+00 -0.13949917738E+04  0.13949917738E+04  0.50400001928E-02 0.  1.
    10030    2    1    2    0    0  0.00000000000E+00  0.00000000000E+00  0.19618461357E+02  0.28096020089E+04  0.28095335137E+04 0.  0.
        4    1    3    3  502    0  0.52422985754E+03  0.93967161610E+03 -0.89330100928E+03  0.13984949037E+04  0.12699999809E+01 0.  1.
       -4    1    3    3    0  502 -0.52422985754E+03 -0.93967161610E+03  0.91291947064E+03  0.14111071052E+04  0.12699999809E+01 0. -1.
</event>
<event>
 5   0  0.1283052E-05  0.2797056E+04  0.7818609E-02  0.8304183E-01
       -2   -1    0    0    0  501  0.00000000000E+00  0.00000000000E+00  0.14643272979E+04  0.14643272979E+04  0.25500000920E-02 0. -1.
        2   -1    0    0  501    0  0.00000000000E+00  0.00000000000E+00 -0.13356857046E+04  0.13356857046E+04  0.25500000920E-02 0.  1.
    10030    2    1    2    0    0  0.00000000000E+00  0.00000000000E+00  0.12864159323E+03  0.28000130025E+04  0.27970563374E+04 0.  0.
        5    1    3    3  502    0 -0.13118054815E+04 -0.13098677453E+03 -0.40293570219E+03  0.13785392365E+04  0.46999998093E+01 0.  1.
       -5    1    3    3    0  502  0.13118054815E+04  0.13098677453E+03  0.53157729543E+03  0.14214737660E+04  0.46999998093E+01 0. -1.
</event>
<event>
 5   0  0.5281919E-06  0.2820995E+04  0.7818609E-02  0.8296780E-01
       -1   -1    0    0    0  501  0.00000000000E+00  0.00000000000E+00  0.16866149450E+04  0.16866149450E+04  0.50400001928E-02 0.  1.
        1   -1    0    0  501    0  0.00000000000E+00  0.00000000000E+00 -0.11795837421E+04  0.11795837421E+04  0.50400001928E-02 0. -1.
    10030    2    1    2    0    0  0.00000000000E+00  0.00000000000E+00  0.50703120288E+03  0.28661986871E+04  0.28209952629E+04 0.  0.
        4    1    3    3  502    0  0.12717341295E+04  0.46557381818E+03  0.65408589097E+03  0.15039603193E+04  0.12699999809E+01 0. -1.
       -4    1    3    3    0  502 -0.12717341295E+04 -0.46557381818E+03 -0.14705468809E+03  0.13622383678E+04  0.12699999809E+01 0.  1.
</event>
<event>
 5   0  0.5217999E-06  0.2797656E+04  0.7818609E-02  0.8303996E-01
        1   -1    0    0  501    0  0.00000000000E+00  0.00000000000E+00  0.27010714246E+04  0.27010714246E+04  0.50400001928E-02 0. -1.
       -1   -1    0    0    0  501  0.00000000000E+00  0.00000000000E+00 -0.72442358681E+03  0.72442358682E+03  0.50400001928E-02 0.  1.
    10030    2    1    2    0    0  0.00000000000E+00  0.00000000000E+00  0.19766478378E+04  0.34254950114E+04  0.27976560544E+04 0.  0.
        1    1    3    3  502    0  0.73770412410E+03  0.11883950974E+04  0.10068756343E+04  0.17234525887E+04  0.50400001928E-02 0.  1.
       -1    1    3    3    0  502 -0.73770412410E+03 -0.11883950974E+04  0.96977220347E+03  0.17020424228E+04  0.50400001928E-02 0. -1.
</event>
<event>
 5   0  0.5217999E-06  0.2781424E+04  0.7818609E-02  0.8309059E-01
        1   -1    0    0  501    0  0.00000000000E+00  0.00000000000E+00  0.13097691000E+04  0.13097691000E+04  0.50400001928E-02 0. -1.
       -1   -1    0    0    0  501  0.00000000000E+00  0.00000000000E+00 -0.14766574823E+04  0.14766574823E+04  0.50400001928E-02 0.  1.
    10030    2    1    2    0    0  0.00000000000E+00  0.00000000000E+00 -0.16688838231E+03  0.27864265822E+04  0.27814243412E+04 0.  0.
        1    1    3    3  502    0 -0.11691228485E+04  0.22138154623E+03  0.63772706669E+03  0.13500199390E+04  0.50400001928E-02 0. -1.
       -1    1    3    3    0  502  0.11691228485E+04 -0.22138154623E+03 -0.80461544900E+03  0.14364066433E+04  0.50400001928E-02 0.  1.
</event>
<event>
 5   0  0.4764214E-06  0.2762577E+04  0.7818609E-02  0.8314982E-01
       -1   -1    0    0    0  501  0.00000000000E+00  0.00000000000E+00  0.11516438815E+04  0.11516438815E+04  0.50400001928E-02 0. -1.
        1   -1    0    0  501    0  0.00000000000E+00  0.00000000000E+00 -0.16567259143E+04  0.16567259143E+04  0.50400001928E-02 0.  1.
    10030    2    1    2    0    0  0.00000000000E+00  0.00000000000E+00 -0.50508203275E+03  0.28083697958E+04  0.27625772478E+04 0.  0.
        3    1    3    3  502    0 -0.10000298659E+04  0.68069311591E+03  0.42526092523E+03  0.12822830091E+04  0.10100000352E+00 0.  1.
       -3    1    3    3    0  502  0.10000298659E+04 -0.68069311591E+03 -0.93034295798E+03  0.15260867867E+04  0.10100000352E+00 0. -1.
</event>
<event>
 5   0  0.1283052E-05  0.2816529E+04  0.7818609E-02  0.8298155E-01
        2   -1    0    0  501    0  0.00000000000E+00  0.00000000000E+00  0.19001617547E+04  0.19001617547E+04  0.25500000920E-02 0.  1.
       -2   -1    0    0    0  501  0.00000000000E+00  0.00000000000E+00 -0.10437056665E+04  0.10437056665E+04  0.25500000920E-02 0. -1.
    10030    2    1    2    0    0  0.00000000000E+00  0.00000000000E+00  0.85645608820E+03  0.29438674211E+04  0.28165294890E+04 0.  0.
        5    1    3    3  502    0 -0.55044248115E+03 -0.95254687883E+03  0.13470956914E+04  0.17392588575E+04  0.46999998093E+01 0.  1.
       -5    1    3    3    0  502  0.55044248115E+03  0.95254687883E+03 -0.49063960321E+03  0.12046085637E+04  0.46999998093E+01 0. -1.
</event>
<event>
 5   0  0.1388269E-05  0.2961784E+04  0.7818609E-02  0.8254729E-01
        2   -1    0    0  501    0  0.00000000000E+00  0.00000000000E+00  0.25740628454E+04  0.25740628454E+04  0.25500000920E-02 0.  1.
       -2   -1    0    0    0  501  0.00000000000E+00  0.00000000000E+00 -0.85197632653E+03  0.85197632653E+03  0.25500000920E-02 0. -1.
    10030    2    1    2    0    0  0.00000000000E+00  0.00000000000E+00  0.17220865189E+04  0.34260391719E+04  0.29617836567E+04 0.  0.
        1    1    3    3  502    0 -0.10645027403E+04  0.76028716830E+03  0.58091432067E+02  0.13094186790E+04  0.50400001928E-02 0. -1.
       -1    1    3    3    0  502  0.10645027403E+04 -0.76028716830E+03  0.16639950868E+04  0.21166204930E+04  0.50400001928E-02 0.  1.
</event>
<event>
 5   0  0.5281919E-06  0.2642961E+04  0.7818609E-02  0.8353753E-01
        1   -1    0    0  501    0  0.00000000000E+00  0.00000000000E+00  0.18178577769E+04  0.18178577769E+04  0.50400001928E-02 0.  1.
       -1   -1    0    0    0  501  0.00000000000E+00  0.00000000000E+00 -0.96064174927E+03  0.96064174928E+03  0.50400001928E-02 0. -1.
    10030    2    1    2    0    0  0.00000000000E+00  0.00000000000E+00  0.85721602765E+03  0.27784995262E+04  0.26429605179E+04 0.  0.
        4    1    3    3  502    0 -0.48091897054E+03 -0.19089861031E+03 -0.84972064205E+03  0.99486286396E+03  0.12699999809E+01 0. -1.
       -4    1    3    3    0  502  0.48091897054E+03  0.19089861031E+03  0.17069366697E+04  0.17836366622E+04  0.12699999809E+01 0.  1.
</event>
<event>
 5   0  0.4764214E-06  0.2744107E+04  0.7818609E-02  0.8320834E-01
       -1   -1    0    0    0  501  0.00000000000E+00  0.00000000000E+00  0.74469275427E+03  0.74469275429E+03  0.50400001928E-02 0.  1.
        1   -1    0    0  501    0  0.00000000000E+00  0.00000000000E+00 -0.25279301277E+04  0.25279301278E+04  0.50400001928E-02 0. -1.
    10030    2    1    2    0    0  0.00000000000E+00  0.00000000000E+00 -0.17832373735E+04  0.32726228820E+04  0.27441073226E+04 0.  0.
        3    1    3    3  502    0  0.13438298682E+04  0.13522311493E+03 -0.60349469310E+03  0.14793139830E+04  0.10100000352E+00 0. -1.
       -3    1    3    3    0  502 -0.13438298682E+04 -0.13522311493E+03 -0.11797426804E+04  0.17933088991E+04  0.10100000352E+00 0.  1.
</event>
<event>
 5   0  0.1283052E-05  0.2796266E+04  0.7818609E-02  0.8304429E-01
       -2   -1    0    0    0  501  0.00000000000E+00  0.00000000000E+00  0.15941792789E+04  0.15941792789E+04  0.25500000920E-02 0. -1.
        2   -1    0    0  501    0  0.00000000000E+00  0.00000000000E+00 -0.12261957388E+04  0.12261957388E+04  0.25500000920E-02 0.  1.
    10030    2    1    2    0    0  0.00000000000E+00  0.00000000000E+00  0.36798354017E+03  0.28203750177E+04  0.27962659664E+04 0.  0.
        5    1    3    3  502    0 -0.10897905215E+04 -0.63555205678E+03 -0.42385163179E+03  0.13308801950E+04  0.46999998093E+01 0.  1.
       -5    1    3    3    0  502  0.10897905215E+04  0.63555205678E+03  0.79183517195E+03  0.14894948228E+04  0.46999998093E+01 0. -1.
</event>
<event>
 5   0  0.4764214E-06  0.2586723E+04  0.7818609E-02  0.8372725E-01
        1   -1    0    0  501    0  0.00000000000E+00  0.00000000000E+00  0.93280435571E+03  0.93280435572E+03  0.50400001928E-02 0. -1.
       -1   -1    0    0    0  501  0.00000000000E+00  0.00000000000E+00 -0.17932854152E+04  0.17932854152E+04  0.50400001928E-02 0.  1.
    10030    2    1    2    0    0  0.00000000000E+00  0.00000000000E+00 -0.86048105945E+03  0.27260897709E+04  0.25867233685E+04 0.  0.
        3    1    3    3  502    0 -0.76161148111E+03 -0.65997962029E+03 -0.12845702054E+04  0.16327111717E+04  0.10100000352E+00 0.  1.
       -3    1    3    3    0  502  0.76161148111E+03  0.65997962029E+03  0.42408914591E+03  0.10933785992E+04  0.10100000352E+00 0. -1.
</event>
<event>
 5   0  0.4764214E-06  0.2796030E+04  0.7818609E-02  0.8304502E-01
        1   -1    0    0  501    0  0.00000000000E+00  0.00000000000E+00  0.74812664845E+03  0.74812664847E+03  0.50400001928E-02 0.  1.
       -1   -1    0    0    0  501  0.00000000000E+00  0.00000000000E+00 -0.26124524428E+04  0.26124524428E+04  0.50400001928E-02 0. -1.
    10030    2    1    2    0    0  0.00000000000E+00  0.00000000000E+00 -0.18643257943E+04  0.33605790912E+04  0.27960295351E+04 0.  0.
        3    1    3    3  502    0  0.59889913397E+03 -0.12115455299E+04 -0.13620415678E+04  0.19187704361E+04  0.10100000352E+00 0.  1.
       -3    1    3    3    0  502 -0.59889913397E+03  0.12115455299E+04 -0.50228422647E+03  0.14418086551E+04  0.10100000352E+00 0. -1.
</event>
<event>
 5   0  0.1330962E-05  0.2784550E+04  0.7818609E-02  0.8308081E-01
       -2   -1    0    0    0  501  0.00000000000E+00  0.00000000000E+00  0.20958834073E+04  0.20958834073E+04  0.25500000920E-02 0.  1.
        2   -1    0    0  501    0  0.00000000000E+00  0.00000000000E+00 -0.92487495094E+03  0.92487495094E+03  0.25500000920E-02 0. -1.
    10030    2    1    2    0    0  0.00000000000E+00  0.00000000000E+00  0.11710084563E+04  0.30207583582E+04  0.27845502786E+04 0.  0.
        4    1    3    3  502    0 -0.90026433799E+03 -0.24905965256E+03 -0.53451017223E+03  0.10762013408E+04  0.12699999809E+01 0. -1.
       -4    1    3    3    0  502  0.90026433799E+03  0.24905965256E+03  0.17055186286E+04  0.19445570174E+04  0.12699999809E+01 0.  1.
</event>
<event>
 5   0  0.1302063E-05  0.2876718E+04  0.7818609E-02  0.8279838E-01
       -2   -1    0    0    0  501  0.00000000000E+00  0.00000000000E+00  0.10868528275E+04  0.10868528275E+04  0.25500000920E-02 0.  1.
        2   -1    0    0  501    0  0.00000000000E+00  0.00000000000E+00 -0.19035479781E+04  0.19035479781E+04  0.25500000920E-02 0. -1.
    10030    2    1    2    0    0  0.00000000000E+00  0.00000000000E+00 -0.81669515057E+03  0.29904008056E+04  0.28767179231E+04 0.  0.
        2    1    3    3  502    0 -0.10169488428E+04  0.20689865064E+03  0.62694398597E+03  0.12124564991E+04  0.25500000920E-02 0.  1.
       -2    1    3    3    0  502  0.10169488428E+04 -0.20689865064E+03 -0.14436391365E+04  0.17779443065E+04  0.25500000920E-02 0. -1.
</event>
<event>
 5   0  0.5107453E-06  0.2780190E+04  0.7818609E-02  0.8309445E-01
        1   -1    0    0  501    0  0.00000000000E+00  0.00000000000E+00  0.63601450981E+03  0.63601450983E+03  0.50400001928E-02 0.  1.
       -1   -1    0    0    0  501  0.00000000000E+00  0.00000000000E+00 -0.30382390110E+04  0.30382390110E+04  0.50400001928E-02 0. -1.
    10030    2    1    2    0    0  0.00000000000E+00  0.00000000000E+00 -0.24022245012E+04  0.36742535208E+04  0.27801899901E+04 0.  0.
        2    1    3    3  502    0  0.61483293870E+03  0.12464309380E+04 -0.11648115098E+04  0.18133933603E+04  0.25500000920E-02 0.  1.
       -2    1    3    3    0  502 -0.61483293870E+03 -0.12464309380E+04 -0.12374129914E+04  0.18608601605E+04  0.25500000920E-02 0. -1.
</event>
<event>
 5   0  0.1302063E-05  0.2786337E+04  0.7818609E-02  0.8307523E-01
       -2   -1    0    0    0  501  0.00000000000E+00  0.00000000000E+00  0.15222693747E+04  0.15222693747E+04  0.25500000920E-02 0. -1.
        2   -1    0    0  501    0  0.00000000000E+00  0.00000000000E+00 -0.12750162910E+04  0.12750162910E+04  0.25500000920E-02 0.  1.
    10030    2    1    2    0    0  0.00000000000E+00  0.00000000000E+00  0.24725308371E+03  0.27972856656E+04  0.27863368439E+04 0.  0.
        2    1    3    3  502    0  0.90965781676E+03 -0.66234730432E+03 -0.70102495417E+03  0.13257515912E+04  0.25500000920E-02 0.  1.
       -2    1    3    3    0  502 -0.90965781676E+03  0.66234730432E+03  0.94827803788E+03  0.14715340745E+04  0.25500000920E-02 0. -1.
</event>
<event>
 5   0  0.5107453E-06  0.2763203E+04  0.7818609E-02  0.8314784E-01
        1   -1    0    0  501    0  0.00000000000E+00  0.00000000000E+00  0.99311053985E+03  0.99311053986E+03  0.50400001928E-02 0. -1.
       -1   -1    0    0    0  501  0.00000000000E+00  0.00000000000E+00 -0.19220651947E+04  0.19220651947E+04  0.50400001928E-02 0.  1.
    10030    2    1    2    0    0  0.00000000000E+00  0.00000000000E+00 -0.92895465486E+03  0.29151757346E+04  0.27632033607E+04 0.  0.
        2    1    3    3  502    0  0.37711186180E+03 -0.12421950580E+04  0.34349945738E+02  0.12986307547E+04  0.25500000920E-02 0. -1.
       -2    1    3    3    0  502 -0.37711186180E+03  0.12421950580E+04 -0.96330460060E+03  0.16165449798E+04  0.25500000920E-02 0.  1.
</event>
<event>
 5   0  0.4447500E-06  0.2671024E+04  0.7818609E-02  0.8344468E-01
        3   -1    0    0  501    0  0.00000000000E+00  0.00000000000E+00  0.13732047781E+04  0.13732047818E+04  0.10100000352E+00 0. -1.
       -3   -1    0    0    0  501  0.00000000000E+00  0.00000000000E+00 -0.12988533952E+04  0.12988533991E+04  0.10100000352E+00 0.  1.
    10030    2    1    2    0    0  0.00000000000E+00  0.00000000000E+00  0.74351382877E+02  0.26720581809E+04  0.26710235480E+04 0.  0.
        3    1    3    3  502    0  0.12604940401E+04 -0.29901806036E+03 -0.28750304541E+03  0.13269947389E+04  0.10100000352E+00 0.  1.
       -3    1    3    3    0  502 -0.12604940401E+04  0.29901806036E+03  0.36185442829E+03  0.13450634420E+04  0.10100000352E+00 0. -1.
</event>
<event>
 5   0  0.5217999E-06  0.2777527E+04  0.7818609E-02  0.8310279E-01
        1   -1    0    0  501    0  0.00000000000E+00  0.00000000000E+00  0.14667797565E+04  0.14667797565E+04  0.50400001928E-02 0.  1.
       -1   -1    0    0    0  501  0.00000000000E+00  0.00000000000E+00 -0.13148968016E+04  0.13148968016E+04  0.50400001928E-02 0. -1.
    10030    2    1    2    0    0  0.00000000000E+00  0.00000000000E+00  0.15188295485E+03  0.27816765581E+04  0.27775269651E+04 0.  0.
        1    1    3    3  502    0  0.38873371708E+03 -0.13288247233E+03  0.14045327621E+04  0.14633809942E+04  0.50400001928E-02 0.  1.
       -1    1    3    3    0  502 -0.38873371708E+03  0.13288247233E+03 -0.12526498072E+04  0.13182955639E+04  0.50400001928E-02 0. -1.
</event>
<event>
 5   0  0.1302063E-05  0.2792921E+04  0.7818609E-02  0.8305469E-01
       -2   -1    0    0    0  501  0.00000000000E+00  0.00000000000E+00  0.81149910713E+03  0.81149910713E+03  0.25500000920E-02 0.  1.
        2   -1    0    0  501    0  0.00000000000E+00  0.00000000000E+00 -0.24030865197E+04  0.24030865197E+04  0.25500000920E-02 0. -1.
    10030    2    1    2    0    0  0.00000000000E+00  0.00000000000E+00 -0.15915874126E+04  0.32145856268E+04  0.27929214562E+04 0.  0.
        2    1    3    3  502    0 -0.75900786520E+03  0.56635119229E+03  0.38543294533E+03  0.10224505699E+04  0.25500000920E-02 0.  1.
       -2    1    3    3    0  502  0.75900786520E+03 -0.56635119229E+03 -0.19770203579E+04  0.21921350570E+04  0.25500000920E-02 0. -1.
</event>
<event>
 5   0  0.1330962E-05  0.2761841E+04  0.7818609E-02  0.8315214E-01
        2   -1    0    0  501    0  0.00000000000E+00  0.00000000000E+00  0.23209298660E+04  0.23209298660E+04  0.25500000920E-02 0.  1.
       -2   -1    0    0    0  501  0.00000000000E+00  0.00000000000E+00 -0.82162828781E+03  0.82162828782E+03  0.25500000920E-02 0. -1.
    10030    2    1    2    0    0  0.00000000000E+00  0.00000000000E+00  0.14993015781E+04  0.31425581538E+04  0.27618411482E+04 0.  0.
        4    1    3    3  502    0 -0.94614947438E+03  0.91470878776E+03  0.12257138396E+04  0.17984068015E+04  0.12699999809E+01 0.  1.
       -4    1    3    3    0  502  0.94614947438E+03 -0.91470878776E+03  0.27358773860E+03  0.13441513523E+04  0.12699999809E+01 0. -1.
</event>
<event>
 5   0  0.1388269E-05  0.3001816E+04  0.7818609E-02  0.8243212E-01
        2   -1    0    0  501    0  0.00000000000E+00  0.00000000000E+00  0.20534277352E+04  0.20534277352E+04  0.25500000920E-02 0.  1.
       -2   -1    0    0    0  501  0.00000000000E+00  0.00000000000E+00 -0.10970560068E+04  0.10970560068E+04  0.25500000920E-02 0. -1.
    10030    2    1    2    0    0  0.00000000000E+00  0.00000000000E+00  0.95637172839E+03  0.31504837420E+04  0.30018162712E+04 0.  0.
        1    1    3    3  502    0 -0.12496797147E+03 -0.35188763334E+03 -0.10475241584E+04  0.11120920658E+04  0.50400001928E-02 0. -1.
       -1    1    3    3    0  502  0.12496797147E+03  0.35188763334E+03  0.20038958868E+04  0.20383916762E+04  0.50400001928E-02 0.  1.
</event>
<event>
 5   0  0.1388269E-05  0.2786974E+04  0.7818609E-02  0.8307324E-01
        2   -1    0    0  501    0  0.00000000000E+00  0.00000000000E+00  0.13443689219E+04  0.13443689219E+04  0.25500000920E-02 0. -1.
       -2   -1    0    0    0  501  0.00000000000E+00  0.00000000000E+00 -0.14443991582E+04  0.14443991582E+04  0.25500000920E-02 0.  1.
    10030    2    1    2    0    0  0.00000000000E+00  0.00000000000E+00 -0.10003023630E+03  0.27887680801E+04  0.27869735119E+04 0.  0.
        1    1    3    3  502    0  0.76155692246E+03  0.36646418768E+02 -0.12171680967E+04  0.14362486142E+04  0.50400001928E-02 0.  1.
       -1    1    3    3    0  502 -0.76155692246E+03 -0.36646418768E+02  0.11171378605E+04  0.13525194658E+04  0.50400001928E-02 0. -1.
</event>
<event>
 5   0  0.5107453E-06  0.2453376E+04  0.7818609E-02  0.8419787E-01
        1   -1    0    0  501    0  0.00000000000E+00  0.00000000000E+00  0.11125983422E+04  0.11125983422E+04  0.50400001928E-02 0.  1.
       -1   -1    0    0    0  501  0.00000000000E+00  0.00000000000E+00 -0.13524763352E+04  0.13524763352E+04  0.50400001928E-02 0. -1.
    10030    2    1    2    0    0  0.00000000000E+00  0.00000000000E+00 -0.23987799301E+03  0.24650746774E+04  0.24533755754E+04 0.  0.
        2    1    3    3  502    0  0.38788100337E+03 -0.82731170169E+03 -0.94229564216E+03  0.13125613897E+04  0.25500000920E-02 0. -1.
       -2    1    3    3    0  502 -0.38788100337E+03  0.82731170169E+03  0.70241764915E+03  0.11525132877E+04  0.25500000920E-02 0.  1.
</event>
<event>
 5   0  0.4447500E-06  0.2825267E+04  0.7818609E-02  0.8295467E-01
        4   -1    0    0  501    0  0.00000000000E+00  0.00000000000E+00  0.14552393001E+04  0.14552398542E+04  0.12699999809E+01 0. -1.
       -4   -1    0    0    0  501  0.00000000000E+00  0.00000000000E+00 -0.13712743876E+04  0.13712749757E+04  0.12699999809E+01 0.  1.
    10030    2    1    2    0    0  0.00000000000E+00  0.00000000000E+00  0.83964912446E+02  0.28265148299E+04  0.28252674170E+04 0.  0.
        5    1    3    3  502    0  0.50254517381E+03  0.13199580096E+04  0.67899598225E+02  0.14140273138E+04  0.46999998093E+01 0. -1.
       -5    1    3    3    0  502 -0.50254517381E+03 -0.13199580096E+04  0.16065314221E+02  0.14124875161E+04  0.46999998093E+01 0.  1.
</event>
<event>
 5   0  0.1388269E-05  0.2864969E+04  0.7818609E-02  0.8283377E-01
       -2   -1    0    0    0  501  0.00000000000E+00  0.00000000000E+00  0.11104296101E+04  0.11104296101E+04  0.25500000920E-02 0.  1.
        2   -1    0    0  501    0  0.00000000000E+00  0.00000000000E+00 -0.18479444100E+04  0.18479444100E+04  0.25500000920E-02 0. -1.
    10030    2    1    2    0    0  0.00000000000E+00  0.00000000000E+00 -0.73751479993E+03  0.29583740201E+04  0.28649692429E+04 0.  0.
        1    1    3    3  502    0 -0.10181789697E+04 -0.13504821258E+03  0.66233924136E+03  0.12221373510E+04  0.50400001928E-02 0.  1.
       -1    1    3    3    0  502  0.10181789697E+04  0.13504821258E+03 -0.13998540413E+04  0.17362366691E+04  0.50400001928E-02 0. -1.
</event>
<event>
 5   0  0.1283052E-05  0.2741801E+04  0.7818609E-02  0.8321568E-01
        2   -1    0    0  501    0  0.00000000000E+00  0.00000000000E+00  0.24701244626E+04  0.24701244626E+04  0.25500000920E-02 0. -1.
       -2   -1    0    0    0  501  0.00000000000E+00  0.00000000000E+00 -0.76083925426E+03  0.76083925427E+03  0.25500000920E-02 0.  1.
    10030    2    1    2    0    0  0.00000000000E+00  0.00000000000E+00  0.17092852083E+04  0.32309637168E+04  0.27418006157E+04 0.  0.
        5    1    3    3  502    0 -0.31993836586E+03  0.10093665011E+04 -0.17142947233E+03  0.10726562569E+04  0.46999998093E+01 0.  1.
       -5    1    3    3    0  502  0.31993836586E+03 -0.10093665011E+04  0.18807146806E+04  0.21583074599E+04  0.46999998093E+01 0. -1.
</event>
<event>
 5   0  0.1330962E-05  0.2987480E+04  0.7818609E-02  0.8247315E-01
       -2   -1    0    0    0  501  0.00000000000E+00  0.00000000000E+00  0.18151333256E+04  0.18151333256E+04  0.25500000920E-02 0.  1.
        2   -1    0    0  501    0  0.00000000000E+00  0.00000000000E+00 -0.12292532694E+04  0.12292532694E+04  0.25500000920E-02 0. -1.
    10030    2    1    2    0    0  0.00000000000E+00  0.00000000000E+00  0.58588005626E+03  0.30443865950E+04  0.29874795898E+04 0.  0.
        4    1    3    3  502    0  0.14194791198E+04 -0.58453679557E+02  0.76316124805E+03  0.16126854956E+04  0.12699999809E+01 0.  1.
       -4    1    3    3    0  502 -0.14194791198E+04  0.58453679557E+02 -0.17728119180E+03  0.14317010994E+04  0.12699999809E+01 0. -1.
</event>
<event>
 5   0  0.5217999E-06  0.2797039E+04  0.7818609E-02  0.8304188E-01
       -1   -1    0    0    0  501  0.00000000000E+00  0.00000000000E+00  0.12598587150E+04  0.12598587150E+04  0.50400001928E-02 0.  1.
        1   -1    0    0  501    0  0.00000000000E+00  0.00000000000E+00 -0.15524415344E+04  0.15524415344E+04  0.50400001928E-02 0. -1.
    10030    2    1    2    0    0  0.00000000000E+00  0.00000000000E+00 -0.29258281943E+03  0.28123002495E+04  0.27970391465E+04 0.  0.
        1    1    3    3  502    0  0.90757580520E+03  0.10304725455E+03 -0.12110995922E+04  0.15169293988E+04  0.50400001928E-02 0. -1.
       -1    1    3    3    0  502 -0.90757580520E+03 -0.10304725455E+03  0.91851677273E+03  0.12953708506E+04  0.50400001928E-02 0.  1.
</event>
<event>
 5   0  0.1350863E-05  0.2868352E+04  0.7818609E-02  0.8282356E-01
       -2   -1    0    0    0  501  0.00000000000E+00  0.00000000000E+00  0.13884525029E+04  0.13884525029E+04  0.25500000920E-02 0. -1.
        2   -1    0    0  501    0  0.00000000000E+00  0.00000000000E+00 -0.14814054261E+04  0.14814054261E+04  0.25500000920E-02 0.  1.
    10030    2    1    2    0    0  0.00000000000E+00  0.00000000000E+00 -0.92952923205E+02  0.28698579290E+04  0.28683521901E+04 0.  0.
        3    1    3    3  502    0  0.12904670200E+04 -0.15524926987E+02 -0.67235652759E+03  0.14552008327E+04  0.10100000352E+00 0. -1.
       -3    1    3    3    0  502 -0.12904670200E+04  0.15524926987E+02  0.57940360439E+03  0.14146570963E+04  0.10100000352E+00 0.  1.
</event>
<event>
 5   0  0.1388269E-05  0.2818750E+04  0.7818609E-02  0.8297471E-01
       -2   -1    0    0    0  501  0.00000000000E+00  0.00000000000E+00  0.97347560498E+03  0.97347560499E+03  0.25500000920E-02 0. -1.
        2   -1    0    0  501    0  0.00000000000E+00  0.00000000000E+00 -0.20404603619E+04  0.20404603619E+04  0.25500000920E-02 0.  1.
    10030    2    1    2    0    0  0.00000000000E+00  0.00000000000E+00 -0.10669847570E+04  0.30139359669E+04  0.28187503510E+04 0.  0.
        1    1    3    3  502    0 -0.31733326640E+03  0.14459749830E+03 -0.19936015672E+04  0.20238715491E+04  0.50400001928E-02 0.  1.
       -1    1    3    3    0  502  0.31733326640E+03 -0.14459749830E+03  0.92661681022E+03  0.99006441785E+03  0.50400001928E-02 0. -1.
</event>
<event>
 5   0  0.5281919E-06  0.2832376E+04  0.7818609E-02  0.8293287E-01
       -1   -1    0    0    0  501  0.00000000000E+00  0.00000000000E+00  0.12089594658E+04  0.12089594658E+04  0.50400001928E-02 0.  1.
        1   -1    0    0  501    0  0.00000000000E+00  0.00000000000E+00 -0.16589376457E+04  0.16589376457E+04  0.50400001928E-02 0. -1.
    10030    2    1    2    0    0  0.00000000000E+00  0.00000000000E+00 -0.44997817994E+03  0.28678971115E+04  0.28323759425E+04 0.  0.
        4    1    3    3  502    0 -0.10619425657E+04 -0.49767179657E+03  0.57881011302E+03  0.13078310249E+04  0.12699999809E+01 0.  1.
       -4    1    3    3    0  502  0.10619425657E+04  0.49767179657E+03 -0.10287882930E+04  0.15600660866E+04  0.12699999809E+01 0. -1.
</event>
<event>
 5   0  0.1350863E-05  0.2714439E+04  0.7818609E-02  0.8330335E-01
        2   -1    0    0  501    0  0.00000000000E+00  0.00000000000E+00  0.16727172184E+04  0.16727172184E+04  0.25500000920E-02 0.  1.
       -2   -1    0    0    0  501  0.00000000000E+00  0.00000000000E+00 -0.11012287940E+04  0.11012287940E+04  0.25500000920E-02 0. -1.
    10030    2    1    2    0    0  0.00000000000E+00  0.00000000000E+00  0.57148842443E+03  0.27739460125E+04  0.27144387009E+04 0.  0.
        3    1    3    3  502    0 -0.55208323172E+03  0.15150705644E+03 -0.97179946203E+03  0.11278938281E+04  0.10100000352E+00 0. -1.
       -3    1    3    3    0  502  0.55208323172E+03 -0.15150705644E+03  0.15432878865E+04  0.16460521843E+04  0.10100000352E+00 0.  1.
</event>
<event>
 5   0  0.1388269E-05  0.2746241E+04  0.7818609E-02  0.8320155E-01
       -2   -1    0    0    0  501  0.00000000000E+00  0.00000000000E+00  0.18617588683E+04  0.18617588683E+04  0.25500000920E-02 0. -1.
        2   -1    0    0  501    0  0.00000000000E+00  0.00000000000E+00 -0.10127305658E+04  0.10127305658E+04  0.25500000920E-02 0.  1.
    10030    2    1    2    0    0  0.00000000000E+00  0.00000000000E+00  0.84902830247E+03  0.28744894341E+04  0.27462411490E+04 0.  0.
        1    1    3    3  502    0  0.55471238184E+03 -0.11641368159E+04 -0.69257160311E+02  0.12914011410E+04  0.50400001928E-02 0. -1.
       -1    1    3    3    0  502 -0.55471238184E+03  0.11641368159E+04  0.91828546278E+03  0.15830882931E+04  0.50400001928E-02 0.  1.
</event>
<event>
 5   0  0.5107453E-06  0.2556471E+04  0.7818609E-02  0.8383139E-01
        1   -1    0    0  501    0  0.00000000000E+00  0.00000000000E+00  0.18692717835E+04  0.18692717836E+04  0.50400001928E-02 0.  1.
       -1   -1    0    0    0  501  0.00000000000E+00  0.00000000000E+00 -0.87407594039E+03  0.87407594040E+03  0.50400001928E-02 0. -1.
    10030    2    1    2    0    0  0.00000000000E+00  0.00000000000E+00  0.99519584316E+03  0.27433477240E+04  0.25564706077E+04 0.  0.
        2    1    3    3  502    0 -0.74550088531E+02 -0.57828618976E+03  0.17182518952E+04  0.18144867616E+04  0.25500000920E-02 0.  1.
       -2    1    3    3    0  502  0.74550088531E+02  0.57828618976E+03 -0.72305605200E+03  0.92886096231E+03  0.25500000920E-02 0. -1.
</event>
<event>
 5   0  0.1283052E-05  0.2793227E+04  0.7818609E-02  0.8305374E-01
        2   -1    0    0  501    0  0.00000000000E+00  0.00000000000E+00  0.10509782451E+04  0.10509782451E+04  0.25500000920E-02 0.  1.
       -2   -1    0    0    0  501  0.00000000000E+00  0.00000000000E+00 -0.18559174028E+04  0.18559174028E+04  0.25500000920E-02 0. -1.
    10030    2    1    2    0    0  0.00000000000E+00  0.00000000000E+00 -0.80493915771E+03  0.29068956479E+04  0.27932266754E+04 0.  0.
        5    1    3    3  502    0 -0.70126114049E+03 -0.10550411672E+04  0.20935583793E+03  0.12840292086E+04  0.46999998093E+01 0.  1.
       -5    1    3    3    0  502  0.70126114049E+03  0.10550411672E+04 -0.10142949956E+04  0.16228664393E+04  0.46999998093E+01 0. -1.
</event>
<event>
 5   0  0.5217999E-06  0.2712772E+04  0.7818609E-02  0.8330873E-01
        1   -1    0    0  501    0  0.00000000000E+00  0.00000000000E+00  0.19876998506E+04  0.19876998506E+04  0.50400001928E-02 0. -1.
       -1   -1    0    0    0  501  0.00000000000E+00  0.00000000000E+00 -0.92558369232E+03  0.92558369233E+03  0.50400001928E-02 0.  1.
    10030    2    1    2    0    0  0.00000000000E+00  0.00000000000E+00  0.10621161583E+04  0.29132835429E+04  0.27127716947E+04 0.  0.
        1    1    3    3  502    0 -0.93489866059E+03  0.16099619834E+03 -0.51004453017E+03  0.10770797112E+04  0.50400001928E-02 0.  1.
       -1    1    3    3    0  502  0.93489866059E+03 -0.16099619834E+03  0.15721606884E+04  0.18362038318E+04  0.50400001928E-02 0. -1.
</event>
<event>
 5   0  0.1388269E-05  0.2806906E+04  0.7818609E-02  0.8301128E-01
        2   -1    0    0  501    0  0.00000000000E+00  0.00000000000E+00  0.18063013439E+04  0.18063013439E+04  0.25500000920E-02 0. -1.
       -2   -1    0    0    0  501  0.00000000000E+00  0.00000000000E+00 -0.10904493823E+04  0.10904493823E+04  0.25500000920E-02 0.  1.
    10030    2    1    2    0    0  0.00000000000E+00  0.00000000000E+00  0.71585196155E+03  0.28967507262E+04  0.28069059013E+04 0.  0.
        1    1    3    3  502    0  0.26222946468E+03 -0.56193786629E+02  0.17796120360E+04  0.17997058183E+04  0.50400001928E-02 0. -1.
       -1    1    3    3    0  502 -0.26222946468E+03  0.56193786629E+02 -0.10637600745E+04  0.10970449078E+04  0.50400001928E-02 0.  1.
</event>
<event>
 5   0  0.1302063E-05  0.2750123E+04  0.7818609E-02  0.8318923E-01
        2   -1    0    0  501    0  0.00000000000E+00  0.00000000000E+00  0.17636742002E+04  0.17636742002E+04  0.25500000920E-02 0.  1.
       -2   -1    0    0    0  501  0.00000000000E+00  0.00000000000E+00 -0.10720769469E+04  0.10720769469E+04  0.25500000920E-02 0. -1.
    10030    2    1    2    0    0  0.00000000000E+00  0.00000000000E+00  0.69159725330E+03  0.28357511472E+04  0.27501232351E+04 0.  0.
        2    1    3    3  502    0  0.11012577287E+04  0.15975410274E+03  0.11787271116E+04  0.16210143620E+04  0.25500000920E-02 0.  1.
       -2    1    3    3    0  502 -0.11012577287E+04 -0.15975410274E+03 -0.48712985831E+03  0.12147367851E+04  0.25500000920E-02 0. -1.
</event>
<event>
 5   0  0.5023691E-06  0.2768576E+04  0.7818609E-02  0.8313091E-01
       -1   -1    0    0    0  501  0.00000000000E+00  0.00000000000E+00  0.16311680653E+04  0.16311680653E+04  0.50400001928E-02 0.  1.
        1   -1    0    0  501    0  0.00000000000E+00  0.00000000000E+00 -0.11747737259E+04  0.11747737259E+04  0.50400001928E-02 0. -1.
    10030    2    1    2    0    0  0.00000000000E+00  0.00000000000E+00  0.45639433943E+03  0.28059417912E+04  0.27685760857E+04 0.  0.
        5    1    3    3  502    0  0.88952389179E+03  0.51560542071E+03 -0.71120494433E+03  0.12501744945E+04  0.46999998093E+01 0. -1.
       -5    1    3    3    0  502 -0.88952389179E+03 -0.51560542071E+03  0.11675992838E+04  0.15557672967E+04  0.46999998093E+01 0.  1.
</event>
<event>
 5   0  0.4764214E-06  0.2608345E+04  0.7818609E-02  0.8365372E-01
        1   -1    0    0  501    0  0.00000000000E+00  0.00000000000E+00  0.12385910836E+04  0.12385910836E+04  0.50400001928E-02 0. -1.
       -1   -1    0    0    0  501  0.00000000000E+00  0.00000000000E+00 -0.13732264344E+04  0.13732264345E+04  0.50400001928E-02 0.  1.
    10030    2    1    2    0    0  0.00000000000E+00  0.00000000000E+00 -0.13463535086E+03  0.26118175180E+04  0.26083450826E+04 0.  0.
        3    1    3    3  502    0 -0.79241086263E+03  0.43444538798E+03  0.87425763224E+03  0.12573719370E+04  0.10100000352E+00 0. -1.
       -3    1    3    3    0  502  0.79241086263E+03 -0.43444538798E+03 -0.10088929831E+04  0.13544455810E+04  0.10100000352E+00 0.  1.
</event>
<event>
 5   0  0.1350863E-05  0.2829479E+04  0.7818609E-02  0.8294174E-01
        2   -1    0    0  501    0  0.00000000000E+00  0.00000000000E+00  0.22939679965E+04  0.22939679965E+04  0.25500000920E-02 0. -1.
       -2   -1    0    0    0  501  0.00000000000E+00  0.00000000000E+00 -0.87250030819E+03  0.87250030820E+03  0.25500000920E-02 0.  1.
    10030    2    1    2    0    0  0.00000000000E+00  0.00000000000E+00  0.14214676883E+04  0.31664683047E+04  0.28294789513E+04 0.  0.
        3    1    3    3  502    0 -0.91528654009E+03 -0.10775839220E+04  0.65420863889E+03  0.15578592725E+04  0.10100000352E+00 0. -1.
       -3    1    3    3    0  502  0.91528654009E+03  0.10775839220E+04  0.76725904943E+03  0.16086090322E+04  0.10100000352E+00 0.  1.
</event>
<event>
 5   0  0.1283052E-05  0.2781310E+04  0.7818609E-02  0.8309094E-01
       -2   -1    0    0    0  501  0.00000000000E+00  0.00000000000E+00  0.78507085421E+03  0.78507085421E+03  0.25500000920E-02 0.  1.
        2   -1    0    0  501    0  0.00000000000E+00  0.00000000000E+00 -0.24633713694E+04  0.24633713694E+04  0.25500000920E-02 0. -1.
    10030    2    1    2    0    0  0.00000000000E+00  0.00000000000E+00 -0.16783005152E+04  0.32484422236E+04  0.27813098103E+04 0.  0.
        5    1    3    3  502    0  0.40567359690E+03 -0.12369819042E+03  0.70768433179E+03  0.82505243045E+03  0.46999998093E+01 0.  1.
       -5    1    3    3    0  502 -0.40567359690E+03  0.12369819042E+03 -0.23859848470E+04  0.24233897932E+04  0.46999998093E+01 0. -1.
</event>
<event>
 5   0  0.5023691E-06  0.2660937E+04  0.7818609E-02  0.8347792E-01
        1   -1    0    0  501    0  0.00000000000E+00  0.00000000000E+00  0.12819810411E+04  0.12819810411E+04  0.50400001928E-02 0. -1.
       -1   -1    0    0    0  501  0.00000000000E+00  0.00000000000E+00 -0.13807895953E+04  0.13807895954E+04  0.50400001928E-02 0.  1.
    10030    2    1    2    0    0  0.00000000000E+00  0.00000000000E+00 -0.98808554206E+02  0.26627706365E+04  0.26609367396E+04 0.  0.
        5    1    3    3  502    0 -0.85985701854E+03  0.42395831767E+03 -0.97255252917E+03  0.13656409702E+04  0.46999998093E+01 0.  1.
       -5    1    3    3    0  502  0.85985701854E+03 -0.42395831767E+03  0.87374397496E+03  0.12971296663E+04  0.46999998093E+01 0. -1.
</event>
<event>
 5   0  0.1388269E-05  0.2740119E+04  0.7818609E-02  0.8322104E-01
       -2   -1    0    0    0  501  0.00000000000E+00  0.00000000000E+00  0.17251897644E+04  0.17251897644E+04  0.25500000920E-02 0.  1.
        2   -1    0    0  501    0  0.00000000000E+00  0.00000000000E+00 -0.10880331858E+04  0.10880331858E+04  0.25500000920E-02 0. -1.
    10030    2    1    2    0    0  0.00000000000E+00  0.00000000000E+00  0.63715657855E+03  0.28132229502E+04  0.27401194978E+04 0.  0.
        1    1    3    3  502    0 -0.41558132779E+03 -0.38344863548E+03 -0.96264256879E+03  0.11164324482E+04  0.50400001928E-02 0. -1.
       -1    1    3    3    0  502  0.41558132779E+03  0.38344863548E+03  0.15997991473E+04  0.16967905021E+04  0.50400001928E-02 0.  1.
</event>
<event>
 5   0  0.5217999E-06  0.2090948E+04  0.7818609E-02  0.8565241E-01
       -1   -1    0    0    0  501  0.00000000000E+00  0.00000000000E+00  0.57258158959E+03  0.57258158961E+03  0.50400001928E-02 0.  1.
        1   -1    0    0  501    0  0.00000000000E+00  0.00000000000E+00 -0.19089258938E+04  0.19089258938E+04  0.50400001928E-02 0. -1.
    10030    2    1    2    0    0  0.00000000000E+00  0.00000000000E+00 -0.13363443042E+04  0.24815074834E+04  0.20909479407E+04 0.  0.
        1    1    3    3  502    0  0.72276816719E+03 -0.72779646015E+03 -0.90828539631E+03  0.13700598060E+04  0.50400001928E-02 0. -1.
       -1    1    3    3    0  502 -0.72276816719E+03  0.72779646015E+03 -0.42805890789E+03  0.11114476774E+04  0.50400001928E-02 0.  1.
</event>
<event>
 5   0  0.1350863E-05  0.2798204E+04  0.7818609E-02  0.8303826E-01
       -2   -1    0    0    0  501  0.00000000000E+00  0.00000000000E+00  0.84258203760E+03  0.84258203760E+03  0.25500000920E-02 0.  1.
        2   -1    0    0  501    0  0.00000000000E+00  0.00000000000E+00 -0.23232005510E+04  0.23232005510E+04  0.25500000920E-02 0. -1.
    10030    2    1    2    0    0  0.00000000000E+00  0.00000000000E+00 -0.14806185134E+04  0.31657825886E+04  0.27982044629E+04 0.  0.
        3    1    3    3  502    0  0.12100299802E+04 -0.12928781673E+03  0.40739730640E+02  0.12175991246E+04  0.10100000352E+00 0. -1.
       -3    1    3    3    0  502 -0.12100299802E+04  0.12928781673E+03 -0.15213582441E+04  0.19481834640E+04  0.10100000352E+00 0.  1.
</event>
<event>
 5   0  0.1330962E-05  0.2817766E+04  0.7818609E-02  0.8297774E-01
       -2   -1    0    0    0  501  0.00000000000E+00  0.00000000000E+00  0.97163045116E+03  0.97163045116E+03  0.25500000920E-02 0. -1.
        2   -1    0    0  501    0  0.00000000000E+00  0.00000000000E+00 -0.20429077134E+04  0.20429077134E+04  0.25500000920E-02 0.  1.
    10030    2    1    2    0    0  0.00000000000E+00  0.00000000000E+00 -0.10712772622E+04  0.30145381646E+04  0.28177660252E+04 0.  0.
        4    1    3    3  502    0 -0.12763425973E+04  0.59117280643E+03 -0.62131892261E+03  0.15377173112E+04  0.12699999809E+01 0. -1.
       -4    1    3    3    0  502  0.12763425973E+04 -0.59117280643E+03 -0.44995833964E+03  0.14768208534E+04  0.12699999809E+01 0.  1.
</event>
<event>
 5   0  0.1302063E-05  0.2806187E+04  0.7818609E-02  0.8301350E-01
       -2   -1    0    0    0  501  0.00000000000E+00  0.00000000000E+00  0.10276715863E+04  0.10276715863E+04  0.25500000920E-02 0.  1.
        2   -1    0    0  501    0  0.00000000000E+00  0.00000000000E+00 -0.19156622730E+04  0.19156622730E+04  0.25500000920E-02 0. -1.
    10030    2    1    2    0    0  0.00000000000E+00  0.00000000000E+00 -0.88799068674E+03  0.29433338593E+04  0.28061872260E+04 0.  0.
        2    1    3    3  502    0 -0.58987131681E+02 -0.28813761834E+03  0.99497612105E+03  0.10375356622E+04  0.25500000920E-02 0.  1.
       -2    1    3    3    0  502  0.58987131681E+02  0.28813761834E+03 -0.18829668078E+04  0.19057981971E+04  0.25500000920E-02 0. -1.
</event>
<event>
 5   0  0.1302063E-05  0.2793811E+04  0.7818609E-02  0.8305193E-01
       -2   -1    0    0    0  501  0.00000000000E+00  0.00000000000E+00  0.97980092954E+03  0.97980092955E+03  0.25500000920E-02 0.  1.
        2   -1    0    0  501    0  0.00000000000E+00  0.00000000000E+00 -0.19915722873E+04  0.19915722873E+04  0.25500000920E-02 0. -1.
    10030    2    1    2    0    0  0.00000000000E+00  0.00000000000E+00 -0.10117713578E+04  0.29713732169E+04  0.27938105722E+04 0.  0.
        2    1    3    3  502    0  0.10932684636E+03 -0.13298052853E+04 -0.94570155559E+03  0.16354466938E+04  0.25500000920E-02 0. -1.
       -2    1    3    3    0  502 -0.10932684636E+03  0.13298052853E+04 -0.66069802203E+02  0.13359265230E+04  0.25500000920E-02 0.  1.
</event>
<event>
 5   0  0.1388269E-05  0.2809488E+04  0.7818609E-02  0.8300329E-01
       -2   -1    0    0    0  501  0.00000000000E+00  0.00000000000E+00  0.15608144699E+04  0.15608144699E+04  0.25500000920E-02 0. -1.
        2   -1    0    0  501    0  0.00000000000E+00  0.00000000000E+00 -0.12642795125E+04  0.12642795125E+04  0.25500000920E-02 0.  1.
    10030    2    1    2    0    0  0.00000000000E+00  0.00000000000E+00  0.29653495741E+03  0.28250939823E+04  0.28094880366E+04 0.  0.
        1    1    3    3  502    0  0.10234159466E+04 -0.79879687525E+03  0.68776339029E+03  0.14691749824E+04  0.50400001928E-02 0. -1.
       -1    1    3    3    0  502 -0.10234159466E+04  0.79879687525E+03 -0.39122843288E+03  0.13559190000E+04  0.50400001928E-02 0.  1.
</event>
<event>
 5   0  0.5023691E-06  0.2772666E+04  0.7818609E-02  0.8311805E-01
        1   -1    0    0  501    0  0.00000000000E+00  0.00000000000E+00  0.12053241235E+04  0.12053241235E+04  0.50400001928E-02 0.  1.
       -1   -1    0    0    0  501  0.00000000000E+00  0.00000000000E+00 -0.15945252888E+04  0.15945252888E+04  0.50400001928E-02 0. -1.
    10030    2    1    2    0    0  0.00000000000E+00  0.00000000000E+00 -0.38920116533E+03  0.27998494123E+04  0.27726664395E+04 0.  0.
        5    1    3    3  502    0  0.61730739871E+02 -0.60285904151E+03 -0.14536798829E+04  0.15749466658E+04  0.46999998093E+01 0. -1.
       -5    1    3    3    0  502 -0.61730739871E+02  0.60285904151E+03  0.10644787176E+04  0.12249027465E+04  0.46999998093E+01 0.  1.
</event>
<event>
 5   0  0.5217999E-06  0.2805368E+04  0.7818609E-02  0.8301604E-01
       -1   -1    0    0    0  501  0.00000000000E+00  0.00000000000E+00  0.13120806868E+04  0.13120806868E+04  0.50400001928E-02 0. -1.
        1   -1    0    0  501    0  0.00000000000E+00  0.00000000000E+00 -0.14995435771E+04  0.14995435771E+04  0.50400001928E-02 0.  1.
    10030    2    1    2    0    0  0.00000000000E+00  0.00000000000E+00 -0.18746289028E+03  0.28116242639E+04  0.28053678308E+04 0.  0.
        1    1    3    3  502    0  0.33228226627E+03  0.36361449568E+03  0.12225501893E+04  0.13180500641E+04  0.50400001928E-02 0. -1.
       -1    1    3    3    0  502 -0.33228226627E+03 -0.36361449568E+03 -0.14100130796E+04  0.14935741999E+04  0.50400001928E-02 0.  1.
</event>
<event>
 5   0  0.1388269E-05  0.2851899E+04  0.7818609E-02  0.8287335E-01
       -2   -1    0    0    0  501  0.00000000000E+00  0.00000000000E+00  0.12206317605E+04  0.12206317605E+04  0.25500000920E-02 0. -1.
        2   -1    0    0  501    0  0.00000000000E+00  0.00000000000E+00 -0.16658026792E+04  0.16658026792E+04  0.25500000920E-02 0.  1.
    10030    2    1    2    0    0  0.00000000000E+00  0.00000000000E+00 -0.44517091872E+03  0.28864344396E+04  0.28518987758E+04 0.  0.
        1    1    3    3  502    0 -0.67819229887E+03  0.62820110546E+03  0.87626472872E+03  0.12737430267E+04  0.50400001928E-02 0. -1.
       -1    1    3    3    0  502  0.67819229887E+03 -0.62820110546E+03 -0.13214356474E+04  0.16126914130E+04  0.50400001928E-02 0.  1.
</event>
<event>
 5   0  0.5107453E-06  0.2776801E+04  0.7818609E-02  0.8310507E-01
       -1   -1    0    0    0  501  0.00000000000E+00  0.00000000000E+00  0.18876536812E+04  0.18876536812E+04  0.50400001928E-02 0.  1.
        1   -1    0    0  501    0  0.00000000000E+00  0.00000000000E+00 -0.10211915576E+04  0.10211915576E+04  0.50400001928E-02 0. -1.
    10030    2    1    2    0    0  0.00000000000E+00  0.00000000000E+00  0.86646212356E+03  0.29088452388E+04  0.27768010393E+04 0.  0.
        2    1    3    3  502    0 -0.12035324900E+04  0.66592079595E+03  0.23526012667E+03  0.13954527180E+04  0.25500000920E-02 0. -1.
       -2    1    3    3    0  502  0.12035324900E+04 -0.66592079595E+03  0.63120199689E+03  0.15133925208E+04  0.25500000920E-02 0.  1.
</event>
<event>
 5   0  0.4764214E-06  0.2776801E+04  0.7818609E-02  0.8310507E-01
        1   -1    0    0  501    0  0.00000000000E+00  0.00000000000E+00  0.12115586184E+04  0.12115586184E+04  0.50400001928E-02 0. -1.
       -1   -1    0    0    0  501  0.00000000000E+00  0.00000000000E+00 -0.15910549914E+04  0.15910549914E+04  0.50400001928E-02 0.  1.
    10030    2    1    2    0    0  0.00000000000E+00  0.00000000000E+00 -0.37949637302E+03  0.28026136098E+04  0.27768013160E+04 0.  0.
        3    1    3    3  502    0 -0.43717373999E+03 -0.18067470660E+03 -0.15072143530E+04  0.15797022962E+04  0.10100000352E+00 0.  1.
       -3    1    3    3    0  502  0.43717373999E+03  0.18067470660E+03  0.11277179799E+04  0.12229113136E+04  0.10100000352E+00 0. -1.
</event>
<event>
 5   0  0.5281919E-06  0.2334446E+04  0.7818609E-02  0.8464462E-01
       -1   -1    0    0    0  501  0.00000000000E+00  0.00000000000E+00  0.64983631668E+03  0.64983631670E+03  0.50400001928E-02 0. -1.
        1   -1    0    0  501    0  0.00000000000E+00  0.00000000000E+00 -0.20965417649E+04  0.20965417649E+04  0.50400001928E-02 0.  1.
    10030    2    1    2    0    0  0.00000000000E+00  0.00000000000E+00 -0.14467054482E+04  0.27463780816E+04  0.23344455259E+04 0.  0.
        4    1    3    3  502    0  0.25867269097E+03  0.32863202118E+03 -0.20053668310E+04  0.20485136822E+04  0.12699999809E+01 0.  1.
       -4    1    3    3    0  502 -0.25867269097E+03 -0.32863202118E+03  0.55866138280E+03  0.69786439938E+03  0.12699999809E+01 0. -1.
</event>
<event>
 5   0  0.1388269E-05  0.2379964E+04  0.7818609E-02  0.8447043E-01
       -2   -1    0    0    0  501  0.00000000000E+00  0.00000000000E+00  0.14590683919E+04  0.14590683919E+04  0.25500000920E-02 0.  1.
        2   -1    0    0  501    0  0.00000000000E+00  0.00000000000E+00 -0.97052123450E+03  0.97052123450E+03  0.25500000920E-02 0. -1.
    10030    2    1    2    0    0  0.00000000000E+00  0.00000000000E+00  0.48854715745E+03  0.24295896264E+04  0.23799637451E+04 0.  0.
        1    1    3    3  502    0 -0.11484626837E+04  0.30884290407E+03  0.20210386164E+03  0.12063152350E+04  0.50400001928E-02 0. -1.
       -1    1    3    3    0  502  0.11484626837E+04 -0.30884290407E+03  0.28644329581E+03  0.12232743915E+04  0.50400001928E-02 0.  1.
</event>
<event>
 5   0  0.5107453E-06  0.2783629E+04  0.7818609E-02  0.8308369E-01
       -1   -1    0    0    0  501  0.00000000000E+00  0.00000000000E+00  0.60710333740E+03  0.60710333742E+03  0.50400001928E-02 0. -1.
        1   -1    0    0  501    0  0.00000000000E+00  0.00000000000E+00 -0.31908048552E+04  0.31908048552E+04  0.50400001928E-02 0.  1.
    10030    2    1    2    0    0  0.00000000000E+00  0.00000000000E+00 -0.25837015178E+04  0.37979081927E+04  0.27836294844E+04 0.  0.
        2    1    3    3  502    0  0.44251506706E+03  0.82625233618E+03 -0.26956542439E+04  0.28539559055E+04  0.25500000920E-02 0.  1.
       -2    1    3    3    0  502 -0.44251506706E+03 -0.82625233618E+03  0.11195272608E+03  0.94395228719E+03  0.25500000920E-02 0. -1.
</event>
<event>
 5   0  0.5023691E-06  0.2795664E+04  0.7818609E-02  0.8304616E-01
        1   -1    0    0  501    0  0.00000000000E+00  0.00000000000E+00  0.17739735648E+04  0.17739735648E+04  0.50400001928E-02 0.  1.
       -1   -1    0    0    0  501  0.00000000000E+00  0.00000000000E+00 -0.11014446095E+04  0.11014446095E+04  0.50400001928E-02 0. -1.
    10030    2    1    2    0    0  0.00000000000E+00  0.00000000000E+00  0.67252895531E+03  0.28754181744E+04  0.27956635137E+04 0.  0.
        5    1    3    3  502    0 -0.40812762387E+03  0.27867500301E+03 -0.10085859636E+04  0.11231632342E+04  0.46999998093E+01 0. -1.
       -5    1    3    3    0  502  0.40812762387E+03 -0.27867500301E+03  0.16811149189E+04  0.17522549402E+04  0.46999998093E+01 0.  1.
</event>
<event>
 5   0  0.5023691E-06  0.2804985E+04  0.7818609E-02  0.8301722E-01
        1   -1    0    0  501    0  0.00000000000E+00  0.00000000000E+00  0.13091382408E+04  0.13091382408E+04  0.50400001928E-02 0.  1.
       -1   -1    0    0    0  501  0.00000000000E+00  0.00000000000E+00 -0.15025041064E+04  0.15025041064E+04  0.50400001928E-02 0. -1.
    10030    2    1    2    0    0  0.00000000000E+00  0.00000000000E+00 -0.19336586563E+03  0.28116423472E+04  0.28049852638E+04 0.  0.
        5    1    3    3  502    0 -0.16632929057E+03 -0.12787177038E+04  0.45615033854E+03  0.13678010164E+04  0.46999998093E+01 0. -1.
       -5    1    3    3    0  502  0.16632929057E+03  0.12787177038E+04 -0.64951620417E+03  0.14438413308E+04  0.46999998093E+01 0.  1.
</event>
<event>
 5   0  0.1388269E-05  0.2787473E+04  0.7818609E-02  0.8307168E-01
        2   -1    0    0  501    0  0.00000000000E+00  0.00000000000E+00  0.23561280160E+04  0.23561280160E+04  0.25500000920E-02 0. -1.
       -2   -1    0    0    0  501  0.00000000000E+00  0.00000000000E+00 -0.82444623353E+03  0.82444623353E+03  0.25500000920E-02 0.  1.
    10030    2    1    2    0    0  0.00000000000E+00  0.00000000000E+00  0.15316817824E+04  0.31805742495E+04  0.27874725961E+04 0.  0.
        1    1    3    3  502    0 -0.11944772065E+04 -0.26627245492E+03  0.15268486116E+04  0.19567686372E+04  0.50400001928E-02 0. -1.
       -1    1    3    3    0  502  0.11944772065E+04  0.26627245492E+03  0.48331708789E+01  0.12238056123E+04  0.50400001928E-02 0.  1.
</event>
<event>
 5   0  0.5023691E-06  0.2732996E+04  0.7818609E-02  0.8324378E-01
       -1   -1    0    0    0  501  0.00000000000E+00  0.00000000000E+00  0.10395480363E+04  0.10395480364E+04  0.50400001928E-02 0. -1.
        1   -1    0    0  501    0  0.00000000000E+00  0.00000000000E+00 -0.17962778053E+04  0.17962778053E+04  0.50400001928E-02 0.  1.
    10030    2    1    2    0    0  0.00000000000E+00  0.00000000000E+00 -0.75672976895E+03  0.28358258417E+04  0.27329962058E+04 0.  0.
        5    1    3    3  502    0  0.16247367971E+03 -0.16539723894E+03  0.10189819648E+04  0.10450360174E+04  0.46999998093E+01 0. -1.
       -5    1    3    3    0  502 -0.16247367971E+03  0.16539723894E+03 -0.17757117337E+04  0.17907898242E+04  0.46999998093E+01 0.  1.
</event>
<event>
 5   0  0.1302063E-05  0.2859069E+04  0.7818609E-02  0.8285161E-01
       -2   -1    0    0    0  501  0.00000000000E+00  0.00000000000E+00  0.15737713543E+04  0.15737713543E+04  0.25500000920E-02 0. -1.
        2   -1    0    0  501    0  0.00000000000E+00  0.00000000000E+00 -0.12985173704E+04  0.12985173704E+04  0.25500000920E-02 0.  1.
    10030    2    1    2    0    0  0.00000000000E+00  0.00000000000E+00  0.27525398387E+03  0.28722887247E+04  0.28590693874E+04 0.  0.
        2    1    3    3  502    0  0.49911306960E+03  0.87386697391E+03 -0.88235651896E+03  0.13383984350E+04  0.25500000920E-02 0.  1.
       -2    1    3    3    0  502 -0.49911306960E+03 -0.87386697391E+03  0.11576105028E+04  0.15338902896E+04  0.25500000920E-02 0. -1.
</event>
<event>
 5   0  0.5107453E-06  0.2764005E+04  0.7818609E-02  0.8314531E-01
       -1   -1    0    0    0  501  0.00000000000E+00  0.00000000000E+00  0.11653413356E+04  0.11653413357E+04  0.50400001928E-02 0.  1.
        1   -1    0    0  501    0  0.00000000000E+00  0.00000000000E+00 -0.16389453282E+04  0.16389453282E+04  0.50400001928E-02 0. -1.
    10030    2    1    2    0    0  0.00000000000E+00  0.00000000000E+00 -0.47360399250E+03  0.28042866638E+04  0.27640048754E+04 0.  0.
        2    1    3    3  502    0 -0.12012349687E+04  0.67809898791E+03 -0.15102970252E+03  0.13876576157E+04  0.25500000920E-02 0.  1.
       -2    1    3    3    0  502  0.12012349687E+04 -0.67809898791E+03 -0.32257428998E+03  0.14166290481E+04  0.25500000920E-02 0. -1.
</event>
<event>
 5   0  0.1283052E-05  0.2549662E+04  0.7818609E-02  0.8385504E-01
       -2   -1    0    0    0  501  0.00000000000E+00  0.00000000000E+00  0.12281598652E+04  0.12281598652E+04  0.25500000920E-02 0. -1.
        2   -1    0    0  501    0  0.00000000000E+00  0.00000000000E+00 -0.13232752121E+04  0.13232752121E+04  0.25500000920E-02 0.  1.
    10030    2    1    2    0    0  0.00000000000E+00  0.00000000000E+00 -0.95115346866E+02  0.25514350773E+04  0.25496615509E+04 0.  0.
        5    1    3    3  502    0 -0.94820114101E+03 -0.23520301721E+03 -0.86713014548E+03  0.13062705089E+04  0.46999998093E+01 0.  1.
       -5    1    3    3    0  502  0.94820114101E+03  0.23520301721E+03  0.77201479862E+03  0.12451645684E+04  0.46999998093E+01 0. -1.
</event>
<event>
 5   0  0.1330962E-05  0.2797033E+04  0.7818609E-02  0.8304190E-01
       -2   -1    0    0    0  501  0.00000000000E+00  0.00000000000E+00  0.73127713043E+03  0.73127713043E+03  0.25500000920E-02 0. -1.
        2   -1    0    0  501    0  0.00000000000E+00  0.00000000000E+00 -0.26745657437E+04  0.26745657437E+04  0.25500000920E-02 0.  1.
    10030    2    1    2    0    0  0.00000000000E+00  0.00000000000E+00 -0.19432886133E+04  0.34058428742E+04  0.27970332585E+04 0.  0.
        4    1    3    3  502    0  0.11526176344E+04 -0.52189176629E+03 -0.24619046209E+03  0.12889956491E+04  0.12699999809E+01 0. -1.
       -4    1    3    3    0  502 -0.11526176344E+04  0.52189176629E+03 -0.16970981512E+04  0.21168472251E+04  0.12699999809E+01 0.  1.
</event>
<event>
 5   0  0.1330962E-05  0.2798107E+04  0.7818609E-02  0.8303856E-01
        2   -1    0    0  501    0  0.00000000000E+00  0.00000000000E+00  0.17029842363E+04  0.17029842363E+04  0.25500000920E-02 0. -1.
       -2   -1    0    0    0  501  0.00000000000E+00  0.00000000000E+00 -0.11493654330E+04  0.11493654330E+04  0.25500000920E-02 0.  1.
    10030    2    1    2    0    0  0.00000000000E+00  0.00000000000E+00  0.55361880326E+03  0.28523496693E+04  0.27981073704E+04 0.  0.
        4    1    3    3  502    0  0.67763669543E+03 -0.10718945932E+04  0.87919636364E+03  0.15430934413E+04  0.12699999809E+01 0. -1.
       -4    1    3    3    0  502 -0.67763669543E+03  0.10718945932E+04 -0.32557756038E+03  0.13092562280E+04  0.12699999809E+01 0.  1.
</event>
<event>
 5   0  0.5023691E-06  0.2802989E+04  0.7818609E-02  0.8302341E-01
        1   -1    0    0  501    0  0.00000000000E+00  0.00000000000E+00  0.12322866313E+04  0.12322866313E+04  0.50400001928E-02 0.  1.
       -1   -1    0    0    0  501  0.00000000000E+00  0.00000000000E+00 -0.15939362003E+04  0.15939362003E+04  0.50400001928E-02 0. -1.
    10030    2    1    2    0    0  0.00000000000E+00  0.00000000000E+00 -0.36164956903E+03  0.28262228316E+04  0.28029885984E+04 0.  0.
        5    1    3    3  502    0  0.54369836313E+03 -0.12765702517E+04 -0.37975351019E+03  0.14385667646E+04  0.46999998093E+01 0. -1.
       -5    1    3    3    0  502 -0.54369836313E+03  0.12765702517E+04  0.18103941160E+02  0.13876560670E+04  0.46999998093E+01 0.  1.
</event>
<event>
 5   0  0.4447500E-06  0.2752684E+04  0.7818609E-02  0.8318110E-01
       -3   -1    0    0    0  501  0.00000000000E+00  0.00000000000E+00  0.76683668022E+03  0.76683668687E+03  0.10100000352E+00 0.  1.
        3   -1    0    0  501    0  0.00000000000E+00  0.00000000000E+00 -0.24703007320E+04  0.24703007340E+04  0.10100000352E+00 0. -1.
    10030    2    1    2    0    0  0.00000000000E+00  0.00000000000E+00 -0.17034640517E+04  0.32371374209E+04  0.27526839459E+04 0.  0.
        2    1    3    3  502    0  0.81575581589E+03 -0.94988519721E+03 -0.17968740792E+03  0.12649217381E+04  0.25500000920E-02 0.  1.
       -2    1    3    3    0  502 -0.81575581589E+03  0.94988519721E+03 -0.15237766438E+04  0.19722156828E+04  0.25500000920E-02 0. -1.
</event>
<event>
 5   0  0.5023691E-06  0.2773377E+04  0.7818609E-02  0.8311582E-01
       -1   -1    0    0    0  501  0.00000000000E+00  0.00000000000E+00  0.98846014189E+03  0.98846014190E+03  0.50400001928E-02 0. -1.
        1   -1    0    0  501    0  0.00000000000E+00  0.00000000000E+00 -0.19453542365E+04  0.19453542365E+04  0.50400001928E-02 0.  1.
    10030    2    1    2    0    0  0.00000000000E+00  0.00000000000E+00 -0.95689409460E+03  0.29338143784E+04  0.27733770927E+04 0.  0.
        5    1    3    3  502    0  0.47101037350E+03  0.83306740831E+03  0.58311435394E+03  0.11206678895E+04  0.46999998093E+01 0. -1.
       -5    1    3    3    0  502 -0.47101037350E+03 -0.83306740831E+03 -0.15400084485E+04  0.18131464889E+04  0.46999998093E+01 0.  1.
</event>
<event>
 5   0  0.1330962E-05  0.2864378E+04  0.7818609E-02  0.8283556E-01
       -2   -1    0    0    0  501  0.00000000000E+00  0.00000000000E+00  0.12185690487E+04  0.12185690487E+04  0.25500000920E-02 0.  1.
        2   -1    0    0  501    0  0.00000000000E+00  0.00000000000E+00 -0.16832577349E+04  0.16832577349E+04  0.25500000920E-02 0. -1.
    10030    2    1    2    0    0  0.00000000000E+00  0.00000000000E+00 -0.46468868624E+03  0.29018267836E+04  0.28643783107E+04 0.  0.
        4    1    3    3  502    0 -0.12432619178E+02 -0.95006588355E+03 -0.13179816337E+04  0.16247636606E+04  0.12699999809E+01 0. -1.
       -4    1    3    3    0  502  0.12432619178E+02  0.95006588355E+03  0.85329294746E+03  0.12770631230E+04  0.12699999809E+01 0.  1.
</event>
<event>
 5   0  0.1283052E-05  0.2821963E+04  0.7818609E-02  0.8296482E-01
       -2   -1    0    0    0  501  0.00000000000E+00  0.00000000000E+00  0.11444643629E+04  0.11444643629E+04  0.25500000920E-02 0.  1.
        2   -1    0    0  501    0  0.00000000000E+00  0.00000000000E+00 -0.17395638747E+04  0.17395638747E+04  0.25500000920E-02 0. -1.
    10030    2    1    2    0    0  0.00000000000E+00  0.00000000000E+00 -0.59509951181E+03  0.28840282376E+04  0.28219630484E+04 0.  0.
        5    1    3    3  502    0  0.14036739200E+04 -0.93076893579E+02 -0.40895638855E+03  0.14650021159E+04  0.46999998093E+01 0.  1.
       -5    1    3    3    0  502 -0.14036739200E+04  0.93076893579E+02 -0.18614312326E+03  0.14190261217E+04  0.46999998093E+01 0. -1.
</event>
<event>
 5   0  0.4764214E-06  0.2773822E+04  0.7818609E-02  0.8311442E-01
       -1   -1    0    0    0  501  0.00000000000E+00  0.00000000000E+00  0.13791003100E+04  0.13791003100E+04  0.50400001928E-02 0.  1.
        1   -1    0    0  501    0  0.00000000000E+00  0.00000000000E+00 -0.13947654528E+04  0.13947654528E+04  0.50400001928E-02 0. -1.
    10030    2    1    2    0    0  0.00000000000E+00  0.00000000000E+00 -0.15665142812E+02  0.27738657629E+04  0.27738215288E+04 0.  0.
        3    1    3    3  502    0  0.11645498461E+04 -0.30904472721E+03  0.67908192072E+03  0.13830535972E+04  0.10100000352E+00 0.  1.
       -3    1    3    3    0  502 -0.11645498461E+04  0.30904472721E+03 -0.69474706353E+03  0.13908121656E+04  0.10100000352E+00 0. -1.
</event>
<event>
 5   0  0.1330962E-05  0.2762500E+04  0.7818609E-02  0.8315006E-01
       -2   -1    0    0    0  501  0.00000000000E+00  0.00000000000E+00  0.11201398320E+04  0.11201398320E+04  0.25500000920E-02 0.  1.
        2   -1    0    0  501    0  0.00000000000E+00  0.00000000000E+00 -0.17032259164E+04  0.17032259164E+04  0.25500000920E-02 0. -1.
    10030    2    1    2    0    0  0.00000000000E+00  0.00000000000E+00 -0.58308608441E+03  0.28233657484E+04  0.27624997317E+04 0.  0.
        4    1    3    3  502    0  0.96948318984E+03  0.90380511091E+03  0.10572189495E+03  0.13296390735E+04  0.12699999809E+01 0.  1.
       -4    1    3    3    0  502 -0.96948318984E+03 -0.90380511091E+03 -0.68880797936E+03  0.14937266749E+04  0.12699999809E+01 0. -1.
</event>
<event>
 5   0  0.1388269E-05  0.2768182E+04  0.7818609E-02  0.8313215E-01
       -2   -1    0    0    0  501  0.00000000000E+00  0.00000000000E+00  0.10966761083E+04  0.10966761083E+04  0.25500000920E-02 0.  1.
        2   -1    0    0  501    0  0.00000000000E+00  0.00000000000E+00 -0.17468314083E+04  0.17468314083E+04  0.25500000920E-02 0. -1.
    10030    2    1    2    0    0  0.00000000000E+00  0.00000000000E+00 -0.65015530000E+03  0.28435075167E+04  0.27681822706E+04 0.  0.
        1    1    3    3  502    0 -0.82367914743E+03  0.96653910982E+03  0.24041402482E+03  0.12924566113E+04  0.50400001928E-02 0.  1.
       -1    1    3    3    0  502  0.82367914743E+03 -0.96653910982E+03 -0.89056932483E+03  0.15510509054E+04  0.50400001928E-02 0. -1.
</event>
<event>
 5   0  0.4764214E-06  0.2697061E+04  0.7818609E-02  0.8335959E-01
        1   -1    0    0  501    0  0.00000000000E+00  0.00000000000E+00  0.13242925549E+04  0.13242925549E+04  0.50400001928E-02 0. -1.
       -1   -1    0    0    0  501  0.00000000000E+00  0.00000000000E+00 -0.13732123061E+04  0.13732123061E+04  0.50400001928E-02 0.  1.
    10030    2    1    2    0    0  0.00000000000E+00  0.00000000000E+00 -0.48919751199E+02  0.26975048610E+04  0.26970612401E+04 0.  0.
        3    1    3    3  502    0  0.10460427384E+04 -0.53579688659E+03 -0.68581829688E+03  0.13607462882E+04  0.10100000352E+00 0.  1.
       -3    1    3    3    0  502 -0.10460427384E+04  0.53579688659E+03  0.63689854568E+03  0.13367585728E+04  0.10100000352E+00 0. -1.
</event>
<event>
 5   0  0.1350863E-05  0.2756273E+04  0.7818609E-02  0.8316974E-01
        2   -1    0    0  501    0  0.00000000000E+00  0.00000000000E+00  0.22030399768E+04  0.22030399768E+04  0.25500000920E-02 0.  1.
       -2   -1    0    0    0  501  0.00000000000E+00  0.00000000000E+00 -0.86210896115E+03  0.86210896115E+03  0.25500000920E-02 0. -1.
    10030    2    1    2    0    0  0.00000000000E+00  0.00000000000E+00  0.13409310157E+04  0.30651489380E+04  0.27562732127E+04 0.  0.
        3    1    3    3  502    0  0.45535532048E+03 -0.83171705920E+03  0.17826165919E+04  0.20191145729E+04  0.10100000352E+00 0.  1.
       -3    1    3    3    0  502 -0.45535532048E+03  0.83171705920E+03 -0.44168557626E+03  0.10460343651E+04  0.10100000352E+00 0. -1.
</event>
<event>
 5   0  0.4764214E-06  0.2842740E+04  0.7818609E-02  0.8290121E-01
        1   -1    0    0  501    0  0.00000000000E+00  0.00000000000E+00  0.13902323627E+04  0.13902323627E+04  0.50400001928E-02 0.  1.
       -1   -1    0    0    0  501  0.00000000000E+00  0.00000000000E+00 -0.14532046790E+04  0.14532046790E+04  0.50400001928E-02 0. -1.
    10030    2    1    2    0    0  0.00000000000E+00  0.00000000000E+00 -0.62972316346E+02  0.28434370417E+04  0.28427396465E+04 0.  0.
        3    1    3    3  502    0 -0.65870559263E+03 -0.12335160608E+04  0.22320787502E+03  0.14160779271E+04  0.10100000352E+00 0.  1.
       -3    1    3    3    0  502  0.65870559263E+03  0.12335160608E+04 -0.28618019137E+03  0.14273591146E+04  0.10100000352E+00 0. -1.
</event>
<event>
 5   0  0.5023691E-06  0.2586136E+04  0.7818609E-02  0.8372926E-01
        1   -1    0    0  501    0  0.00000000000E+00  0.00000000000E+00  0.15643340357E+04  0.15643340357E+04  0.50400001928E-02 0. -1.
       -1   -1    0    0    0  501  0.00000000000E+00  0.00000000000E+00 -0.10688413405E+04  0.10688413405E+04  0.50400001928E-02 0.  1.
    10030    2    1    2    0    0  0.00000000000E+00  0.00000000000E+00  0.49549269518E+03  0.26331753762E+04  0.25861360272E+04 0.  0.
        5    1    3    3  502    0  0.51623680913E+03  0.31663094980E+03  0.14110010190E+04  0.15354808912E+04  0.46999998093E+01 0. -1.
       -5    1    3    3    0  502 -0.51623680913E+03 -0.31663094980E+03 -0.91550832385E+03  0.10976944850E+04  0.46999998093E+01 0.  1.
</event>
<event>
 5   0  0.5217999E-06  0.2780380E+04  0.7818609E-02  0.8309386E-01
        1   -1    0    0  501    0  0.00000000000E+00  0.00000000000E+00  0.13662359384E+04  0.13662359384E+04  0.50400001928E-02 0. -1.
       -1   -1    0    0    0  501  0.00000000000E+00  0.00000000000E+00 -0.14145639181E+04  0.14145639181E+04  0.50400001928E-02 0.  1.
    10030    2    1    2    0    0  0.00000000000E+00  0.00000000000E+00 -0.48327979679E+02  0.27807998566E+04  0.27803798749E+04 0.  0.
        1    1    3    3  502    0  0.37615339525E+03 -0.10682955124E+04 -0.83043796939E+03  0.14044122968E+04  0.50400001928E-02 0.  1.
       -1    1    3    3    0  502 -0.37615339525E+03  0.10682955124E+04  0.78210998971E+03  0.13763875597E+04  0.50400001928E-02 0. -1.
</event>
<event>
 5   0  0.5217999E-06  0.2771827E+04  0.7818609E-02  0.8312069E-01
        1   -1    0    0  501    0  0.00000000000E+00  0.00000000000E+00  0.16643468590E+04  0.16643468590E+04  0.50400001928E-02 0. -1.
       -1   -1    0    0    0  501  0.00000000000E+00  0.00000000000E+00 -0.11540602541E+04  0.11540602541E+04  0.50400001928E-02 0.  1.
    10030    2    1    2    0    0  0.00000000000E+00  0.00000000000E+00  0.51028660489E+03  0.28184071131E+04  0.27718272378E+04 0.  0.
        1    1    3    3  502    0  0.12305219617E+03 -0.10327867862E+04 -0.67619999341E+03  0.12405792275E+04  0.50400001928E-02 0.  1.
       -1    1    3    3    0  502 -0.12305219617E+03  0.10327867862E+04  0.11864865983E+04  0.15778278856E+04  0.50400001928E-02 0. -1.
</event>
<event>
 5   0  0.1350863E-05  0.2802113E+04  0.7818609E-02  0.8302613E-01
       -2   -1    0    0    0  501  0.00000000000E+00  0.00000000000E+00  0.27753327148E+04  0.27753327148E+04  0.25500000920E-02 0.  1.
        2   -1    0    0  501    0  0.00000000000E+00  0.00000000000E+00 -0.70728769574E+03  0.70728769575E+03  0.25500000920E-02 0. -1.
    10030    2    1    2    0    0  0.00000000000E+00  0.00000000000E+00  0.20680450191E+04  0.34826204106E+04  0.28021125465E+04 0.  0.
        3    1    3    3  502    0  0.67298833975E+03  0.73772732306E+03  0.22554424691E+04  0.24666121808E+04  0.10100000352E+00 0.  1.
       -3    1    3    3    0  502 -0.67298833975E+03 -0.73772732306E+03 -0.18739745000E+03  0.10160082298E+04  0.10100000352E+00 0. -1.
</event>
<event>
 5   0  0.5217999E-06  0.2831528E+04  0.7818609E-02  0.8293546E-01
       -1   -1    0    0    0  501  0.00000000000E+00  0.00000000000E+00  0.12003968755E+04  0.12003968755E+04  0.50400001928E-02 0. -1.
        1   -1    0    0  501    0  0.00000000000E+00  0.00000000000E+00 -0.16697710587E+04  0.16697710587E+04  0.50400001928E-02 0.  1.
    10030    2    1    2    0    0  0.00000000000E+00  0.00000000000E+00 -0.46937418323E+03  0.28701679342E+04  0.28315281822E+04 0.  0.
        1    1    3    3  502    0  0.68442269009E+03 -0.32524636684E+03 -0.14469030584E+04  0.16333242417E+04  0.50400001928E-02 0.  1.
       -1    1    3    3    0  502 -0.68442269009E+03  0.32524636684E+03  0.97752887520E+03  0.12368436925E+04  0.50400001928E-02 0. -1.
</event>
<event>
 5   0  0.5107453E-06  0.2831381E+04  0.7818609E-02  0.8293592E-01
       -1   -1    0    0    0  501  0.00000000000E+00  0.00000000000E+00  0.13821768830E+04  0.13821768830E+04  0.50400001928E-02 0. -1.
        1   -1    0    0  501    0  0.00000000000E+00  0.00000000000E+00 -0.14500165340E+04  0.14500165340E+04  0.50400001928E-02 0.  1.
    10030    2    1    2    0    0  0.00000000000E+00  0.00000000000E+00 -0.67839651045E+02  0.28321934170E+04  0.28313808174E+04 0.  0.
        2    1    3    3  502    0  0.22051482407E+03 -0.80997846433E+03 -0.11741976161E+04  0.14434098316E+04  0.25500000920E-02 0.  1.
       -2    1    3    3    0  502 -0.22051482407E+03  0.80997846433E+03  0.11063579650E+04  0.13887835854E+04  0.25500000920E-02 0. -1.
</event>
<event>
 5   0  0.5023691E-06  0.2870121E+04  0.7818609E-02  0.8281823E-01
        1   -1    0    0  501    0  0.00000000000E+00  0.00000000000E+00  0.15784777676E+04  0.15784777676E+04  0.50400001928E-02 0.  1.
       -1   -1    0    0    0  501  0.00000000000E+00  0.00000000000E+00 -0.13046735240E+04  0.13046735240E+04  0.50400001928E-02 0. -1.
    10030    2    1    2    0    0  0.00000000000E+00  0.00000000000E+00  0.27380424357E+03  0.28831512917E+04  0.28701206607E+04 0.  0.
        5    1    3    3  502    0 -0.22242389445E+03 -0.20488496972E+03 -0.12722946497E+04  0.13077484488E+04  0.46999998093E+01 0. -1.
       -5    1    3    3    0  502  0.22242389445E+03  0.20488496972E+03  0.15460988933E+04  0.15754028429E+04  0.46999998093E+01 0.  1.
</event>
<event>
 5   0  0.1330962E-05  0.2801797E+04  0.7818609E-02  0.8302711E-01
       -2   -1    0    0    0  501  0.00000000000E+00  0.00000000000E+00  0.11003238109E+04  0.11003238109E+04  0.25500000920E-02 0. -1.
        2   -1    0    0  501    0  0.00000000000E+00  0.00000000000E+00 -0.17835809301E+04  0.17835809301E+04  0.25500000920E-02 0.  1.
    10030    2    1    2    0    0  0.00000000000E+00  0.00000000000E+00 -0.68325711920E+03  0.28839047409E+04  0.28017969705E+04 0.  0.
        4    1    3    3  502    0  0.60794861101E+03 -0.76151290162E+03  0.69435161874E+03  0.11965070816E+04  0.12699999809E+01 0. -1.
       -4    1    3    3    0  502 -0.60794861101E+03  0.76151290162E+03 -0.13776087379E+04  0.16873976593E+04  0.12699999809E+01 0.  1.
</event>
<event>
 5   0  0.1350863E-05  0.2730202E+04  0.7818609E-02  0.8325271E-01
        2   -1    0    0  501    0  0.00000000000E+00  0.00000000000E+00  0.12574567049E+04  0.12574567049E+04  0.25500000920E-02 0.  1.
       -2   -1    0    0    0  501  0.00000000000E+00  0.00000000000E+00 -0.14819604708E+04  0.14819604708E+04  0.25500000920E-02 0. -1.
    10030    2    1    2    0    0  0.00000000000E+00  0.00000000000E+00 -0.22450376598E+03  0.27394171757E+04  0.27302022858E+04 0.  0.
        3    1    3    3  502    0  0.71682569908E+03  0.10255731476E+04  0.43535729887E+03  0.13248303106E+04  0.10100000352E+00 0.  1.
       -3    1    3    3    0  502 -0.71682569908E+03 -0.10255731476E+04 -0.65986106484E+03  0.14145868651E+04  0.10100000352E+00 0. -1.
</event>
<event>
 5   0  0.5217999E-06  0.2774530E+04  0.7818609E-02  0.8311220E-01
       -1   -1    0    0    0  501  0.00000000000E+00  0.00000000000E+00  0.62307135008E+03  0.62307135010E+03  0.50400001928E-02 0. -1.
        1   -1    0    0  501    0  0.00000000000E+00  0.00000000000E+00 -0.30887369446E+04  0.30887369446E+04  0.50400001928E-02 0.  1.
    10030    2    1    2    0    0  0.00000000000E+00  0.00000000000E+00 -0.24656655945E+04  0.37118082947E+04  0.27745295084E+04 0.  0.
        1    1    3    3  502    0 -0.22289156309E+03 -0.72460033163E+03 -0.27871055556E+04  0.28883704173E+04  0.50400001928E-02 0.  1.
       -1    1    3    3    0  502  0.22289156309E+03  0.72460033163E+03  0.32143996101E+03  0.82343787747E+03  0.50400001928E-02 0. -1.
</event>
<event>
 5   0  0.5107453E-06  0.2739741E+04  0.7818609E-02  0.8322224E-01
       -1   -1    0    0    0  501  0.00000000000E+00  0.00000000000E+00  0.13140491548E+04  0.13140491548E+04  0.50400001928E-02 0.  1.
        1   -1    0    0  501    0  0.00000000000E+00  0.00000000000E+00 -0.14280634593E+04  0.14280634593E+04  0.50400001928E-02 0. -1.
    10030    2    1    2    0    0  0.00000000000E+00  0.00000000000E+00 -0.11401430445E+03  0.27421126141E+04  0.27397412883E+04 0.  0.
        2    1    3    3  502    0 -0.24830812557E+03 -0.25673305306E+03 -0.13806406690E+04  0.14260916670E+04  0.25500000920E-02 0. -1.
       -2    1    3    3    0  502  0.24830812557E+03  0.25673305306E+03  0.12666263646E+04  0.13160209471E+04  0.25500000920E-02 0.  1.
</event>
<event>
 5   0  0.5281919E-06  0.2707108E+04  0.7818609E-02  0.8332702E-01
       -1   -1    0    0    0  501  0.00000000000E+00  0.00000000000E+00  0.72947001092E+03  0.72947001094E+03  0.50400001928E-02 0. -1.
        1   -1    0    0  501    0  0.00000000000E+00  0.00000000000E+00 -0.25115602832E+04  0.25115602832E+04  0.50400001928E-02 0.  1.
    10030    2    1    2    0    0  0.00000000000E+00  0.00000000000E+00 -0.17820902723E+04  0.32410302941E+04  0.27071076131E+04 0.  0.
        4    1    3    3  502    0 -0.81084354278E+03 -0.55456805896E+03  0.22378959042E+03  0.10075199137E+04  0.12699999809E+01 0. -1.
       -4    1    3    3    0  502  0.81084354278E+03  0.55456805896E+03 -0.20058798627E+04  0.22335103804E+04  0.12699999809E+01 0.  1.
</event>
<event>
 5   0  0.4764214E-06  0.2709275E+04  0.7818609E-02  0.8332002E-01
       -1   -1    0    0    0  501  0.00000000000E+00  0.00000000000E+00  0.82271132581E+03  0.82271132582E+03  0.50400001928E-02 0.  1.
        1   -1    0    0  501    0  0.00000000000E+00  0.00000000000E+00 -0.22304820718E+04  0.22304820718E+04  0.50400001928E-02 0. -1.
    10030    2    1    2    0    0  0.00000000000E+00  0.00000000000E+00 -0.14077707460E+04  0.30531933977E+04  0.27092750784E+04 0.  0.
        3    1    3    3  502    0 -0.10435696654E+04 -0.68779680433E+03 -0.12926414627E+04  0.17980611924E+04  0.10100000352E+00 0. -1.
       -3    1    3    3    0  502  0.10435696654E+04  0.68779680433E+03 -0.11512928333E+03  0.12551322052E+04  0.10100000352E+00 0.  1.
</event>
<event>
 5   0  0.4447500E-06  0.2822582E+04  0.7818609E-02  0.8296292E-01
        3   -1    0    0  501    0  0.00000000000E+00  0.00000000000E+00  0.28881297714E+04  0.28881297732E+04  0.10100000352E+00 0.  1.
       -3   -1    0    0    0  501  0.00000000000E+00  0.00000000000E+00 -0.68963050943E+03  0.68963051683E+03  0.10100000352E+00 0. -1.
    10030    2    1    2    0    0  0.00000000000E+00  0.00000000000E+00  0.21984992620E+04  0.35777602900E+04  0.28225820958E+04 0.  0.
        3    1    3    3  502    0 -0.52148664245E+03 -0.24727212064E+03  0.27317079864E+04  0.27920100918E+04  0.10100000352E+00 0.  1.
       -3    1    3    3    0  502  0.52148664245E+03  0.24727212064E+03 -0.53320872441E+03  0.78575019815E+03  0.10100000352E+00 0. -1.
</event>
<event>
 5   0  0.5217999E-06  0.2742268E+04  0.7818609E-02  0.8321419E-01
        1   -1    0    0  501    0  0.00000000000E+00  0.00000000000E+00  0.19354910433E+04  0.19354910433E+04  0.50400001928E-02 0. -1.
       -1   -1    0    0    0  501  0.00000000000E+00  0.00000000000E+00 -0.97133445024E+03  0.97133445025E+03  0.50400001928E-02 0.  1.
    10030    2    1    2    0    0  0.00000000000E+00  0.00000000000E+00  0.96415659302E+03  0.29068254935E+04  0.27422684978E+04 0.  0.
        1    1    3    3  502    0 -0.10230460468E+04  0.39852269376E+03 -0.38852653604E+03  0.11646443322E+04  0.50400001928E-02 0.  1.
       -1    1    3    3    0  502  0.10230460468E+04 -0.39852269376E+03  0.13526831291E+04  0.17421811613E+04  0.50400001928E-02 0. -1.
</event>
<event>
 5   0  0.1330962E-05  0.2724381E+04  0.7818609E-02  0.8327137E-01
       -2   -1    0    0    0  501  0.00000000000E+00  0.00000000000E+00  0.14636223989E+04  0.14636223990E+04  0.25500000920E-02 0. -1.
        2   -1    0    0  501    0  0.00000000000E+00  0.00000000000E+00 -0.12677876901E+04  0.12677876901E+04  0.25500000920E-02 0.  1.
    10030    2    1    2    0    0  0.00000000000E+00  0.00000000000E+00  0.19583470888E+03  0.27314100890E+04  0.27243806344E+04 0.  0.
        4    1    3    3  502    0  0.63012569496E+03 -0.11834894420E+04 -0.14323433636E+03  0.13484151211E+04  0.12699999809E+01 0.  1.
       -4    1    3    3    0  502 -0.63012569496E+03  0.11834894420E+04  0.33906904524E+03  0.13829949679E+04  0.12699999809E+01 0. -1.
</event>
<event>
 5   0  0.1330962E-05  0.2776400E+04  0.7818609E-02  0.8310633E-01
       -2   -1    0    0    0  501  0.00000000000E+00  0.00000000000E+00  0.19988577933E+04  0.19988577933E+04  0.25500000920E-02 0. -1.
        2   -1    0    0  501    0  0.00000000000E+00  0.00000000000E+00 -0.96410050415E+03  0.96410050415E+03  0.25500000920E-02 0.  1.
    10030    2    1    2    0    0  0.00000000000E+00  0.00000000000E+00  0.10347572892E+04  0.29629582975E+04  0.27764004079E+04 0.  0.
        4    1    3    3  502    0 -0.42362475198E+02  0.13800121748E+04  0.67155038776E+03  0.15353207216E+04  0.12699999809E+01 0. -1.
       -4    1    3    3    0  502  0.42362475198E+02 -0.13800121748E+04  0.36320690139E+03  0.14276375759E+04  0.12699999809E+01 0.  1.
</event>
<event>
 5   0  0.5217999E-06  0.2800275E+04  0.7818609E-02  0.8303183E-01
       -1   -1    0    0    0  501  0.00000000000E+00  0.00000000000E+00  0.19969713746E+04  0.19969713746E+04  0.50400001928E-02 0.  1.
        1   -1    0    0  501    0  0.00000000000E+00  0.00000000000E+00 -0.98167905320E+03  0.98167905321E+03  0.50400001928E-02 0. -1.
    10030    2    1    2    0    0  0.00000000000E+00  0.00000000000E+00  0.10152923214E+04  0.29786504279E+04  0.28002749639E+04 0.  0.
        1    1    3    3  502    0  0.50068049325E+03  0.79079123752E+03  0.16153004893E+04  0.18668763774E+04  0.50400001928E-02 0.  1.
       -1    1    3    3    0  502 -0.50068049325E+03 -0.79079123752E+03 -0.60000816790E+03  0.11117740504E+04  0.50400001928E-02 0. -1.
</event>
<event>
 5   0  0.5281919E-06  0.2722053E+04  0.7818609E-02  0.8327885E-01
        1   -1    0    0  501    0  0.00000000000E+00  0.00000000000E+00  0.11161602436E+04  0.11161602436E+04  0.50400001928E-02 0. -1.
       -1   -1    0    0    0  501  0.00000000000E+00  0.00000000000E+00 -0.16596124197E+04  0.16596124197E+04  0.50400001928E-02 0.  1.
    10030    2    1    2    0    0  0.00000000000E+00  0.00000000000E+00 -0.54345217607E+03  0.27757726633E+04  0.27220531976E+04 0.  0.
        4    1    3    3  502    0  0.63185378050E+03 -0.19208816773E+03 -0.14852769189E+04  0.16254802991E+04  0.12699999809E+01 0.  1.
       -4    1    3    3    0  502 -0.63185378050E+03  0.19208816773E+03  0.94182474280E+03  0.11502923642E+04  0.12699999809E+01 0. -1.
</event>
<event>
 5   0  0.1330962E-05  0.2828739E+04  0.7818609E-02  0.8294401E-01
       -2   -1    0    0    0  501  0.00000000000E+00  0.00000000000E+00  0.12025331510E+04  0.12025331510E+04  0.25500000920E-02 0. -1.
        2   -1    0    0  501    0  0.00000000000E+00  0.00000000000E+00 -0.16635221739E+04  0.16635221739E+04  0.25500000920E-02 0.  1.
    10030    2    1    2    0    0  0.00000000000E+00  0.00000000000E+00 -0.46098902298E+03  0.28660553249E+04  0.28287386316E+04 0.  0.
        4    1    3    3  502    0  0.80802686838E+03 -0.44944108357E+03 -0.13149101838E+04  0.16074498786E+04  0.12699999809E+01 0.  1.
       -4    1    3    3    0  502 -0.80802686838E+03  0.44944108357E+03  0.85392116087E+03  0.12586054463E+04  0.12699999809E+01 0. -1.
</event>
<event>
 5   0  0.1330962E-05  0.2817505E+04  0.7818609E-02  0.8297854E-01
        2   -1    0    0  501    0  0.00000000000E+00  0.00000000000E+00  0.24302526543E+04  0.24302526543E+04  0.25500000920E-02 0.  1.
       -2   -1    0    0    0  501  0.00000000000E+00  0.00000000000E+00 -0.81661614423E+03  0.81661614423E+03  0.25500000920E-02 0. -1.
    10030    2    1    2    0    0  0.00000000000E+00  0.00000000000E+00  0.16136365100E+04  0.32468687985E+04  0.28175049615E+04 0.  0.
        4    1    3    3  502    0 -0.12211914993E+04 -0.55443603486E+03  0.30998654357E+03  0.13765178040E+04  0.12699999809E+01 0. -1.
       -4    1    3    3    0  502  0.12211914993E+04  0.55443603486E+03  0.13036499665E+04  0.18703509945E+04  0.12699999809E+01 0.  1.
</event>
<event>
 5   0  0.1283052E-05  0.2714236E+04  0.7818609E-02  0.8330401E-01
       -2   -1    0    0    0  501  0.00000000000E+00  0.00000000000E+00  0.12143910394E+04  0.12143910394E+04  0.25500000920E-02 0.  1.
        2   -1    0    0  501    0  0.00000000000E+00  0.00000000000E+00 -0.15166197387E+04  0.15166197387E+04  0.25500000920E-02 0. -1.
    10030    2    1    2    0    0  0.00000000000E+00  0.00000000000E+00 -0.30222869931E+03  0.27310107780E+04  0.27142361141E+04 0.  0.
        5    1    3    3  502    0  0.11660957070E+04  0.18685451739E+03  0.52163850591E+03  0.12910548515E+04  0.46999998093E+01 0.  1.
       -5    1    3    3    0  502 -0.11660957070E+04 -0.18685451739E+03 -0.82386720522E+03  0.14399559266E+04  0.46999998093E+01 0. -1.
</event>
<event>
 5   0  0.1388269E-05  0.2812409E+04  0.7818609E-02  0.8299426E-01
        2   -1    0    0  501    0  0.00000000000E+00  0.00000000000E+00  0.21598427097E+04  0.21598427097E+04  0.25500000920E-02 0.  1.
       -2   -1    0    0    0  501  0.00000000000E+00  0.00000000000E+00 -0.91553450382E+03  0.91553450383E+03  0.25500000920E-02 0. -1.
    10030    2    1    2    0    0  0.00000000000E+00  0.00000000000E+00  0.12443082059E+04  0.30753772135E+04  0.28124085931E+04 0.  0.
        1    1    3    3  502    0 -0.60784123455E+03  0.92561478644E+03 -0.32558994619E+03  0.11542281024E+04  0.50400001928E-02 0. -1.
       -1    1    3    3    0  502  0.60784123455E+03 -0.92561478644E+03  0.15698981521E+04  0.19211491111E+04  0.50400001928E-02 0.  1.
</event>
<event>
 5   0  0.5023691E-06  0.2490980E+04  0.7818609E-02  0.8406206E-01
       -1   -1    0    0    0  501  0.00000000000E+00  0.00000000000E+00  0.11592371947E+04  0.11592371947E+04  0.50400001928E-02 0.  1.
        1   -1    0    0  501    0  0.00000000000E+00  0.00000000000E+00 -0.13381605228E+04  0.13381605228E+04  0.50400001928E-02 0. -1.
    10030    2    1    2    0    0  0.00000000000E+00  0.00000000000E+00 -0.17892332818E+03  0.24973977175E+04  0.24909800887E+04 0.  0.
        5    1    3    3  502    0  0.26062190400E+03  0.38396560561E+03  0.10693144978E+04  0.11656796079E+04  0.46999998093E+01 0.  1.
       -5    1    3    3    0  502 -0.26062190400E+03 -0.38396560561E+03 -0.12482378260E+04  0.13317181096E+04  0.46999998093E+01 0. -1.
</event>
<event>
 5   0  0.1283052E-05  0.2691199E+04  0.7818609E-02  0.8337866E-01
       -2   -1    0    0    0  501  0.00000000000E+00  0.00000000000E+00  0.12621720035E+04  0.12621720035E+04  0.25500000920E-02 0.  1.
        2   -1    0    0  501    0  0.00000000000E+00  0.00000000000E+00 -0.14345410471E+04  0.14345410471E+04  0.25500000920E-02 0. -1.
    10030    2    1    2    0    0  0.00000000000E+00  0.00000000000E+00 -0.17236904358E+03  0.26967130506E+04  0.26911986531E+04 0.  0.
        5    1    3    3  502    0  0.10798869465E+04  0.29641886179E+03  0.66139745922E+03  0.13005724309E+04  0.46999998093E+01 0.  1.
       -5    1    3    3    0  502 -0.10798869465E+04 -0.29641886179E+03 -0.83376650281E+03  0.13961406197E+04  0.46999998093E+01 0. -1.
</event>
<event>
 5   0  0.5107453E-06  0.2462411E+04  0.7818609E-02  0.8416500E-01
       -1   -1    0    0    0  501  0.00000000000E+00  0.00000000000E+00  0.12538980004E+04  0.12538980004E+04  0.50400001928E-02 0. -1.
        1   -1    0    0  501    0  0.00000000000E+00  0.00000000000E+00 -0.12089237320E+04  0.12089237320E+04  0.50400001928E-02 0.  1.
    10030    2    1    2    0    0  0.00000000000E+00  0.00000000000E+00  0.44974268330E+02  0.24628217324E+04  0.24624110544E+04 0.  0.
        2    1    3    3  502    0 -0.10088735347E+04 -0.60745057740E+03 -0.33680116884E+03  0.12248498032E+04  0.25500000920E-02 0.  1.
       -2    1    3    3    0  502  0.10088735347E+04  0.60745057740E+03  0.38177543717E+03  0.12379719292E+04  0.25500000920E-02 0. -1.
</event>
<event>
 5   0  0.1283052E-05  0.2806695E+04  0.7818609E-02  0.8301193E-01
        2   -1    0    0  501    0  0.00000000000E+00  0.00000000000E+00  0.22021531893E+04  0.22021531893E+04  0.25500000920E-02 0.  1.
       -2   -1    0    0    0  501  0.00000000000E+00  0.00000000000E+00 -0.89429908849E+03  0.89429908849E+03  0.25500000920E-02 0. -1.
    10030    2    1    2    0    0  0.00000000000E+00  0.00000000000E+00  0.13078541008E+04  0.30964522778E+04  0.28066945611E+04 0.  0.
        5    1    3    3  502    0  0.98599767089E+03  0.84629581933E+03  0.12386988829E+04  0.17952172663E+04  0.46999998093E+01 0. -1.
       -5    1    3    3    0  502 -0.98599767089E+03 -0.84629581933E+03  0.69155217883E+02  0.13012350114E+04  0.46999998093E+01 0.  1.
</event>
<event>
 5   0  0.4764214E-06  0.2780242E+04  0.7818609E-02  0.8309429E-01
        1   -1    0    0  501    0  0.00000000000E+00  0.00000000000E+00  0.16498769241E+04  0.16498769241E+04  0.50400001928E-02 0.  1.
       -1   -1    0    0    0  501  0.00000000000E+00  0.00000000000E+00 -0.11712610004E+04  0.11712610005E+04  0.50400001928E-02 0. -1.
    10030    2    1    2    0    0  0.00000000000E+00  0.00000000000E+00  0.47861592361E+03  0.28211379245E+04  0.27802420734E+04 0.  0.
        3    1    3    3  502    0  0.18132011455E+03  0.51347179477E+03  0.15371472279E+04  0.16307519365E+04  0.10100000352E+00 0.  1.
       -3    1    3    3    0  502 -0.18132011455E+03 -0.51347179477E+03 -0.10585313043E+04  0.11903859880E+04  0.10100000352E+00 0. -1.
</event>
<event>
 5   0  0.5281919E-06  0.2858931E+04  0.7818609E-02  0.8285202E-01
       -1   -1    0    0    0  501  0.00000000000E+00  0.00000000000E+00  0.89991204808E+03  0.89991204809E+03  0.50400001928E-02 0.  1.
        1   -1    0    0  501    0  0.00000000000E+00  0.00000000000E+00 -0.22706355030E+04  0.22706355030E+04  0.50400001928E-02 0. -1.
    10030    2    1    2    0    0  0.00000000000E+00  0.00000000000E+00 -0.13707234549E+04  0.31705475511E+04  0.28589314409E+04 0.  0.
        4    1    3    3  502    0  0.14181001230E+02  0.11598490779E+04  0.24111228712E+03  0.11847310801E+04  0.12699999809E+01 0.  1.
       -4    1    3    3    0  502 -0.14181001230E+02 -0.11598490779E+04 -0.16118357420E+04  0.19858164710E+04  0.12699999809E+01 0. -1.
</event>
<event>
 5   0  0.4764214E-06  0.2749901E+04  0.7818609E-02  0.8318993E-01
       -1   -1    0    0    0  501  0.00000000000E+00  0.00000000000E+00  0.77819638938E+03  0.77819638940E+03  0.50400001928E-02 0.  1.
        1   -1    0    0  501    0  0.00000000000E+00  0.00000000000E+00 -0.24293210638E+04  0.24293210639E+04  0.50400001928E-02 0. -1.
    10030    2    1    2    0    0  0.00000000000E+00  0.00000000000E+00 -0.16511246745E+04  0.32075174533E+04  0.27499010023E+04 0.  0.
        3    1    3    3  502    0  0.16622001234E+03 -0.61533260847E+03  0.59546332827E+03  0.87226136970E+03  0.10100000352E+00 0.  1.
       -3    1    3    3    0  502 -0.16622001234E+03  0.61533260847E+03 -0.22465880027E+04  0.23352560836E+04  0.10100000352E+00 0. -1.
</event>
<event>
 5   0  0.4764214E-06  0.2801343E+04  0.7818609E-02  0.8302852E-01
        1   -1    0    0  501    0  0.00000000000E+00  0.00000000000E+00  0.11893637822E+04  0.11893637822E+04  0.50400001928E-02 0.  1.
       -1   -1    0    0    0  501  0.00000000000E+00  0.00000000000E+00 -0.16495207232E+04  0.16495207232E+04  0.50400001928E-02 0. -1.
    10030    2    1    2    0    0  0.00000000000E+00  0.00000000000E+00 -0.46015694094E+03  0.28388845054E+04  0.28013426825E+04 0.  0.
        3    1    3    3  502    0 -0.12471959339E+04  0.15815867877E+03  0.39574781339E+03  0.13180015961E+04  0.10100000352E+00 0.  1.
       -3    1    3    3    0  502  0.12471959339E+04 -0.15815867877E+03 -0.85590475433E+03  0.15208829093E+04  0.10100000352E+00 0. -1.
</event>
<event>
 5   0  0.1302063E-05  0.2884186E+04  0.7818609E-02  0.8277598E-01
       -2   -1    0    0    0  501  0.00000000000E+00  0.00000000000E+00  0.12534807304E+04  0.12534807304E+04  0.25500000920E-02 0.  1.
        2   -1    0    0  501    0  0.00000000000E+00  0.00000000000E+00 -0.16590864380E+04  0.16590864380E+04  0.25500000920E-02 0. -1.
    10030    2    1    2    0    0  0.00000000000E+00  0.00000000000E+00 -0.40560570755E+03  0.29125671684E+04  0.28841864573E+04 0.  0.
        2    1    3    3  502    0  0.29402182954E+03 -0.56223635425E+03 -0.15105650278E+04  0.16384032646E+04  0.25500000920E-02 0. -1.
       -2    1    3    3    0  502 -0.29402182954E+03  0.56223635425E+03  0.11049593203E+04  0.12741639038E+04  0.25500000920E-02 0.  1.
</event>
<event>
 5   0  0.5023691E-06  0.2795096E+04  0.7818609E-02  0.8304792E-01
        1   -1    0    0  501    0  0.00000000000E+00  0.00000000000E+00  0.17537803875E+04  0.17537803876E+04  0.50400001928E-02 0.  1.
       -1   -1    0    0    0  501  0.00000000000E+00  0.00000000000E+00 -0.11136744128E+04  0.11136744128E+04  0.50400001928E-02 0. -1.
    10030    2    1    2    0    0  0.00000000000E+00  0.00000000000E+00  0.64010597474E+03  0.28674548004E+04  0.27950959506E+04 0.  0.
        5    1    3    3  502    0  0.42474626571E+03  0.25146004434E+03 -0.10212640897E+04  0.11343032994E+04  0.46999998093E+01 0. -1.
       -5    1    3    3    0  502 -0.42474626571E+03 -0.25146004434E+03  0.16613700645E+04  0.17331515009E+04  0.46999998093E+01 0.  1.
</event>
<event>
 5   0  0.5107453E-06  0.2740423E+04  0.7818609E-02  0.8322007E-01
       -1   -1    0    0    0  501  0.00000000000E+00  0.00000000000E+00  0.14314570757E+04  0.14314570757E+04  0.50400001928E-02 0.  1.
        1   -1    0    0  501    0  0.00000000000E+00  0.00000000000E+00 -0.13115859160E+04  0.13115859160E+04  0.50400001928E-02 0. -1.
    10030    2    1    2    0    0  0.00000000000E+00  0.00000000000E+00  0.11987115962E+03  0.27430429917E+04  0.27404225513E+04 0.  0.
        2    1    3    3  502    0 -0.47317863238E+03 -0.10435287282E+04 -0.69220074248E+03  0.13386530890E+04  0.25500000920E-02 0. -1.
       -2    1    3    3    0  502  0.47317863238E+03  0.10435287282E+04  0.81207190210E+03  0.14043899027E+04  0.25500000920E-02 0.  1.
</event>
<event>
 5   0  0.4764214E-06  0.2745271E+04  0.7818609E-02  0.8320464E-01
        1   -1    0    0  501    0  0.00000000000E+00  0.00000000000E+00  0.14425390183E+04  0.14425390183E+04  0.50400001928E-02 0.  1.
       -1   -1    0    0    0  501  0.00000000000E+00  0.00000000000E+00 -0.13061190703E+04  0.13061190703E+04  0.50400001928E-02 0. -1.
    10030    2    1    2    0    0  0.00000000000E+00  0.00000000000E+00  0.13641994792E+03  0.27486580886E+04  0.27452706398E+04 0.  0.
        3    1    3    3  502    0 -0.84331990586E+03  0.10133226729E+04 -0.31451345489E+03  0.13553339170E+04  0.10100000352E+00 0.  1.
       -3    1    3    3    0  502  0.84331990586E+03 -0.10133226729E+04  0.45093340281E+03  0.13933241716E+04  0.10100000352E+00 0. -1.
</event>
<event>
 5   0  0.1388269E-05  0.3194712E+04  0.7818609E-02  0.8190215E-01
       -2   -1    0    0    0  501  0.00000000000E+00  0.00000000000E+00  0.19291153745E+04  0.19291153745E+04  0.25500000920E-02 0.  1.
        2   -1    0    0  501    0  0.00000000000E+00  0.00000000000E+00 -0.13226512417E+04  0.13226512417E+04  0.25500000920E-02 0. -1.
    10030    2    1    2    0    0  0.00000000000E+00  0.00000000000E+00  0.60646413282E+03  0.32517666163E+04  0.31947124100E+04 0.  0.
        1    1    3    3  502    0 -0.39189234125E+02  0.26750250034E+03  0.19056580689E+04  0.19247405174E+04  0.50400001928E-02 0.  1.
       -1    1    3    3    0  502  0.39189234125E+02 -0.26750250034E+03 -0.12991939360E+04  0.13270260989E+04  0.50400001928E-02 0. -1.
</event>
<event>
 5   0  0.1302063E-05  0.2778463E+04  0.7818609E-02  0.8309986E-01
        2   -1    0    0  501    0  0.00000000000E+00  0.00000000000E+00  0.21946134344E+04  0.21946134345E+04  0.25500000920E-02 0.  1.
       -2   -1    0    0    0  501  0.00000000000E+00  0.00000000000E+00 -0.87940970006E+03  0.87940970007E+03  0.25500000920E-02 0. -1.
    10030    2    1    2    0    0  0.00000000000E+00  0.00000000000E+00  0.13152037344E+04  0.30740231345E+04  0.27784631307E+04 0.  0.
        2    1    3    3  502    0  0.90142050170E+03 -0.10408067064E+04  0.45321621195E+03  0.14495662992E+04  0.25500000920E-02 0. -1.
       -2    1    3    3    0  502 -0.90142050170E+03  0.10408067064E+04  0.86198752243E+03  0.16244568353E+04  0.25500000920E-02 0.  1.
</event>
<event>
 5   0  0.4764214E-06  0.2856167E+04  0.7818609E-02  0.8286040E-01
        1   -1    0    0  501    0  0.00000000000E+00  0.00000000000E+00  0.92665230591E+03  0.92665230592E+03  0.50400001928E-02 0.  1.
       -1   -1    0    0    0  501  0.00000000000E+00  0.00000000000E+00 -0.22008491007E+04  0.22008491007E+04  0.50400001928E-02 0. -1.
    10030    2    1    2    0    0  0.00000000000E+00  0.00000000000E+00 -0.12741967948E+04  0.31275014066E+04  0.28561665877E+04 0.  0.
        3    1    3    3  502    0 -0.12762938731E+04  0.31088043961E+02  0.63640950102E+02  0.12782576805E+04  0.10100000352E+00 0.  1.
       -3    1    3    3    0  502  0.12762938731E+04 -0.31088043961E+02 -0.13378377449E+04  0.18492437262E+04  0.10100000352E+00 0. -1.
</event>
<event>
 5   0  0.1388269E-05  0.2946877E+04  0.7818609E-02  0.8259065E-01
       -2   -1    0    0    0  501  0.00000000000E+00  0.00000000000E+00  0.20065036476E+04  0.20065036476E+04  0.25500000920E-02 0.  1.
        2   -1    0    0  501    0  0.00000000000E+00  0.00000000000E+00 -0.10819921062E+04  0.10819921062E+04  0.25500000920E-02 0. -1.
    10030    2    1    2    0    0  0.00000000000E+00  0.00000000000E+00  0.92451154147E+03  0.30884957538E+04  0.29468770641E+04 0.  0.
        1    1    3    3  502    0 -0.54558625585E+03  0.22349899105E+03 -0.95297269143E+03  0.11206128289E+04  0.50400001928E-02 0. -1.
       -1    1    3    3    0  502  0.54558625585E+03 -0.22349899105E+03  0.18774842329E+04  0.19678829250E+04  0.50400001928E-02 0.  1.
</event>
<event>
 5   0  0.5217999E-06  0.2816453E+04  0.7818609E-02  0.8298179E-01
       -1   -1    0    0    0  501  0.00000000000E+00  0.00000000000E+00  0.10537144405E+04  0.10537144406E+04  0.50400001928E-02 0. -1.
        1   -1    0    0  501    0  0.00000000000E+00  0.00000000000E+00 -0.18820104462E+04  0.18820104463E+04  0.50400001928E-02 0.  1.
    10030    2    1    2    0    0  0.00000000000E+00  0.00000000000E+00 -0.82829600570E+03  0.29357248868E+04  0.28164527935E+04 0.  0.
        1    1    3    3  502    0  0.38573695248E+03 -0.52535459118E+03  0.88703974697E+03  0.11007406396E+04  0.50400001928E-02 0. -1.
       -1    1    3    3    0  502 -0.38573695248E+03  0.52535459118E+03 -0.17153357527E+04  0.18349842472E+04  0.50400001928E-02 0.  1.
</event>
<event>
 5   0  0.4764214E-06  0.2814740E+04  0.7818609E-02  0.8298707E-01
        1   -1    0    0  501    0  0.00000000000E+00  0.00000000000E+00  0.25850235053E+04  0.25850235053E+04  0.50400001928E-02 0.  1.
       -1   -1    0    0    0  501  0.00000000000E+00  0.00000000000E+00 -0.76621741685E+03  0.76621741686E+03  0.50400001928E-02 0. -1.
    10030    2    1    2    0    0  0.00000000000E+00  0.00000000000E+00  0.18188060885E+04  0.33512409222E+04  0.28147397981E+04 0.  0.
        3    1    3    3  502    0 -0.13896806510E+04  0.18015599698E+03  0.75406899558E+03  0.15913166107E+04  0.10100000352E+00 0.  1.
       -3    1    3    3    0  502  0.13896806510E+04 -0.18015599698E+03  0.10647370929E+04  0.17599243115E+04  0.10100000352E+00 0. -1.
</event>
<event>
 5   0  0.1330962E-05  0.2814406E+04  0.7818609E-02  0.8298810E-01
        2   -1    0    0  501    0  0.00000000000E+00  0.00000000000E+00  0.24453523998E+04  0.24453523998E+04  0.25500000920E-02 0. -1.
       -2   -1    0    0    0  501  0.00000000000E+00  0.00000000000E+00 -0.80978927573E+03  0.80978927574E+03  0.25500000920E-02 0.  1.
    10030    2    1    2    0    0  0.00000000000E+00  0.00000000000E+00  0.16355631241E+04  0.32551416755E+04  0.28144059045E+04 0.  0.
        4    1    3    3  502    0 -0.46000879977E+03 -0.82691999643E+03  0.20224312006E+04  0.22328534100E+04  0.12699999809E+01 0. -1.
       -4    1    3    3    0  502  0.46000879977E+03  0.82691999643E+03 -0.38686807654E+03  0.10222882656E+04  0.12699999809E+01 0.  1.
</event>
<event>
 5   0  0.1283052E-05  0.2558902E+04  0.7818609E-02  0.8382297E-01
       -2   -1    0    0    0  501  0.00000000000E+00  0.00000000000E+00  0.94051453708E+03  0.94051453708E+03  0.25500000920E-02 0.  1.
        2   -1    0    0  501    0  0.00000000000E+00  0.00000000000E+00 -0.17405307169E+04  0.17405307169E+04  0.25500000920E-02 0. -1.
    10030    2    1    2    0    0  0.00000000000E+00  0.00000000000E+00 -0.80001617980E+03  0.26810452540E+04  0.25589016718E+04 0.  0.
        5    1    3    3  502    0 -0.67473040285E+03  0.96993322136E+03 -0.91429527580E+03  0.14939844416E+04  0.46999998093E+01 0. -1.
       -5    1    3    3    0  502  0.67473040285E+03 -0.96993322136E+03  0.11427909600E+03  0.11870608123E+04  0.46999998093E+01 0.  1.
</event>
<event>
 5   0  0.1388269E-05  0.2836619E+04  0.7818609E-02  0.8291989E-01
       -2   -1    0    0    0  501  0.00000000000E+00  0.00000000000E+00  0.14884569123E+04  0.14884569123E+04  0.25500000920E-02 0. -1.
        2   -1    0    0  501    0  0.00000000000E+00  0.00000000000E+00 -0.13514680978E+04  0.13514680978E+04  0.25500000920E-02 0.  1.
    10030    2    1    2    0    0  0.00000000000E+00  0.00000000000E+00  0.13698881455E+03  0.28399250101E+04  0.28366191368E+04 0.  0.
        1    1    3    3  502    0 -0.19944355263E+03 -0.10006234111E+04 -0.91783245665E+03  0.13723852812E+04  0.50400001928E-02 0.  1.
       -1    1    3    3    0  502  0.19944355263E+03  0.10006234111E+04  0.10548212712E+04  0.14675397289E+04  0.50400001928E-02 0. -1.
</event>
<event>
 5   0  0.1283052E-05  0.2743901E+04  0.7818609E-02  0.8320900E-01
        2   -1    0    0  501    0  0.00000000000E+00  0.00000000000E+00  0.14978224357E+04  0.14978224357E+04  0.25500000920E-02 0.  1.
       -2   -1    0    0    0  501  0.00000000000E+00  0.00000000000E+00 -0.12566560486E+04  0.12566560486E+04  0.25500000920E-02 0. -1.
    10030    2    1    2    0    0  0.00000000000E+00  0.00000000000E+00  0.24116638713E+03  0.27544784843E+04  0.27439005985E+04 0.  0.
        5    1    3    3  502    0  0.39729843830E+03  0.13127946381E+04  0.89646817870E+02  0.13745306300E+04  0.46999998093E+01 0.  1.
       -5    1    3    3    0  502 -0.39729843830E+03 -0.13127946381E+04  0.15151956926E+03  0.13799478543E+04  0.46999998093E+01 0. -1.
</event>
<event>
 5   0  0.1330962E-05  0.2810867E+04  0.7818609E-02  0.8299903E-01
        2   -1    0    0  501    0  0.00000000000E+00  0.00000000000E+00  0.11286032418E+04  0.11286032418E+04  0.25500000920E-02 0.  1.
       -2   -1    0    0    0  501  0.00000000000E+00  0.00000000000E+00 -0.17501662902E+04  0.17501662902E+04  0.25500000920E-02 0. -1.
    10030    2    1    2    0    0  0.00000000000E+00  0.00000000000E+00 -0.62156304839E+03  0.28787695319E+04  0.28108670183E+04 0.  0.
        4    1    3    3  502    0 -0.39379858474E+03 -0.91700878068E+03  0.70269910349E+03  0.12205613758E+04  0.12699999809E+01 0.  1.
       -4    1    3    3    0  502  0.39379858474E+03  0.91700878068E+03 -0.13242621519E+04  0.16582081561E+04  0.12699999809E+01 0. -1.
</event>
<event>
 5   0  0.4764214E-06  0.2515959E+04  0.7818609E-02  0.8397322E-01
        1   -1    0    0  501    0  0.00000000000E+00  0.00000000000E+00  0.13821994568E+04  0.13821994568E+04  0.50400001928E-02 0.  1.
       -1   -1    0    0    0  501  0.00000000000E+00  0.00000000000E+00 -0.11449230014E+04  0.11449230015E+04  0.50400001928E-02 0. -1.
    10030    2    1    2    0    0  0.00000000000E+00  0.00000000000E+00  0.23727645533E+03  0.25271224582E+04  0.25159586250E+04 0.  0.
        3    1    3    3  502    0 -0.80056023106E+03  0.76539775209E+03  0.71775916431E+03  0.13198138621E+04  0.10100000352E+00 0. -1.
       -3    1    3    3    0  502  0.80056023106E+03 -0.76539775209E+03 -0.48048270898E+03  0.12073085961E+04  0.10100000352E+00 0.  1.
</event>
<event>
 5   0  0.4764214E-06  0.2797506E+04  0.7818609E-02  0.8304043E-01
       -1   -1    0    0    0  501  0.00000000000E+00  0.00000000000E+00  0.12525677304E+04  0.12525677305E+04  0.50400001928E-02 0.  1.
        1   -1    0    0  501    0  0.00000000000E+00  0.00000000000E+00 -0.15619991367E+04  0.15619991367E+04  0.50400001928E-02 0. -1.
    10030    2    1    2    0    0  0.00000000000E+00  0.00000000000E+00 -0.30943140628E+03  0.28145668672E+04  0.27975058275E+04 0.  0.
        3    1    3    3  502    0  0.95476578940E+03 -0.35135884441E+03  0.81107557971E+03  0.13011050520E+04  0.10100000352E+00 0.  1.
       -3    1    3    3    0  502 -0.95476578940E+03  0.35135884441E+03 -0.11205069860E+04  0.15134618152E+04  0.10100000352E+00 0. -1.
</event>
<event>
 5   0  0.1350863E-05  0.2831727E+04  0.7818609E-02  0.8293485E-01
       -2   -1    0    0    0  501  0.00000000000E+00  0.00000000000E+00  0.63004166176E+03  0.63004166176E+03  0.25500000920E-02 0. -1.
        2   -1    0    0  501    0  0.00000000000E+00  0.00000000000E+00 -0.31818054127E+04  0.31818054127E+04  0.25500000920E-02 0.  1.
    10030    2    1    2    0    0  0.00000000000E+00  0.00000000000E+00 -0.25517637510E+04  0.38118470745E+04  0.28317273666E+04 0.  0.
        3    1    3    3  502    0 -0.10754509682E+04 -0.72635559586E+03 -0.20379369195E+04  0.24160658382E+04  0.10100000352E+00 0. -1.
       -3    1    3    3    0  502  0.10754509682E+04  0.72635559586E+03 -0.51382683146E+03  0.13957812363E+04  0.10100000352E+00 0.  1.
</event>
<event>
 5   0  0.1330962E-05  0.3013058E+04  0.7818609E-02  0.8240012E-01
        2   -1    0    0  501    0  0.00000000000E+00  0.00000000000E+00  0.16350842124E+04  0.16350842125E+04  0.25500000920E-02 0. -1.
       -2   -1    0    0    0  501  0.00000000000E+00  0.00000000000E+00 -0.13880810578E+04  0.13880810578E+04  0.25500000920E-02 0.  1.
    10030    2    1    2    0    0  0.00000000000E+00  0.00000000000E+00  0.24700315470E+03  0.30231652702E+04  0.30130578641E+04 0.  0.
        4    1    3    3  502    0 -0.13480999947E+04 -0.55955187441E+03  0.49778901615E+03  0.15421632253E+04  0.12699999809E+01 0.  1.
       -4    1    3    3    0  502  0.13480999947E+04  0.55955187441E+03 -0.25078586145E+03  0.14810020449E+04  0.12699999809E+01 0. -1.
</event>
<event>
 5   0  0.5107453E-06  0.2795104E+04  0.7818609E-02  0.8304790E-01
       -1   -1    0    0    0  501  0.00000000000E+00  0.00000000000E+00  0.18430112560E+04  0.18430112560E+04  0.50400001928E-02 0. -1.
        1   -1    0    0  501    0  0.00000000000E+00  0.00000000000E+00 -0.10597610203E+04  0.10597610203E+04  0.50400001928E-02 0.  1.
    10030    2    1    2    0    0  0.00000000000E+00  0.00000000000E+00  0.78325023576E+03  0.29027722763E+04  0.27951039258E+04 0.  0.
        2    1    3    3  502    0 -0.32940999217E+03  0.94019441064E+03 -0.62627052320E+03  0.11767290431E+04  0.25500000920E-02 0.  1.
       -2    1    3    3    0  502  0.32940999217E+03 -0.94019441064E+03  0.14095207590E+04  0.17260432331E+04  0.25500000920E-02 0. -1.
</event>
<event>
 5   0  0.5217999E-06  0.2820400E+04  0.7818609E-02  0.8296963E-01
        1   -1    0    0  501    0  0.00000000000E+00  0.00000000000E+00  0.23960829592E+04  0.23960829592E+04  0.50400001928E-02 0.  1.
       -1   -1    0    0    0  501  0.00000000000E+00  0.00000000000E+00 -0.82996452886E+03  0.82996452888E+03  0.50400001928E-02 0. -1.
    10030    2    1    2    0    0  0.00000000000E+00  0.00000000000E+00  0.15661184304E+04  0.32260474881E+04  0.28203998755E+04 0.  0.
        1    1    3    3  502    0 -0.11416395576E+04 -0.26513598218E+03 -0.11397037716E+03  0.11775513642E+04  0.50400001928E-02 0. -1.
       -1    1    3    3    0  502  0.11416395576E+04  0.26513598218E+03  0.16800888075E+04  0.20484961239E+04  0.50400001928E-02 0.  1.
</event>
<event>
 5   0  0.5107453E-06  0.2726964E+04  0.7818609E-02  0.8326309E-01
        1   -1    0    0  501    0  0.00000000000E+00  0.00000000000E+00  0.19977548571E+04  0.19977548571E+04  0.50400001928E-02 0.  1.
       -1   -1    0    0    0  501  0.00000000000E+00  0.00000000000E+00 -0.93058600805E+03  0.93058600807E+03  0.50400001928E-02 0. -1.
    10030    2    1    2    0    0  0.00000000000E+00  0.00000000000E+00  0.10671688490E+04  0.29283408651E+04  0.27269636723E+04 0.  0.
        2    1    3    3  502    0 -0.32714882494E+03  0.33028493676E+03 -0.84285422153E+03  0.96255791091E+03  0.25500000920E-02 0. -1.
       -2    1    3    3    0  502  0.32714882494E+03 -0.33028493676E+03  0.19100230705E+04  0.19657829542E+04  0.25500000920E-02 0.  1.
</event>
<event>
 5   0  0.1330962E-05  0.2674861E+04  0.7818609E-02  0.8343208E-01
        2   -1    0    0  501    0  0.00000000000E+00  0.00000000000E+00  0.27791106252E+04  0.27791106252E+04  0.25500000920E-02 0. -1.
       -2   -1    0    0    0  501  0.00000000000E+00  0.00000000000E+00 -0.64363066238E+03  0.64363066239E+03  0.25500000920E-02 0.  1.
    10030    2    1    2    0    0  0.00000000000E+00  0.00000000000E+00  0.21354799628E+04  0.34227412876E+04  0.26748613516E+04 0.  0.
        4    1    3    3  502    0 -0.12147911878E+04 -0.28013728979E+03  0.44806057560E+03  0.13247469281E+04  0.12699999809E+01 0.  1.
       -4    1    3    3    0  502  0.12147911878E+04  0.28013728979E+03  0.16874193872E+04  0.20979943595E+04  0.12699999809E+01 0. -1.
</event>
<event>
 5   0  0.1330962E-05  0.2810597E+04  0.7818609E-02  0.8299986E-01
       -2   -1    0    0    0  501  0.00000000000E+00  0.00000000000E+00  0.13357364334E+04  0.13357364334E+04  0.25500000920E-02 0.  1.
        2   -1    0    0  501    0  0.00000000000E+00  0.00000000000E+00 -0.14784828397E+04  0.14784828397E+04  0.25500000920E-02 0. -1.
    10030    2    1    2    0    0  0.00000000000E+00  0.00000000000E+00 -0.14274640633E+03  0.28142192731E+04  0.28105966592E+04 0.  0.
        4    1    3    3  502    0  0.78676315132E+02  0.11208034641E+04 -0.91654136705E+03  0.14499793302E+04  0.12699999809E+01 0. -1.
       -4    1    3    3    0  502 -0.78676315132E+02 -0.11208034641E+04  0.77379496072E+03  0.13642399429E+04  0.12699999809E+01 0.  1.
</event>
<event>
 5   0  0.1283052E-05  0.2842205E+04  0.7818609E-02  0.8290284E-01
       -2   -1    0    0    0  501  0.00000000000E+00  0.00000000000E+00  0.10946148864E+04  0.10946148864E+04  0.25500000920E-02 0. -1.
        2   -1    0    0  501    0  0.00000000000E+00  0.00000000000E+00 -0.18449710935E+04  0.18449710935E+04  0.25500000920E-02 0.  1.
    10030    2    1    2    0    0  0.00000000000E+00  0.00000000000E+00 -0.75035620710E+03  0.29395859800E+04  0.28422053579E+04 0.  0.
        5    1    3    3  502    0 -0.10953666540E+04  0.38279757008E+03  0.47338902149E+03  0.12531884703E+04  0.46999998093E+01 0. -1.
       -5    1    3    3    0  502  0.10953666540E+04 -0.38279757008E+03 -0.12237452286E+04  0.16863975097E+04  0.46999998093E+01 0.  1.
</event>
<event>
 5   0  0.4764214E-06  0.2605455E+04  0.7818609E-02  0.8366351E-01
       -1   -1    0    0    0  501  0.00000000000E+00  0.00000000000E+00  0.81390085006E+03  0.81390085008E+03  0.50400001928E-02 0.  1.
        1   -1    0    0  501    0  0.00000000000E+00  0.00000000000E+00 -0.20851423650E+04  0.20851423650E+04  0.50400001928E-02 0. -1.
    10030    2    1    2    0    0  0.00000000000E+00  0.00000000000E+00 -0.12712415149E+04  0.28990432150E+04  0.26054551567E+04 0.  0.
        3    1    3    3  502    0  0.51022868568E+03 -0.10167203771E+03  0.69329089103E+03  0.86678877746E+03  0.10100000352E+00 0.  1.
       -3    1    3    3    0  502 -0.51022868568E+03  0.10167203771E+03 -0.19645324059E+04  0.20322544376E+04  0.10100000352E+00 0. -1.
</event>
<event>
 5   0  0.5107453E-06  0.2792287E+04  0.7818609E-02  0.8305667E-01
       -1   -1    0    0    0  501  0.00000000000E+00  0.00000000000E+00  0.19909197533E+04  0.19909197533E+04  0.50400001928E-02 0.  1.
        1   -1    0    0  501    0  0.00000000000E+00  0.00000000000E+00 -0.97905331719E+03  0.97905331720E+03  0.50400001928E-02 0. -1.
    10030    2    1    2    0    0  0.00000000000E+00  0.00000000000E+00  0.10118664362E+04  0.29699730706E+04  0.27922869400E+04 0.  0.
        2    1    3    3  502    0 -0.24901075975E+02 -0.11312333395E+04  0.13758456753E+04  0.17813647168E+04  0.25500000920E-02 0.  1.
       -2    1    3    3    0  502  0.24901075975E+02  0.11312333395E+04 -0.36397923917E+03  0.11886083537E+04  0.25500000920E-02 0. -1.
</event>
<event>
 5   0  0.1388269E-05  0.2796642E+04  0.7818609E-02  0.8304312E-01
        2   -1    0    0  501    0  0.00000000000E+00  0.00000000000E+00  0.22130535659E+04  0.22130535659E+04  0.25500000920E-02 0. -1.
       -2   -1    0    0    0  501  0.00000000000E+00  0.00000000000E+00 -0.88353122943E+03  0.88353122943E+03  0.25500000920E-02 0.  1.
    10030    2    1    2    0    0  0.00000000000E+00  0.00000000000E+00  0.13295223365E+04  0.30965847953E+04  0.27966422280E+04 0.  0.
        1    1    3    3  502    0  0.91352209391E+03  0.27165334359E+03 -0.46820265699E+03  0.10618530422E+04  0.50400001928E-02 0.  1.
       -1    1    3    3    0  502 -0.91352209391E+03 -0.27165334359E+03  0.17977249935E+04  0.20347317532E+04  0.50400001928E-02 0. -1.
</event>
<event>
 5   0  0.5281919E-06  0.2498527E+04  0.7818609E-02  0.8403510E-01
        1   -1    0    0  501    0  0.00000000000E+00  0.00000000000E+00  0.22774584739E+04  0.22774584739E+04  0.50400001928E-02 0.  1.
       -1   -1    0    0    0  501  0.00000000000E+00  0.00000000000E+00 -0.68526365298E+03  0.68526365300E+03  0.50400001928E-02 0. -1.
    10030    2    1    2    0    0  0.00000000000E+00  0.00000000000E+00  0.15921948209E+04  0.29627221269E+04  0.24985271768E+04 0.  0.
        4    1    3    3  502    0 -0.33547730408E+03  0.52000091201E+03  0.20829428286E+04  0.21729239311E+04  0.12699999809E+01 0.  1.
       -4    1    3    3    0  502  0.33547730408E+03 -0.52000091201E+03 -0.49074800775E+03  0.78979819578E+03  0.12699999809E+01 0. -1.
</event>
<event>
 5   0  0.1330962E-05  0.2793475E+04  0.7818609E-02  0.8305297E-01
        2   -1    0    0  501    0  0.00000000000E+00  0.00000000000E+00  0.19287390216E+04  0.19287390216E+04  0.25500000920E-02 0.  1.
       -2   -1    0    0    0  501  0.00000000000E+00  0.00000000000E+00 -0.10114773238E+04  0.10114773239E+04  0.25500000920E-02 0. -1.
    10030    2    1    2    0    0  0.00000000000E+00  0.00000000000E+00  0.91726169778E+03  0.29402163455E+04  0.27934751003E+04 0.  0.
        4    1    3    3  502    0 -0.47060722865E+03 -0.11272162178E+04 -0.25428759108E+03  0.12476984240E+04  0.12699999809E+01 0. -1.
       -4    1    3    3    0  502  0.47060722865E+03  0.11272162178E+04  0.11715492889E+04  0.16925179215E+04  0.12699999809E+01 0.  1.
</event>
<event>
 5   0  0.4447500E-06  0.2795024E+04  0.7818609E-02  0.8304815E-01
       -3   -1    0    0    0  501  0.00000000000E+00  0.00000000000E+00  0.87546321106E+03  0.87546321689E+03  0.10100000352E+00 0.  1.
        3   -1    0    0  501    0  0.00000000000E+00  0.00000000000E+00 -0.22308645760E+04  0.22308645783E+04  0.10100000352E+00 0. -1.
    10030    2    1    2    0    0  0.00000000000E+00  0.00000000000E+00 -0.13554013649E+04  0.31063277951E+04  0.27950240627E+04 0.  0.
        5    1    3    3  502    0 -0.83929583396E+03  0.26218080615E+02 -0.19192211086E+04  0.20948834427E+04  0.46999998093E+01 0. -1.
       -5    1    3    3    0  502  0.83929583396E+03 -0.26218080615E+02  0.56381974374E+03  0.10114443524E+04  0.46999998093E+01 0.  1.
</event>
<event>
 5   0  0.1302063E-05  0.2202556E+04  0.7818609E-02  0.8517365E-01
       -2   -1    0    0    0  501  0.00000000000E+00  0.00000000000E+00  0.12281495500E+04  0.12281495500E+04  0.25500000920E-02 0. -1.
        2   -1    0    0  501    0  0.00000000000E+00  0.00000000000E+00 -0.98751305484E+03  0.98751305484E+03  0.25500000920E-02 0.  1.
    10030    2    1    2    0    0  0.00000000000E+00  0.00000000000E+00  0.24063649515E+03  0.22156626048E+04  0.22025564364E+04 0.  0.
        2    1    3    3  502    0  0.81874402211E+03  0.28623050101E+03 -0.56235387124E+03  0.10336883234E+04  0.25500000920E-02 0.  1.
       -2    1    3    3    0  502 -0.81874402211E+03 -0.28623050101E+03  0.80299036639E+03  0.11819742814E+04  0.25500000920E-02 0. -1.
</event>
<event>
 5   0  0.5281919E-06  0.2873706E+04  0.7818609E-02  0.8280744E-01
       -1   -1    0    0    0  501  0.00000000000E+00  0.00000000000E+00  0.16932885095E+04  0.16932885095E+04  0.50400001928E-02 0. -1.
        1   -1    0    0  501    0  0.00000000000E+00  0.00000000000E+00 -0.12192524398E+04  0.12192524398E+04  0.50400001928E-02 0.  1.
    10030    2    1    2    0    0  0.00000000000E+00  0.00000000000E+00  0.47403606975E+03  0.29125409493E+04  0.28737057236E+04 0.  0.
        4    1    3    3  502    0  0.22856342951E+03 -0.71986741206E+02 -0.11988566751E+04  0.12225719908E+04  0.12699999809E+01 0.  1.
       -4    1    3    3    0  502 -0.22856342951E+03  0.71986741206E+02  0.16728927449E+04  0.16899689586E+04  0.12699999809E+01 0. -1.
</event>
<event>
 5   0  0.1330962E-05  0.2764334E+04  0.7818609E-02  0.8314427E-01
       -2   -1    0    0    0  501  0.00000000000E+00  0.00000000000E+00  0.10528983112E+04  0.10528983112E+04  0.25500000920E-02 0.  1.
        2   -1    0    0  501    0  0.00000000000E+00  0.00000000000E+00 -0.18144067151E+04  0.18144067151E+04  0.25500000920E-02 0. -1.
    10030    2    1    2    0    0  0.00000000000E+00  0.00000000000E+00 -0.76150840387E+03  0.28673050263E+04  0.27643341087E+04 0.  0.
        4    1    3    3  502    0  0.23678362575E+03  0.77145267063E+03  0.78317617777E+03  0.11245320123E+04  0.12699999809E+01 0.  1.
       -4    1    3    3    0  502 -0.23678362575E+03 -0.77145267063E+03 -0.15446845816E+04  0.17427730139E+04  0.12699999809E+01 0. -1.
</event>
<event>
 5   0  0.4764214E-06  0.2830968E+04  0.7818609E-02  0.8293718E-01
        1   -1    0    0  501    0  0.00000000000E+00  0.00000000000E+00  0.18492524296E+04  0.18492524296E+04  0.50400001928E-02 0. -1.
       -1   -1    0    0    0  501  0.00000000000E+00  0.00000000000E+00 -0.10834618252E+04  0.10834618252E+04  0.50400001928E-02 0.  1.
    10030    2    1    2    0    0  0.00000000000E+00  0.00000000000E+00  0.76579060436E+03  0.29327142548E+04  0.28309676173E+04 0.  0.
        3    1    3    3  502    0 -0.68338339908E+03 -0.52801862652E+02 -0.90007999483E+03  0.11313465049E+04  0.10100000352E+00 0.  1.
       -3    1    3    3    0  502  0.68338339908E+03  0.52801862652E+02  0.16658705992E+04  0.18013677499E+04  0.10100000352E+00 0. -1.
</event>
<event>
 5   0  0.1283052E-05  0.2895932E+04  0.7818609E-02  0.8274089E-01
       -2   -1    0    0    0  501  0.00000000000E+00  0.00000000000E+00  0.17329918680E+04  0.17329918680E+04  0.25500000920E-02 0.  1.
        2   -1    0    0  501    0  0.00000000000E+00  0.00000000000E+00 -0.12098188435E+04  0.12098188435E+04  0.25500000920E-02 0. -1.
    10030    2    1    2    0    0  0.00000000000E+00  0.00000000000E+00  0.52317302459E+03  0.29428107115E+04  0.28959324699E+04 0.  0.
        5    1    3    3  502    0 -0.69751901582E+03  0.54489600089E+03 -0.90288632695E+03  0.12643853205E+04  0.46999998093E+01 0. -1.
       -5    1    3    3    0  502  0.69751901582E+03 -0.54489600089E+03  0.14260593515E+04  0.16784253910E+04  0.46999998093E+01 0.  1.
</event>
<event>
 5   0  0.1283052E-05  0.2796098E+04  0.7818609E-02  0.8304481E-01
       -2   -1    0    0    0  501  0.00000000000E+00  0.00000000000E+00  0.12916927567E+04  0.12916927567E+04  0.25500000920E-02 0.  1.
        2   -1    0    0  501    0  0.00000000000E+00  0.00000000000E+00 -0.15131627418E+04  0.15131627418E+04  0.25500000920E-02 0. -1.
    10030    2    1    2    0    0  0.00000000000E+00  0.00000000000E+00 -0.22146998512E+03  0.28048554985E+04  0.27960982481E+04 0.  0.
        5    1    3    3  502    0 -0.44896336796E+03 -0.13145080108E+04 -0.26940702661E+03  0.14149564136E+04  0.46999998093E+01 0. -1.
       -5    1    3    3    0  502  0.44896336796E+03  0.13145080108E+04  0.47937041492E+02  0.13898990849E+04  0.46999998093E+01 0.  1.
</event>
<event>
 5   0  0.1388269E-05  0.2795842E+04  0.7818609E-02  0.8304560E-01
       -2   -1    0    0    0  501  0.00000000000E+00  0.00000000000E+00  0.14373996034E+04  0.14373996034E+04  0.25500000920E-02 0.  1.
        2   -1    0    0  501    0  0.00000000000E+00  0.00000000000E+00 -0.13595271446E+04  0.13595271446E+04  0.25500000920E-02 0. -1.
    10030    2    1    2    0    0  0.00000000000E+00  0.00000000000E+00  0.77872458768E+02  0.27969267480E+04  0.27958424694E+04 0.  0.
        1    1    3    3  502    0 -0.10542156000E+04 -0.26341727362E+03 -0.84085044909E+03  0.13739682198E+04  0.50400001928E-02 0. -1.
       -1    1    3    3    0  502  0.10542156000E+04  0.26341727362E+03  0.91872290786E+03  0.14229585281E+04  0.50400001928E-02 0.  1.
</event>
<event>
 5   0  0.5281919E-06  0.2832003E+04  0.7818609E-02  0.8293401E-01
        1   -1    0    0  501    0  0.00000000000E+00  0.00000000000E+00  0.29463325704E+04  0.29463325704E+04  0.50400001928E-02 0. -1.
       -1   -1    0    0    0  501  0.00000000000E+00  0.00000000000E+00 -0.68052745417E+03  0.68052745419E+03  0.50400001928E-02 0.  1.
    10030    2    1    2    0    0  0.00000000000E+00  0.00000000000E+00  0.22658051162E+04  0.36268600246E+04  0.28320029684E+04 0.  0.
        4    1    3    3  502    0  0.73549568189E+02 -0.10980716099E+04 -0.81789094690E+01  0.11005631771E+04  0.12699999809E+01 0.  1.
       -4    1    3    3    0  502 -0.73549568189E+02  0.10980716099E+04  0.22739840257E+04  0.25262968474E+04  0.12699999809E+01 0. -1.
</event>
<event>
 5   0  0.4764214E-06  0.2114166E+04  0.7818609E-02  0.8555029E-01
        1   -1    0    0  501    0  0.00000000000E+00  0.00000000000E+00  0.94716828888E+03  0.94716828890E+03  0.50400001928E-02 0.  1.
       -1   -1    0    0    0  501  0.00000000000E+00  0.00000000000E+00 -0.11797529453E+04  0.11797529453E+04  0.50400001928E-02 0. -1.
    10030    2    1    2    0    0  0.00000000000E+00  0.00000000000E+00 -0.23258465646E+03  0.21269212342E+04  0.21141661038E+04 0.  0.
        3    1    3    3  502    0  0.18777166301E+03 -0.29533975533E+02  0.92983421432E+03  0.94906381738E+03  0.10100000352E+00 0.  1.
       -3    1    3    3    0  502 -0.18777166301E+03  0.29533975533E+02 -0.11624188708E+04  0.11778574169E+04  0.10100000352E+00 0. -1.
</event>
<event>
 5   0  0.4764214E-06  0.2739543E+04  0.7818609E-02  0.8322287E-01
        1   -1    0    0  501    0  0.00000000000E+00  0.00000000000E+00  0.16439784273E+04  0.16439784273E+04  0.50400001928E-02 0.  1.
       -1   -1    0    0    0  501  0.00000000000E+00  0.00000000000E+00 -0.11413010172E+04  0.11413010172E+04  0.50400001928E-02 0. -1.
    10030    2    1    2    0    0  0.00000000000E+00  0.00000000000E+00  0.50267741009E+03  0.27852794445E+04  0.27395432111E+04 0.  0.
        3    1    3    3  502    0 -0.10127649864E+04  0.54057271760E+03 -0.50837283820E+03  0.12555296625E+04  0.10100000352E+00 0. -1.
       -3    1    3    3    0  502  0.10127649864E+04 -0.54057271760E+03  0.10110502483E+04  0.15297497820E+04  0.10100000352E+00 0.  1.
</event>
<event>
 5   0  0.1330962E-05  0.2772743E+04  0.7818609E-02  0.8311781E-01
        2   -1    0    0  501    0  0.00000000000E+00  0.00000000000E+00  0.20288970509E+04  0.20288970509E+04  0.25500000920E-02 0. -1.
       -2   -1    0    0    0  501  0.00000000000E+00  0.00000000000E+00 -0.94732541763E+03  0.94732541763E+03  0.25500000920E-02 0.  1.
    10030    2    1    2    0    0  0.00000000000E+00  0.00000000000E+00  0.10815716333E+04  0.29762224686E+04  0.27727428630E+04 0.  0.
        4    1    3    3  502    0 -0.47497086454E+03 -0.10235018616E+04 -0.32385332865E+03  0.11738977699E+04  0.12699999809E+01 0.  1.
       -4    1    3    3    0  502  0.47497086454E+03  0.10235018616E+04  0.14054249619E+04  0.18023246987E+04  0.12699999809E+01 0. -1.
</event>
<event>
 5   0  0.5023691E-06  0.2763124E+04  0.7818609E-02  0.8314809E-01
       -1   -1    0    0    0  501  0.00000000000E+00  0.00000000000E+00  0.23926655840E+04  0.23926655841E+04  0.50400001928E-02 0. -1.
        1   -1    0    0  501    0  0.00000000000E+00  0.00000000000E+00 -0.79773524882E+03  0.79773524884E+03  0.50400001928E-02 0.  1.
    10030    2    1    2    0    0  0.00000000000E+00  0.00000000000E+00  0.15949303352E+04  0.31904008329E+04  0.27631240834E+04 0.  0.
        5    1    3    3  502    0  0.74358620977E+03  0.49519523501E+03  0.20142519125E+04  0.22034907826E+04  0.46999998093E+01 0. -1.
       -5    1    3    3    0  502 -0.74358620977E+03 -0.49519523501E+03 -0.41932157727E+03  0.98691005026E+03  0.46999998093E+01 0.  1.
</event>
<event>
 5   0  0.5281919E-06  0.2784899E+04  0.7818609E-02  0.8307972E-01
        1   -1    0    0  501    0  0.00000000000E+00  0.00000000000E+00  0.14871019933E+04  0.14871019933E+04  0.50400001928E-02 0. -1.
       -1   -1    0    0    0  501  0.00000000000E+00  0.00000000000E+00 -0.13038215343E+04  0.13038215343E+04  0.50400001928E-02 0.  1.
    10030    2    1    2    0    0  0.00000000000E+00  0.00000000000E+00  0.18328045896E+03  0.27909235276E+04  0.27848989947E+04 0.  0.
        4    1    3    3  502    0  0.10119280072E+04 -0.94220084678E+03 -0.73559518077E+02  0.13846130662E+04  0.12699999809E+01 0. -1.
       -4    1    3    3    0  502 -0.10119280072E+04  0.94220084678E+03  0.25683997704E+03  0.14063104615E+04  0.12699999809E+01 0.  1.
</event>
<event>
 5   0  0.5107453E-06  0.2080344E+04  0.7818609E-02  0.8569952E-01
       -1   -1    0    0    0  501  0.00000000000E+00  0.00000000000E+00  0.80981793441E+03  0.80981793443E+03  0.50400001928E-02 0.  1.
        1   -1    0    0  501    0  0.00000000000E+00  0.00000000000E+00 -0.13360507130E+04  0.13360507130E+04  0.50400001928E-02 0. -1.
    10030    2    1    2    0    0  0.00000000000E+00  0.00000000000E+00 -0.52623277855E+03  0.21458686474E+04  0.20803440376E+04 0.  0.
        2    1    3    3  502    0 -0.96463108150E+03 -0.18616320335E+03  0.89390022798E+02  0.98648894462E+03  0.25500000920E-02 0.  1.
       -2    1    3    3    0  502  0.96463108150E+03  0.18616320335E+03 -0.61562280135E+03  0.11593797028E+04  0.25500000920E-02 0. -1.
</event>
<event>
 5   0  0.1350863E-05  0.2684130E+04  0.7818609E-02  0.8340173E-01
       -2   -1    0    0    0  501  0.00000000000E+00  0.00000000000E+00  0.14333043279E+04  0.14333043279E+04  0.25500000920E-02 0. -1.
        2   -1    0    0  501    0  0.00000000000E+00  0.00000000000E+00 -0.12566338036E+04  0.12566338036E+04  0.25500000920E-02 0.  1.
    10030    2    1    2    0    0  0.00000000000E+00  0.00000000000E+00  0.17667052428E+03  0.26899381315E+04  0.26841301528E+04 0.  0.
        3    1    3    3  502    0 -0.43850959814E+03  0.99908432677E+03 -0.69481488776E+03  0.12935331067E+04  0.10100000352E+00 0.  1.
       -3    1    3    3    0  502  0.43850959814E+03 -0.99908432677E+03  0.87148541203E+03  0.13964050248E+04  0.10100000352E+00 0. -1.
</event>
<event>
 5   0  0.1330962E-05  0.2900054E+04  0.7818609E-02  0.8272861E-01
       -2   -1    0    0    0  501  0.00000000000E+00  0.00000000000E+00  0.78193485366E+03  0.78193485366E+03  0.25500000920E-02 0. -1.
        2   -1    0    0  501    0  0.00000000000E+00  0.00000000000E+00 -0.26889437366E+04  0.26889437366E+04  0.25500000920E-02 0.  1.
    10030    2    1    2    0    0  0.00000000000E+00  0.00000000000E+00 -0.19070088829E+04  0.34708785902E+04  0.29000543631E+04 0.  0.
        4    1    3    3  502    0 -0.88945316986E+03 -0.49074955571E+03 -0.21918731656E+04  0.24158376715E+04  0.12699999809E+01 0.  1.
       -4    1    3    3    0  502  0.88945316986E+03  0.49074955571E+03  0.28486428271E+03  0.10550409188E+04  0.12699999809E+01 0. -1.
</event>
<event>
 5   0  0.1388269E-05  0.2845441E+04  0.7818609E-02  0.8289298E-01
       -2   -1    0    0    0  501  0.00000000000E+00  0.00000000000E+00  0.14621483702E+04  0.14621483702E+04  0.25500000920E-02 0.  1.
        2   -1    0    0  501    0  0.00000000000E+00  0.00000000000E+00 -0.13843555999E+04  0.13843555999E+04  0.25500000920E-02 0. -1.
    10030    2    1    2    0    0  0.00000000000E+00  0.00000000000E+00  0.77792770376E+02  0.28465039701E+04  0.28454407632E+04 0.  0.
        1    1    3    3  502    0  0.73486637777E+03  0.94125027964E+03  0.81258862914E+03  0.14443964007E+04  0.50400001928E-02 0. -1.
       -1    1    3    3    0  502 -0.73486637777E+03 -0.94125027964E+03 -0.73479585876E+03  0.14021075694E+04  0.50400001928E-02 0.  1.
</event>
<event>
 5   0  0.1350863E-05  0.2768150E+04  0.7818609E-02  0.8313225E-01
        2   -1    0    0  501    0  0.00000000000E+00  0.00000000000E+00  0.11976778114E+04  0.11976778114E+04  0.25500000920E-02 0. -1.
       -2   -1    0    0    0  501  0.00000000000E+00  0.00000000000E+00 -0.15994811981E+04  0.15994811981E+04  0.25500000920E-02 0.  1.
    10030    2    1    2    0    0  0.00000000000E+00  0.00000000000E+00 -0.40180338671E+03  0.27971590095E+04  0.27681496641E+04 0.  0.
        3    1    3    3  502    0 -0.12439444039E+04 -0.56877654188E+03 -0.41468131306E+03  0.14292882971E+04  0.10100000352E+00 0.  1.
       -3    1    3    3    0  502  0.12439444039E+04  0.56877654188E+03  0.12877926352E+02  0.13678707124E+04  0.10100000352E+00 0. -1.
</event>
<event>
 5   0  0.5023691E-06  0.2865951E+04  0.7818609E-02  0.8283081E-01
        1   -1    0    0  501    0  0.00000000000E+00  0.00000000000E+00  0.14873406500E+04  0.14873406500E+04  0.50400001928E-02 0.  1.
       -1   -1    0    0    0  501  0.00000000000E+00  0.00000000000E+00 -0.13805970418E+04  0.13805970418E+04  0.50400001928E-02 0. -1.
    10030    2    1    2    0    0  0.00000000000E+00  0.00000000000E+00  0.10674360816E+03  0.28679376918E+04  0.28659505240E+04 0.  0.
        5    1    3    3  502    0 -0.73580259698E+03  0.56149355464E+03 -0.10413316487E+04  0.13932243776E+04  0.46999998093E+01 0. -1.
       -5    1    3    3    0  502  0.73580259698E+03 -0.56149355464E+03  0.11480752569E+04  0.14747133142E+04  0.46999998093E+01 0.  1.
</event>
<event>
 5   0  0.5281919E-06  0.2827384E+04  0.7818609E-02  0.8294817E-01
       -1   -1    0    0    0  501  0.00000000000E+00  0.00000000000E+00  0.23879249813E+04  0.23879249813E+04  0.50400001928E-02 0. -1.
        1   -1    0    0  501    0  0.00000000000E+00  0.00000000000E+00 -0.83692965570E+03  0.83692965572E+03  0.50400001928E-02 0.  1.
    10030    2    1    2    0    0  0.00000000000E+00  0.00000000000E+00  0.15509953256E+04  0.32248546370E+04  0.28273841143E+04 0.  0.
        4    1    3    3  502    0 -0.14029452045E+04 -0.80647863841E+02  0.95132556544E+03  0.16969918294E+04  0.12699999809E+01 0. -1.
       -4    1    3    3    0  502  0.14029452045E+04  0.80647863841E+02  0.59966976013E+03  0.15278628076E+04  0.12699999809E+01 0.  1.
</event>
<event>
 5   0  0.5023691E-06  0.2800650E+04  0.7818609E-02  0.8303067E-01
        1   -1    0    0  501    0  0.00000000000E+00  0.00000000000E+00  0.19790418102E+04  0.19790418102E+04  0.50400001928E-02 0. -1.
       -1   -1    0    0    0  501  0.00000000000E+00  0.00000000000E+00 -0.99083811477E+03  0.99083811479E+03  0.50400001928E-02 0.  1.
    10030    2    1    2    0    0  0.00000000000E+00  0.00000000000E+00  0.98820369541E+03  0.29698799250E+04  0.28006499648E+04 0.  0.
        5    1    3    3  502    0 -0.16061726261E+03  0.91463020761E+03 -0.61734403359E+03  0.11151152710E+04  0.46999998093E+01 0.  1.
       -5    1    3    3    0  502  0.16061726261E+03 -0.91463020761E+03  0.16055477290E+04  0.18547646540E+04  0.46999998093E+01 0. -1.
</event>
<event>
 5   0  0.5217999E-06  0.2426620E+04  0.7818609E-02  0.8429604E-01
       -1   -1    0    0    0  501  0.00000000000E+00  0.00000000000E+00  0.48953372380E+03  0.48953372382E+03  0.50400001928E-02 0.  1.
        1   -1    0    0  501    0  0.00000000000E+00  0.00000000000E+00 -0.30071909726E+04  0.30071909726E+04  0.50400001928E-02 0. -1.
    10030    2    1    2    0    0  0.00000000000E+00  0.00000000000E+00 -0.25176572488E+04  0.34967246964E+04  0.24266201969E+04 0.  0.
        1    1    3    3  502    0  0.62851650530E+03  0.87017458262E+03 -0.44383109031E+03  0.11615605186E+04  0.50400001928E-02 0.  1.
       -1    1    3    3    0  502 -0.62851650530E+03 -0.87017458262E+03 -0.20738261585E+04  0.23351641778E+04  0.50400001928E-02 0. -1.
</event>
<event>
 5   0  0.1330962E-05  0.2767883E+04  0.7818609E-02  0.8313309E-01
        2   -1    0    0  501    0  0.00000000000E+00  0.00000000000E+00  0.11948182909E+04  0.11948182909E+04  0.25500000920E-02 0. -1.
       -2   -1    0    0    0  501  0.00000000000E+00  0.00000000000E+00 -0.16030004752E+04  0.16030004752E+04  0.25500000920E-02 0.  1.
    10030    2    1    2    0    0  0.00000000000E+00  0.00000000000E+00 -0.40818218432E+03  0.27978187661E+04  0.27678831537E+04 0.  0.
        4    1    3    3  502    0  0.67387677171E+03  0.19611388231E+03  0.10015883833E+04  0.12230091826E+04  0.12699999809E+01 0. -1.
       -4    1    3    3    0  502 -0.67387677171E+03 -0.19611388231E+03 -0.14097705676E+04  0.15748095835E+04  0.12699999809E+01 0.  1.
</event>
<event>
 5   0  0.1388269E-05  0.2798655E+04  0.7818609E-02  0.8303686E-01
        2   -1    0    0  501    0  0.00000000000E+00  0.00000000000E+00  0.12581131921E+04  0.12581131922E+04  0.25500000920E-02 0. -1.
       -2   -1    0    0    0  501  0.00000000000E+00  0.00000000000E+00 -0.15563925977E+04  0.15563925977E+04  0.25500000920E-02 0.  1.
    10030    2    1    2    0    0  0.00000000000E+00  0.00000000000E+00 -0.29827940552E+03  0.28145057898E+04  0.27986554338E+04 0.  0.
        1    1    3    3  502    0  0.21624757962E+03 -0.21035333557E+03 -0.15232995736E+04  0.15528854215E+04  0.50400001928E-02 0.  1.
       -1    1    3    3    0  502 -0.21624757962E+03  0.21035333557E+03  0.12250201681E+04  0.12616203683E+04  0.50400001928E-02 0. -1.
</event>
<event>
 5   0  0.1302063E-05  0.2774329E+04  0.7818609E-02  0.8311283E-01
        2   -1    0    0  501    0  0.00000000000E+00  0.00000000000E+00  0.19931167850E+04  0.19931167850E+04  0.25500000920E-02 0.  1.
       -2   -1    0    0    0  501  0.00000000000E+00  0.00000000000E+00 -0.96543502742E+03  0.96543502742E+03  0.25500000920E-02 0. -1.
    10030    2    1    2    0    0  0.00000000000E+00  0.00000000000E+00  0.10276817576E+04  0.29585518124E+04  0.27743285732E+04 0.  0.
        2    1    3    3  502    0 -0.93854794521E+03  0.25486797806E+03  0.15686608854E+04  0.18456778985E+04  0.25500000920E-02 0.  1.
       -2    1    3    3    0  502  0.93854794521E+03 -0.25486797806E+03 -0.54097912775E+03  0.11128739140E+04  0.25500000920E-02 0. -1.
</event>
<event>
 5   0  0.4764214E-06  0.2861580E+04  0.7818609E-02  0.8284401E-01
       -1   -1    0    0    0  501  0.00000000000E+00  0.00000000000E+00  0.13783834041E+04  0.13783834041E+04  0.50400001928E-02 0. -1.
        1   -1    0    0  501    0  0.00000000000E+00  0.00000000000E+00 -0.14851893766E+04  0.14851893766E+04  0.50400001928E-02 0.  1.
    10030    2    1    2    0    0  0.00000000000E+00  0.00000000000E+00 -0.10680597248E+03  0.28635727808E+04  0.28615802549E+04 0.  0.
        3    1    3    3  502    0 -0.37467474973E+03  0.30353362314E+03  0.12946231694E+04  0.13815075061E+04  0.10100000352E+00 0. -1.
       -3    1    3    3    0  502  0.37467474973E+03 -0.30353362314E+03 -0.14014291419E+04  0.14820652747E+04  0.10100000352E+00 0.  1.
</event>
<event>
 5   0  0.1350863E-05  0.2792153E+04  0.7818609E-02  0.8305709E-01
        2   -1    0    0  501    0  0.00000000000E+00  0.00000000000E+00  0.14850705924E+04  0.14850705924E+04  0.25500000920E-02 0. -1.
       -2   -1    0    0    0  501  0.00000000000E+00  0.00000000000E+00 -0.13124158648E+04  0.13124158648E+04  0.25500000920E-02 0.  1.
    10030    2    1    2    0    0  0.00000000000E+00  0.00000000000E+00  0.17265472758E+03  0.27974864572E+04  0.27921534383E+04 0.  0.
        3    1    3    3  502    0  0.68590073409E+03  0.11687538838E+04 -0.24985000384E+03  0.13779950989E+04  0.10100000352E+00 0. -1.
       -3    1    3    3    0  502 -0.68590073409E+03 -0.11687538838E+04  0.42250473142E+03  0.14194913583E+04  0.10100000352E+00 0.  1.
</event>
<event>
 5   0  0.1283052E-05  0.2787785E+04  0.7818609E-02  0.8307071E-01
        2   -1    0    0  501    0  0.00000000000E+00  0.00000000000E+00  0.92380717476E+03  0.92380717476E+03  0.25500000920E-02 0. -1.
       -2   -1    0    0    0  501  0.00000000000E+00  0.00000000000E+00 -0.21031837506E+04  0.21031837506E+04  0.25500000920E-02 0.  1.
    10030    2    1    2    0    0  0.00000000000E+00  0.00000000000E+00 -0.11793765758E+04  0.30269909253E+04  0.27877849549E+04 0.  0.
        5    1    3    3  502    0 -0.80144287659E+03 -0.62167646503E+01  0.64858883516E+03  0.10310377780E+04  0.46999998093E+01 0. -1.
       -5    1    3    3    0  502  0.80144287659E+03  0.62167646503E+01 -0.18279654110E+04  0.19959531473E+04  0.46999998093E+01 0.  1.
</event>
<event>
 5   0  0.1388269E-05  0.2111647E+04  0.7818609E-02  0.8556130E-01
        2   -1    0    0  501    0  0.00000000000E+00  0.00000000000E+00  0.14158383653E+04  0.14158383653E+04  0.25500000920E-02 0.  1.
       -2   -1    0    0    0  501  0.00000000000E+00  0.00000000000E+00 -0.78735238600E+03  0.78735238600E+03  0.25500000920E-02 0. -1.
    10030    2    1    2    0    0  0.00000000000E+00  0.00000000000E+00  0.62848597929E+03  0.22031907513E+04  0.21116474281E+04 0.  0.
        1    1    3    3  502    0 -0.80367613767E+03 -0.49883077711E+03  0.80365857608E+03  0.12412069068E+04  0.50400001928E-02 0.  1.
       -1    1    3    3    0  502  0.80367613767E+03  0.49883077711E+03 -0.17517259678E+03  0.96198384453E+03  0.50400001928E-02 0. -1.
</event>
<event>
 5   0  0.4764214E-06  0.2827484E+04  0.7818609E-02  0.8294786E-01
        1   -1    0    0  501    0  0.00000000000E+00  0.00000000000E+00  0.24146091451E+04  0.24146091451E+04  0.50400001928E-02 0.  1.
       -1   -1    0    0    0  501  0.00000000000E+00  0.00000000000E+00 -0.82773902487E+03  0.82773902489E+03  0.50400001928E-02 0. -1.
    10030    2    1    2    0    0  0.00000000000E+00  0.00000000000E+00  0.15868701202E+04  0.32423481700E+04  0.28274838420E+04 0.  0.
        3    1    3    3  502    0  0.19968149977E+03 -0.11110514929E+04 -0.18253427738E+03  0.11435151481E+04  0.10100000352E+00 0. -1.
       -3    1    3    3    0  502 -0.19968149977E+03  0.11110514929E+04  0.17694043976E+04  0.20988330219E+04  0.10100000352E+00 0.  1.
</event>
<event>
 5   0  0.5281919E-06  0.2792652E+04  0.7818609E-02  0.8305553E-01
        1   -1    0    0  501    0  0.00000000000E+00  0.00000000000E+00  0.11530265305E+04  0.11530265306E+04  0.50400001928E-02 0.  1.
       -1   -1    0    0    0  501  0.00000000000E+00  0.00000000000E+00 -0.16909643274E+04  0.16909643274E+04  0.50400001928E-02 0. -1.
    10030    2    1    2    0    0  0.00000000000E+00  0.00000000000E+00 -0.53793779689E+03  0.28439908580E+04  0.27926523105E+04 0.  0.
        4    1    3    3  502    0  0.53285479792E+03 -0.12861979239E+04 -0.15982696431E+03  0.14013513501E+04  0.12699999809E+01 0. -1.
       -4    1    3    3    0  502 -0.53285479792E+03  0.12861979239E+04 -0.37811083257E+03  0.14426395079E+04  0.12699999809E+01 0.  1.
</event>
<event>
 5   0  0.4764214E-06  0.2694897E+04  0.7818609E-02  0.8336663E-01
       -1   -1    0    0    0  501  0.00000000000E+00  0.00000000000E+00  0.13085388923E+04  0.13085388923E+04  0.50400001928E-02 0. -1.
        1   -1    0    0  501    0  0.00000000000E+00  0.00000000000E+00 -0.13875146215E+04  0.13875146215E+04  0.50400001928E-02 0.  1.
    10030    2    1    2    0    0  0.00000000000E+00  0.00000000000E+00 -0.78975729176E+02  0.26960535139E+04  0.26948965442E+04 0.  0.
        3    1    3    3  502    0  0.84656103629E+03 -0.82086281845E+03 -0.69179193214E+03  0.13671347565E+04  0.10100000352E+00 0.  1.
       -3    1    3    3    0  502 -0.84656103629E+03  0.82086281845E+03  0.61281620296E+03  0.13289187574E+04  0.10100000352E+00 0. -1.
</event>
<event>
 5   0  0.1330962E-05  0.2351978E+04  0.7818609E-02  0.8457704E-01
       -2   -1    0    0    0  501  0.00000000000E+00  0.00000000000E+00  0.94871543359E+03  0.94871543360E+03  0.25500000920E-02 0. -1.
        2   -1    0    0  501    0  0.00000000000E+00  0.00000000000E+00 -0.14577075232E+04  0.14577075232E+04  0.25500000920E-02 0.  1.
    10030    2    1    2    0    0  0.00000000000E+00  0.00000000000E+00 -0.50899208962E+03  0.24064229568E+04  0.23519775721E+04 0.  0.
        4    1    3    3  502    0 -0.72464164738E+03 -0.58308438208E+02 -0.12002545110E+04  0.14032526127E+04  0.12699999809E+01 0.  1.
       -4    1    3    3    0  502  0.72464164738E+03  0.58308438208E+02  0.69126242139E+03  0.10031703441E+04  0.12699999809E+01 0. -1.
</event>
<event>
 5   0  0.1283052E-05  0.2850906E+04  0.7818609E-02  0.8287636E-01
        2   -1    0    0  501    0  0.00000000000E+00  0.00000000000E+00  0.16681773667E+04  0.16681773667E+04  0.25500000920E-02 0.  1.
       -2   -1    0    0    0  501  0.00000000000E+00  0.00000000000E+00 -0.12180459036E+04  0.12180459036E+04  0.25500000920E-02 0. -1.
    10030    2    1    2    0    0  0.00000000000E+00  0.00000000000E+00  0.45013146311E+03  0.28862232703E+04  0.28509062475E+04 0.  0.
        5    1    3    3  502    0  0.10400503321E+04 -0.24651767703E+03 -0.72970732597E+03  0.12942065253E+04  0.46999998093E+01 0. -1.
       -5    1    3    3    0  502 -0.10400503321E+04  0.24651767703E+03  0.11798387891E+04  0.15920167451E+04  0.46999998093E+01 0.  1.
</event>
<event>
 5   0  0.1302063E-05  0.2791264E+04  0.7818609E-02  0.8305986E-01
       -2   -1    0    0    0  501  0.00000000000E+00  0.00000000000E+00  0.14853488045E+04  0.14853488045E+04  0.25500000920E-02 0. -1.
        2   -1    0    0  501    0  0.00000000000E+00  0.00000000000E+00 -0.13113343451E+04  0.13113343451E+04  0.25500000920E-02 0.  1.
    10030    2    1    2    0    0  0.00000000000E+00  0.00000000000E+00  0.17401445939E+03  0.27966831495E+04  0.27912641593E+04 0.  0.
        2    1    3    3  502    0 -0.17956503244E+03 -0.55459210615E+03  0.13575277643E+04  0.14773955584E+04  0.25500000920E-02 0. -1.
       -2    1    3    3    0  502  0.17956503244E+03  0.55459210615E+03 -0.11835133049E+04  0.13192875911E+04  0.25500000920E-02 0.  1.
</event>
<event>
 5   0  0.1350863E-05  0.2834713E+04  0.7818609E-02  0.8292572E-01
       -2   -1    0    0    0  501  0.00000000000E+00  0.00000000000E+00  0.13004522814E+04  0.13004522814E+04  0.25500000920E-02 0. -1.
        2   -1    0    0  501    0  0.00000000000E+00  0.00000000000E+00 -0.15447699997E+04  0.15447699997E+04  0.25500000920E-02 0.  1.
    10030    2    1    2    0    0  0.00000000000E+00  0.00000000000E+00 -0.24431771838E+03  0.28452222811E+04  0.28347131568E+04 0.  0.
        3    1    3    3  502    0  0.39328761325E+03  0.11834886671E+04 -0.79813846492E+03  0.14806571484E+04  0.10100000352E+00 0.  1.
       -3    1    3    3    0  502 -0.39328761325E+03 -0.11834886671E+04  0.55382074654E+03  0.13645651327E+04  0.10100000352E+00 0. -1.
</event>
<event>
 5   0  0.1302063E-05  0.2796103E+04  0.7818609E-02  0.8304479E-01
       -2   -1    0    0    0  501  0.00000000000E+00  0.00000000000E+00  0.11646902245E+04  0.11646902245E+04  0.25500000920E-02 0. -1.
        2   -1    0    0  501    0  0.00000000000E+00  0.00000000000E+00 -0.16781699526E+04  0.16781699526E+04  0.25500000920E-02 0.  1.
    10030    2    1    2    0    0  0.00000000000E+00  0.00000000000E+00 -0.51347972810E+03  0.28428601770E+04  0.27961031016E+04 0.  0.
        2    1    3    3  502    0  0.38300782471E+03  0.93930362285E+03 -0.12348889224E+04  0.15981041707E+04  0.25500000920E-02 0.  1.
       -2    1    3    3    0  502 -0.38300782471E+03 -0.93930362285E+03  0.72140919428E+03  0.12447560063E+04  0.25500000920E-02 0. -1.
</event>
<event>
 5   0  0.1350863E-05  0.2915418E+04  0.7818609E-02  0.8268305E-01
        2   -1    0    0  501    0  0.00000000000E+00  0.00000000000E+00  0.21406105740E+04  0.21406105740E+04  0.25500000920E-02 0. -1.
       -2   -1    0    0    0  501  0.00000000000E+00  0.00000000000E+00 -0.99266820125E+03  0.99266820125E+03  0.25500000920E-02 0.  1.
    10030    2    1    2    0    0  0.00000000000E+00  0.00000000000E+00  0.11479423728E+04  0.31332787753E+04  0.29154183563E+04 0.  0.
        3    1    3    3  502    0 -0.10436953661E+04  0.66124588491E+03  0.14053195045E+04  0.18712212743E+04  0.10100000352E+00 0. -1.
       -3    1    3    3    0  502  0.10436953661E+04 -0.66124588491E+03 -0.25737713172E+03  0.12620575010E+04  0.10100000352E+00 0.  1.
</event>
<event>
 5   0  0.1350863E-05  0.2790243E+04  0.7818609E-02  0.8306304E-01
        2   -1    0    0  501    0  0.00000000000E+00  0.00000000000E+00  0.17936219819E+04  0.17936219820E+04  0.25500000920E-02 0.  1.
       -2   -1    0    0    0  501  0.00000000000E+00  0.00000000000E+00 -0.10851585808E+04  0.10851585808E+04  0.25500000920E-02 0. -1.
    10030    2    1    2    0    0  0.00000000000E+00  0.00000000000E+00  0.70846340119E+03  0.28787805627E+04  0.27902432040E+04 0.  0.
        3    1    3    3  502    0  0.11889276852E+04 -0.19652058395E+03 -0.37106487914E+03  0.12608959257E+04  0.10100000352E+00 0. -1.
       -3    1    3    3    0  502 -0.11889276852E+04  0.19652058395E+03  0.10795282803E+04  0.16178846371E+04  0.10100000352E+00 0.  1.
</event>
<event>
 5   0  0.1330962E-05  0.2742228E+04  0.7818609E-02  0.8321432E-01
       -2   -1    0    0    0  501  0.00000000000E+00  0.00000000000E+00  0.17012731374E+04  0.17012731374E+04  0.25500000920E-02 0. -1.
        2   -1    0    0  501    0  0.00000000000E+00  0.00000000000E+00 -0.11050278045E+04  0.11050278045E+04  0.25500000920E-02 0.  1.
    10030    2    1    2    0    0  0.00000000000E+00  0.00000000000E+00  0.59624533292E+03  0.28063009419E+04  0.27422283785E+04 0.  0.
        4    1    3    3  502    0  0.99842959868E+03  0.52860300470E+02 -0.66204072028E+03  0.11991477820E+04  0.12699999809E+01 0.  1.
       -4    1    3    3    0  502 -0.99842959868E+03 -0.52860300470E+02  0.12582860532E+04  0.16071531599E+04  0.12699999809E+01 0. -1.
</event>
<event>
 5   0  0.5023691E-06  0.2810530E+04  0.7818609E-02  0.8300007E-01
        1   -1    0    0  501    0  0.00000000000E+00  0.00000000000E+00  0.11790063673E+04  0.11790063673E+04  0.50400001928E-02 0. -1.
       -1   -1    0    0    0  501  0.00000000000E+00  0.00000000000E+00 -0.16749441737E+04  0.16749441737E+04  0.50400001928E-02 0.  1.
    10030    2    1    2    0    0  0.00000000000E+00  0.00000000000E+00 -0.49593780634E+03  0.28539505410E+04  0.28105300893E+04 0.  0.
        5    1    3    3  502    0 -0.37539465391E+03 -0.25911255261E+03 -0.15976713842E+04  0.16615162964E+04  0.46999998093E+01 0.  1.
       -5    1    3    3    0  502  0.37539465391E+03  0.25911255261E+03  0.11017335779E+04  0.11924342446E+04  0.46999998093E+01 0. -1.
</event>
<event>
 5   0  0.5107453E-06  0.2796789E+04  0.7818609E-02  0.8304266E-01
        1   -1    0    0  501    0  0.00000000000E+00  0.00000000000E+00  0.16863523189E+04  0.16863523189E+04  0.50400001928E-02 0. -1.
       -1   -1    0    0    0  501  0.00000000000E+00  0.00000000000E+00 -0.11596073293E+04  0.11596073294E+04  0.50400001928E-02 0.  1.
    10030    2    1    2    0    0  0.00000000000E+00  0.00000000000E+00  0.52674498956E+03  0.28459596483E+04  0.27967885218E+04 0.  0.
        2    1    3    3  502    0 -0.12381935353E+04 -0.12367083890E+03  0.91262507981E+03  0.15431468639E+04  0.25500000920E-02 0.  1.
       -2    1    3    3    0  502  0.12381935353E+04  0.12367083890E+03 -0.38588009025E+03  0.13028127844E+04  0.25500000920E-02 0. -1.
</event>
<event>
 5   0  0.5107453E-06  0.2761800E+04  0.7818609E-02  0.8315227E-01
       -1   -1    0    0    0  501  0.00000000000E+00  0.00000000000E+00  0.82387460523E+03  0.82387460525E+03  0.50400001928E-02 0. -1.
        1   -1    0    0  501    0  0.00000000000E+00  0.00000000000E+00 -0.23145324848E+04  0.23145324848E+04  0.50400001928E-02 0.  1.
    10030    2    1    2    0    0  0.00000000000E+00  0.00000000000E+00 -0.14906578795E+04  0.31384070900E+04  0.27617998025E+04 0.  0.
        2    1    3    3  502    0  0.11417965706E+04  0.56950246696E+03 -0.13454018444E+04  0.18542218291E+04  0.25500000920E-02 0.  1.
       -2    1    3    3    0  502 -0.11417965706E+04 -0.56950246696E+03 -0.14525603510E+03  0.12841852609E+04  0.25500000920E-02 0. -1.
</event>
<event>
 5   0  0.4764214E-06  0.2795041E+04  0.7818609E-02  0.8304809E-01
        1   -1    0    0  501    0  0.00000000000E+00  0.00000000000E+00  0.10617967349E+04  0.10617967350E+04  0.50400001928E-02 0. -1.
       -1   -1    0    0    0  501  0.00000000000E+00  0.00000000000E+00 -0.18393953362E+04  0.18393953362E+04  0.50400001928E-02 0.  1.
    10030    2    1    2    0    0  0.00000000000E+00  0.00000000000E+00 -0.77759860122E+03  0.29011920711E+04  0.27950412965E+04 0.  0.
        3    1    3    3  502    0 -0.12091064218E+04 -0.21944666849E+02  0.33826281987E+03  0.12557235576E+04  0.10100000352E+00 0.  1.
       -3    1    3    3    0  502  0.12091064218E+04  0.21944666849E+02 -0.11158614211E+04  0.16454685135E+04  0.10100000352E+00 0. -1.
</event>
<event>
 5   0  0.1388269E-05  0.2753642E+04  0.7818609E-02  0.8317807E-01
       -2   -1    0    0    0  501  0.00000000000E+00  0.00000000000E+00  0.76701894337E+03  0.76701894337E+03  0.25500000920E-02 0.  1.
        2   -1    0    0  501    0  0.00000000000E+00  0.00000000000E+00 -0.24714333320E+04  0.24714333320E+04  0.25500000920E-02 0. -1.
    10030    2    1    2    0    0  0.00000000000E+00  0.00000000000E+00 -0.17044143886E+04  0.32384522753E+04  0.27536420849E+04 0.  0.
        1    1    3    3  502    0 -0.18580746133E+03 -0.10676330201E+04  0.14659479386E+03  0.10935514217E+04  0.50400001928E-02 0.  1.
       -1    1    3    3    0  502  0.18580746133E+03  0.10676330201E+04 -0.18510091825E+04  0.21449008536E+04  0.50400001928E-02 0. -1.
</event>
<event>
 5   0  0.4764214E-06  0.2793210E+04  0.7818609E-02  0.8305380E-01
        1   -1    0    0  501    0  0.00000000000E+00  0.00000000000E+00  0.17820922841E+04  0.17820922841E+04  0.50400001928E-02 0. -1.
       -1   -1    0    0    0  501  0.00000000000E+00  0.00000000000E+00 -0.10945029562E+04  0.10945029563E+04  0.50400001928E-02 0.  1.
    10030    2    1    2    0    0  0.00000000000E+00  0.00000000000E+00  0.68758932782E+03  0.28765952403E+04  0.27932098190E+04 0.  0.
        3    1    3    3  502    0  0.83507824026E+03  0.35264672354E+03  0.14379569765E+04  0.16998340082E+04  0.10100000352E+00 0. -1.
       -3    1    3    3    0  502 -0.83507824026E+03 -0.35264672354E+03 -0.75036764870E+03  0.11767612321E+04  0.10100000352E+00 0.  1.
</event>
<event>
 5   0  0.1350863E-05  0.2747051E+04  0.7818609E-02  0.8319898E-01
        2   -1    0    0  501    0  0.00000000000E+00  0.00000000000E+00  0.18782001050E+04  0.18782001050E+04  0.25500000920E-02 0.  1.
       -2   -1    0    0    0  501  0.00000000000E+00  0.00000000000E+00 -0.10044573931E+04  0.10044573931E+04  0.25500000920E-02 0. -1.
    10030    2    1    2    0    0  0.00000000000E+00  0.00000000000E+00  0.87374271189E+03  0.28826574980E+04  0.27470507684E+04 0.  0.
        3    1    3    3  502    0 -0.73725861934E+03 -0.95430960660E+03  0.11268353825E+04  0.16504590533E+04  0.10100000352E+00 0.  1.
       -3    1    3    3    0  502  0.73725861934E+03  0.95430960660E+03 -0.25309267064E+03  0.12321984447E+04  0.10100000352E+00 0. -1.
</event>
<event>
 5   0  0.5217999E-06  0.2797815E+04  0.7818609E-02  0.8303947E-01
       -1   -1    0    0    0  501  0.00000000000E+00  0.00000000000E+00  0.92610154296E+03  0.92610154298E+03  0.50400001928E-02 0. -1.
        1   -1    0    0  501    0  0.00000000000E+00  0.00000000000E+00 -0.21130962810E+04  0.21130962810E+04  0.50400001928E-02 0.  1.
    10030    2    1    2    0    0  0.00000000000E+00  0.00000000000E+00 -0.11869947380E+04  0.30391978240E+04  0.27978146660E+04 0.  0.
        1    1    3    3  502    0 -0.66463600570E+03  0.87678380069E+03  0.34501638659E+03  0.11530512392E+04  0.50400001928E-02 0. -1.
       -1    1    3    3    0  502  0.66463600570E+03 -0.87678380069E+03 -0.15320111246E+04  0.18861465848E+04  0.50400001928E-02 0.  1.
</event>
<event>
 5   0  0.1330962E-05  0.2770742E+04  0.7818609E-02  0.8312410E-01
        2   -1    0    0  501    0  0.00000000000E+00  0.00000000000E+00  0.14087267434E+04  0.14087267434E+04  0.25500000920E-02 0.  1.
       -2   -1    0    0    0  501  0.00000000000E+00  0.00000000000E+00 -0.13624025834E+04  0.13624025834E+04  0.25500000920E-02 0. -1.
    10030    2    1    2    0    0  0.00000000000E+00  0.00000000000E+00  0.46324159967E+02  0.27711293268E+04  0.27707421060E+04 0.  0.
        4    1    3    3  502    0  0.52882139869E+03  0.32460861026E+02 -0.12570736714E+04  0.13641633361E+04  0.12699999809E+01 0. -1.
       -4    1    3    3    0  502 -0.52882139869E+03 -0.32460861026E+02  0.13033978314E+04  0.14069659907E+04  0.12699999809E+01 0.  1.
</event>
<event>
 5   0  0.1330962E-05  0.2752488E+04  0.7818609E-02  0.8318172E-01
       -2   -1    0    0    0  501  0.00000000000E+00  0.00000000000E+00  0.90025564859E+03  0.90025564860E+03  0.25500000920E-02 0. -1.
        2   -1    0    0  501    0  0.00000000000E+00  0.00000000000E+00 -0.21039003803E+04  0.21039003803E+04  0.25500000920E-02 0.  1.
    10030    2    1    2    0    0  0.00000000000E+00  0.00000000000E+00 -0.12036447318E+04  0.30041560289E+04  0.27524884752E+04 0.  0.
        4    1    3    3  502    0  0.10998364263E+04 -0.15144136807E+03  0.28584997448E+03  0.11464233395E+04  0.12699999809E+01 0. -1.
       -4    1    3    3    0  502 -0.10998364263E+04  0.15144136807E+03 -0.14894947062E+04  0.18577326894E+04  0.12699999809E+01 0.  1.
</event>
<event>
 5   0  0.5023691E-06  0.2793441E+04  0.7818609E-02  0.8305307E-01
        1   -1    0    0  501    0  0.00000000000E+00  0.00000000000E+00  0.21383145123E+04  0.21383145123E+04  0.50400001928E-02 0. -1.
       -1   -1    0    0    0  501  0.00000000000E+00  0.00000000000E+00 -0.91232071685E+03  0.91232071687E+03  0.50400001928E-02 0.  1.
    10030    2    1    2    0    0  0.00000000000E+00  0.00000000000E+00  0.12259937955E+04  0.30506352292E+04  0.27934413391E+04 0.  0.
        5    1    3    3  502    0  0.84769641257E+03  0.20144631781E+03 -0.57913048224E+03  0.10462237009E+04  0.46999998093E+01 0.  1.
       -5    1    3    3    0  502 -0.84769641257E+03 -0.20144631781E+03  0.18051242777E+04  0.20044115283E+04  0.46999998093E+01 0. -1.
</event>
<event>
 5   0  0.4764214E-06  0.2806611E+04  0.7818609E-02  0.8301219E-01
        1   -1    0    0  501    0  0.00000000000E+00  0.00000000000E+00  0.11431970231E+04  0.11431970231E+04  0.50400001928E-02 0. -1.
       -1   -1    0    0    0  501  0.00000000000E+00  0.00000000000E+00 -0.17225956855E+04  0.17225956855E+04  0.50400001928E-02 0.  1.
    10030    2    1    2    0    0  0.00000000000E+00  0.00000000000E+00 -0.57939866243E+03  0.28657927086E+04  0.28066109525E+04 0.  0.
        3    1    3    3  502    0 -0.42605893815E+03 -0.11233349995E+04 -0.10301515023E+04  0.15825990862E+04  0.10100000352E+00 0.  1.
       -3    1    3    3    0  502  0.42605893815E+03  0.11233349995E+04  0.45075283986E+03  0.12831936224E+04  0.10100000352E+00 0. -1.
</event>
<event>
 5   0  0.5107453E-06  0.2889173E+04  0.7818609E-02  0.8276106E-01
        1   -1    0    0  501    0  0.00000000000E+00  0.00000000000E+00  0.20623254602E+04  0.20623254602E+04  0.50400001928E-02 0. -1.
       -1   -1    0    0    0  501  0.00000000000E+00  0.00000000000E+00 -0.10118819373E+04  0.10118819373E+04  0.50400001928E-02 0.  1.
    10030    2    1    2    0    0  0.00000000000E+00  0.00000000000E+00  0.10504435229E+04  0.30742073976E+04  0.28891728104E+04 0.  0.
        2    1    3    3  502    0  0.14754855008E+03  0.13834922405E+04  0.11173616945E+03  0.13958174400E+04  0.25500000920E-02 0. -1.
       -2    1    3    3    0  502 -0.14754855008E+03 -0.13834922405E+04  0.93870735346E+03  0.16783899576E+04  0.25500000920E-02 0.  1.
</event>
<event>
 5   0  0.1330962E-05  0.2790656E+04  0.7818609E-02  0.8306175E-01
       -2   -1    0    0    0  501  0.00000000000E+00  0.00000000000E+00  0.73304621997E+03  0.73304621998E+03  0.25500000920E-02 0. -1.
        2   -1    0    0  501    0  0.00000000000E+00  0.00000000000E+00 -0.26559590041E+04  0.26559590041E+04  0.25500000920E-02 0.  1.
    10030    2    1    2    0    0  0.00000000000E+00  0.00000000000E+00 -0.19229127842E+04  0.33890052241E+04  0.27906563446E+04 0.  0.
        4    1    3    3  502    0 -0.99157922572E+03  0.62490175482E+03 -0.18808930683E+04  0.22161886001E+04  0.12699999809E+01 0.  1.
       -4    1    3    3    0  502  0.99157922572E+03 -0.62490175482E+03 -0.42019715860E+02  0.11728166240E+04  0.12699999809E+01 0. -1.
</event>
<event>
 5   0  0.4764214E-06  0.2727105E+04  0.7818609E-02  0.8326263E-01
       -1   -1    0    0    0  501  0.00000000000E+00  0.00000000000E+00  0.11483909982E+04  0.11483909982E+04  0.50400001928E-02 0. -1.
        1   -1    0    0  501    0  0.00000000000E+00  0.00000000000E+00 -0.16190269103E+04  0.16190269103E+04  0.50400001928E-02 0.  1.
    10030    2    1    2    0    0  0.00000000000E+00  0.00000000000E+00 -0.47063591205E+03  0.27674179085E+04  0.27271053736E+04 0.  0.
        3    1    3    3  502    0 -0.81570544290E+03  0.49338009431E+03  0.75401744593E+03  0.12154594218E+04  0.10100000352E+00 0. -1.
       -3    1    3    3    0  502  0.81570544290E+03 -0.49338009431E+03 -0.12246533580E+04  0.15519584867E+04  0.10100000352E+00 0.  1.
</event>
<event>
 5   0  0.1302063E-05  0.2729888E+04  0.7818609E-02  0.8325372E-01
        2   -1    0    0  501    0  0.00000000000E+00  0.00000000000E+00  0.20180293306E+04  0.20180293306E+04  0.25500000920E-02 0.  1.
       -2   -1    0    0    0  501  0.00000000000E+00  0.00000000000E+00 -0.92321340163E+03  0.92321340163E+03  0.25500000920E-02 0. -1.
    10030    2    1    2    0    0  0.00000000000E+00  0.00000000000E+00  0.10948159289E+04  0.29412427322E+04  0.27298877067E+04 0.  0.
        2    1    3    3  502    0  0.63131780269E+03 -0.18885220143E+03  0.18352973174E+04  0.19500111706E+04  0.25500000920E-02 0.  1.
       -2    1    3    3    0  502 -0.63131780269E+03  0.18885220143E+03 -0.74048138851E+03  0.99123156160E+03  0.25500000920E-02 0. -1.
</event>
<event>
 5   0  0.1330962E-05  0.2803002E+04  0.7818609E-02  0.8302337E-01
       -2   -1    0    0    0  501  0.00000000000E+00  0.00000000000E+00  0.58160756494E+03  0.58160756495E+03  0.25500000920E-02 0. -1.
        2   -1    0    0  501    0  0.00000000000E+00  0.00000000000E+00 -0.33772004809E+04  0.33772004809E+04  0.25500000920E-02 0.  1.
    10030    2    1    2    0    0  0.00000000000E+00  0.00000000000E+00 -0.27955929159E+04  0.39588080458E+04  0.28030022105E+04 0.  0.
        4    1    3    3  502    0 -0.11909688121E+04 -0.77089476591E+02 -0.36007867082E+03  0.12465984762E+04  0.12699999809E+01 0.  1.
       -4    1    3    3    0  502  0.11909688121E+04  0.77089476591E+02 -0.24355142451E+04  0.27122095697E+04  0.12699999809E+01 0. -1.
</event>
<event>
 5   0  0.5023691E-06  0.2863145E+04  0.7818609E-02  0.8283928E-01
        1   -1    0    0  501    0  0.00000000000E+00  0.00000000000E+00  0.23247488034E+04  0.23247488034E+04  0.50400001928E-02 0.  1.
       -1   -1    0    0    0  501  0.00000000000E+00  0.00000000000E+00 -0.88155756896E+03  0.88155756898E+03  0.50400001928E-02 0. -1.
    10030    2    1    2    0    0  0.00000000000E+00  0.00000000000E+00  0.14431912344E+04  0.32063063724E+04  0.28631450565E+04 0.  0.
        5    1    3    3  502    0  0.46787231377E+03  0.13278687168E+04  0.43121407736E+03  0.14724494903E+04  0.46999998093E+01 0. -1.
       -5    1    3    3    0  502 -0.46787231377E+03 -0.13278687168E+04  0.10119771571E+04  0.17338568821E+04  0.46999998093E+01 0.  1.
</event>
<event>
 5   0  0.5107453E-06  0.2877003E+04  0.7818609E-02  0.8279753E-01
        1   -1    0    0  501    0  0.00000000000E+00  0.00000000000E+00  0.13881747190E+04  0.13881747190E+04  0.50400001928E-02 0.  1.
       -1   -1    0    0    0  501  0.00000000000E+00  0.00000000000E+00 -0.14906523577E+04  0.14906523577E+04  0.50400001928E-02 0. -1.
    10030    2    1    2    0    0  0.00000000000E+00  0.00000000000E+00 -0.10247763871E+03  0.28788270767E+04  0.28770025497E+04 0.  0.
        2    1    3    3  502    0  0.92093189732E+03  0.50590891303E+03  0.93184366233E+03  0.14044187406E+04  0.25500000920E-02 0.  1.
       -2    1    3    3    0  502 -0.92093189732E+03 -0.50590891303E+03 -0.10343213010E+04  0.14744083361E+04  0.25500000920E-02 0. -1.
</event>
<event>
 5   0  0.1302063E-05  0.2901551E+04  0.7818609E-02  0.8272416E-01
        2   -1    0    0  501    0  0.00000000000E+00  0.00000000000E+00  0.11805848284E+04  0.11805848284E+04  0.25500000920E-02 0. -1.
       -2   -1    0    0    0  501  0.00000000000E+00  0.00000000000E+00 -0.17828021364E+04  0.17828021364E+04  0.25500000920E-02 0.  1.
    10030    2    1    2    0    0  0.00000000000E+00  0.00000000000E+00 -0.60221730798E+03  0.29633869648E+04  0.29015507263E+04 0.  0.
        2    1    3    3  502    0  0.92484569373E+03 -0.55385542743E+03 -0.12927035927E+04  0.16832046727E+04  0.25500000920E-02 0.  1.
       -2    1    3    3    0  502 -0.92484569373E+03  0.55385542743E+03  0.69048628470E+03  0.12801822921E+04  0.25500000920E-02 0. -1.
</event>
<event>
 5   0  0.1350863E-05  0.2828529E+04  0.7818609E-02  0.8294466E-01
        2   -1    0    0  501    0  0.00000000000E+00  0.00000000000E+00  0.16971373098E+04  0.16971373098E+04  0.25500000920E-02 0.  1.
       -2   -1    0    0    0  501  0.00000000000E+00  0.00000000000E+00 -0.11785401624E+04  0.11785401624E+04  0.25500000920E-02 0. -1.
    10030    2    1    2    0    0  0.00000000000E+00  0.00000000000E+00  0.51859714742E+03  0.28756774722E+04  0.28285292861E+04 0.  0.
        3    1    3    3  502    0  0.12711217533E+04  0.16701677578E+03  0.86632677769E+03  0.15473096688E+04  0.10100000352E+00 0.  1.
       -3    1    3    3    0  502 -0.12711217533E+04 -0.16701677578E+03 -0.34772963026E+03  0.13283678034E+04  0.10100000352E+00 0. -1.
</event>
<event>
 5   0  0.1283052E-05  0.2797007E+04  0.7818609E-02  0.8304198E-01
       -2   -1    0    0    0  501  0.00000000000E+00  0.00000000000E+00  0.13840789252E+04  0.13840789252E+04  0.25500000920E-02 0.  1.
        2   -1    0    0  501    0  0.00000000000E+00  0.00000000000E+00 -0.14130787577E+04  0.14130787577E+04  0.25500000920E-02 0. -1.
    10030    2    1    2    0    0  0.00000000000E+00  0.00000000000E+00 -0.28999832574E+02  0.27971576829E+04  0.27970073494E+04 0.  0.
        5    1    3    3  502    0 -0.11464233695E+03  0.42973059765E+03  0.13114594220E+04  0.13848318156E+04  0.46999998093E+01 0.  1.
       -5    1    3    3    0  502  0.11464233695E+03 -0.42973059765E+03 -0.13404592546E+04  0.14123258672E+04  0.46999998093E+01 0. -1.
</event>
<event>
 5   0  0.5107453E-06  0.2776358E+04  0.7818609E-02  0.8310646E-01
        1   -1    0    0  501    0  0.00000000000E+00  0.00000000000E+00  0.11605981592E+04  0.11605981592E+04  0.50400001928E-02 0.  1.
       -1   -1    0    0    0  501  0.00000000000E+00  0.00000000000E+00 -0.16603854586E+04  0.16603854586E+04  0.50400001928E-02 0. -1.
    10030    2    1    2    0    0  0.00000000000E+00  0.00000000000E+00 -0.49978729942E+03  0.28209836178E+04  0.27763575467E+04 0.  0.
        2    1    3    3  502    0  0.23711374895E+03 -0.72246581784E+03  0.93017885249E+03  0.12014210276E+04  0.25500000920E-02 0.  1.
       -2    1    3    3    0  502 -0.23711374895E+03  0.72246581784E+03 -0.14299661519E+04  0.16195625902E+04  0.25500000920E-02 0. -1.
</event>
<event>
 5   0  0.1302063E-05  0.2786531E+04  0.7818609E-02  0.8307462E-01
       -2   -1    0    0    0  501  0.00000000000E+00  0.00000000000E+00  0.88509889522E+03  0.88509889522E+03  0.25500000920E-02 0. -1.
        2   -1    0    0  501    0  0.00000000000E+00  0.00000000000E+00 -0.21931892320E+04  0.21931892320E+04  0.25500000920E-02 0.  1.
    10030    2    1    2    0    0  0.00000000000E+00  0.00000000000E+00 -0.13080903368E+04  0.30782881272E+04  0.27865314398E+04 0.  0.
        2    1    3    3  502    0  0.12546543307E+04  0.60505443914E+03 -0.68793275995E+03  0.15535442852E+04  0.25500000920E-02 0.  1.
       -2    1    3    3    0  502 -0.12546543307E+04 -0.60505443914E+03 -0.62015757685E+03  0.15247438421E+04  0.25500000920E-02 0. -1.
</event>
<event>
 5   0  0.5107453E-06  0.2807271E+04  0.7818609E-02  0.8301015E-01
       -1   -1    0    0    0  501  0.00000000000E+00  0.00000000000E+00  0.12887034027E+04  0.12887034027E+04  0.50400001928E-02 0.  1.
        1   -1    0    0  501    0  0.00000000000E+00  0.00000000000E+00 -0.15288175989E+04  0.15288175989E+04  0.50400001928E-02 0. -1.
    10030    2    1    2    0    0  0.00000000000E+00  0.00000000000E+00 -0.24011419617E+03  0.28175210016E+04  0.28072708753E+04 0.  0.
        2    1    3    3  502    0 -0.53739964097E+03  0.12925587748E+04 -0.16307119650E+02  0.13999187414E+04  0.25500000920E-02 0.  1.
       -2    1    3    3    0  502  0.53739964097E+03 -0.12925587748E+04 -0.22380707652E+03  0.14176022602E+04  0.25500000920E-02 0. -1.
</event>
<event>
 5   0  0.1283052E-05  0.2794974E+04  0.7818609E-02  0.8304830E-01
        2   -1    0    0  501    0  0.00000000000E+00  0.00000000000E+00  0.17519517369E+04  0.17519517369E+04  0.25500000920E-02 0. -1.
       -2   -1    0    0    0  501  0.00000000000E+00  0.00000000000E+00 -0.11147398130E+04  0.11147398130E+04  0.25500000920E-02 0.  1.
    10030    2    1    2    0    0  0.00000000000E+00  0.00000000000E+00  0.63721192389E+03  0.28666915500E+04  0.27949743124E+04 0.  0.
        5    1    3    3  502    0 -0.68650975693E+03  0.12122029458E+04  0.43197094253E+03  0.14585446902E+04  0.46999998093E+01 0.  1.
       -5    1    3    3    0  502  0.68650975693E+03 -0.12122029458E+04  0.20524098136E+03  0.14081468598E+04  0.46999998093E+01 0. -1.
</event>
<event>
 5   0  0.5217999E-06  0.2786644E+04  0.7818609E-02  0.8307427E-01
        1   -1    0    0  501    0  0.00000000000E+00  0.00000000000E+00  0.13899854775E+04  0.13899854775E+04  0.50400001928E-02 0. -1.
       -1   -1    0    0    0  501  0.00000000000E+00  0.00000000000E+00 -0.13966661441E+04  0.13966661441E+04  0.50400001928E-02 0.  1.
    10030    2    1    2    0    0  0.00000000000E+00  0.00000000000E+00 -0.66806665773E+01  0.27866516216E+04  0.27866436135E+04 0.  0.
        1    1    3    3  502    0  0.53772112125E+03 -0.75072086048E+03  0.10400321311E+04  0.13908244491E+04  0.50400001928E-02 0. -1.
       -1    1    3    3    0  502 -0.53772112125E+03  0.75072086048E+03 -0.10467127977E+04  0.13958271725E+04  0.50400001928E-02 0.  1.
</event>
<event>
 5   0  0.5107453E-06  0.2865585E+04  0.7818609E-02  0.8283191E-01
        1   -1    0    0  501    0  0.00000000000E+00  0.00000000000E+00  0.21041482387E+04  0.21041482387E+04  0.50400001928E-02 0. -1.
       -1   -1    0    0    0  501  0.00000000000E+00  0.00000000000E+00 -0.97564135487E+03  0.97564135489E+03  0.50400001928E-02 0.  1.
    10030    2    1    2    0    0  0.00000000000E+00  0.00000000000E+00  0.11285068838E+04  0.30797895936E+04  0.28655847839E+04 0.  0.
        2    1    3    3  502    0 -0.98430035113E+03 -0.91841410561E+02 -0.55038907990E+03  0.11314637269E+04  0.25500000920E-02 0.  1.
       -2    1    3    3    0  502  0.98430035113E+03  0.91841410561E+02  0.16788959637E+04  0.19483258667E+04  0.25500000920E-02 0. -1.
</event>
<event>
 5   0  0.5217999E-06  0.2785045E+04  0.7818609E-02  0.8307926E-01
       -1   -1    0    0    0  501  0.00000000000E+00  0.00000000000E+00  0.76712629035E+03  0.76712629037E+03  0.50400001928E-02 0. -1.
        1   -1    0    0  501    0  0.00000000000E+00  0.00000000000E+00 -0.25277707756E+04  0.25277707756E+04  0.50400001928E-02 0.  1.
    10030    2    1    2    0    0  0.00000000000E+00  0.00000000000E+00 -0.17606444852E+04  0.32948970660E+04  0.27850453626E+04 0.  0.
        1    1    3    3  502    0 -0.86762282653E+03 -0.31116968382E+03  0.35456662243E+03  0.98757958212E+03  0.50400001928E-02 0. -1.
       -1    1    3    3    0  502  0.86762282653E+03  0.31116968382E+03 -0.21152111077E+04  0.23073174838E+04  0.50400001928E-02 0.  1.
</event>
<event>
 5   0  0.1283052E-05  0.2804146E+04  0.7818609E-02  0.8301982E-01
       -2   -1    0    0    0  501  0.00000000000E+00  0.00000000000E+00  0.58279924869E+03  0.58279924870E+03  0.25500000920E-02 0. -1.
        2   -1    0    0  501    0  0.00000000000E+00  0.00000000000E+00 -0.33730455420E+04  0.33730455420E+04  0.25500000920E-02 0.  1.
    10030    2    1    2    0    0  0.00000000000E+00  0.00000000000E+00 -0.27902462933E+04  0.39558447907E+04  0.28041457934E+04 0.  0.
        5    1    3    3  502    0  0.12597562243E+04  0.59944806499E+03 -0.15919294365E+04  0.21167392726E+04  0.46999998093E+01 0. -1.
       -5    1    3    3    0  502 -0.12597562243E+04 -0.59944806499E+03 -0.11983168569E+04  0.18391055181E+04  0.46999998093E+01 0.  1.
</event>
<event>
 5   0  0.5023691E-06  0.2796963E+04  0.7818609E-02  0.8304212E-01
       -1   -1    0    0    0  501  0.00000000000E+00  0.00000000000E+00  0.73862379812E+03  0.73862379814E+03  0.50400001928E-02 0. -1.
        1   -1    0    0  501    0  0.00000000000E+00  0.00000000000E+00 -0.26478308765E+04  0.26478308765E+04  0.50400001928E-02 0.  1.
    10030    2    1    2    0    0  0.00000000000E+00  0.00000000000E+00 -0.19092070784E+04  0.33864546747E+04  0.27969632810E+04 0.  0.
        5    1    3    3  502    0 -0.13820141482E+04  0.23375006778E+02 -0.12120698899E+04  0.18383810826E+04  0.46999998093E+01 0.  1.
       -5    1    3    3    0  502  0.13820141482E+04 -0.23375006778E+02 -0.69713718855E+03  0.15480735921E+04  0.46999998093E+01 0. -1.
</event>
<event>
 5   0  0.4764214E-06  0.2716165E+04  0.7818609E-02  0.8329779E-01
       -1   -1    0    0    0  501  0.00000000000E+00  0.00000000000E+00  0.86239996497E+03  0.86239996498E+03  0.50400001928E-02 0. -1.
        1   -1    0    0  501    0  0.00000000000E+00  0.00000000000E+00 -0.21386690340E+04  0.21386690340E+04  0.50400001928E-02 0.  1.
    10030    2    1    2    0    0  0.00000000000E+00  0.00000000000E+00 -0.12762690690E+04  0.30010689990E+04  0.27161650171E+04 0.  0.
        3    1    3    3  502    0 -0.50169990984E+03 -0.19753846722E+03 -0.20153387990E+04  0.20862202019E+04  0.10100000352E+00 0.  1.
       -3    1    3    3    0  502  0.50169990984E+03  0.19753846722E+03  0.73906973001E+03  0.91484879711E+03  0.10100000352E+00 0. -1.
</event>
<event>
 5   0  0.1388269E-05  0.2735074E+04  0.7818609E-02  0.8323714E-01
        2   -1    0    0  501    0  0.00000000000E+00  0.00000000000E+00  0.13849892945E+04  0.13849892945E+04  0.25500000920E-02 0.  1.
       -2   -1    0    0    0  501  0.00000000000E+00  0.00000000000E+00 -0.13503047107E+04  0.13503047107E+04  0.25500000920E-02 0. -1.
    10030    2    1    2    0    0  0.00000000000E+00  0.00000000000E+00  0.34684583813E+02  0.27352940053E+04  0.27350740895E+04 0.  0.
        1    1    3    3  502    0 -0.58386355674E+03 -0.93464941872E+03  0.82715512639E+03  0.13779157420E+04  0.50400001928E-02 0.  1.
       -1    1    3    3    0  502  0.58386355674E+03  0.93464941872E+03 -0.79247054257E+03  0.13573782633E+04  0.50400001928E-02 0. -1.
</event>
<event>
 5   0  0.4764214E-06  0.2772802E+04  0.7818609E-02  0.8311762E-01
       -1   -1    0    0    0  501  0.00000000000E+00  0.00000000000E+00  0.12069273551E+04  0.12069273551E+04  0.50400001928E-02 0.  1.
        1   -1    0    0  501    0  0.00000000000E+00  0.00000000000E+00 -0.15925623729E+04  0.15925623730E+04  0.50400001928E-02 0. -1.
    10030    2    1    2    0    0  0.00000000000E+00  0.00000000000E+00 -0.38563501789E+03  0.27994897280E+04  0.27728015382E+04 0.  0.
        3    1    3    3  502    0  0.26813781647E+03 -0.15844013628E+03 -0.15567853427E+04  0.15876340192E+04  0.10100000352E+00 0. -1.
       -3    1    3    3    0  502 -0.26813781647E+03  0.15844013628E+03  0.11711503248E+04  0.12118557088E+04  0.10100000352E+00 0.  1.
</event>
<event>
 5   0  0.1350863E-05  0.2820345E+04  0.7818609E-02  0.8296980E-01
       -2   -1    0    0    0  501  0.00000000000E+00  0.00000000000E+00  0.12228833774E+04  0.12228833774E+04  0.25500000920E-02 0. -1.
        2   -1    0    0  501    0  0.00000000000E+00  0.00000000000E+00 -0.16261458476E+04  0.16261458476E+04  0.25500000920E-02 0.  1.
    10030    2    1    2    0    0  0.00000000000E+00  0.00000000000E+00 -0.40326247026E+03  0.28490292250E+04  0.28203451748E+04 0.  0.
        3    1    3    3  502    0 -0.10737561599E+04 -0.35402681766E+03  0.64973294871E+03  0.13040092766E+04  0.10100000352E+00 0. -1.
       -3    1    3    3    0  502  0.10737561599E+04  0.35402681766E+03 -0.10529954190E+04  0.15450199484E+04  0.10100000352E+00 0.  1.
</event>
<event>
 5   0  0.5217999E-06  0.2715029E+04  0.7818609E-02  0.8330145E-01
        1   -1    0    0  501    0  0.00000000000E+00  0.00000000000E+00  0.12998554751E+04  0.12998554752E+04  0.50400001928E-02 0. -1.
       -1   -1    0    0    0  501  0.00000000000E+00  0.00000000000E+00 -0.14177314815E+04  0.14177314815E+04  0.50400001928E-02 0.  1.
    10030    2    1    2    0    0  0.00000000000E+00  0.00000000000E+00 -0.11787600635E+03  0.27175869567E+04  0.27150293026E+04 0.  0.
        1    1    3    3  502    0  0.91479327331E+03  0.98976673368E+03  0.10357599041E+03  0.13517443937E+04  0.50400001928E-02 0. -1.
       -1    1    3    3    0  502 -0.91479327331E+03 -0.98976673368E+03 -0.22145199675E+03  0.13658425630E+04  0.50400001928E-02 0.  1.
</event>
<event>
 5   0  0.5217999E-06  0.2536611E+04  0.7818609E-02  0.8390058E-01
        1   -1    0    0  501    0  0.00000000000E+00  0.00000000000E+00  0.19019650272E+04  0.19019650272E+04  0.50400001928E-02 0.  1.
       -1   -1    0    0    0  501  0.00000000000E+00  0.00000000000E+00 -0.84575620696E+03  0.84575620697E+03  0.50400001928E-02 0. -1.
    10030    2    1    2    0    0  0.00000000000E+00  0.00000000000E+00  0.10562088202E+04  0.27477212342E+04  0.25366109100E+04 0.  0.
        1    1    3    3  502    0  0.70895700801E+03  0.57046712727E+03 -0.42890905818E+03  0.10059899417E+04  0.50400001928E-02 0. -1.
       -1    1    3    3    0  502 -0.70895700801E+03 -0.57046712727E+03  0.14851178784E+04  0.17417312925E+04  0.50400001928E-02 0.  1.
</event>
<event>
 5   0  0.1388269E-05  0.2816633E+04  0.7818609E-02  0.8298123E-01
        2   -1    0    0  501    0  0.00000000000E+00  0.00000000000E+00  0.12737428213E+04  0.12737428213E+04  0.25500000920E-02 0.  1.
       -2   -1    0    0    0  501  0.00000000000E+00  0.00000000000E+00 -0.15571087046E+04  0.15571087046E+04  0.25500000920E-02 0. -1.
    10030    2    1    2    0    0  0.00000000000E+00  0.00000000000E+00 -0.28336588333E+03  0.28308515260E+04  0.28166334760E+04 0.  0.
        1    1    3    3  502    0  0.10566728155E+04 -0.10536972749E+03 -0.10713907092E+04  0.15084887373E+04  0.50400001928E-02 0. -1.
       -1    1    3    3    0  502 -0.10566728155E+04  0.10536972749E+03  0.78802482592E+03  0.13223627887E+04  0.50400001928E-02 0.  1.
</event>
<event>
 5   0  0.4764214E-06  0.2796551E+04  0.7818609E-02  0.8304340E-01
       -1   -1    0    0    0  501  0.00000000000E+00  0.00000000000E+00  0.17129985767E+04  0.17129985767E+04  0.50400001928E-02 0.  1.
        1   -1    0    0  501    0  0.00000000000E+00  0.00000000000E+00 -0.11413753953E+04  0.11413753953E+04  0.50400001928E-02 0. -1.
    10030    2    1    2    0    0  0.00000000000E+00  0.00000000000E+00  0.57162318138E+03  0.28543739721E+04  0.27965510385E+04 0.  0.
        3    1    3    3  502    0 -0.11297589321E+04  0.80979721235E+03  0.13085807762E+03  0.13961556562E+04  0.10100000352E+00 0. -1.
       -3    1    3    3    0  502  0.11297589321E+04 -0.80979721235E+03  0.44076510376E+03  0.14582183158E+04  0.10100000352E+00 0.  1.
</event>
<event>
 5   0  0.5217999E-06  0.2740701E+04  0.7818609E-02  0.8321919E-01
       -1   -1    0    0    0  501  0.00000000000E+00  0.00000000000E+00  0.18866695567E+04  0.18866695567E+04  0.50400001928E-02 0.  1.
        1   -1    0    0  501    0  0.00000000000E+00  0.00000000000E+00 -0.99533059718E+03  0.99533059719E+03  0.50400001928E-02 0. -1.
    10030    2    1    2    0    0  0.00000000000E+00  0.00000000000E+00  0.89133895949E+03  0.28820001539E+04  0.27407005940E+04 0.  0.
        1    1    3    3  502    0 -0.64042908698E+03  0.83179279706E+03 -0.48055454985E+03  0.11545394528E+04  0.50400001928E-02 0. -1.
       -1    1    3    3    0  502  0.64042908698E+03 -0.83179279706E+03  0.13718935093E+04  0.17274607010E+04  0.50400001928E-02 0.  1.
</event>
<event>
 5   0  0.1350863E-05  0.2937881E+04  0.7818609E-02  0.8261695E-01
        2   -1    0    0  501    0  0.00000000000E+00  0.00000000000E+00  0.17086384692E+04  0.17086384692E+04  0.25500000920E-02 0. -1.
       -2   -1    0    0    0  501  0.00000000000E+00  0.00000000000E+00 -0.12628689964E+04  0.12628689964E+04  0.25500000920E-02 0.  1.
    10030    2    1    2    0    0  0.00000000000E+00  0.00000000000E+00  0.44576947287E+03  0.29715074656E+04  0.29378812425E+04 0.  0.
        3    1    3    3  502    0  0.16823826100E+03 -0.61882933265E+03 -0.11138060294E+04  0.12852306162E+04  0.10100000352E+00 0.  1.
       -3    1    3    3    0  502 -0.16823826100E+03  0.61882933265E+03  0.15595755023E+04  0.16862768494E+04  0.10100000352E+00 0. -1.
</event>
<event>
 5   0  0.1283052E-05  0.2804496E+04  0.7818609E-02  0.8301874E-01
       -2   -1    0    0    0  501  0.00000000000E+00  0.00000000000E+00  0.86511495592E+03  0.86511495592E+03  0.25500000920E-02 0. -1.
        2   -1    0    0  501    0  0.00000000000E+00  0.00000000000E+00 -0.22728763120E+04  0.22728763120E+04  0.25500000920E-02 0.  1.
    10030    2    1    2    0    0  0.00000000000E+00  0.00000000000E+00 -0.14077613560E+04  0.31379912679E+04  0.28044958837E+04 0.  0.
        5    1    3    3  502    0 -0.15658050632E+03 -0.26852521737E+03 -0.22338317417E+04  0.22553601902E+04  0.46999998093E+01 0.  1.
       -5    1    3    3    0  502  0.15658050632E+03  0.26852521737E+03  0.82607038563E+03  0.88263107771E+03  0.46999998093E+01 0. -1.
</event>
<event>
 5   0  0.1302063E-05  0.2775467E+04  0.7818609E-02  0.8310926E-01
       -2   -1    0    0    0  501  0.00000000000E+00  0.00000000000E+00  0.74980954198E+03  0.74980954198E+03  0.25500000920E-02 0.  1.
        2   -1    0    0  501    0  0.00000000000E+00  0.00000000000E+00 -0.25683904984E+04  0.25683904984E+04  0.25500000920E-02 0. -1.
    10030    2    1    2    0    0  0.00000000000E+00  0.00000000000E+00 -0.18185809564E+04  0.33182000404E+04  0.27754665937E+04 0.  0.
        2    1    3    3  502    0  0.49287233127E+03  0.28679315010E+03 -0.24218485968E+04  0.24880763798E+04  0.25500000920E-02 0. -1.
       -2    1    3    3    0  502 -0.49287233127E+03 -0.28679315010E+03  0.60326764040E+03  0.83012366057E+03  0.25500000920E-02 0.  1.
</event>
<event>
 5   0  0.1302063E-05  0.2790456E+04  0.7818609E-02  0.8306237E-01
        2   -1    0    0  501    0  0.00000000000E+00  0.00000000000E+00  0.14107695321E+04  0.14107695321E+04  0.25500000920E-02 0. -1.
       -2   -1    0    0    0  501  0.00000000000E+00  0.00000000000E+00 -0.13798579196E+04  0.13798579196E+04  0.25500000920E-02 0.  1.
    10030    2    1    2    0    0  0.00000000000E+00  0.00000000000E+00  0.30911612553E+02  0.27906274517E+04  0.27904562434E+04 0.  0.
        2    1    3    3  502    0  0.49645214916E+03 -0.87793973021E+03  0.97957854623E+03  0.14059932555E+04  0.25500000920E-02 0. -1.
       -2    1    3    3    0  502 -0.49645214916E+03  0.87793973021E+03 -0.94866693367E+03  0.13846341962E+04  0.25500000920E-02 0.  1.
</event>
<event>
 5   0  0.1350863E-05  0.2764168E+04  0.7818609E-02  0.8314480E-01
       -2   -1    0    0    0  501  0.00000000000E+00  0.00000000000E+00  0.11390785111E+04  0.11390785111E+04  0.25500000920E-02 0.  1.
        2   -1    0    0  501    0  0.00000000000E+00  0.00000000000E+00 -0.16769310838E+04  0.16769310838E+04  0.25500000920E-02 0. -1.
    10030    2    1    2    0    0  0.00000000000E+00  0.00000000000E+00 -0.53785257269E+03  0.28160095948E+04  0.27641679848E+04 0.  0.
        3    1    3    3  502    0  0.82011470889E+03 -0.57892326486E+03  0.69884572906E+03  0.12231621501E+04  0.10100000352E+00 0.  1.
       -3    1    3    3    0  502 -0.82011470889E+03  0.57892326486E+03 -0.12366983017E+04  0.15928474447E+04  0.10100000352E+00 0. -1.
</event>
<event>
 5   0  0.5107453E-06  0.2768684E+04  0.7818609E-02  0.8313057E-01
        1   -1    0    0  501    0  0.00000000000E+00  0.00000000000E+00  0.21080486249E+04  0.21080486249E+04  0.50400001928E-02 0. -1.
       -1   -1    0    0    0  501  0.00000000000E+00  0.00000000000E+00 -0.90908826335E+03  0.90908826336E+03  0.50400001928E-02 0.  1.
    10030    2    1    2    0    0  0.00000000000E+00  0.00000000000E+00  0.11989603615E+04  0.30171368883E+04  0.27686836320E+04 0.  0.
        2    1    3    3  502    0 -0.96478112746E+03 -0.34606383484E+03 -0.41452545592E+03  0.11056193537E+04  0.25500000920E-02 0.  1.
       -2    1    3    3    0  502  0.96478112746E+03  0.34606383484E+03  0.16134858175E+04  0.19115175345E+04  0.25500000920E-02 0. -1.
</event>
<event>
 5   0  0.1388269E-05  0.2808697E+04  0.7818609E-02  0.8300573E-01
       -2   -1    0    0    0  501  0.00000000000E+00  0.00000000000E+00  0.16287664274E+04  0.16287664274E+04  0.25500000920E-02 0.  1.
        2   -1    0    0  501    0  0.00000000000E+00  0.00000000000E+00 -0.12108517147E+04  0.12108517147E+04  0.25500000920E-02 0. -1.
    10030    2    1    2    0    0  0.00000000000E+00  0.00000000000E+00  0.41791471270E+03  0.28396181420E+04  0.28086969373E+04 0.  0.
        1    1    3    3  502    0 -0.10365995285E+04  0.89696921659E+02 -0.74461798463E+03  0.12794686644E+04  0.50400001928E-02 0. -1.
       -1    1    3    3    0  502  0.10365995285E+04 -0.89696921659E+02  0.11625326973E+04  0.15601494776E+04  0.50400001928E-02 0.  1.
</event>
<event>
 5   0  0.4764214E-06  0.2768362E+04  0.7818609E-02  0.8313158E-01
        1   -1    0    0  501    0  0.00000000000E+00  0.00000000000E+00  0.13108609339E+04  0.13108609339E+04  0.50400001928E-02 0.  1.
       -1   -1    0    0    0  501  0.00000000000E+00  0.00000000000E+00 -0.14616021934E+04  0.14616021934E+04  0.50400001928E-02 0. -1.
    10030    2    1    2    0    0  0.00000000000E+00  0.00000000000E+00 -0.15074125945E+03  0.27724631273E+04  0.27683621268E+04 0.  0.
        3    1    3    3  502    0 -0.11281184536E+04  0.79899630027E+03 -0.51891983927E+01  0.13824157375E+04  0.10100000352E+00 0. -1.
       -3    1    3    3    0  502  0.11281184536E+04 -0.79899630027E+03 -0.14555206105E+03  0.13900473898E+04  0.10100000352E+00 0.  1.
</event>
<event>
 5   0  0.4764214E-06  0.2514808E+04  0.7818609E-02  0.8397729E-01
        1   -1    0    0  501    0  0.00000000000E+00  0.00000000000E+00  0.18010921141E+04  0.18010921141E+04  0.50400001928E-02 0. -1.
       -1   -1    0    0    0  501  0.00000000000E+00  0.00000000000E+00 -0.87783647833E+03  0.87783647835E+03  0.50400001928E-02 0.  1.
    10030    2    1    2    0    0  0.00000000000E+00  0.00000000000E+00  0.92325563580E+03  0.26789285925E+04  0.25148076337E+04 0.  0.
        3    1    3    3  502    0 -0.76312210522E+03  0.77616993875E+03  0.11322092771E+04  0.15705709085E+04  0.10100000352E+00 0. -1.
       -3    1    3    3    0  502  0.76312210522E+03 -0.77616993875E+03 -0.20895364126E+03  0.11083576840E+04  0.10100000352E+00 0.  1.
</event>
<event>
 5   0  0.5281919E-06  0.2767577E+04  0.7818609E-02  0.8313406E-01
        1   -1    0    0  501    0  0.00000000000E+00  0.00000000000E+00  0.13825845000E+04  0.13825845000E+04  0.50400001928E-02 0.  1.
       -1   -1    0    0    0  501  0.00000000000E+00  0.00000000000E+00 -0.13849931882E+04  0.13849931883E+04  0.50400001928E-02 0. -1.
    10030    2    1    2    0    0  0.00000000000E+00  0.00000000000E+00 -0.24086882949E+01  0.27675776882E+04  0.27675766400E+04 0.  0.
        4    1    3    3  502    0  0.70599019933E+03  0.10632340522E+04  0.53356654798E+03  0.13833234204E+04  0.12699999809E+01 0. -1.
       -4    1    3    3    0  502 -0.70599019933E+03 -0.10632340522E+04 -0.53597523628E+03  0.13842542679E+04  0.12699999809E+01 0.  1.
</event>
<event>
 5   0  0.1330962E-05  0.2880051E+04  0.7818609E-02  0.8278838E-01
       -2   -1    0    0    0  501  0.00000000000E+00  0.00000000000E+00  0.63911685106E+03  0.63911685107E+03  0.25500000920E-02 0. -1.
        2   -1    0    0  501    0  0.00000000000E+00  0.00000000000E+00 -0.32445926382E+04  0.32445926382E+04  0.25500000920E-02 0.  1.
    10030    2    1    2    0    0  0.00000000000E+00  0.00000000000E+00 -0.26054757872E+04  0.38837094893E+04  0.28800512703E+04 0.  0.
        4    1    3    3  502    0  0.11058566269E+04  0.43919356629E+03 -0.20899805090E+03  0.12080942290E+04  0.12699999809E+01 0. -1.
       -4    1    3    3    0  502 -0.11058566269E+04 -0.43919356629E+03 -0.23964777363E+04  0.26756152603E+04  0.12699999809E+01 0.  1.
</event>
<event>
 5   0  0.4764214E-06  0.2893622E+04  0.7818609E-02  0.8274778E-01
       -1   -1    0    0    0  501  0.00000000000E+00  0.00000000000E+00  0.12388043997E+04  0.12388043997E+04  0.50400001928E-02 0. -1.
        1   -1    0    0  501    0  0.00000000000E+00  0.00000000000E+00 -0.16897440958E+04  0.16897440958E+04  0.50400001928E-02 0.  1.
    10030    2    1    2    0    0  0.00000000000E+00  0.00000000000E+00 -0.45093969614E+03  0.29285484955E+04  0.28936222423E+04 0.  0.
        3    1    3    3  502    0  0.10473372633E+04 -0.20005680544E+03 -0.12151917731E+04  0.16166722377E+04  0.10100000352E+00 0.  1.
       -3    1    3    3    0  502 -0.10473372633E+04  0.20005680544E+03  0.76425207700E+03  0.13118762578E+04  0.10100000352E+00 0. -1.
</event>
<event>
 5   0  0.1283052E-05  0.2875818E+04  0.7818609E-02  0.8280109E-01
        2   -1    0    0  501    0  0.00000000000E+00  0.00000000000E+00  0.18365587754E+04  0.18365587754E+04  0.25500000920E-02 0. -1.
       -2   -1    0    0    0  501  0.00000000000E+00  0.00000000000E+00 -0.11257914943E+04  0.11257914943E+04  0.25500000920E-02 0.  1.
    10030    2    1    2    0    0  0.00000000000E+00  0.00000000000E+00  0.71076728107E+03  0.29623502697E+04  0.28758179693E+04 0.  0.
        5    1    3    3  502    0 -0.33627227934E+03 -0.10679373802E+04  0.12847453618E+04  0.17041602121E+04  0.46999998093E+01 0. -1.
       -5    1    3    3    0  502  0.33627227934E+03  0.10679373802E+04 -0.57397808075E+03  0.12581900576E+04  0.46999998093E+01 0.  1.
</event>
<event>
 5   0  0.4764214E-06  0.2736449E+04  0.7818609E-02  0.8323275E-01
        1   -1    0    0  501    0  0.00000000000E+00  0.00000000000E+00  0.16210430699E+04  0.16210430699E+04  0.50400001928E-02 0. -1.
       -1   -1    0    0    0  501  0.00000000000E+00  0.00000000000E+00 -0.11548356286E+04  0.11548356286E+04  0.50400001928E-02 0.  1.
    10030    2    1    2    0    0  0.00000000000E+00  0.00000000000E+00  0.46620744122E+03  0.27758786985E+04  0.27364490075E+04 0.  0.
        3    1    3    3  502    0 -0.20493679575E+03 -0.28270787514E+03  0.15750850507E+04  0.16133244435E+04  0.10100000352E+00 0. -1.
       -3    1    3    3    0  502  0.20493679575E+03  0.28270787514E+03 -0.11088776094E+04  0.11625542550E+04  0.10100000352E+00 0.  1.
</event>
<event>
 5   0  0.1388269E-05  0.3115700E+04  0.7818609E-02  0.8211442E-01
        2   -1    0    0  501    0  0.00000000000E+00  0.00000000000E+00  0.25460225197E+04  0.25460225197E+04  0.25500000920E-02 0.  1.
       -2   -1    0    0    0  501  0.00000000000E+00  0.00000000000E+00 -0.95321098859E+03  0.95321098859E+03  0.25500000920E-02 0. -1.
    10030    2    1    2    0    0  0.00000000000E+00  0.00000000000E+00  0.15928115311E+04  0.34992335083E+04  0.31157000132E+04 0.  0.
        1    1    3    3  502    0  0.13904428411E+04 -0.47164288856E+03  0.21162008181E+03  0.14834289224E+04  0.50400001928E-02 0. -1.
       -1    1    3    3    0  502 -0.13904428411E+04  0.47164288856E+03  0.13811914493E+04  0.20158045859E+04  0.50400001928E-02 0.  1.
</event>
<event>
 5   0  0.4764214E-06  0.2718205E+04  0.7818609E-02  0.8329122E-01
        1   -1    0    0  501    0  0.00000000000E+00  0.00000000000E+00  0.15722620620E+04  0.15722620620E+04  0.50400001928E-02 0. -1.
       -1   -1    0    0    0  501  0.00000000000E+00  0.00000000000E+00 -0.11748418497E+04  0.11748418497E+04  0.50400001928E-02 0.  1.
    10030    2    1    2    0    0  0.00000000000E+00  0.00000000000E+00  0.39742021234E+03  0.27471039117E+04  0.27182047525E+04 0.  0.
        3    1    3    3  502    0  0.35125852456E+03  0.95621778742E+03  0.11079553246E+04  0.15050913659E+04  0.10100000352E+00 0. -1.
       -3    1    3    3    0  502 -0.35125852456E+03 -0.95621778742E+03 -0.71053511226E+03  0.12420125458E+04  0.10100000352E+00 0.  1.
</event>
<event>
 5   0  0.1283052E-05  0.2793553E+04  0.7818609E-02  0.8305273E-01
       -2   -1    0    0    0  501  0.00000000000E+00  0.00000000000E+00  0.22468297772E+04  0.22468297772E+04  0.25500000920E-02 0. -1.
        2   -1    0    0  501    0  0.00000000000E+00  0.00000000000E+00 -0.86832801625E+03  0.86832801625E+03  0.25500000920E-02 0.  1.
    10030    2    1    2    0    0  0.00000000000E+00  0.00000000000E+00  0.13785017609E+04  0.31151577934E+04  0.27935534670E+04 0.  0.
        5    1    3    3  502    0  0.67274844638E+03  0.11478470060E+04  0.11634341348E+04  0.17674117509E+04  0.46999998093E+01 0. -1.
       -5    1    3    3    0  502 -0.67274844638E+03 -0.11478470060E+04  0.21506762609E+03  0.13477460425E+04  0.46999998093E+01 0.  1.
</event>
<event>
 5   0  0.1350863E-05  0.2784038E+04  0.7818609E-02  0.8308241E-01
        2   -1    0    0  501    0  0.00000000000E+00  0.00000000000E+00  0.22880520482E+04  0.22880520482E+04  0.25500000920E-02 0. -1.
       -2   -1    0    0    0  501  0.00000000000E+00  0.00000000000E+00 -0.84688519031E+03  0.84688519031E+03  0.25500000920E-02 0.  1.
    10030    2    1    2    0    0  0.00000000000E+00  0.00000000000E+00  0.14411668579E+04  0.31349372385E+04  0.27840383577E+04 0.  0.
        3    1    3    3  502    0  0.12434822744E+04 -0.35175362695E+02  0.17162919742E+02  0.12440980865E+04  0.10100000352E+00 0.  1.
       -3    1    3    3    0  502 -0.12434822744E+04  0.35175362695E+02  0.14240039381E+04  0.18908391520E+04  0.10100000352E+00 0. -1.
</event>
<event>
 5   0  0.1350863E-05  0.2970989E+04  0.7818609E-02  0.8252064E-01
        2   -1    0    0  501    0  0.00000000000E+00  0.00000000000E+00  0.14134269960E+04  0.14134269960E+04  0.25500000920E-02 0. -1.
       -2   -1    0    0    0  501  0.00000000000E+00  0.00000000000E+00 -0.15612362070E+04  0.15612362070E+04  0.25500000920E-02 0.  1.
    10030    2    1    2    0    0  0.00000000000E+00  0.00000000000E+00 -0.14780921109E+03  0.29746632030E+04  0.29709886584E+04 0.  0.
        3    1    3    3  502    0 -0.42589075656E+03  0.11810744632E+04 -0.86884726699E+03  0.15268318204E+04  0.10100000352E+00 0.  1.
       -3    1    3    3    0  502  0.42589075656E+03 -0.11810744632E+04  0.72103805591E+03  0.14478313826E+04  0.10100000352E+00 0. -1.
</event>
<event>
 5   0  0.5217999E-06  0.2742433E+04  0.7818609E-02  0.8321367E-01
       -1   -1    0    0    0  501  0.00000000000E+00  0.00000000000E+00  0.63030606169E+03  0.63030606171E+03  0.50400001928E-02 0.  1.
        1   -1    0    0  501    0  0.00000000000E+00  0.00000000000E+00 -0.29830502569E+04  0.29830502569E+04  0.50400001928E-02 0. -1.
    10030    2    1    2    0    0  0.00000000000E+00  0.00000000000E+00 -0.23527441952E+04  0.36133563186E+04  0.27424329777E+04 0.  0.
        1    1    3    3  502    0  0.44911547991E+03 -0.39074513998E+03 -0.28039074451E+04  0.28664060144E+04  0.50400001928E-02 0. -1.
       -1    1    3    3    0  502 -0.44911547991E+03  0.39074513998E+03  0.45116324996E+03  0.74695030414E+03  0.50400001928E-02 0.  1.
</event>
<event>
 5   0  0.5281919E-06  0.2804215E+04  0.7818609E-02  0.8301961E-01
       -1   -1    0    0    0  501  0.00000000000E+00  0.00000000000E+00  0.15726694434E+04  0.15726694434E+04  0.50400001928E-02 0.  1.
        1   -1    0    0  501    0  0.00000000000E+00  0.00000000000E+00 -0.12500438971E+04  0.12500438971E+04  0.50400001928E-02 0. -1.
    10030    2    1    2    0    0  0.00000000000E+00  0.00000000000E+00  0.32262554630E+03  0.28227133404E+04  0.28042152840E+04 0.  0.
        4    1    3    3  502    0  0.99142485298E+02  0.99504351062E+03 -0.82800488529E+03  0.12982813730E+04  0.12699999809E+01 0. -1.
       -4    1    3    3    0  502 -0.99142485298E+02 -0.99504351062E+03  0.11506304316E+04  0.15244319675E+04  0.12699999809E+01 0.  1.
</event>
<event>
 5   0  0.5217999E-06  0.2821542E+04  0.7818609E-02  0.8296612E-01
       -1   -1    0    0    0  501  0.00000000000E+00  0.00000000000E+00  0.94367908356E+03  0.94367908358E+03  0.50400001928E-02 0. -1.
        1   -1    0    0  501    0  0.00000000000E+00  0.00000000000E+00 -0.21090583659E+04  0.21090583659E+04  0.50400001928E-02 0.  1.
    10030    2    1    2    0    0  0.00000000000E+00  0.00000000000E+00 -0.11653792823E+04  0.30527374494E+04  0.28215416112E+04 0.  0.
        1    1    3    3  502    0 -0.48860837777E+02  0.84998285653E+03  0.63439185711E+03  0.10617491541E+04  0.50400001928E-02 0. -1.
       -1    1    3    3    0  502  0.48860837777E+02 -0.84998285653E+03 -0.17997711394E+04  0.19909882953E+04  0.50400001928E-02 0.  1.
</event>
<event>
 5   0  0.4447500E-06  0.2839106E+04  0.7818609E-02  0.8291229E-01
       -3   -1    0    0    0  501  0.00000000000E+00  0.00000000000E+00  0.19303502364E+04  0.19303502390E+04  0.10100000352E+00 0.  1.
        3   -1    0    0  501    0  0.00000000000E+00  0.00000000000E+00 -0.10439196339E+04  0.10439196388E+04  0.10100000352E+00 0. -1.
    10030    2    1    2    0    0  0.00000000000E+00  0.00000000000E+00  0.88643060253E+03  0.29742698778E+04  0.28391058615E+04 0.  0.
        2    1    3    3  502    0  0.53842289116E+03  0.18565728192E+03 -0.91898230859E+03  0.10811550858E+04  0.25500000920E-02 0. -1.
       -2    1    3    3    0  502 -0.53842289116E+03 -0.18565728192E+03  0.18054129111E+04  0.18931147920E+04  0.25500000920E-02 0.  1.
</event>
<event>
 5   0  0.4764214E-06  0.2585969E+04  0.7818609E-02  0.8372983E-01
       -1   -1    0    0    0  501  0.00000000000E+00  0.00000000000E+00  0.99805386796E+03  0.99805386797E+03  0.50400001928E-02 0.  1.
        1   -1    0    0  501    0  0.00000000000E+00  0.00000000000E+00 -0.16750683316E+04  0.16750683316E+04  0.50400001928E-02 0. -1.
    10030    2    1    2    0    0  0.00000000000E+00  0.00000000000E+00 -0.67701446361E+03  0.26731221996E+04  0.25859686212E+04 0.  0.
        3    1    3    3  502    0  0.46944984866E+03 -0.49954216902E+03  0.79474513839E+03  0.10495453226E+04  0.10100000352E+00 0.  1.
       -3    1    3    3    0  502 -0.46944984866E+03  0.49954216902E+03 -0.14717596020E+04  0.16235768769E+04  0.10100000352E+00 0. -1.
</event>
<event>
 5   0  0.5281919E-06  0.2640390E+04  0.7818609E-02  0.8354610E-01
       -1   -1    0    0    0  501  0.00000000000E+00  0.00000000000E+00  0.14424069683E+04  0.14424069683E+04  0.50400001928E-02 0.  1.
        1   -1    0    0  501    0  0.00000000000E+00  0.00000000000E+00 -0.12083374179E+04  0.12083374180E+04  0.50400001928E-02 0. -1.
    10030    2    1    2    0    0  0.00000000000E+00  0.00000000000E+00  0.23406955036E+03  0.26507443863E+04  0.26403896013E+04 0.  0.
        4    1    3    3  502    0  0.12561177332E+04 -0.36773094197E+03  0.29049807323E+03  0.13406895796E+04  0.12699999809E+01 0. -1.
       -4    1    3    3    0  502 -0.12561177332E+04  0.36773094197E+03 -0.56428522864E+02  0.13100548067E+04  0.12699999809E+01 0.  1.
</event>
<event>
 5   0  0.5107453E-06  0.2737884E+04  0.7818609E-02  0.8322817E-01
        1   -1    0    0  501    0  0.00000000000E+00  0.00000000000E+00  0.13071115002E+04  0.13071115002E+04  0.50400001928E-02 0. -1.
       -1   -1    0    0    0  501  0.00000000000E+00  0.00000000000E+00 -0.14336974123E+04  0.14336974123E+04  0.50400001928E-02 0.  1.
    10030    2    1    2    0    0  0.00000000000E+00  0.00000000000E+00 -0.12658591214E+03  0.27408089125E+04  0.27378841286E+04 0.  0.
        2    1    3    3  502    0  0.86679546734E+03  0.94059114386E+03  0.42503579103E+03  0.13478506986E+04  0.25500000920E-02 0. -1.
       -2    1    3    3    0  502 -0.86679546734E+03 -0.94059114386E+03 -0.55162170316E+03  0.13929582138E+04  0.25500000920E-02 0.  1.
</event>
<event>
 5   0  0.1302063E-05  0.2748918E+04  0.7818609E-02  0.8319305E-01
       -2   -1    0    0    0  501  0.00000000000E+00  0.00000000000E+00  0.99525097824E+03  0.99525097824E+03  0.25500000920E-02 0. -1.
        2   -1    0    0  501    0  0.00000000000E+00  0.00000000000E+00 -0.18981513319E+04  0.18981513319E+04  0.25500000920E-02 0.  1.
    10030    2    1    2    0    0  0.00000000000E+00  0.00000000000E+00 -0.90290035371E+03  0.28934023102E+04  0.27489175833E+04 0.  0.
        2    1    3    3  502    0 -0.43175471808E+03  0.12610659185E+04 -0.80439178024E+03  0.15568383100E+04  0.25500000920E-02 0. -1.
       -2    1    3    3    0  502  0.43175471808E+03 -0.12610659185E+04 -0.98508573463E+02  0.13365640002E+04  0.25500000920E-02 0.  1.
</event>
<event>
 5   0  0.5023691E-06  0.2743263E+04  0.7818609E-02  0.8321103E-01
        1   -1    0    0  501    0  0.00000000000E+00  0.00000000000E+00  0.16145293257E+04  0.16145293257E+04  0.50400001928E-02 0.  1.
       -1   -1    0    0    0  501  0.00000000000E+00  0.00000000000E+00 -0.11652762758E+04  0.11652762759E+04  0.50400001928E-02 0. -1.
    10030    2    1    2    0    0  0.00000000000E+00  0.00000000000E+00  0.44925304982E+03  0.27798056015E+04  0.27432628163E+04 0.  0.
        5    1    3    3  502    0 -0.13776643981E+03 -0.14340814093E+03  0.15998359797E+04  0.16121546882E+04  0.46999998093E+01 0.  1.
       -5    1    3    3    0  502  0.13776643981E+03  0.14340814093E+03 -0.11505829299E+04  0.11676509133E+04  0.46999998093E+01 0. -1.
</event>
<event>
 5   0  0.4764214E-06  0.2784883E+04  0.7818609E-02  0.8307977E-01
        1   -1    0    0  501    0  0.00000000000E+00  0.00000000000E+00  0.99632989489E+03  0.99632989490E+03  0.50400001928E-02 0. -1.
       -1   -1    0    0    0  501  0.00000000000E+00  0.00000000000E+00 -0.19460351832E+04  0.19460351832E+04  0.50400001928E-02 0.  1.
    10030    2    1    2    0    0  0.00000000000E+00  0.00000000000E+00 -0.94970528835E+03  0.29423650781E+04  0.27848827836E+04 0.  0.
        3    1    3    3  502    0  0.13176344924E+04 -0.32468451571E+03 -0.80444229839E+03  0.15775639803E+04  0.10100000352E+00 0.  1.
       -3    1    3    3    0  502 -0.13176344924E+04  0.32468451571E+03 -0.14526298996E+03  0.13648010979E+04  0.10100000352E+00 0. -1.
</event>
<event>
 5   0  0.1302063E-05  0.2796660E+04  0.7818609E-02  0.8304306E-01
       -2   -1    0    0    0  501  0.00000000000E+00  0.00000000000E+00  0.12781557152E+04  0.12781557152E+04  0.25500000920E-02 0. -1.
        2   -1    0    0  501    0  0.00000000000E+00  0.00000000000E+00 -0.15298033202E+04  0.15298033202E+04  0.25500000920E-02 0.  1.
    10030    2    1    2    0    0  0.00000000000E+00  0.00000000000E+00 -0.25164760502E+03  0.28079590354E+04  0.27966600486E+04 0.  0.
        2    1    3    3  502    0 -0.65581506521E+03  0.44466780015E+03 -0.12826523817E+04  0.15076538013E+04  0.25500000920E-02 0.  1.
       -2    1    3    3    0  502  0.65581506521E+03 -0.44466780015E+03  0.10310047767E+04  0.13003052341E+04  0.25500000920E-02 0. -1.
</event>
<event>
 5   0  0.5107453E-06  0.2186093E+04  0.7818609E-02  0.8524239E-01
       -1   -1    0    0    0  501  0.00000000000E+00  0.00000000000E+00  0.12768023357E+04  0.12768023357E+04  0.50400001928E-02 0.  1.
        1   -1    0    0  501    0  0.00000000000E+00  0.00000000000E+00 -0.93573688192E+03  0.93573688193E+03  0.50400001928E-02 0. -1.
    10030    2    1    2    0    0  0.00000000000E+00  0.00000000000E+00  0.34106545375E+03  0.22125392176E+04  0.21860933525E+04 0.  0.
        2    1    3    3  502    0 -0.25501604033E+03  0.49037288427E+03  0.11249422627E+04  0.12533929316E+04  0.25500000920E-02 0.  1.
       -2    1    3    3    0  502  0.25501604033E+03 -0.49037288427E+03 -0.78387680895E+03  0.95914628606E+03  0.25500000920E-02 0. -1.
</event>
<event>
 5   0  0.5023691E-06  0.2766925E+04  0.7818609E-02  0.8313611E-01
       -1   -1    0    0    0  501  0.00000000000E+00  0.00000000000E+00  0.98924557159E+03  0.98924557161E+03  0.50400001928E-02 0. -1.
        1   -1    0    0  501    0  0.00000000000E+00  0.00000000000E+00 -0.19347762148E+04  0.19347762148E+04  0.50400001928E-02 0.  1.
    10030    2    1    2    0    0  0.00000000000E+00  0.00000000000E+00 -0.94553064323E+03  0.29240217864E+04  0.27669252267E+04 0.  0.
        5    1    3    3  502    0  0.20723558155E+03 -0.12104419978E+04  0.20045220475E+03  0.12443149090E+04  0.46999998093E+01 0. -1.
       -5    1    3    3    0  502 -0.20723558155E+03  0.12104419978E+04 -0.11459828480E+04  0.16797068775E+04  0.46999998093E+01 0.  1.
</event>
<event>
 5   0  0.1388269E-05  0.2681629E+04  0.7818609E-02  0.8340990E-01
       -2   -1    0    0    0  501  0.00000000000E+00  0.00000000000E+00  0.12280565752E+04  0.12280565752E+04  0.25500000920E-02 0. -1.
        2   -1    0    0  501    0  0.00000000000E+00  0.00000000000E+00 -0.14639256672E+04  0.14639256672E+04  0.25500000920E-02 0.  1.
    10030    2    1    2    0    0  0.00000000000E+00  0.00000000000E+00 -0.23586909193E+03  0.26919822424E+04  0.26816290133E+04 0.  0.
        1    1    3    3  502    0 -0.11694509950E+04  0.60836385078E+03 -0.36395487267E+03  0.13675472036E+04  0.50400001928E-02 0.  1.
       -1    1    3    3    0  502  0.11694509950E+04 -0.60836385078E+03  0.12808578074E+03  0.13244350388E+04  0.50400001928E-02 0. -1.
</event>
<event>
 5   0  0.1302063E-05  0.2861128E+04  0.7818609E-02  0.8284538E-01
       -2   -1    0    0    0  501  0.00000000000E+00  0.00000000000E+00  0.13154200712E+04  0.13154200712E+04  0.25500000920E-02 0. -1.
        2   -1    0    0  501    0  0.00000000000E+00  0.00000000000E+00 -0.15557864391E+04  0.15557864391E+04  0.25500000920E-02 0.  1.
    10030    2    1    2    0    0  0.00000000000E+00  0.00000000000E+00 -0.24036636795E+03  0.28712065103E+04  0.28611275459E+04 0.  0.
        2    1    3    3  502    0  0.13019478402E+02  0.10818950877E+04  0.81898017762E+03  0.13569801100E+04  0.25500000920E-02 0. -1.
       -2    1    3    3    0  502 -0.13019478402E+02 -0.10818950877E+04 -0.10593465456E+04  0.15142264003E+04  0.25500000920E-02 0.  1.
</event>
<event>
 5   0  0.1330962E-05  0.2574500E+04  0.7818609E-02  0.8376915E-01
       -2   -1    0    0    0  501  0.00000000000E+00  0.00000000000E+00  0.78645439106E+03  0.78645439106E+03  0.25500000920E-02 0.  1.
        2   -1    0    0  501    0  0.00000000000E+00  0.00000000000E+00 -0.21069409859E+04  0.21069409859E+04  0.25500000920E-02 0. -1.
    10030    2    1    2    0    0  0.00000000000E+00  0.00000000000E+00 -0.13204865949E+04  0.28933953770E+04  0.25745003322E+04 0.  0.
        4    1    3    3  502    0  0.82056363244E+03 -0.98476163791E+03 -0.52759264572E+03  0.13861586385E+04  0.12699999809E+01 0. -1.
       -4    1    3    3    0  502 -0.82056363244E+03  0.98476163791E+03 -0.79289394916E+03  0.15072367385E+04  0.12699999809E+01 0.  1.
</event>
<event>
 5   0  0.1283052E-05  0.2699390E+04  0.7818609E-02  0.8335203E-01
        2   -1    0    0  501    0  0.00000000000E+00  0.00000000000E+00  0.12127622313E+04  0.12127622313E+04  0.25500000920E-02 0.  1.
       -2   -1    0    0    0  501  0.00000000000E+00  0.00000000000E+00 -0.15020885673E+04  0.15020885673E+04  0.25500000920E-02 0. -1.
    10030    2    1    2    0    0  0.00000000000E+00  0.00000000000E+00 -0.28932633601E+03  0.27148507987E+04  0.26993897700E+04 0.  0.
        5    1    3    3  502    0 -0.13156417001E+03  0.10883666077E+04  0.64712183640E+03  0.12730435046E+04  0.46999998093E+01 0.  1.
       -5    1    3    3    0  502  0.13156417001E+03 -0.10883666077E+04 -0.93644817241E+03  0.14418072940E+04  0.46999998093E+01 0. -1.
</event>
<event>
 5   0  0.1330962E-05  0.2750810E+04  0.7818609E-02  0.8318705E-01
        2   -1    0    0  501    0  0.00000000000E+00  0.00000000000E+00  0.22196859815E+04  0.22196859815E+04  0.25500000920E-02 0.  1.
       -2   -1    0    0    0  501  0.00000000000E+00  0.00000000000E+00 -0.85225522930E+03  0.85225522930E+03  0.25500000920E-02 0. -1.
    10030    2    1    2    0    0  0.00000000000E+00  0.00000000000E+00  0.13674307522E+04  0.30719412108E+04  0.27508100517E+04 0.  0.
        4    1    3    3  502    0  0.13154397160E+04  0.49168429732E+02  0.23850381762E+03  0.13377910393E+04  0.12699999809E+01 0. -1.
       -4    1    3    3    0  502 -0.13154397160E+04 -0.49168429732E+02  0.11289269346E+04  0.17341501715E+04  0.12699999809E+01 0.  1.
</event>
<event>
 5   0  0.1388269E-05  0.2805712E+04  0.7818609E-02  0.8301497E-01
        2   -1    0    0  501    0  0.00000000000E+00  0.00000000000E+00  0.16360266243E+04  0.16360266243E+04  0.25500000920E-02 0.  1.
       -2   -1    0    0    0  501  0.00000000000E+00  0.00000000000E+00 -0.12029172892E+04  0.12029172892E+04  0.25500000920E-02 0. -1.
    10030    2    1    2    0    0  0.00000000000E+00  0.00000000000E+00  0.43310933511E+03  0.28389439136E+04  0.28057118256E+04 0.  0.
        1    1    3    3  502    0 -0.40081689833E+03  0.10922371009E+04  0.10096552525E+04  0.15404673965E+04  0.50400001928E-02 0.  1.
       -1    1    3    3    0  502  0.40081689833E+03 -0.10922371009E+04 -0.57654591743E+03  0.12984765171E+04  0.50400001928E-02 0. -1.
</event>
<event>
 5   0  0.5107453E-06  0.2992355E+04  0.7818609E-02  0.8245917E-01
       -1   -1    0    0    0  501  0.00000000000E+00  0.00000000000E+00  0.19539790813E+04  0.19539790813E+04  0.50400001928E-02 0.  1.
        1   -1    0    0  501    0  0.00000000000E+00  0.00000000000E+00 -0.11456351999E+04  0.11456351999E+04  0.50400001928E-02 0. -1.
    10030    2    1    2    0    0  0.00000000000E+00  0.00000000000E+00  0.80834388138E+03  0.30996142812E+04  0.29923550694E+04 0.  0.
        2    1    3    3  502    0 -0.15667929374E+03 -0.35876947384E+03 -0.10916402159E+04  0.11597164729E+04  0.25500000920E-02 0. -1.
       -2    1    3    3    0  502  0.15667929374E+03  0.35876947384E+03  0.18999840973E+04  0.19398978083E+04  0.25500000920E-02 0.  1.
</event>
<event>
 5   0  0.1302063E-05  0.2793821E+04  0.7818609E-02  0.8305189E-01
       -2   -1    0    0    0  501  0.00000000000E+00  0.00000000000E+00  0.11099660912E+04  0.11099660912E+04  0.25500000920E-02 0. -1.
        2   -1    0    0  501    0  0.00000000000E+00  0.00000000000E+00 -0.17580341656E+04  0.17580341656E+04  0.25500000920E-02 0.  1.
    10030    2    1    2    0    0  0.00000000000E+00  0.00000000000E+00 -0.64806807438E+03  0.28680002568E+04  0.27938205461E+04 0.  0.
        2    1    3    3  502    0 -0.76806653072E+03  0.91304722201E+03  0.42173759932E+03  0.12654817375E+04  0.25500000920E-02 0. -1.
       -2    1    3    3    0  502  0.76806653072E+03 -0.91304722201E+03 -0.10698056737E+04  0.16025185193E+04  0.25500000920E-02 0.  1.
</event>
<event>
 5   0  0.1350863E-05  0.2803634E+04  0.7818609E-02  0.8302141E-01
       -2   -1    0    0    0  501  0.00000000000E+00  0.00000000000E+00  0.91462689065E+03  0.91462689066E+03  0.25500000920E-02 0. -1.
        2   -1    0    0  501    0  0.00000000000E+00  0.00000000000E+00 -0.21485164434E+04  0.21485164434E+04  0.25500000920E-02 0.  1.
    10030    2    1    2    0    0  0.00000000000E+00  0.00000000000E+00 -0.12338895528E+04  0.30631433341E+04  0.28036340090E+04 0.  0.
        3    1    3    3  502    0 -0.60033178629E+03  0.10598384128E+04  0.14113500721E+03  0.12262034152E+04  0.10100000352E+00 0. -1.
       -3    1    3    3    0  502  0.60033178629E+03 -0.10598384128E+04 -0.13750245600E+04  0.18369399189E+04  0.10100000352E+00 0.  1.
</event>
<event>
 5   0  0.1283052E-05  0.2723472E+04  0.7818609E-02  0.8327429E-01
       -2   -1    0    0    0  501  0.00000000000E+00  0.00000000000E+00  0.82250889476E+03  0.82250889477E+03  0.25500000920E-02 0.  1.
        2   -1    0    0  501    0  0.00000000000E+00  0.00000000000E+00 -0.22544734326E+04  0.22544734326E+04  0.25500000920E-02 0. -1.
    10030    2    1    2    0    0  0.00000000000E+00  0.00000000000E+00 -0.14319645379E+04  0.30769823274E+04  0.27234716458E+04 0.  0.
        5    1    3    3  502    0  0.57955514197E+03 -0.67095414594E+03  0.45173123911E+03  0.99506121969E+03  0.46999998093E+01 0.  1.
       -5    1    3    3    0  502 -0.57955514197E+03  0.67095414594E+03 -0.18836957770E+04  0.20819211077E+04  0.46999998093E+01 0. -1.
</event>
<event>
 5   0  0.1388269E-05  0.2889855E+04  0.7818609E-02  0.8275902E-01
        2   -1    0    0  501    0  0.00000000000E+00  0.00000000000E+00  0.14331246517E+04  0.14331246517E+04  0.25500000920E-02 0. -1.
       -2   -1    0    0    0  501  0.00000000000E+00  0.00000000000E+00 -0.14568272907E+04  0.14568272907E+04  0.25500000920E-02 0.  1.
    10030    2    1    2    0    0  0.00000000000E+00  0.00000000000E+00 -0.23702638990E+02  0.28899519424E+04  0.28898547394E+04 0.  0.
        1    1    3    3  502    0  0.58989308954E+03 -0.11279881908E+04 -0.69560225152E+03  0.14505839197E+04  0.50400001928E-02 0.  1.
       -1    1    3    3    0  502 -0.58989308954E+03  0.11279881908E+04  0.67189961253E+03  0.14393680228E+04  0.50400001928E-02 0. -1.
</event>
<event>
 5   0  0.5217999E-06  0.2740229E+04  0.7818609E-02  0.8322069E-01
       -1   -1    0    0    0  501  0.00000000000E+00  0.00000000000E+00  0.13739725155E+04  0.13739725155E+04  0.50400001928E-02 0.  1.
        1   -1    0    0  501    0  0.00000000000E+00  0.00000000000E+00 -0.13662669167E+04  0.13662669167E+04  0.50400001928E-02 0. -1.
    10030    2    1    2    0    0  0.00000000000E+00  0.00000000000E+00  0.77055988777E+01  0.27402394322E+04  0.27402285981E+04 0.  0.
        1    1    3    3  502    0 -0.25202170211E+03  0.58692802520E+03  0.12159688686E+04  0.13735282067E+04  0.50400001928E-02 0.  1.
       -1    1    3    3    0  502  0.25202170211E+03 -0.58692802520E+03 -0.12082632697E+04  0.13667112255E+04  0.50400001928E-02 0. -1.
</event>
<event>
 5   0  0.1302063E-05  0.2799819E+04  0.7818609E-02  0.8303324E-01
       -2   -1    0    0    0  501  0.00000000000E+00  0.00000000000E+00  0.17182980752E+04  0.17182980752E+04  0.25500000920E-02 0. -1.
        2   -1    0    0  501    0  0.00000000000E+00  0.00000000000E+00 -0.11405164168E+04  0.11405164168E+04  0.25500000920E-02 0.  1.
    10030    2    1    2    0    0  0.00000000000E+00  0.00000000000E+00  0.57778165834E+03  0.28588144920E+04  0.27998193969E+04 0.  0.
        2    1    3    3  502    0 -0.54117085156E+03  0.61440291234E+03 -0.87054885844E+03  0.11950783004E+04  0.25500000920E-02 0.  1.
       -2    1    3    3    0  502  0.54117085156E+03 -0.61440291234E+03  0.14483305168E+04  0.16637361916E+04  0.25500000920E-02 0. -1.
</event>
<event>
 5   0  0.5023691E-06  0.2778795E+04  0.7818609E-02  0.8309882E-01
       -1   -1    0    0    0  501  0.00000000000E+00  0.00000000000E+00  0.89039136394E+03  0.89039136395E+03  0.50400001928E-02 0.  1.
        1   -1    0    0  501    0  0.00000000000E+00  0.00000000000E+00 -0.21680639002E+04  0.21680639002E+04  0.50400001928E-02 0. -1.
    10030    2    1    2    0    0  0.00000000000E+00  0.00000000000E+00 -0.12776725363E+04  0.30584552642E+04  0.27787949714E+04 0.  0.
        5    1    3    3  502    0 -0.27354335242E+03  0.48093473240E+03 -0.20415723116E+04  0.21152219212E+04  0.46999998093E+01 0. -1.
       -5    1    3    3    0  502  0.27354335242E+03 -0.48093473240E+03  0.76389977534E+03  0.94323334295E+03  0.46999998093E+01 0.  1.
</event>
<event>
 5   0  0.1283052E-05  0.2798474E+04  0.7818609E-02  0.8303742E-01
        2   -1    0    0  501    0  0.00000000000E+00  0.00000000000E+00  0.24569452640E+04  0.24569452640E+04  0.25500000920E-02 0.  1.
       -2   -1    0    0    0  501  0.00000000000E+00  0.00000000000E+00 -0.79686943355E+03  0.79686943356E+03  0.25500000920E-02 0. -1.
    10030    2    1    2    0    0  0.00000000000E+00  0.00000000000E+00  0.16600758304E+04  0.32538146976E+04  0.27984742849E+04 0.  0.
        5    1    3    3  502    0  0.11808396502E+03  0.13734976165E+04  0.55146514689E+03  0.14847812713E+04  0.46999998093E+01 0. -1.
       -5    1    3    3    0  502 -0.11808396502E+03 -0.13734976165E+04  0.11086106835E+04  0.17690334262E+04  0.46999998093E+01 0.  1.
</event>
<event>
 5   0  0.5281919E-06  0.2438175E+04  0.7818609E-02  0.8425348E-01
       -1   -1    0    0    0  501  0.00000000000E+00  0.00000000000E+00  0.12573168498E+04  0.12573168499E+04  0.50400001928E-02 0.  1.
        1   -1    0    0  501    0  0.00000000000E+00  0.00000000000E+00 -0.11820202235E+04  0.11820202235E+04  0.50400001928E-02 0. -1.
    10030    2    1    2    0    0  0.00000000000E+00  0.00000000000E+00  0.75296626397E+02  0.24393370733E+04  0.24381746811E+04 0.  0.
        4    1    3    3  502    0 -0.65919736950E+03 -0.10250251394E+04  0.67366156564E+01  0.12187143649E+04  0.12699999809E+01 0. -1.
       -4    1    3    3    0  502  0.65919736950E+03  0.10250251394E+04  0.68560010741E+02  0.12206227084E+04  0.12699999809E+01 0.  1.
</event>
<event>
 5   0  0.1330962E-05  0.2776689E+04  0.7818609E-02  0.8310542E-01
       -2   -1    0    0    0  501  0.00000000000E+00  0.00000000000E+00  0.80961697330E+03  0.80961697331E+03  0.25500000920E-02 0. -1.
        2   -1    0    0  501    0  0.00000000000E+00  0.00000000000E+00 -0.23807563541E+04  0.23807563541E+04  0.25500000920E-02 0.  1.
    10030    2    1    2    0    0  0.00000000000E+00  0.00000000000E+00 -0.15711393808E+04  0.31903733274E+04  0.27766892182E+04 0.  0.
        4    1    3    3  502    0 -0.64288586610E+03  0.19982069740E+03  0.60952131495E+03  0.90815659125E+03  0.12699999809E+01 0. -1.
       -4    1    3    3    0  502  0.64288586610E+03 -0.19982069740E+03 -0.21806606958E+04  0.22822167362E+04  0.12699999809E+01 0.  1.
</event>
<event>
 5   0  0.5217999E-06  0.2787732E+04  0.7818609E-02  0.8307087E-01
        1   -1    0    0  501    0  0.00000000000E+00  0.00000000000E+00  0.10715522437E+04  0.10715522437E+04  0.50400001928E-02 0.  1.
       -1   -1    0    0    0  501  0.00000000000E+00  0.00000000000E+00 -0.18131283514E+04  0.18131283514E+04  0.50400001928E-02 0. -1.
    10030    2    1    2    0    0  0.00000000000E+00  0.00000000000E+00 -0.74157610768E+03  0.28846805951E+04  0.27877315172E+04 0.  0.
        1    1    3    3  502    0  0.78180030927E+03  0.91816987939E+03 -0.10941069095E+04  0.16282867009E+04  0.50400001928E-02 0. -1.
       -1    1    3    3    0  502 -0.78180030927E+03 -0.91816987939E+03  0.35253080180E+03  0.12563938941E+04  0.50400001928E-02 0.  1.
</event>
<event>
 5   0  0.1388269E-05  0.2795825E+04  0.7818609E-02  0.8304566E-01
        2   -1    0    0  501    0  0.00000000000E+00  0.00000000000E+00  0.11609211659E+04  0.11609211659E+04  0.25500000920E-02 0.  1.
       -2   -1    0    0    0  501  0.00000000000E+00  0.00000000000E+00 -0.16832832284E+04  0.16832832284E+04  0.25500000920E-02 0. -1.
    10030    2    1    2    0    0  0.00000000000E+00  0.00000000000E+00 -0.52236206251E+03  0.28442043943E+04  0.27958248357E+04 0.  0.
        1    1    3    3  502    0  0.67830233984E+03 -0.10541991011E+04 -0.89053751517E+03  0.15376888096E+04  0.50400001928E-02 0.  1.
       -1    1    3    3    0  502 -0.67830233984E+03  0.10541991011E+04  0.36817545266E+03  0.13065155847E+04  0.50400001928E-02 0. -1.
</event>
<event>
 5   0  0.5281919E-06  0.2392981E+04  0.7818609E-02  0.8442136E-01
        1   -1    0    0  501    0  0.00000000000E+00  0.00000000000E+00  0.19598349636E+04  0.19598349636E+04  0.50400001928E-02 0. -1.
       -1   -1    0    0    0  501  0.00000000000E+00  0.00000000000E+00 -0.73046431863E+03  0.73046431865E+03  0.50400001928E-02 0.  1.
    10030    2    1    2    0    0  0.00000000000E+00  0.00000000000E+00  0.12293706450E+04  0.26902992822E+04  0.23929809956E+04 0.  0.
        4    1    3    3  502    0 -0.46736650884E+03 -0.77511423885E+03 -0.26507172381E+03  0.94313210555E+03  0.12699999809E+01 0.  1.
       -4    1    3    3    0  502  0.46736650884E+03  0.77511423885E+03  0.14944423688E+04  0.17471671767E+04  0.12699999809E+01 0. -1.
</event>
<event>
 5   0  0.1350863E-05  0.2742434E+04  0.7818609E-02  0.8321366E-01
        2   -1    0    0  501    0  0.00000000000E+00  0.00000000000E+00  0.18685561752E+04  0.18685561752E+04  0.25500000920E-02 0.  1.
       -2   -1    0    0    0  501  0.00000000000E+00  0.00000000000E+00 -0.10062508809E+04  0.10062508809E+04  0.25500000920E-02 0. -1.
    10030    2    1    2    0    0  0.00000000000E+00  0.00000000000E+00  0.86230529431E+03  0.28748070562E+04  0.27424341723E+04 0.  0.
        3    1    3    3  502    0  0.97285791741E+03 -0.38279860717E+03 -0.49894499902E+03  0.11584185010E+04  0.10100000352E+00 0. -1.
       -3    1    3    3    0  502 -0.97285791741E+03  0.38279860717E+03  0.13612502933E+04  0.17163885552E+04  0.10100000352E+00 0.  1.
</event>
<event>
 5   0  0.4764214E-06  0.2944494E+04  0.7818609E-02  0.8259761E-01
        1   -1    0    0  501    0  0.00000000000E+00  0.00000000000E+00  0.19065996817E+04  0.19065996817E+04  0.50400001928E-02 0. -1.
       -1   -1    0    0    0  501  0.00000000000E+00  0.00000000000E+00 -0.11368461989E+04  0.11368461990E+04  0.50400001928E-02 0.  1.
    10030    2    1    2    0    0  0.00000000000E+00  0.00000000000E+00  0.76975348273E+03  0.30434458806E+04  0.29444935735E+04 0.  0.
        3    1    3    3  502    0 -0.54826829171E+03  0.13606264947E+04  0.51400722657E+03  0.15543828412E+04  0.10100000352E+00 0. -1.
       -3    1    3    3    0  502  0.54826829171E+03 -0.13606264947E+04  0.25574625617E+03  0.14890630395E+04  0.10100000352E+00 0.  1.
</event>
<event>
 5   0  0.1388269E-05  0.2744999E+04  0.7818609E-02  0.8320550E-01
       -2   -1    0    0    0  501  0.00000000000E+00  0.00000000000E+00  0.11121525482E+04  0.11121525482E+04  0.25500000920E-02 0.  1.
        2   -1    0    0  501    0  0.00000000000E+00  0.00000000000E+00 -0.16937914707E+04  0.16937914707E+04  0.25500000920E-02 0. -1.
    10030    2    1    2    0    0  0.00000000000E+00  0.00000000000E+00 -0.58163892256E+03  0.28059440189E+04  0.27449987251E+04 0.  0.
        1    1    3    3  502    0  0.29977216324E+03 -0.13377339647E+04 -0.35830796488E+03  0.14169615760E+04  0.50400001928E-02 0.  1.
       -1    1    3    3    0  502 -0.29977216324E+03  0.13377339647E+04 -0.22333095768E+03  0.13889824429E+04  0.50400001928E-02 0. -1.
</event>
<event>
 5   0  0.5281919E-06  0.2888147E+04  0.7818609E-02  0.8276413E-01
        1   -1    0    0  501    0  0.00000000000E+00  0.00000000000E+00  0.23317401085E+04  0.23317401085E+04  0.50400001928E-02 0. -1.
       -1   -1    0    0    0  501  0.00000000000E+00  0.00000000000E+00 -0.89433118890E+03  0.89433118891E+03  0.50400001928E-02 0.  1.
    10030    2    1    2    0    0  0.00000000000E+00  0.00000000000E+00  0.14374089196E+04  0.32260712974E+04  0.28881467438E+04 0.  0.
        4    1    3    3  502    0 -0.66357573818E+03 -0.12630255593E+04  0.46948496743E+03  0.15019933659E+04  0.12699999809E+01 0.  1.
       -4    1    3    3    0  502  0.66357573818E+03  0.12630255593E+04  0.96792395217E+03  0.17240779315E+04  0.12699999809E+01 0. -1.
</event>
<event>
 5   0  0.1350863E-05  0.2810571E+04  0.7818609E-02  0.8299994E-01
       -2   -1    0    0    0  501  0.00000000000E+00  0.00000000000E+00  0.12405985854E+04  0.12405985854E+04  0.25500000920E-02 0. -1.
        2   -1    0    0  501    0  0.00000000000E+00  0.00000000000E+00 -0.15918337421E+04  0.15918337421E+04  0.25500000920E-02 0.  1.
    10030    2    1    2    0    0  0.00000000000E+00  0.00000000000E+00 -0.35123515674E+03  0.28324323275E+04  0.28105705390E+04 0.  0.
        3    1    3    3  502    0  0.43838958339E+03 -0.10893590043E+04  0.60235747224E+03  0.13197435363E+04  0.10100000352E+00 0. -1.
       -3    1    3    3    0  502 -0.43838958339E+03  0.10893590043E+04 -0.95359262899E+03  0.15126887913E+04  0.10100000352E+00 0.  1.
</event>
<event>
 5   0  0.5281919E-06  0.2817891E+04  0.7818609E-02  0.8297735E-01
       -1   -1    0    0    0  501  0.00000000000E+00  0.00000000000E+00  0.12653713369E+04  0.12653713369E+04  0.50400001928E-02 0.  1.
        1   -1    0    0  501    0  0.00000000000E+00  0.00000000000E+00 -0.15688098022E+04  0.15688098022E+04  0.50400001928E-02 0. -1.
    10030    2    1    2    0    0  0.00000000000E+00  0.00000000000E+00 -0.30343846529E+03  0.28341811391E+04  0.28178906698E+04 0.  0.
        4    1    3    3  502    0  0.93845712997E+02  0.83275516420E+03  0.98745258097E+03  0.12951264008E+04  0.12699999809E+01 0.  1.
       -4    1    3    3    0  502 -0.93845712997E+02 -0.83275516420E+03 -0.12908910463E+04  0.15390547383E+04  0.12699999809E+01 0. -1.
</event>
<event>
 5   0  0.4447500E-06  0.2804443E+04  0.7818609E-02  0.8301890E-01
       -3   -1    0    0    0  501  0.00000000000E+00  0.00000000000E+00  0.13856052778E+04  0.13856052815E+04  0.10100000352E+00 0. -1.
        3   -1    0    0  501    0  0.00000000000E+00  0.00000000000E+00 -0.14190366398E+04  0.14190366434E+04  0.10100000352E+00 0.  1.
    10030    2    1    2    0    0  0.00000000000E+00  0.00000000000E+00 -0.33431362062E+02  0.28046419249E+04  0.28044426667E+04 0.  0.
        2    1    3    3  502    0  0.85411696478E+02 -0.74424449348E+03 -0.12021393640E+04  0.14164512256E+04  0.25500000920E-02 0.  1.
       -2    1    3    3    0  502 -0.85411696478E+02  0.74424449348E+03  0.11687080019E+04  0.13881906993E+04  0.25500000920E-02 0. -1.
</event>
<event>
 5   0  0.5281919E-06  0.2776974E+04  0.7818609E-02  0.8310453E-01
       -1   -1    0    0    0  501  0.00000000000E+00  0.00000000000E+00  0.12349544696E+04  0.12349544696E+04  0.50400001928E-02 0.  1.
        1   -1    0    0  501    0  0.00000000000E+00  0.00000000000E+00 -0.15611068164E+04  0.15611068164E+04  0.50400001928E-02 0. -1.
    10030    2    1    2    0    0  0.00000000000E+00  0.00000000000E+00 -0.32615234680E+03  0.27960612860E+04  0.27769737776E+04 0.  0.
        4    1    3    3  502    0  0.33783677270E+03 -0.64520533677E+03  0.10271959160E+04  0.12591888954E+04  0.12699999809E+01 0.  1.
       -4    1    3    3    0  502 -0.33783677270E+03  0.64520533677E+03 -0.13533482628E+04  0.15368723906E+04  0.12699999809E+01 0. -1.
</event>
<event>
 5   0  0.5023691E-06  0.2817706E+04  0.7818609E-02  0.8297792E-01
        1   -1    0    0  501    0  0.00000000000E+00  0.00000000000E+00  0.16588097788E+04  0.16588097788E+04  0.50400001928E-02 0.  1.
       -1   -1    0    0    0  501  0.00000000000E+00  0.00000000000E+00 -0.11965607393E+04  0.11965607393E+04  0.50400001928E-02 0. -1.
    10030    2    1    2    0    0  0.00000000000E+00  0.00000000000E+00  0.46224903948E+03  0.28553705181E+04  0.28177059146E+04 0.  0.
        5    1    3    3  502    0  0.12784388045E+04  0.37595949872E+03 -0.23225497048E+03  0.13526698721E+04  0.46999998093E+01 0. -1.
       -5    1    3    3    0  502 -0.12784388045E+04 -0.37595949872E+03  0.69450400997E+03  0.15027006460E+04  0.46999998093E+01 0.  1.
</event>
<event>
 5   0  0.1302063E-05  0.2793772E+04  0.7818609E-02  0.8305205E-01
       -2   -1    0    0    0  501  0.00000000000E+00  0.00000000000E+00  0.73524551381E+03  0.73524551382E+03  0.25500000920E-02 0.  1.
        2   -1    0    0  501    0  0.00000000000E+00  0.00000000000E+00 -0.26539299701E+04  0.26539299701E+04  0.25500000920E-02 0. -1.
    10030    2    1    2    0    0  0.00000000000E+00  0.00000000000E+00 -0.19186844563E+04  0.33891754839E+04  0.27937717190E+04 0.  0.
        2    1    3    3  502    0  0.35653474546E+03 -0.67875053286E+03 -0.23758731500E+04  0.24965160796E+04  0.25500000920E-02 0. -1.
       -2    1    3    3    0  502 -0.35653474546E+03  0.67875053286E+03  0.45718869369E+03  0.89265940438E+03  0.25500000920E-02 0.  1.
</event>
<event>
 5   0  0.1330962E-05  0.2806946E+04  0.7818609E-02  0.8301115E-01
       -2   -1    0    0    0  501  0.00000000000E+00  0.00000000000E+00  0.11984882186E+04  0.11984882186E+04  0.25500000920E-02 0.  1.
        2   -1    0    0  501    0  0.00000000000E+00  0.00000000000E+00 -0.16435170591E+04  0.16435170591E+04  0.25500000920E-02 0. -1.
    10030    2    1    2    0    0  0.00000000000E+00  0.00000000000E+00 -0.44502884049E+03  0.28420052777E+04  0.28069455516E+04 0.  0.
        4    1    3    3  502    0  0.81000843402E+03  0.20683449966E+03 -0.13639103974E+04  0.15997335273E+04  0.12699999809E+01 0. -1.
       -4    1    3    3    0  502 -0.81000843402E+03 -0.20683449966E+03  0.91888155686E+03  0.12422717504E+04  0.12699999809E+01 0.  1.
</event>
<event>
 5   0  0.1283052E-05  0.2800539E+04  0.7818609E-02  0.8303101E-01
        2   -1    0    0  501    0  0.00000000000E+00  0.00000000000E+00  0.21749025318E+04  0.21749025318E+04  0.25500000920E-02 0.  1.
       -2   -1    0    0    0  501  0.00000000000E+00  0.00000000000E+00 -0.90153664514E+03  0.90153664514E+03  0.25500000920E-02 0. -1.
    10030    2    1    2    0    0  0.00000000000E+00  0.00000000000E+00  0.12733658867E+04  0.30764391769E+04  0.28005387568E+04 0.  0.
        5    1    3    3  502    0  0.11634425279E+03  0.23308254244E+03 -0.87467384398E+03  0.91265540051E+03  0.46999998093E+01 0. -1.
       -5    1    3    3    0  502 -0.11634425279E+03 -0.23308254244E+03  0.21480397306E+04  0.21637837764E+04  0.46999998093E+01 0.  1.
</event>
<event>
 5   0  0.1283052E-05  0.2774019E+04  0.7818609E-02  0.8311380E-01
       -2   -1    0    0    0  501  0.00000000000E+00  0.00000000000E+00  0.16828412064E+04  0.16828412064E+04  0.25500000920E-02 0.  1.
        2   -1    0    0  501    0  0.00000000000E+00  0.00000000000E+00 -0.11431830906E+04  0.11431830906E+04  0.25500000920E-02 0. -1.
    10030    2    1    2    0    0  0.00000000000E+00  0.00000000000E+00  0.53965811586E+03  0.28260242970E+04  0.27740191862E+04 0.  0.
        5    1    3    3  502    0  0.12763838295E+04 -0.51781590163E+03  0.10403743159E+03  0.13813525493E+04  0.46999998093E+01 0. -1.
       -5    1    3    3    0  502 -0.12763838295E+04  0.51781590163E+03  0.43562068427E+03  0.14446717478E+04  0.46999998093E+01 0.  1.
</event>
<event>
 5   0  0.5281919E-06  0.2740620E+04  0.7818609E-02  0.8321944E-01
       -1   -1    0    0    0  501  0.00000000000E+00  0.00000000000E+00  0.22913353216E+04  0.22913353216E+04  0.50400001928E-02 0.  1.
        1   -1    0    0  501    0  0.00000000000E+00  0.00000000000E+00 -0.81950005111E+03  0.81950005112E+03  0.50400001928E-02 0. -1.
    10030    2    1    2    0    0  0.00000000000E+00  0.00000000000E+00  0.14718352705E+04  0.31108353727E+04  0.27406199395E+04 0.  0.
        4    1    3    3  502    0  0.11185604128E+03 -0.13601455050E+04  0.87604533636E+03  0.16217165637E+04  0.12699999809E+01 0.  1.
       -4    1    3    3    0  502 -0.11185604128E+03  0.13601455050E+04  0.59578993414E+03  0.14891188090E+04  0.12699999809E+01 0. -1.
</event>
<event>
 5   0  0.5217999E-06  0.2802637E+04  0.7818609E-02  0.8302450E-01
       -1   -1    0    0    0  501  0.00000000000E+00  0.00000000000E+00  0.89948986598E+03  0.89948986599E+03  0.50400001928E-02 0.  1.
        1   -1    0    0  501    0  0.00000000000E+00  0.00000000000E+00 -0.21831195964E+04  0.21831195964E+04  0.50400001928E-02 0. -1.
    10030    2    1    2    0    0  0.00000000000E+00  0.00000000000E+00 -0.12836297304E+04  0.30826094624E+04  0.28026372960E+04 0.  0.
        1    1    3    3  502    0  0.19258246973E+03  0.12236838871E+04 -0.13623967396E+04  0.18413623053E+04  0.50400001928E-02 0. -1.
       -1    1    3    3    0  502 -0.19258246973E+03 -0.12236838871E+04  0.78767009153E+02  0.12412471571E+04  0.50400001928E-02 0.  1.
</event>
<event>
 5   0  0.1350863E-05  0.2781772E+04  0.7818609E-02  0.8308950E-01
        2   -1    0    0  501    0  0.00000000000E+00  0.00000000000E+00  0.22517500008E+04  0.22517500008E+04  0.25500000920E-02 0.  1.
       -2   -1    0    0    0  501  0.00000000000E+00  0.00000000000E+00 -0.85913769042E+03  0.85913769042E+03  0.25500000920E-02 0. -1.
    10030    2    1    2    0    0  0.00000000000E+00  0.00000000000E+00  0.13926123103E+04  0.31108876912E+04  0.27817715902E+04 0.  0.
        3    1    3    3  502    0 -0.24702711378E+03  0.12563627488E+03 -0.82794751741E+03  0.87310020633E+03  0.10100000352E+00 0. -1.
       -3    1    3    3    0  502  0.24702711378E+03 -0.12563627488E+03  0.22205598278E+04  0.22377874849E+04  0.10100000352E+00 0.  1.
</event>
<event>
 5   0  0.1388269E-05  0.2828972E+04  0.7818609E-02  0.8294330E-01
       -2   -1    0    0    0  501  0.00000000000E+00  0.00000000000E+00  0.61868063141E+03  0.61868063142E+03  0.25500000920E-02 0. -1.
        2   -1    0    0  501    0  0.00000000000E+00  0.00000000000E+00 -0.32339311834E+04  0.32339311834E+04  0.25500000920E-02 0.  1.
    10030    2    1    2    0    0  0.00000000000E+00  0.00000000000E+00 -0.26152505520E+04  0.38526118148E+04  0.28289719592E+04 0.  0.
        1    1    3    3  502    0 -0.37294832513E+03  0.13597319464E+04 -0.11534953191E+04  0.18216785860E+04  0.50400001928E-02 0. -1.
       -1    1    3    3    0  502  0.37294832513E+03 -0.13597319464E+04 -0.14617552328E+04  0.20309332288E+04  0.50400001928E-02 0.  1.
</event>
<event>
 5   0  0.1283052E-05  0.2745978E+04  0.7818609E-02  0.8320239E-01
       -2   -1    0    0    0  501  0.00000000000E+00  0.00000000000E+00  0.11012069350E+04  0.11012069350E+04  0.25500000920E-02 0.  1.
        2   -1    0    0  501    0  0.00000000000E+00  0.00000000000E+00 -0.17118480227E+04  0.17118480227E+04  0.25500000920E-02 0. -1.
    10030    2    1    2    0    0  0.00000000000E+00  0.00000000000E+00 -0.61064108775E+03  0.28130549577E+04  0.27459780875E+04 0.  0.
        5    1    3    3  502    0 -0.48612964714E+03  0.16333902098E+03  0.99939740126E+03  0.11233071375E+04  0.46999998093E+01 0.  1.
       -5    1    3    3    0  502  0.48612964714E+03 -0.16333902098E+03 -0.16100384890E+04  0.16897478202E+04  0.46999998093E+01 0. -1.
</event>
<event>
 5   0  0.4764214E-06  0.2814442E+04  0.7818609E-02  0.8298799E-01
       -1   -1    0    0    0  501  0.00000000000E+00  0.00000000000E+00  0.18502618978E+04  0.18502618978E+04  0.50400001928E-02 0.  1.
        1   -1    0    0  501    0  0.00000000000E+00  0.00000000000E+00 -0.10702650483E+04  0.10702650484E+04  0.50400001928E-02 0. -1.
    10030    2    1    2    0    0  0.00000000000E+00  0.00000000000E+00  0.77999684942E+03  0.29205269461E+04  0.28144417844E+04 0.  0.
        3    1    3    3  502    0 -0.77129889540E+03  0.11721751552E+04  0.50066755305E+03  0.14898203212E+04  0.10100000352E+00 0. -1.
       -3    1    3    3    0  502  0.77129889540E+03 -0.11721751552E+04  0.27932929636E+03  0.14307066249E+04  0.10100000352E+00 0.  1.
</event>
<event>
 5   0  0.1302063E-05  0.2819178E+04  0.7818609E-02  0.8297339E-01
        2   -1    0    0  501    0  0.00000000000E+00  0.00000000000E+00  0.19265491374E+04  0.19265491374E+04  0.25500000920E-02 0. -1.
       -2   -1    0    0    0  501  0.00000000000E+00  0.00000000000E+00 -0.10313474451E+04  0.10313474451E+04  0.25500000920E-02 0.  1.
    10030    2    1    2    0    0  0.00000000000E+00  0.00000000000E+00  0.89520169222E+03  0.29578965825E+04  0.28191782709E+04 0.  0.
        2    1    3    3  502    0 -0.75644286436E+03  0.11834827352E+04  0.57220623345E+03  0.15166598713E+04  0.25500000920E-02 0.  1.
       -2    1    3    3    0  502  0.75644286436E+03 -0.11834827352E+04  0.32299545877E+03  0.14412367113E+04  0.25500000920E-02 0. -1.
</event>
<event>
 5   0  0.5217999E-06  0.2797014E+04  0.7818609E-02  0.8304196E-01
        1   -1    0    0  501    0  0.00000000000E+00  0.00000000000E+00  0.21477151609E+04  0.21477151609E+04  0.50400001928E-02 0. -1.
       -1   -1    0    0    0  501  0.00000000000E+00  0.00000000000E+00 -0.91065234951E+03  0.91065234953E+03  0.50400001928E-02 0.  1.
    10030    2    1    2    0    0  0.00000000000E+00  0.00000000000E+00  0.12370628114E+04  0.30583675104E+04  0.27970140203E+04 0.  0.
        1    1    3    3  502    0  0.11830991686E+04 -0.59524787751E+03  0.12736107273E+03  0.13305128790E+04  0.50400001928E-02 0.  1.
       -1    1    3    3    0  502 -0.11830991686E+04  0.59524787751E+03  0.11097017387E+04  0.17278546314E+04  0.50400001928E-02 0. -1.
</event>
<event>
 5   0  0.1350863E-05  0.2781701E+04  0.7818609E-02  0.8308972E-01
       -2   -1    0    0    0  501  0.00000000000E+00  0.00000000000E+00  0.13745916269E+04  0.13745916269E+04  0.25500000920E-02 0. -1.
        2   -1    0    0  501    0  0.00000000000E+00  0.00000000000E+00 -0.14073017943E+04  0.14073017943E+04  0.25500000920E-02 0.  1.
    10030    2    1    2    0    0  0.00000000000E+00  0.00000000000E+00 -0.32710167446E+02  0.27818934212E+04  0.27817011075E+04 0.  0.
        3    1    3    3  502    0 -0.25599285758E+03  0.91422600795E+03  0.10001421231E+04  0.13789944936E+04  0.10100000352E+00 0. -1.
       -3    1    3    3    0  502  0.25599285758E+03 -0.91422600795E+03 -0.10328522905E+04  0.14028989276E+04  0.10100000352E+00 0.  1.
</event>
<event>
 5   0  0.1302063E-05  0.2805693E+04  0.7818609E-02  0.8301503E-01
       -2   -1    0    0    0  501  0.00000000000E+00  0.00000000000E+00  0.15295448452E+04  0.15295448452E+04  0.25500000920E-02 0.  1.
        2   -1    0    0  501    0  0.00000000000E+00  0.00000000000E+00 -0.12866428980E+04  0.12866428980E+04  0.25500000920E-02 0. -1.
    10030    2    1    2    0    0  0.00000000000E+00  0.00000000000E+00  0.24290194721E+03  0.28161877432E+04  0.28056927930E+04 0.  0.
        2    1    3    3  502    0 -0.11728703257E+02  0.13815834225E+04  0.36539854826E+03  0.14291348484E+04  0.25500000920E-02 0. -1.
       -2    1    3    3    0  502  0.11728703257E+02 -0.13815834225E+04 -0.12249660104E+03  0.13870528948E+04  0.25500000920E-02 0.  1.
</event>
<event>
 5   0  0.5217999E-06  0.2223015E+04  0.7818609E-02  0.8508909E-01
        1   -1    0    0  501    0  0.00000000000E+00  0.00000000000E+00  0.20023434195E+04  0.20023434195E+04  0.50400001928E-02 0. -1.
       -1   -1    0    0    0  501  0.00000000000E+00  0.00000000000E+00 -0.61700174032E+03  0.61700174034E+03  0.50400001928E-02 0.  1.
    10030    2    1    2    0    0  0.00000000000E+00  0.00000000000E+00  0.13853416792E+04  0.26193451599E+04  0.22230154067E+04 0.  0.
        1    1    3    3  502    0  0.37553454862E+03  0.77062181575E+03 -0.14097307141E+03  0.86876785564E+03  0.50400001928E-02 0.  1.
       -1    1    3    3    0  502 -0.37553454862E+03 -0.77062181575E+03  0.15263147506E+04  0.17505773042E+04  0.50400001928E-02 0. -1.
</event>
<event>
 5   0  0.1283052E-05  0.2812510E+04  0.7818609E-02  0.8299395E-01
        2   -1    0    0  501    0  0.00000000000E+00  0.00000000000E+00  0.13051010891E+04  0.13051010891E+04  0.25500000920E-02 0.  1.
       -2   -1    0    0    0  501  0.00000000000E+00  0.00000000000E+00 -0.15152490846E+04  0.15152490846E+04  0.25500000920E-02 0. -1.
    10030    2    1    2    0    0  0.00000000000E+00  0.00000000000E+00 -0.21014799556E+03  0.28203501737E+04  0.28125100751E+04 0.  0.
        5    1    3    3  502    0 -0.11712439981E+04  0.31512495725E+01  0.67536840087E+03  0.13520232987E+04  0.46999998093E+01 0.  1.
       -5    1    3    3    0  502  0.11712439981E+04 -0.31512495725E+01 -0.88551639643E+03  0.14683268750E+04  0.46999998093E+01 0. -1.
</event>
<event>
 5   0  0.1302063E-05  0.2628854E+04  0.7818609E-02  0.8358466E-01
       -2   -1    0    0    0  501  0.00000000000E+00  0.00000000000E+00  0.88440447374E+03  0.88440447374E+03  0.25500000920E-02 0.  1.
        2   -1    0    0  501    0  0.00000000000E+00  0.00000000000E+00 -0.19535393915E+04  0.19535393915E+04  0.25500000920E-02 0. -1.
    10030    2    1    2    0    0  0.00000000000E+00  0.00000000000E+00 -0.10691349177E+04  0.28379438652E+04  0.26288544862E+04 0.  0.
        2    1    3    3  502    0 -0.59467600092E+03  0.11528559976E+04 -0.76357800247E+03  0.15052467782E+04  0.25500000920E-02 0. -1.
       -2    1    3    3    0  502  0.59467600092E+03 -0.11528559976E+04 -0.30555691526E+03  0.13326970870E+04  0.25500000920E-02 0.  1.
</event>
<event>
 5   0  0.1283052E-05  0.2814001E+04  0.7818609E-02  0.8298935E-01
        2   -1    0    0  501    0  0.00000000000E+00  0.00000000000E+00  0.21905029433E+04  0.21905029433E+04  0.25500000920E-02 0. -1.
       -2   -1    0    0    0  501  0.00000000000E+00  0.00000000000E+00 -0.90374241302E+03  0.90374241302E+03  0.25500000920E-02 0.  1.
    10030    2    1    2    0    0  0.00000000000E+00  0.00000000000E+00  0.12867605303E+04  0.30942453563E+04  0.28140010062E+04 0.  0.
        5    1    3    3  502    0  0.14001925232E+04  0.13610825048E+03  0.66948868786E+03  0.15579800227E+04  0.46999998093E+01 0. -1.
       -5    1    3    3    0  502 -0.14001925232E+04 -0.13610825048E+03  0.61727184243E+03  0.15362653336E+04  0.46999998093E+01 0.  1.
</event>
<event>
 5   0  0.5217999E-06  0.2836271E+04  0.7818609E-02  0.8292095E-01
        1   -1    0    0  501    0  0.00000000000E+00  0.00000000000E+00  0.12649074382E+04  0.12649074382E+04  0.50400001928E-02 0.  1.
       -1   -1    0    0    0  501  0.00000000000E+00  0.00000000000E+00 -0.15899250833E+04  0.15899250833E+04  0.50400001928E-02 0. -1.
    10030    2    1    2    0    0  0.00000000000E+00  0.00000000000E+00 -0.32501764514E+03  0.28548325215E+04  0.28362708362E+04 0.  0.
        1    1    3    3  502    0  0.64375352030E+03 -0.55437945452E+03  0.98041907911E+03  0.12972959359E+04  0.50400001928E-02 0.  1.
       -1    1    3    3    0  502 -0.64375352030E+03  0.55437945452E+03 -0.13054367243E+04  0.15575365856E+04  0.50400001928E-02 0. -1.
</event>
<event>
 5   0  0.1330962E-05  0.2925732E+04  0.7818609E-02  0.8265262E-01
        2   -1    0    0  501    0  0.00000000000E+00  0.00000000000E+00  0.14909308123E+04  0.14909308123E+04  0.25500000920E-02 0.  1.
       -2   -1    0    0    0  501  0.00000000000E+00  0.00000000000E+00 -0.14353294926E+04  0.14353294926E+04  0.25500000920E-02 0. -1.
    10030    2    1    2    0    0  0.00000000000E+00  0.00000000000E+00  0.55601319780E+02  0.29262603049E+04  0.29257320221E+04 0.  0.
        4    1    3    3  502    0  0.91568077147E+03  0.51413898608E+03 -0.99079629918E+03  0.14437759839E+04  0.12699999809E+01 0. -1.
       -4    1    3    3    0  502 -0.91568077147E+03 -0.51413898608E+03  0.10463976190E+04  0.14824843210E+04  0.12699999809E+01 0.  1.
</event>
<event>
 5   0  0.1350863E-05  0.2801230E+04  0.7818609E-02  0.8302887E-01
        2   -1    0    0  501    0  0.00000000000E+00  0.00000000000E+00  0.28163930881E+04  0.28163930881E+04  0.25500000920E-02 0. -1.
       -2   -1    0    0    0  501  0.00000000000E+00  0.00000000000E+00 -0.69653725747E+03  0.69653725747E+03  0.25500000920E-02 0.  1.
    10030    2    1    2    0    0  0.00000000000E+00  0.00000000000E+00  0.21198558306E+04  0.35129303456E+04  0.28012302423E+04 0.  0.
        3    1    3    3  502    0 -0.90830556163E+03  0.10450092512E+04  0.13249469526E+04  0.19163892522E+04  0.10100000352E+00 0.  1.
       -3    1    3    3    0  502  0.90830556163E+03 -0.10450092512E+04  0.79490887804E+03  0.15965410934E+04  0.10100000352E+00 0. -1.
</event>
<event>
 5   0  0.1283052E-05  0.2751965E+04  0.7818609E-02  0.8318338E-01
        2   -1    0    0  501    0  0.00000000000E+00  0.00000000000E+00  0.23437117540E+04  0.23437117540E+04  0.25500000920E-02 0.  1.
       -2   -1    0    0    0  501  0.00000000000E+00  0.00000000000E+00 -0.80783316575E+03  0.80783316576E+03  0.25500000920E-02 0. -1.
    10030    2    1    2    0    0  0.00000000000E+00  0.00000000000E+00  0.15358785882E+04  0.31515449197E+04  0.27519651784E+04 0.  0.
        5    1    3    3  502    0 -0.79849170799E+03 -0.33400872884E+02  0.20506639599E+04  0.22008974062E+04  0.46999998093E+01 0.  1.
       -5    1    3    3    0  502  0.79849170799E+03  0.33400872884E+02 -0.51478537172E+03  0.95064751352E+03  0.46999998093E+01 0. -1.
</event>
<event>
 5   0  0.1350863E-05  0.2643511E+04  0.7818609E-02  0.8353570E-01
        2   -1    0    0  501    0  0.00000000000E+00  0.00000000000E+00  0.15973867811E+04  0.15973867811E+04  0.25500000920E-02 0.  1.
       -2   -1    0    0    0  501  0.00000000000E+00  0.00000000000E+00 -0.10936845747E+04  0.10936845747E+04  0.25500000920E-02 0. -1.
    10030    2    1    2    0    0  0.00000000000E+00  0.00000000000E+00  0.50370220643E+03  0.26910713558E+04  0.26435107582E+04 0.  0.
        3    1    3    3  502    0 -0.91139510125E+02  0.13141076374E+04  0.14102563617E+03  0.13247918830E+04  0.10100000352E+00 0. -1.
       -3    1    3    3    0  502  0.91139510125E+02 -0.13141076374E+04  0.36267657026E+03  0.13662794728E+04  0.10100000352E+00 0.  1.
</event>
<event>
 5   0  0.4764214E-06  0.2783387E+04  0.7818609E-02  0.8308445E-01
       -1   -1    0    0    0  501  0.00000000000E+00  0.00000000000E+00  0.17027402223E+04  0.17027402223E+04  0.50400001928E-02 0.  1.
        1   -1    0    0  501    0  0.00000000000E+00  0.00000000000E+00 -0.11374668798E+04  0.11374668798E+04  0.50400001928E-02 0. -1.
    10030    2    1    2    0    0  0.00000000000E+00  0.00000000000E+00  0.56527334248E+03  0.28402071021E+04  0.27833868634E+04 0.  0.
        3    1    3    3  502    0  0.44444458482E+03  0.12781931165E+04 -0.48804695672E+02  0.13541383018E+04  0.10100000352E+00 0. -1.
       -3    1    3    3    0  502 -0.44444458482E+03 -0.12781931165E+04  0.61407803816E+03  0.14860688003E+04  0.10100000352E+00 0.  1.
</event>
<event>
 5   0  0.4764214E-06  0.2589835E+04  0.7818609E-02  0.8371662E-01
        1   -1    0    0  501    0  0.00000000000E+00  0.00000000000E+00  0.12020275372E+04  0.12020275373E+04  0.50400001928E-02 0.  1.
       -1   -1    0    0    0  501  0.00000000000E+00  0.00000000000E+00 -0.13949861428E+04  0.13949861428E+04  0.50400001928E-02 0. -1.
    10030    2    1    2    0    0  0.00000000000E+00  0.00000000000E+00 -0.19295860550E+03  0.25970136800E+04  0.25898353289E+04 0.  0.
        3    1    3    3  502    0 -0.17524692051E+03 -0.10216377478E+04  0.68178823247E+03  0.12406814156E+04  0.10100000352E+00 0.  1.
       -3    1    3    3    0  502  0.17524692051E+03  0.10216377478E+04 -0.87474683798E+03  0.13563322644E+04  0.10100000352E+00 0. -1.
</event>
<event>
 5   0  0.1330962E-05  0.2804082E+04  0.7818609E-02  0.8302002E-01
       -2   -1    0    0    0  501  0.00000000000E+00  0.00000000000E+00  0.90636324055E+03  0.90636324055E+03  0.25500000920E-02 0.  1.
        2   -1    0    0  501    0  0.00000000000E+00  0.00000000000E+00 -0.21687985049E+04  0.21687985049E+04  0.25500000920E-02 0. -1.
    10030    2    1    2    0    0  0.00000000000E+00  0.00000000000E+00 -0.12624352644E+04  0.30751617455E+04  0.28040821964E+04 0.  0.
        4    1    3    3  502    0  0.77942793330E+03  0.48004471860E+03 -0.17958446872E+04  0.20156910945E+04  0.12699999809E+01 0. -1.
       -4    1    3    3    0  502 -0.77942793330E+03 -0.48004471860E+03  0.53340942280E+03  0.10594706510E+04  0.12699999809E+01 0.  1.
</event>
<event>
 5   0  0.5023691E-06  0.2683677E+04  0.7818609E-02  0.8340321E-01
       -1   -1    0    0    0  501  0.00000000000E+00  0.00000000000E+00  0.97452541281E+03  0.97452541282E+03  0.50400001928E-02 0.  1.
        1   -1    0    0  501    0  0.00000000000E+00  0.00000000000E+00 -0.18475978414E+04  0.18475978414E+04  0.50400001928E-02 0. -1.
    10030    2    1    2    0    0  0.00000000000E+00  0.00000000000E+00 -0.87307242854E+03  0.28221232542E+04  0.26836773644E+04 0.  0.
        5    1    3    3  502    0  0.11792878960E+04 -0.54228207069E+03 -0.79426042580E+03  0.15217297723E+04  0.46999998093E+01 0.  1.
       -5    1    3    3    0  502 -0.11792878960E+04  0.54228207069E+03 -0.78812002739E+02  0.13003934819E+04  0.46999998093E+01 0. -1.
</event>
<event>
 5   0  0.4447500E-06  0.2791299E+04  0.7818609E-02  0.8305975E-01
       -3   -1    0    0    0  501  0.00000000000E+00  0.00000000000E+00  0.27165427971E+04  0.27165427989E+04  0.10100000352E+00 0. -1.
        3   -1    0    0  501    0  0.00000000000E+00  0.00000000000E+00 -0.71702825187E+03  0.71702825899E+03  0.10100000352E+00 0.  1.
    10030    2    1    2    0    0  0.00000000000E+00  0.00000000000E+00  0.19995145452E+04  0.34335710579E+04  0.27912993020E+04 0.  0.
        5    1    3    3  502    0 -0.12273221781E+04 -0.46845175514E+03  0.15794049824E+04  0.20543390577E+04  0.46999998093E+01 0. -1.
       -5    1    3    3    0  502  0.12273221781E+04  0.46845175514E+03  0.42010956281E+03  0.13792320002E+04  0.46999998093E+01 0.  1.
</event>
<event>
 5   0  0.4764214E-06  0.2765511E+04  0.7818609E-02  0.8314056E-01
       -1   -1    0    0    0  501  0.00000000000E+00  0.00000000000E+00  0.73580839998E+03  0.73580839999E+03  0.50400001928E-02 0.  1.
        1   -1    0    0  501    0  0.00000000000E+00  0.00000000000E+00 -0.25985201774E+04  0.25985201774E+04  0.50400001928E-02 0. -1.
    10030    2    1    2    0    0  0.00000000000E+00  0.00000000000E+00 -0.18627117775E+04  0.33343285774E+04  0.27655111456E+04 0.  0.
        3    1    3    3  502    0 -0.12606008620E+04 -0.55724130828E+03 -0.10655097074E+04  0.17421088817E+04  0.10100000352E+00 0.  1.
       -3    1    3    3    0  502  0.12606008620E+04  0.55724130828E+03 -0.79720207002E+03  0.15922196957E+04  0.10100000352E+00 0. -1.
</event>
<event>
 5   0  0.4447500E-06  0.2790478E+04  0.7818609E-02  0.8306231E-01
       -3   -1    0    0    0  501  0.00000000000E+00  0.00000000000E+00  0.13491743503E+04  0.13491743541E+04  0.10100000352E+00 0.  1.
        3   -1    0    0  501    0  0.00000000000E+00  0.00000000000E+00 -0.14428764939E+04  0.14428764975E+04  0.10100000352E+00 0. -1.
    10030    2    1    2    0    0  0.00000000000E+00  0.00000000000E+00 -0.93702143657E+02  0.27920508515E+04  0.27904780712E+04 0.  0.
        4    1    3    3  502    0  0.11055811022E+03 -0.12748933776E+04  0.50944262771E+03  0.13773560265E+04  0.12699999809E+01 0.  1.
       -4    1    3    3    0  502 -0.11055811022E+03  0.12748933776E+04 -0.60314477137E+03  0.14146948250E+04  0.12699999809E+01 0. -1.
</event>
<event>
 5   0  0.4764214E-06  0.2775611E+04  0.7818609E-02  0.8310880E-01
        1   -1    0    0  501    0  0.00000000000E+00  0.00000000000E+00  0.17020524684E+04  0.17020524684E+04  0.50400001928E-02 0. -1.
       -1   -1    0    0    0  501  0.00000000000E+00  0.00000000000E+00 -0.11315775855E+04  0.11315775855E+04  0.50400001928E-02 0.  1.
    10030    2    1    2    0    0  0.00000000000E+00  0.00000000000E+00  0.57047488294E+03  0.28336300540E+04  0.27756112283E+04 0.  0.
        3    1    3    3  502    0 -0.56519741795E+03 -0.53020726406E+01 -0.10087459086E+04  0.11563064263E+04  0.10100000352E+00 0.  1.
       -3    1    3    3    0  502  0.56519741795E+03  0.53020726406E+01  0.15792207915E+04  0.16773236276E+04  0.10100000352E+00 0. -1.
</event>
<event>
 5   0  0.1388269E-05  0.2913970E+04  0.7818609E-02  0.8268733E-01
        2   -1    0    0  501    0  0.00000000000E+00  0.00000000000E+00  0.25168334644E+04  0.25168334644E+04  0.25500000920E-02 0. -1.
       -2   -1    0    0    0  501  0.00000000000E+00  0.00000000000E+00 -0.84344294977E+03  0.84344294977E+03  0.25500000920E-02 0.  1.
    10030    2    1    2    0    0  0.00000000000E+00  0.00000000000E+00  0.16733905147E+04  0.33602764142E+04  0.29139701037E+04 0.  0.
        1    1    3    3  502    0 -0.10689734735E+04  0.57358615336E+03 -0.93799190075E+02  0.12167594875E+04  0.50400001928E-02 0.  1.
       -1    1    3    3    0  502  0.10689734735E+04 -0.57358615336E+03  0.17671897047E+04  0.21435169267E+04  0.50400001928E-02 0. -1.
</event>
<event>
 5   0  0.5107453E-06  0.2790000E+04  0.7818609E-02  0.8306380E-01
       -1   -1    0    0    0  501  0.00000000000E+00  0.00000000000E+00  0.22136049873E+04  0.22136049873E+04  0.50400001928E-02 0.  1.
        1   -1    0    0  501    0  0.00000000000E+00  0.00000000000E+00 -0.87912016565E+03  0.87912016567E+03  0.50400001928E-02 0. -1.
    10030    2    1    2    0    0  0.00000000000E+00  0.00000000000E+00  0.13344848216E+04  0.30927251529E+04  0.27899998445E+04 0.  0.
        2    1    3    3  502    0 -0.53773699964E+03 -0.46243610965E+03 -0.66435457349E+03  0.97178970751E+03  0.25500000920E-02 0. -1.
       -2    1    3    3    0  502  0.53773699964E+03  0.46243610965E+03  0.19988393951E+04  0.21209354454E+04  0.25500000920E-02 0.  1.
</event>
<event>
 5   0  0.4764214E-06  0.2695323E+04  0.7818609E-02  0.8336524E-01
       -1   -1    0    0    0  501  0.00000000000E+00  0.00000000000E+00  0.14803270551E+04  0.14803270551E+04  0.50400001928E-02 0.  1.
        1   -1    0    0  501    0  0.00000000000E+00  0.00000000000E+00 -0.12268854096E+04  0.12268854096E+04  0.50400001928E-02 0. -1.
    10030    2    1    2    0    0  0.00000000000E+00  0.00000000000E+00  0.25344164546E+03  0.27072124647E+04  0.26953231089E+04 0.  0.
        3    1    3    3  502    0  0.53120941484E+03  0.98464492814E+03  0.88135553351E+03  0.14242530195E+04  0.10100000352E+00 0.  1.
       -3    1    3    3    0  502 -0.53120941484E+03 -0.98464492814E+03 -0.62791388805E+03  0.12829594452E+04  0.10100000352E+00 0. -1.
</event>
<event>
 5   0  0.5107453E-06  0.2833771E+04  0.7818609E-02  0.8292860E-01
       -1   -1    0    0    0  501  0.00000000000E+00  0.00000000000E+00  0.12709513771E+04  0.12709513771E+04  0.50400001928E-02 0.  1.
        1   -1    0    0  501    0  0.00000000000E+00  0.00000000000E+00 -0.15795759309E+04  0.15795759309E+04  0.50400001928E-02 0. -1.
    10030    2    1    2    0    0  0.00000000000E+00  0.00000000000E+00 -0.30862455373E+03  0.28505273080E+04  0.28337707773E+04 0.  0.
        2    1    3    3  502    0  0.42010134488E+03 -0.19308551255E+03  0.11929344624E+04  0.12793982127E+04  0.25500000920E-02 0.  1.
       -2    1    3    3    0  502 -0.42010134488E+03  0.19308551255E+03 -0.15015590161E+04  0.15711290953E+04  0.25500000920E-02 0. -1.
</event>
<event>
 5   0  0.4764214E-06  0.2814628E+04  0.7818609E-02  0.8298741E-01
       -1   -1    0    0    0  501  0.00000000000E+00  0.00000000000E+00  0.13854016922E+04  0.13854016922E+04  0.50400001928E-02 0. -1.
        1   -1    0    0  501    0  0.00000000000E+00  0.00000000000E+00 -0.14295732126E+04  0.14295732126E+04  0.50400001928E-02 0.  1.
    10030    2    1    2    0    0  0.00000000000E+00  0.00000000000E+00 -0.44171520379E+02  0.28149749048E+04  0.28146283221E+04 0.  0.
        3    1    3    3  502    0  0.47767256214E+03 -0.46826211830E+03 -0.12604194112E+04  0.14269189152E+04  0.10100000352E+00 0.  1.
       -3    1    3    3    0  502 -0.47767256214E+03  0.46826211830E+03  0.12162478909E+04  0.13880559896E+04  0.10100000352E+00 0. -1.
</event>
<event>
 5   0  0.1283052E-05  0.2775069E+04  0.7818609E-02  0.8311050E-01
        2   -1    0    0  501    0  0.00000000000E+00  0.00000000000E+00  0.22442470946E+04  0.22442470946E+04  0.25500000920E-02 0.  1.
       -2   -1    0    0    0  501  0.00000000000E+00  0.00000000000E+00 -0.85786123095E+03  0.85786123095E+03  0.25500000920E-02 0. -1.
    10030    2    1    2    0    0  0.00000000000E+00  0.00000000000E+00  0.13863858636E+04  0.31021083255E+04  0.27750694226E+04 0.  0.
        5    1    3    3  502    0 -0.12293618889E+04  0.81080086177E+02  0.14066274103E+04  0.18699003705E+04  0.46999998093E+01 0.  1.
       -5    1    3    3    0  502  0.12293618889E+04 -0.81080086177E+02 -0.20241546700E+02  0.12322079550E+04  0.46999998093E+01 0. -1.
</event>
<event>
 5   0  0.1388269E-05  0.2764567E+04  0.7818609E-02  0.8314354E-01
        2   -1    0    0  501    0  0.00000000000E+00  0.00000000000E+00  0.17633568326E+04  0.17633568326E+04  0.25500000920E-02 0. -1.
       -2   -1    0    0    0  501  0.00000000000E+00  0.00000000000E+00 -0.10835629047E+04  0.10835629047E+04  0.25500000920E-02 0.  1.
    10030    2    1    2    0    0  0.00000000000E+00  0.00000000000E+00  0.67979392792E+03  0.28469197373E+04  0.27645672729E+04 0.  0.
        1    1    3    3  502    0 -0.35446329365E+03  0.18216803757E+03  0.17029101850E+04  0.17489232455E+04  0.50400001928E-02 0. -1.
       -1    1    3    3    0  502  0.35446329365E+03 -0.18216803757E+03 -0.10231162571E+04  0.10979964918E+04  0.50400001928E-02 0.  1.
</event>
<event>
 5   0  0.5217999E-06  0.2610519E+04  0.7818609E-02  0.8364637E-01
       -1   -1    0    0    0  501  0.00000000000E+00  0.00000000000E+00  0.70784988072E+03  0.70784988073E+03  0.50400001928E-02 0. -1.
        1   -1    0    0  501    0  0.00000000000E+00  0.00000000000E+00 -0.24068698697E+04  0.24068698697E+04  0.50400001928E-02 0.  1.
    10030    2    1    2    0    0  0.00000000000E+00  0.00000000000E+00 -0.16990199890E+04  0.31147197505E+04  0.26105191439E+04 0.  0.
        1    1    3    3  502    0  0.62239474913E+03  0.95270328475E+03 -0.86753711176E+02  0.11412909265E+04  0.50400001928E-02 0. -1.
       -1    1    3    3    0  502 -0.62239474913E+03 -0.95270328475E+03 -0.16122662778E+04  0.19734288239E+04  0.50400001928E-02 0.  1.
</event>
<event>
 5   0  0.1302063E-05  0.2805392E+04  0.7818609E-02  0.8301596E-01
        2   -1    0    0  501    0  0.00000000000E+00  0.00000000000E+00  0.10710577676E+04  0.10710577676E+04  0.25500000920E-02 0.  1.
       -2   -1    0    0    0  501  0.00000000000E+00  0.00000000000E+00 -0.18370217823E+04  0.18370217823E+04  0.25500000920E-02 0. -1.
    10030    2    1    2    0    0  0.00000000000E+00  0.00000000000E+00 -0.76596401472E+03  0.29080795498E+04  0.28053922714E+04 0.  0.
        2    1    3    3  502    0 -0.11748474652E+04  0.10663607421E+03 -0.11696532056E+04  0.16612424387E+04  0.25500000920E-02 0. -1.
       -2    1    3    3    0  502  0.11748474652E+04 -0.10663607421E+03  0.40368919084E+03  0.12468371111E+04  0.25500000920E-02 0.  1.
</event>
<event>
 5   0  0.1283052E-05  0.2794406E+04  0.7818609E-02  0.8305007E-01
       -2   -1    0    0    0  501  0.00000000000E+00  0.00000000000E+00  0.12965932108E+04  0.12965932108E+04  0.25500000920E-02 0. -1.
        2   -1    0    0  501    0  0.00000000000E+00  0.00000000000E+00 -0.15056193204E+04  0.15056193204E+04  0.25500000920E-02 0.  1.
    10030    2    1    2    0    0  0.00000000000E+00  0.00000000000E+00 -0.20902610962E+03  0.28022125311E+04  0.27944056891E+04 0.  0.
        5    1    3    3  502    0 -0.11999961151E+04 -0.53144046749E+03  0.37613180305E+03  0.13652534087E+04  0.46999998093E+01 0. -1.
       -5    1    3    3    0  502  0.11999961151E+04  0.53144046749E+03 -0.58515791267E+03  0.14369591224E+04  0.46999998093E+01 0.  1.
</event>
<event>
 5   0  0.5107453E-06  0.2780683E+04  0.7818609E-02  0.8309291E-01
       -1   -1    0    0    0  501  0.00000000000E+00  0.00000000000E+00  0.19016021339E+04  0.19016021339E+04  0.50400001928E-02 0. -1.
        1   -1    0    0  501    0  0.00000000000E+00  0.00000000000E+00 -0.10165373136E+04  0.10165373136E+04  0.50400001928E-02 0.  1.
    10030    2    1    2    0    0  0.00000000000E+00  0.00000000000E+00  0.88506482025E+03  0.29181394475E+04  0.27806830275E+04 0.  0.
        2    1    3    3  502    0 -0.16207795486E+03 -0.37420669273E+03  0.18374291451E+04  0.18821386176E+04  0.25500000920E-02 0. -1.
       -2    1    3    3    0  502  0.16207795486E+03  0.37420669273E+03 -0.95236432490E+03  0.10360008300E+04  0.25500000920E-02 0.  1.
</event>
<event>
 5   0  0.1302063E-05  0.2810178E+04  0.7818609E-02  0.8300116E-01
       -2   -1    0    0    0  501  0.00000000000E+00  0.00000000000E+00  0.12666777942E+04  0.12666777942E+04  0.25500000920E-02 0. -1.
        2   -1    0    0  501    0  0.00000000000E+00  0.00000000000E+00 -0.15586241287E+04  0.15586241287E+04  0.25500000920E-02 0.  1.
    10030    2    1    2    0    0  0.00000000000E+00  0.00000000000E+00 -0.29194633450E+03  0.28253019229E+04  0.28101776266E+04 0.  0.
        2    1    3    3  502    0 -0.10108798574E+04  0.67013846458E+03  0.56728913686E+03  0.13389475765E+04  0.25500000920E-02 0. -1.
       -2    1    3    3    0  502  0.10108798574E+04 -0.67013846458E+03 -0.85923547136E+03  0.14863543464E+04  0.25500000920E-02 0.  1.
</event>
<event>
 5   0  0.1350863E-05  0.2813831E+04  0.7818609E-02  0.8298987E-01
       -2   -1    0    0    0  501  0.00000000000E+00  0.00000000000E+00  0.17326501654E+04  0.17326501654E+04  0.25500000920E-02 0.  1.
        2   -1    0    0  501    0  0.00000000000E+00  0.00000000000E+00 -0.11424183979E+04  0.11424183979E+04  0.25500000920E-02 0. -1.
    10030    2    1    2    0    0  0.00000000000E+00  0.00000000000E+00  0.59023176752E+03  0.28750685632E+04  0.28138311435E+04 0.  0.
        3    1    3    3  502    0 -0.30268050887E+03 -0.10062978356E+04 -0.66074359340E+03  0.12413029166E+04  0.10100000352E+00 0. -1.
       -3    1    3    3    0  502  0.30268050887E+03  0.10062978356E+04  0.12509753609E+04  0.16337656466E+04  0.10100000352E+00 0.  1.
</event>
<event>
 5   0  0.4447500E-06  0.2768141E+04  0.7818609E-02  0.8313228E-01
       -3   -1    0    0    0  501  0.00000000000E+00  0.00000000000E+00  0.92009962675E+03  0.92009963229E+03  0.10100000352E+00 0. -1.
        3   -1    0    0  501    0  0.00000000000E+00  0.00000000000E+00 -0.20820043344E+04  0.20820043368E+04  0.10100000352E+00 0.  1.
    10030    2    1    2    0    0  0.00000000000E+00  0.00000000000E+00 -0.11619047076E+04  0.30021039691E+04  0.27681411979E+04 0.  0.
        2    1    3    3  502    0  0.44701599933E+03  0.11252426395E+04  0.14628843263E+03  0.12195878840E+04  0.25500000920E-02 0. -1.
       -2    1    3    3    0  502 -0.44701599933E+03 -0.11252426395E+04 -0.13081931402E+04  0.17825160851E+04  0.25500000920E-02 0.  1.
</event>
<event>
 5   0  0.5023691E-06  0.2330490E+04  0.7818609E-02  0.8465995E-01
        1   -1    0    0  501    0  0.00000000000E+00  0.00000000000E+00  0.20002043345E+04  0.20002043345E+04  0.50400001928E-02 0. -1.
       -1   -1    0    0    0  501  0.00000000000E+00  0.00000000000E+00 -0.67882875144E+03  0.67882875146E+03  0.50400001928E-02 0.  1.
    10030    2    1    2    0    0  0.00000000000E+00  0.00000000000E+00  0.13213755831E+04  0.26790330860E+04  0.23304902583E+04 0.  0.
        5    1    3    3  502    0  0.85246630272E+02  0.84806295759E+03 -0.25268364400E+03  0.88901568150E+03  0.46999998093E+01 0.  1.
       -5    1    3    3    0  502 -0.85246630272E+02 -0.84806295759E+03  0.15740592271E+04  0.17900174045E+04  0.46999998093E+01 0. -1.
</event>
<event>
 5   0  0.1388269E-05  0.2688173E+04  0.7818609E-02  0.8338853E-01
       -2   -1    0    0    0  501  0.00000000000E+00  0.00000000000E+00  0.94987058581E+03  0.94987058581E+03  0.25500000920E-02 0. -1.
        2   -1    0    0  501    0  0.00000000000E+00  0.00000000000E+00 -0.19019095065E+04  0.19019095065E+04  0.25500000920E-02 0.  1.
    10030    2    1    2    0    0  0.00000000000E+00  0.00000000000E+00 -0.95203892072E+03  0.28517800923E+04  0.26881725370E+04 0.  0.
        1    1    3    3  502    0  0.74201157979E+03  0.99206950536E+03 -0.10290784839E+04  0.16105233976E+04  0.50400001928E-02 0.  1.
       -1    1    3    3    0  502 -0.74201157979E+03 -0.99206950536E+03  0.77039563196E+02  0.12412566948E+04  0.50400001928E-02 0. -1.
</event>
<event>
 5   0  0.5281919E-06  0.2945773E+04  0.7818609E-02  0.8259387E-01
       -1   -1    0    0    0  501  0.00000000000E+00  0.00000000000E+00  0.12369772576E+04  0.12369772576E+04  0.50400001928E-02 0. -1.
        1   -1    0    0  501    0  0.00000000000E+00  0.00000000000E+00 -0.17537873022E+04  0.17537873022E+04  0.50400001928E-02 0.  1.
    10030    2    1    2    0    0  0.00000000000E+00  0.00000000000E+00 -0.51681004465E+03  0.29907645599E+04  0.29457732483E+04 0.  0.
        4    1    3    3  502    0 -0.47543365470E+03  0.13398897484E+04 -0.64905662128E+03  0.15628876506E+04  0.12699999809E+01 0. -1.
       -4    1    3    3    0  502  0.47543365470E+03 -0.13398897484E+04  0.13224657663E+03  0.14278769092E+04  0.12699999809E+01 0.  1.
</event>
<event>
 5   0  0.5107453E-06  0.2831154E+04  0.7818609E-02  0.8293661E-01
       -1   -1    0    0    0  501  0.00000000000E+00  0.00000000000E+00  0.12167582512E+04  0.12167582512E+04  0.50400001928E-02 0.  1.
        1   -1    0    0  501    0  0.00000000000E+00  0.00000000000E+00 -0.16468829200E+04  0.16468829200E+04  0.50400001928E-02 0. -1.
    10030    2    1    2    0    0  0.00000000000E+00  0.00000000000E+00 -0.43012466879E+03  0.28636411712E+04  0.28311540980E+04 0.  0.
        2    1    3    3  502    0 -0.12403099175E+03 -0.55608238299E+03 -0.15257897700E+04  0.16286944851E+04  0.25500000920E-02 0. -1.
       -2    1    3    3    0  502  0.12403099175E+03  0.55608238299E+03  0.10956651012E+04  0.12349466861E+04  0.25500000920E-02 0.  1.
</event>
<event>
 5   0  0.1330962E-05  0.2843703E+04  0.7818609E-02  0.8289827E-01
        2   -1    0    0  501    0  0.00000000000E+00  0.00000000000E+00  0.18174464615E+04  0.18174464615E+04  0.25500000920E-02 0. -1.
       -2   -1    0    0    0  501  0.00000000000E+00  0.00000000000E+00 -0.11123635544E+04  0.11123635544E+04  0.25500000920E-02 0.  1.
    10030    2    1    2    0    0  0.00000000000E+00  0.00000000000E+00  0.70508290711E+03  0.29298100159E+04  0.28437026609E+04 0.  0.
        4    1    3    3  502    0 -0.72646225261E+03 -0.18772190148E+03  0.15968675200E+04  0.17643623228E+04  0.12699999809E+01 0. -1.
       -4    1    3    3    0  502  0.72646225261E+03  0.18772190148E+03 -0.89178461288E+03  0.11654476931E+04  0.12699999809E+01 0.  1.
</event>
<event>
 5   0  0.1302063E-05  0.2809291E+04  0.7818609E-02  0.8300390E-01
       -2   -1    0    0    0  501  0.00000000000E+00  0.00000000000E+00  0.95712299433E+03  0.95712299434E+03  0.25500000920E-02 0.  1.
        2   -1    0    0  501    0  0.00000000000E+00  0.00000000000E+00 -0.20614169305E+04  0.20614169305E+04  0.25500000920E-02 0. -1.
    10030    2    1    2    0    0  0.00000000000E+00  0.00000000000E+00 -0.11042939361E+04  0.30185399248E+04  0.28092914018E+04 0.  0.
        2    1    3    3  502    0  0.63693880694E+03  0.10164804642E+04 -0.13374076439E+04  0.17965474622E+04  0.25500000920E-02 0. -1.
       -2    1    3    3    0  502 -0.63693880694E+03 -0.10164804642E+04  0.23311370779E+03  0.12219924626E+04  0.25500000920E-02 0.  1.
</event>
<event>
 5   0  0.1283052E-05  0.2814263E+04  0.7818609E-02  0.8298854E-01
       -2   -1    0    0    0  501  0.00000000000E+00  0.00000000000E+00  0.12520817227E+04  0.12520817227E+04  0.25500000920E-02 0. -1.
        2   -1    0    0  501    0  0.00000000000E+00  0.00000000000E+00 -0.15813812170E+04  0.15813812170E+04  0.25500000920E-02 0.  1.
    10030    2    1    2    0    0  0.00000000000E+00  0.00000000000E+00 -0.32929949431E+03  0.28334629396E+04  0.28142626163E+04 0.  0.
        5    1    3    3  502    0 -0.12543850807E+04  0.31416784749E+03 -0.72324396648E+03  0.14816501922E+04  0.46999998093E+01 0.  1.
       -5    1    3    3    0  502  0.12543850807E+04 -0.31416784749E+03  0.39394447217E+03  0.13518127474E+04  0.46999998093E+01 0. -1.
</event>
<event>
 5   0  0.5107453E-06  0.2926273E+04  0.7818609E-02  0.8265103E-01
       -1   -1    0    0    0  501  0.00000000000E+00  0.00000000000E+00  0.12591220341E+04  0.12591220341E+04  0.50400001928E-02 0.  1.
        1   -1    0    0  501    0  0.00000000000E+00  0.00000000000E+00 -0.17002074124E+04  0.17002074124E+04  0.50400001928E-02 0. -1.
    10030    2    1    2    0    0  0.00000000000E+00  0.00000000000E+00 -0.44108537828E+03  0.29593294466E+04  0.29262731353E+04 0.  0.
        2    1    3    3  502    0  0.29331496543E+03  0.14312360948E+04 -0.30080030400E+03  0.14916270482E+04  0.25500000920E-02 0. -1.
       -2    1    3    3    0  502 -0.29331496543E+03 -0.14312360948E+04 -0.14028507428E+03  0.14677023984E+04  0.25500000920E-02 0.  1.
</event>
<event>
 5   0  0.1330962E-05  0.2193936E+04  0.7818609E-02  0.8520956E-01
        2   -1    0    0  501    0  0.00000000000E+00  0.00000000000E+00  0.14448481899E+04  0.14448481899E+04  0.25500000920E-02 0. -1.
       -2   -1    0    0    0  501  0.00000000000E+00  0.00000000000E+00 -0.83284793266E+03  0.83284793267E+03  0.25500000920E-02 0.  1.
    10030    2    1    2    0    0  0.00000000000E+00  0.00000000000E+00  0.61200025728E+03  0.22776961226E+04  0.21939360319E+04 0.  0.
        4    1    3    3  502    0  0.83120665308E+03 -0.65910359279E+03  0.16024600323E+02  0.10609337618E+04  0.12699999809E+01 0.  1.
       -4    1    3    3    0  502 -0.83120665308E+03  0.65910359279E+03  0.59597565695E+03  0.12167623608E+04  0.12699999809E+01 0. -1.
</event>
<event>
 5   0  0.1350863E-05  0.2798925E+04  0.7818609E-02  0.8303602E-01
       -2   -1    0    0    0  501  0.00000000000E+00  0.00000000000E+00  0.12632716888E+04  0.12632716888E+04  0.25500000920E-02 0.  1.
        2   -1    0    0  501    0  0.00000000000E+00  0.00000000000E+00 -0.15503362669E+04  0.15503362669E+04  0.25500000920E-02 0. -1.
    10030    2    1    2    0    0  0.00000000000E+00  0.00000000000E+00 -0.28706457819E+03  0.28136079557E+04  0.27989254467E+04 0.  0.
        3    1    3    3  502    0 -0.66044583397E+03 -0.51442075164E+03  0.98381330057E+03  0.12917840493E+04  0.10100000352E+00 0.  1.
       -3    1    3    3    0  502  0.66044583397E+03  0.51442075164E+03 -0.12708778788E+04  0.15218239065E+04  0.10100000352E+00 0. -1.
</event>
<event>
 5   0  0.4764214E-06  0.2731148E+04  0.7818609E-02  0.8324969E-01
        1   -1    0    0  501    0  0.00000000000E+00  0.00000000000E+00  0.16685984227E+04  0.16685984227E+04  0.50400001928E-02 0. -1.
       -1   -1    0    0    0  501  0.00000000000E+00  0.00000000000E+00 -0.11175802001E+04  0.11175802001E+04  0.50400001928E-02 0.  1.
    10030    2    1    2    0    0  0.00000000000E+00  0.00000000000E+00  0.55101822263E+03  0.27861786229E+04  0.27311481536E+04 0.  0.
        3    1    3    3  502    0  0.80093967820E+03  0.97560016215E+03 -0.25603904753E+03  0.12879658569E+04  0.10100000352E+00 0.  1.
       -3    1    3    3    0  502 -0.80093967820E+03 -0.97560016215E+03  0.80705727016E+03  0.14982127659E+04  0.10100000352E+00 0. -1.
</event>
<event>
 5   0  0.1350863E-05  0.2839832E+04  0.7818609E-02  0.8291008E-01
       -2   -1    0    0    0  501  0.00000000000E+00  0.00000000000E+00  0.15868563211E+04  0.15868563211E+04  0.25500000920E-02 0. -1.
        2   -1    0    0  501    0  0.00000000000E+00  0.00000000000E+00 -0.12705378751E+04  0.12705378751E+04  0.25500000920E-02 0.  1.
    10030    2    1    2    0    0  0.00000000000E+00  0.00000000000E+00  0.31631844603E+03  0.28573941962E+04  0.28398317263E+04 0.  0.
        3    1    3    3  502    0  0.94168131127E+03 -0.87126403747E+03  0.77044230173E+03  0.14964778867E+04  0.10100000352E+00 0. -1.
       -3    1    3    3    0  502 -0.94168131127E+03  0.87126403747E+03 -0.45412385570E+03  0.13609163095E+04  0.10100000352E+00 0.  1.
</event>
<event>
 5   0  0.5107453E-06  0.2593049E+04  0.7818609E-02  0.8370566E-01
       -1   -1    0    0    0  501  0.00000000000E+00  0.00000000000E+00  0.17264534908E+04  0.17264534909E+04  0.50400001928E-02 0.  1.
        1   -1    0    0  501    0  0.00000000000E+00  0.00000000000E+00 -0.97365848546E+03  0.97365848548E+03  0.50400001928E-02 0. -1.
    10030    2    1    2    0    0  0.00000000000E+00  0.00000000000E+00  0.75279500538E+03  0.27001119763E+04  0.25930492407E+04 0.  0.
        2    1    3    3  502    0 -0.55360649201E+03  0.83884697742E+03 -0.47646259744E+03  0.11122773963E+04  0.25500000920E-02 0. -1.
       -2    1    3    3    0  502  0.55360649201E+03 -0.83884697742E+03  0.12292576028E+04  0.15878345801E+04  0.25500000920E-02 0.  1.
</event>
<event>
 5   0  0.5217999E-06  0.2794165E+04  0.7818609E-02  0.8305082E-01
       -1   -1    0    0    0  501  0.00000000000E+00  0.00000000000E+00  0.14769001304E+04  0.14769001304E+04  0.50400001928E-02 0.  1.
        1   -1    0    0  501    0  0.00000000000E+00  0.00000000000E+00 -0.13215781616E+04  0.13215781616E+04  0.50400001928E-02 0. -1.
    10030    2    1    2    0    0  0.00000000000E+00  0.00000000000E+00  0.15532196878E+03  0.27984782920E+04  0.27941646045E+04 0.  0.
        1    1    3    3  502    0 -0.17034513109E+03  0.13396853839E+04 -0.28075258985E+03  0.13793463699E+04  0.50400001928E-02 0. -1.
       -1    1    3    3    0  502  0.17034513109E+03 -0.13396853839E+04  0.43607455863E+03  0.14191319221E+04  0.50400001928E-02 0.  1.
</event>
<event>
 5   0  0.1330962E-05  0.2778861E+04  0.7818609E-02  0.8309861E-01
       -2   -1    0    0    0  501  0.00000000000E+00  0.00000000000E+00  0.14795014939E+04  0.14795014939E+04  0.25500000920E-02 0.  1.
        2   -1    0    0  501    0  0.00000000000E+00  0.00000000000E+00 -0.13048431098E+04  0.13048431098E+04  0.25500000920E-02 0. -1.
    10030    2    1    2    0    0  0.00000000000E+00  0.00000000000E+00  0.17465838404E+03  0.27843446037E+04  0.27788611554E+04 0.  0.
        4    1    3    3  502    0 -0.82829397825E+03 -0.10299088922E+04 -0.34215689668E+03  0.13652311876E+04  0.12699999809E+01 0. -1.
       -4    1    3    3    0  502  0.82829397825E+03  0.10299088922E+04  0.51681528072E+03  0.14191134162E+04  0.12699999809E+01 0.  1.
</event>
<event>
 5   0  0.1330962E-05  0.2279599E+04  0.7818609E-02  0.8486009E-01
       -2   -1    0    0    0  501  0.00000000000E+00  0.00000000000E+00  0.13924037662E+04  0.13924037662E+04  0.25500000920E-02 0.  1.
        2   -1    0    0  501    0  0.00000000000E+00  0.00000000000E+00 -0.93302180061E+03  0.93302180061E+03  0.25500000920E-02 0. -1.
    10030    2    1    2    0    0  0.00000000000E+00  0.00000000000E+00  0.45938196556E+03  0.23254255668E+04  0.22795991482E+04 0.  0.
        4    1    3    3  502    0 -0.52482128457E+03  0.77678297764E+02 -0.79938508090E+03  0.95942139811E+03  0.12699999809E+01 0. -1.
       -4    1    3    3    0  502  0.52482128457E+03 -0.77678297764E+02  0.12587670465E+04  0.13660041687E+04  0.12699999809E+01 0.  1.
</event>
<event>
 5   0  0.1330962E-05  0.2759211E+04  0.7818609E-02  0.8316045E-01
       -2   -1    0    0    0  501  0.00000000000E+00  0.00000000000E+00  0.12828008967E+04  0.12828008967E+04  0.25500000920E-02 0.  1.
        2   -1    0    0  501    0  0.00000000000E+00  0.00000000000E+00 -0.14837154949E+04  0.14837154949E+04  0.25500000920E-02 0. -1.
    10030    2    1    2    0    0  0.00000000000E+00  0.00000000000E+00 -0.20091459821E+03  0.27665163916E+04  0.27592111679E+04 0.  0.
        4    1    3    3  502    0  0.10230232441E+04  0.15556626486E+03  0.81439064301E+03  0.13168185726E+04  0.12699999809E+01 0.  1.
       -4    1    3    3    0  502 -0.10230232441E+04 -0.15556626486E+03 -0.10153052412E+04  0.14496978190E+04  0.12699999809E+01 0. -1.
</event>
<event>
 5   0  0.5217999E-06  0.2803212E+04  0.7818609E-02  0.8302272E-01
       -1   -1    0    0    0  501  0.00000000000E+00  0.00000000000E+00  0.75935868319E+03  0.75935868320E+03  0.50400001928E-02 0.  1.
        1   -1    0    0  501    0  0.00000000000E+00  0.00000000000E+00 -0.25870500591E+04  0.25870500591E+04  0.50400001928E-02 0. -1.
    10030    2    1    2    0    0  0.00000000000E+00  0.00000000000E+00 -0.18276913759E+04  0.33464087423E+04  0.28032116768E+04 0.  0.
        1    1    3    3  502    0  0.12931795984E+04 -0.26308530929E+03 -0.14775454364E+04  0.19810774519E+04  0.50400001928E-02 0. -1.
       -1    1    3    3    0  502 -0.12931795984E+04  0.26308530929E+03 -0.35014593953E+03  0.13653312904E+04  0.50400001928E-02 0.  1.
</event>
<event>
 5   0  0.1350863E-05  0.2149238E+04  0.7818609E-02  0.8539859E-01
       -2   -1    0    0    0  501  0.00000000000E+00  0.00000000000E+00  0.79163296562E+03  0.79163296563E+03  0.25500000920E-02 0. -1.
        2   -1    0    0  501    0  0.00000000000E+00  0.00000000000E+00 -0.14587641181E+04  0.14587641181E+04  0.25500000920E-02 0.  1.
    10030    2    1    2    0    0  0.00000000000E+00  0.00000000000E+00 -0.66713115250E+03  0.22503970838E+04  0.21492377858E+04 0.  0.
        3    1    3    3  502    0  0.42707350720E+03  0.79347520256E+03  0.27949319782E+03  0.94345701304E+03  0.10100000352E+00 0. -1.
       -3    1    3    3    0  502 -0.42707350720E+03 -0.79347520256E+03 -0.94662435032E+03  0.13069400707E+04  0.10100000352E+00 0.  1.
</event>
<event>
 5   0  0.1388269E-05  0.2792985E+04  0.7818609E-02  0.8305450E-01
        2   -1    0    0  501    0  0.00000000000E+00  0.00000000000E+00  0.12994260942E+04  0.12994260942E+04  0.25500000920E-02 0. -1.
       -2   -1    0    0    0  501  0.00000000000E+00  0.00000000000E+00 -0.15008093622E+04  0.15008093622E+04  0.25500000920E-02 0.  1.
    10030    2    1    2    0    0  0.00000000000E+00  0.00000000000E+00 -0.20138326802E+03  0.28002354564E+04  0.27929846742E+04 0.  0.
        1    1    3    3  502    0 -0.11150213842E+04 -0.83157816110E+03 -0.22509406141E+03  0.14090643214E+04  0.50400001928E-02 0. -1.
       -1    1    3    3    0  502  0.11150213842E+04  0.83157816110E+03  0.23710793386E+02  0.13911711350E+04  0.50400001928E-02 0.  1.
</event>
<event>
 5   0  0.5107453E-06  0.2750264E+04  0.7818609E-02  0.8318878E-01
        1   -1    0    0  501    0  0.00000000000E+00  0.00000000000E+00  0.13260164711E+04  0.13260164711E+04  0.50400001928E-02 0. -1.
       -1   -1    0    0    0  501  0.00000000000E+00  0.00000000000E+00 -0.14260672539E+04  0.14260672539E+04  0.50400001928E-02 0.  1.
    10030    2    1    2    0    0  0.00000000000E+00  0.00000000000E+00 -0.10005078277E+03  0.27520837249E+04  0.27502644727E+04 0.  0.
        2    1    3    3  502    0 -0.12783237498E+04 -0.28913594081E+03 -0.46656684414E+03  0.13911850422E+04  0.25500000920E-02 0.  1.
       -2    1    3    3    0  502  0.12783237498E+04  0.28913594081E+03  0.36651606136E+03  0.13608986828E+04  0.25500000920E-02 0. -1.
</event>
<event>
 5   0  0.5217999E-06  0.2771166E+04  0.7818609E-02  0.8312276E-01
        1   -1    0    0  501    0  0.00000000000E+00  0.00000000000E+00  0.19021091117E+04  0.19021091117E+04  0.50400001928E-02 0.  1.
       -1   -1    0    0    0  501  0.00000000000E+00  0.00000000000E+00 -0.10093219088E+04  0.10093219088E+04  0.50400001928E-02 0. -1.
    10030    2    1    2    0    0  0.00000000000E+00  0.00000000000E+00  0.89278720290E+03  0.29114310205E+04  0.27711661078E+04 0.  0.
        1    1    3    3  502    0 -0.23882130411E+03 -0.13411909052E+04  0.71220509882E+03  0.15372263211E+04  0.50400001928E-02 0.  1.
       -1    1    3    3    0  502  0.23882130411E+03  0.13411909052E+04  0.18058210408E+03  0.13742046994E+04  0.50400001928E-02 0. -1.
</event>
<event>
 5   0  0.5107453E-06  0.2765665E+04  0.7818609E-02  0.8314008E-01
        1   -1    0    0  501    0  0.00000000000E+00  0.00000000000E+00  0.18348827173E+04  0.18348827173E+04  0.50400001928E-02 0.  1.
       -1   -1    0    0    0  501  0.00000000000E+00  0.00000000000E+00 -0.10421513565E+04  0.10421513565E+04  0.50400001928E-02 0. -1.
    10030    2    1    2    0    0  0.00000000000E+00  0.00000000000E+00  0.79273136075E+03  0.28770340738E+04  0.27656648480E+04 0.  0.
        2    1    3    3  502    0 -0.13229409948E+02  0.69094032946E+03 -0.84963630163E+03  0.10951965126E+04  0.25500000920E-02 0. -1.
       -2    1    3    3    0  502  0.13229409948E+02 -0.69094032946E+03  0.16423676624E+04  0.17818375612E+04  0.25500000920E-02 0.  1.
</event>
<event>
 5   0  0.1350863E-05  0.2749287E+04  0.7818609E-02  0.8319188E-01
        2   -1    0    0  501    0  0.00000000000E+00  0.00000000000E+00  0.18977328665E+04  0.18977328665E+04  0.25500000920E-02 0.  1.
       -2   -1    0    0    0  501  0.00000000000E+00  0.00000000000E+00 -0.99573800536E+03  0.99573800536E+03  0.25500000920E-02 0. -1.
    10030    2    1    2    0    0  0.00000000000E+00  0.00000000000E+00  0.90199486116E+03  0.28934708719E+04  0.27492869906E+04 0.  0.
        3    1    3    3  502    0  0.61342326112E+03 -0.11716023270E+04  0.84577567833E+03  0.15698014582E+04  0.10100000352E+00 0. -1.
       -3    1    3    3    0  502 -0.61342326112E+03  0.11716023270E+04  0.56219182824E+02  0.13236694137E+04  0.10100000352E+00 0.  1.
</event>
<event>
 5   0  0.5107453E-06  0.2855490E+04  0.7818609E-02  0.8286245E-01
       -1   -1    0    0    0  501  0.00000000000E+00  0.00000000000E+00  0.11196345107E+04  0.11196345107E+04  0.50400001928E-02 0.  1.
        1   -1    0    0  501    0  0.00000000000E+00  0.00000000000E+00 -0.18206433140E+04  0.18206433141E+04  0.50400001928E-02 0. -1.
    10030    2    1    2    0    0  0.00000000000E+00  0.00000000000E+00 -0.70100880339E+03  0.29402778247E+04  0.28554895104E+04 0.  0.
        2    1    3    3  502    0 -0.61003233538E+03 -0.11389701998E+04 -0.97604826893E+03  0.16192784781E+04  0.25500000920E-02 0. -1.
       -2    1    3    3    0  502  0.61003233538E+03  0.11389701998E+04  0.27503946554E+03  0.13209993467E+04  0.25500000920E-02 0.  1.
</event>
<event>
 5   0  0.1302063E-05  0.2802814E+04  0.7818609E-02  0.8302395E-01
        2   -1    0    0  501    0  0.00000000000E+00  0.00000000000E+00  0.13810867205E+04  0.13810867205E+04  0.25500000920E-02 0.  1.
       -2   -1    0    0    0  501  0.00000000000E+00  0.00000000000E+00 -0.14220263785E+04  0.14220263785E+04  0.25500000920E-02 0. -1.
    10030    2    1    2    0    0  0.00000000000E+00  0.00000000000E+00 -0.40939658001E+02  0.28031130990E+04  0.28028141198E+04 0.  0.
        2    1    3    3  502    0 -0.66954348768E+03  0.85505010584E+03  0.86536873819E+03  0.13886188168E+04  0.25500000920E-02 0.  1.
       -2    1    3    3    0  502  0.66954348768E+03 -0.85505010584E+03 -0.90630839619E+03  0.14144942822E+04  0.25500000920E-02 0. -1.
</event>
<event>
 5   0  0.4764214E-06  0.2702231E+04  0.7818609E-02  0.8334281E-01
       -1   -1    0    0    0  501  0.00000000000E+00  0.00000000000E+00  0.90889560723E+03  0.90889560724E+03  0.50400001928E-02 0.  1.
        1   -1    0    0  501    0  0.00000000000E+00  0.00000000000E+00 -0.20084962402E+04  0.20084962402E+04  0.50400001928E-02 0. -1.
    10030    2    1    2    0    0  0.00000000000E+00  0.00000000000E+00 -0.10996006330E+04  0.29173918474E+04  0.27022312335E+04 0.  0.
        3    1    3    3  502    0  0.10047418014E+04  0.28851817585E+02 -0.15245602080E+04  0.18260948368E+04  0.10100000352E+00 0. -1.
       -3    1    3    3    0  502 -0.10047418014E+04 -0.28851817585E+02  0.42495957503E+03  0.10912970107E+04  0.10100000352E+00 0.  1.
</event>
<event>
 5   0  0.5217999E-06  0.2822159E+04  0.7818609E-02  0.8296422E-01
        1   -1    0    0  501    0  0.00000000000E+00  0.00000000000E+00  0.15343429654E+04  0.15343429654E+04  0.50400001928E-02 0.  1.
       -1   -1    0    0    0  501  0.00000000000E+00  0.00000000000E+00 -0.12977182865E+04  0.12977182865E+04  0.50400001928E-02 0. -1.
    10030    2    1    2    0    0  0.00000000000E+00  0.00000000000E+00  0.23662467889E+03  0.28320612519E+04  0.28221586943E+04 0.  0.
        1    1    3    3  502    0 -0.79195291680E+03 -0.10789480409E+04  0.56690058473E+03  0.14535111181E+04  0.50400001928E-02 0.  1.
       -1    1    3    3    0  502  0.79195291680E+03  0.10789480409E+04 -0.33027590584E+03  0.13785501338E+04  0.50400001928E-02 0. -1.
</event>
<event>
 5   0  0.1330962E-05  0.2626667E+04  0.7818609E-02  0.8359199E-01
        2   -1    0    0  501    0  0.00000000000E+00  0.00000000000E+00  0.19512331481E+04  0.19512331481E+04  0.25500000920E-02 0. -1.
       -2   -1    0    0    0  501  0.00000000000E+00  0.00000000000E+00 -0.88397688650E+03  0.88397688650E+03  0.25500000920E-02 0.  1.
    10030    2    1    2    0    0  0.00000000000E+00  0.00000000000E+00  0.10672562616E+04  0.28352100346E+04  0.26266670920E+04 0.  0.
        4    1    3    3  502    0 -0.74857555244E+03 -0.57720671826E+03 -0.45052305635E+03  0.10471416287E+04  0.12699999809E+01 0.  1.
       -4    1    3    3    0  502  0.74857555244E+03  0.57720671826E+03  0.15177793179E+04  0.17880684059E+04  0.12699999809E+01 0. -1.
</event>
<event>
 5   0  0.1283052E-05  0.2793430E+04  0.7818609E-02  0.8305311E-01
       -2   -1    0    0    0  501  0.00000000000E+00  0.00000000000E+00  0.78990804144E+03  0.78990804144E+03  0.25500000920E-02 0. -1.
        2   -1    0    0  501    0  0.00000000000E+00  0.00000000000E+00 -0.24696707432E+04  0.24696707432E+04  0.25500000920E-02 0.  1.
    10030    2    1    2    0    0  0.00000000000E+00  0.00000000000E+00 -0.16797627017E+04  0.32595787846E+04  0.27934299918E+04 0.  0.
        5    1    3    3  502    0 -0.81341269465E+03 -0.10367603702E+04 -0.29973319065E+03  0.13514341836E+04  0.46999998093E+01 0. -1.
       -5    1    3    3    0  502  0.81341269465E+03  0.10367603702E+04 -0.13800295111E+04  0.19081446010E+04  0.46999998093E+01 0.  1.
</event>
<event>
 5   0  0.5107453E-06  0.2806587E+04  0.7818609E-02  0.8301226E-01
       -1   -1    0    0    0  501  0.00000000000E+00  0.00000000000E+00  0.10499615547E+04  0.10499615547E+04  0.50400001928E-02 0.  1.
        1   -1    0    0  501    0  0.00000000000E+00  0.00000000000E+00 -0.18755281281E+04  0.18755281281E+04  0.50400001928E-02 0. -1.
    10030    2    1    2    0    0  0.00000000000E+00  0.00000000000E+00 -0.82556657342E+03  0.29254896829E+04  0.28065868448E+04 0.  0.
        2    1    3    3  502    0 -0.79629521386E+03  0.71411083773E+03  0.53410252565E+03  0.11955358063E+04  0.25500000920E-02 0.  1.
       -2    1    3    3    0  502  0.79629521386E+03 -0.71411083773E+03 -0.13596690991E+04  0.17299538766E+04  0.25500000920E-02 0. -1.
</event>
<event>
 5   0  0.5107453E-06  0.2828388E+04  0.7818609E-02  0.8294509E-01
       -1   -1    0    0    0  501  0.00000000000E+00  0.00000000000E+00  0.16186649157E+04  0.16186649157E+04  0.50400001928E-02 0. -1.
        1   -1    0    0  501    0  0.00000000000E+00  0.00000000000E+00 -0.12355523129E+04  0.12355523130E+04  0.50400001928E-02 0.  1.
    10030    2    1    2    0    0  0.00000000000E+00  0.00000000000E+00  0.38311260272E+03  0.28542172286E+04  0.28283883612E+04 0.  0.
        2    1    3    3  502    0 -0.61111946368E+03  0.12751835227E+04  0.21136114629E+03  0.14297669564E+04  0.25500000920E-02 0.  1.
       -2    1    3    3    0  502  0.61111946368E+03 -0.12751835227E+04  0.17175145644E+03  0.14244502723E+04  0.25500000920E-02 0. -1.
</event>
<event>
 5   0  0.5217999E-06  0.2949018E+04  0.7818609E-02  0.8258441E-01
        1   -1    0    0  501    0  0.00000000000E+00  0.00000000000E+00  0.23366316175E+04  0.23366316175E+04  0.50400001928E-02 0.  1.
       -1   -1    0    0    0  501  0.00000000000E+00  0.00000000000E+00 -0.93047487561E+03  0.93047487563E+03  0.50400001928E-02 0. -1.
    10030    2    1    2    0    0  0.00000000000E+00  0.00000000000E+00  0.14061567419E+04  0.32671064931E+04  0.29490181510E+04 0.  0.
        1    1    3    3  502    0  0.10744826487E+04  0.23739969835E+03 -0.38426785238E+03  0.11655613933E+04  0.50400001928E-02 0. -1.
       -1    1    3    3    0  502 -0.10744826487E+04 -0.23739969835E+03  0.17904245943E+04  0.21015450999E+04  0.50400001928E-02 0.  1.
</event>
<event>
 5   0  0.5023691E-06  0.2809733E+04  0.7818609E-02  0.8300253E-01
       -1   -1    0    0    0  501  0.00000000000E+00  0.00000000000E+00  0.18724548356E+04  0.18724548356E+04  0.50400001928E-02 0. -1.
        1   -1    0    0  501    0  0.00000000000E+00  0.00000000000E+00 -0.10540440630E+04  0.10540440631E+04  0.50400001928E-02 0.  1.
    10030    2    1    2    0    0  0.00000000000E+00  0.00000000000E+00  0.81841077255E+03  0.29264988986E+04  0.28097330142E+04 0.  0.
        5    1    3    3  502    0  0.73920222085E+02 -0.47778475747E+03 -0.96465823795E+03  0.10790412781E+04  0.46999998093E+01 0.  1.
       -5    1    3    3    0  502 -0.73920222085E+02  0.47778475747E+03  0.17830690105E+04  0.18474576206E+04  0.46999998093E+01 0. -1.
</event>
<event>
 5   0  0.4764214E-06  0.2786673E+04  0.7818609E-02  0.8307418E-01
        1   -1    0    0  501    0  0.00000000000E+00  0.00000000000E+00  0.18168501443E+04  0.18168501443E+04  0.50400001928E-02 0.  1.
       -1   -1    0    0    0  501  0.00000000000E+00  0.00000000000E+00 -0.10685451720E+04  0.10685451721E+04  0.50400001928E-02 0. -1.
    10030    2    1    2    0    0  0.00000000000E+00  0.00000000000E+00  0.74830497227E+03  0.28853953164E+04  0.27866728908E+04 0.  0.
        3    1    3    3  502    0 -0.26200217907E+03 -0.12125252551E+04  0.10310764636E+04  0.16130658140E+04  0.10100000352E+00 0. -1.
       -3    1    3    3    0  502  0.26200217907E+03  0.12125252551E+04 -0.28277149133E+03  0.12723295024E+04  0.10100000352E+00 0.  1.
</event>
<event>
 5   0  0.1388269E-05  0.2813828E+04  0.7818609E-02  0.8298988E-01
       -2   -1    0    0    0  501  0.00000000000E+00  0.00000000000E+00  0.14283622597E+04  0.14283622597E+04  0.25500000920E-02 0. -1.
        2   -1    0    0  501    0  0.00000000000E+00  0.00000000000E+00 -0.13857874859E+04  0.13857874859E+04  0.25500000920E-02 0.  1.
    10030    2    1    2    0    0  0.00000000000E+00  0.00000000000E+00  0.42574773802E+02  0.28141497457E+04  0.28138276741E+04 0.  0.
        1    1    3    3  502    0  0.88565991479E+03 -0.98867132165E+03  0.48775483560E+03  0.14141319764E+04  0.50400001928E-02 0. -1.
       -1    1    3    3    0  502 -0.88565991479E+03  0.98867132165E+03 -0.44518006179E+03  0.14000177693E+04  0.50400001928E-02 0.  1.
</event>
<event>
 5   0  0.5023691E-06  0.2848247E+04  0.7818609E-02  0.8288444E-01
       -1   -1    0    0    0  501  0.00000000000E+00  0.00000000000E+00  0.16514939183E+04  0.16514939183E+04  0.50400001928E-02 0.  1.
        1   -1    0    0  501    0  0.00000000000E+00  0.00000000000E+00 -0.12280563472E+04  0.12280563472E+04  0.50400001928E-02 0. -1.
    10030    2    1    2    0    0  0.00000000000E+00  0.00000000000E+00  0.42343757107E+03  0.28795502656E+04  0.28482468916E+04 0.  0.
        5    1    3    3  502    0 -0.95010998686E+03 -0.19444441750E+02 -0.86060724754E+03  0.12820896997E+04  0.46999998093E+01 0. -1.
       -5    1    3    3    0  502  0.95010998686E+03  0.19444441750E+02  0.12840448186E+04  0.15974605659E+04  0.46999998093E+01 0.  1.
</event>
<event>
 5   0  0.5217999E-06  0.2793178E+04  0.7818609E-02  0.8305389E-01
       -1   -1    0    0    0  501  0.00000000000E+00  0.00000000000E+00  0.96910877174E+03  0.96910877175E+03  0.50400001928E-02 0. -1.
        1   -1    0    0  501    0  0.00000000000E+00  0.00000000000E+00 -0.20126339107E+04  0.20126339107E+04  0.50400001928E-02 0.  1.
    10030    2    1    2    0    0  0.00000000000E+00  0.00000000000E+00 -0.10435251389E+04  0.29817426824E+04  0.27931782451E+04 0.  0.
        1    1    3    3  502    0  0.27227898479E+03  0.10739073091E+04 -0.14294894636E+04  0.18085499387E+04  0.50400001928E-02 0.  1.
       -1    1    3    3    0  502 -0.27227898479E+03 -0.10739073091E+04  0.38596432467E+03  0.11731927438E+04  0.50400001928E-02 0. -1.
</event>
<event>
 5   0  0.4764214E-06  0.2793382E+04  0.7818609E-02  0.8305326E-01
        1   -1    0    0  501    0  0.00000000000E+00  0.00000000000E+00  0.11036054784E+04  0.11036054784E+04  0.50400001928E-02 0.  1.
       -1   -1    0    0    0  501  0.00000000000E+00  0.00000000000E+00 -0.17676112791E+04  0.17676112791E+04  0.50400001928E-02 0. -1.
    10030    2    1    2    0    0  0.00000000000E+00  0.00000000000E+00 -0.66400580070E+03  0.28712167575E+04  0.27933818152E+04 0.  0.
        3    1    3    3  502    0 -0.73885471315E+03  0.29412618971E+03  0.84817527124E+03  0.11626769988E+04  0.10100000352E+00 0.  1.
       -3    1    3    3    0  502  0.73885471315E+03 -0.29412618971E+03 -0.15121810719E+04  0.17085397587E+04  0.10100000352E+00 0. -1.
</event>
<event>
 5   0  0.5281919E-06  0.2791959E+04  0.7818609E-02  0.8305769E-01
       -1   -1    0    0    0  501  0.00000000000E+00  0.00000000000E+00  0.28271305977E+04  0.28271305977E+04  0.50400001928E-02 0. -1.
        1   -1    0    0  501    0  0.00000000000E+00  0.00000000000E+00 -0.68930645153E+03  0.68930645155E+03  0.50400001928E-02 0.  1.
    10030    2    1    2    0    0  0.00000000000E+00  0.00000000000E+00  0.21378241462E+04  0.35164370492E+04  0.27919594269E+04 0.  0.
        4    1    3    3  502    0 -0.29333187741E+03 -0.88130461743E+03 -0.24362603605E+03  0.96025865127E+03  0.12699999809E+01 0.  1.
       -4    1    3    3    0  502  0.29333187741E+03  0.88130461743E+03  0.23814501822E+04  0.25561783980E+04  0.12699999809E+01 0. -1.
</event>
<event>
 5   0  0.4764214E-06  0.2818999E+04  0.7818609E-02  0.8297394E-01
       -1   -1    0    0    0  501  0.00000000000E+00  0.00000000000E+00  0.12396510716E+04  0.12396510716E+04  0.50400001928E-02 0. -1.
        1   -1    0    0  501    0  0.00000000000E+00  0.00000000000E+00 -0.16026192324E+04  0.16026192325E+04  0.50400001928E-02 0.  1.
    10030    2    1    2    0    0  0.00000000000E+00  0.00000000000E+00 -0.36296816081E+03  0.28422703041E+04  0.28189988641E+04 0.  0.
        3    1    3    3  502    0 -0.48966161706E+03 -0.60332010147E+03  0.10042021866E+04  0.12697187428E+04  0.10100000352E+00 0. -1.
       -3    1    3    3    0  502  0.48966161706E+03  0.60332010147E+03 -0.13671703474E+04  0.15725515613E+04  0.10100000352E+00 0.  1.
</event>
<event>
 5   0  0.1388269E-05  0.2070751E+04  0.7818609E-02  0.8574238E-01
        2   -1    0    0  501    0  0.00000000000E+00  0.00000000000E+00  0.11371658546E+04  0.11371658546E+04  0.25500000920E-02 0.  1.
       -2   -1    0    0    0  501  0.00000000000E+00  0.00000000000E+00 -0.94269705563E+03  0.94269705564E+03  0.25500000920E-02 0. -1.
    10030    2    1    2    0    0  0.00000000000E+00  0.00000000000E+00  0.19446879892E+03  0.20798629102E+04  0.20707514606E+04 0.  0.
        1    1    3    3  502    0 -0.72676359258E+03 -0.73638912605E+03  0.57708501857E+02  0.10362357529E+04  0.50400001928E-02 0. -1.
       -1    1    3    3    0  502  0.72676359258E+03  0.73638912605E+03  0.13676029707E+03  0.10436271573E+04  0.50400001928E-02 0.  1.
</event>
<event>
 5   0  0.1350863E-05  0.2762083E+04  0.7818609E-02  0.8315138E-01
        2   -1    0    0  501    0  0.00000000000E+00  0.00000000000E+00  0.21427837327E+04  0.21427837327E+04  0.25500000920E-02 0. -1.
       -2   -1    0    0    0  501  0.00000000000E+00  0.00000000000E+00 -0.89009271973E+03  0.89009271973E+03  0.25500000920E-02 0.  1.
    10030    2    1    2    0    0  0.00000000000E+00  0.00000000000E+00  0.12526910130E+04  0.30328764525E+04  0.27620834169E+04 0.  0.
        3    1    3    3  502    0  0.65503890849E+03 -0.10993361120E+04  0.11965445189E+04  0.17519516702E+04  0.10100000352E+00 0. -1.
       -3    1    3    3    0  502 -0.65503890849E+03  0.10993361120E+04  0.56146494083E+02  0.12809247823E+04  0.10100000352E+00 0.  1.
</event>
<event>
 5   0  0.4764214E-06  0.2813105E+04  0.7818609E-02  0.8299211E-01
        1   -1    0    0  501    0  0.00000000000E+00  0.00000000000E+00  0.13842770817E+04  0.13842770818E+04  0.50400001928E-02 0.  1.
       -1   -1    0    0    0  501  0.00000000000E+00  0.00000000000E+00 -0.14291859581E+04  0.14291859581E+04  0.50400001928E-02 0. -1.
    10030    2    1    2    0    0  0.00000000000E+00  0.00000000000E+00 -0.44908876330E+02  0.28134630398E+04  0.28131045962E+04 0.  0.
        3    1    3    3  502    0  0.92638761913E+03 -0.91045713419E+03 -0.56221121009E+03  0.14153471903E+04  0.10100000352E+00 0. -1.
       -3    1    3    3    0  502 -0.92638761913E+03  0.91045713419E+03  0.51730233377E+03  0.13981158496E+04  0.10100000352E+00 0.  1.
</event>
<event>
 5   0  0.4447500E-06  0.2012809E+04  0.7818609E-02  0.8600655E-01
       -4   -1    0    0    0  501  0.00000000000E+00  0.00000000000E+00  0.11490379993E+04  0.11490387012E+04  0.12699999809E+01 0.  1.
        4   -1    0    0  501    0  0.00000000000E+00  0.00000000000E+00 -0.88147515793E+03  0.88147607282E+03  0.12699999809E+01 0. -1.
    10030    2    1    2    0    0  0.00000000000E+00  0.00000000000E+00  0.26756284137E+03  0.20305147740E+04  0.20128090752E+04 0.  0.
        2    1    3    3  502    0 -0.26325240441E+03  0.94625999723E+03  0.35512039299E+03  0.10444234315E+04  0.25500000920E-02 0.  1.
       -2    1    3    3    0  502  0.26325240441E+03 -0.94625999723E+03 -0.87557551617E+02  0.98609134244E+03  0.25500000920E-02 0. -1.
</event>
<event>
 5   0  0.5281919E-06  0.2809895E+04  0.7818609E-02  0.8300203E-01
        1   -1    0    0  501    0  0.00000000000E+00  0.00000000000E+00  0.22336724822E+04  0.22336724822E+04  0.50400001928E-02 0. -1.
       -1   -1    0    0    0  501  0.00000000000E+00  0.00000000000E+00 -0.88369145563E+03  0.88369145564E+03  0.50400001928E-02 0.  1.
    10030    2    1    2    0    0  0.00000000000E+00  0.00000000000E+00  0.13499810266E+04  0.31173639378E+04  0.28098948644E+04 0.  0.
        4    1    3    3  502    0  0.12161488749E+04 -0.11444388646E+03 -0.95048784314E+02  0.12252148274E+04  0.12699999809E+01 0.  1.
       -4    1    3    3    0  502 -0.12161488749E+04  0.11444388646E+03  0.14450298109E+04  0.18921491105E+04  0.12699999809E+01 0. -1.
</event>
<event>
 5   0  0.5107453E-06  0.2801097E+04  0.7818609E-02  0.8302928E-01
       -1   -1    0    0    0  501  0.00000000000E+00  0.00000000000E+00  0.88847563986E+03  0.88847563987E+03  0.50400001928E-02 0. -1.
        1   -1    0    0  501    0  0.00000000000E+00  0.00000000000E+00 -0.22077542776E+04  0.22077542777E+04  0.50400001928E-02 0.  1.
    10030    2    1    2    0    0  0.00000000000E+00  0.00000000000E+00 -0.13192786378E+04  0.30962299175E+04  0.28010968527E+04 0.  0.
        2    1    3    3  502    0 -0.12383215460E+04 -0.19377037115E+03 -0.13504239520E+04  0.18424527289E+04  0.25500000920E-02 0.  1.
       -2    1    3    3    0  502  0.12383215460E+04  0.19377037115E+03  0.31145314231E+02  0.12537771886E+04  0.25500000920E-02 0. -1.
</event>
<event>
 5   0  0.5217999E-06  0.2804268E+04  0.7818609E-02  0.8301945E-01
       -1   -1    0    0    0  501  0.00000000000E+00  0.00000000000E+00  0.11038701613E+04  0.11038701613E+04  0.50400001928E-02 0. -1.
        1   -1    0    0  501    0  0.00000000000E+00  0.00000000000E+00 -0.17809880220E+04  0.17809880220E+04  0.50400001928E-02 0.  1.
    10030    2    1    2    0    0  0.00000000000E+00  0.00000000000E+00 -0.67711786070E+03  0.28848581833E+04  0.28042678440E+04 0.  0.
        1    1    3    3  502    0  0.79022233703E+03  0.94626075672E+03 -0.10256751910E+04  0.16037051971E+04  0.50400001928E-02 0.  1.
       -1    1    3    3    0  502 -0.79022233703E+03 -0.94626075672E+03  0.34855733033E+03  0.12811529863E+04  0.50400001928E-02 0. -1.
</event>
<event>
 5   0  0.5023691E-06  0.3006235E+04  0.7818609E-02  0.8241953E-01
        1   -1    0    0  501    0  0.00000000000E+00  0.00000000000E+00  0.11946886366E+04  0.11946886366E+04  0.50400001928E-02 0. -1.
       -1   -1    0    0    0  501  0.00000000000E+00  0.00000000000E+00 -0.18911722196E+04  0.18911722196E+04  0.50400001928E-02 0.  1.
    10030    2    1    2    0    0  0.00000000000E+00  0.00000000000E+00 -0.69648358297E+03  0.30858608562E+04  0.30062348283E+04 0.  0.
        5    1    3    3  502    0 -0.45299955388E+03 -0.12609948913E+04 -0.10474769638E+04  0.17007488914E+04  0.46999998093E+01 0.  1.
       -5    1    3    3    0  502  0.45299955388E+03  0.12609948913E+04  0.35099338087E+03  0.13851119649E+04  0.46999998093E+01 0. -1.
</event>
<event>
 5   0  0.1283052E-05  0.2798769E+04  0.7818609E-02  0.8303651E-01
        2   -1    0    0  501    0  0.00000000000E+00  0.00000000000E+00  0.14879586150E+04  0.14879586150E+04  0.25500000920E-02 0.  1.
       -2   -1    0    0    0  501  0.00000000000E+00  0.00000000000E+00 -0.13160833005E+04  0.13160833005E+04  0.25500000920E-02 0. -1.
    10030    2    1    2    0    0  0.00000000000E+00  0.00000000000E+00  0.17187531452E+03  0.28040419156E+04  0.27987693618E+04 0.  0.
        5    1    3    3  502    0  0.12507918383E+04 -0.60405345327E+03  0.25624199830E+03  0.14124598574E+04  0.46999998093E+01 0.  1.
       -5    1    3    3    0  502 -0.12507918383E+04  0.60405345327E+03 -0.84366683781E+02  0.13915820581E+04  0.46999998093E+01 0. -1.
</event>
<event>
 5   0  0.1330962E-05  0.2768219E+04  0.7818609E-02  0.8313203E-01
        2   -1    0    0  501    0  0.00000000000E+00  0.00000000000E+00  0.17578441924E+04  0.17578441924E+04  0.25500000920E-02 0. -1.
       -2   -1    0    0    0  501  0.00000000000E+00  0.00000000000E+00 -0.10898347484E+04  0.10898347484E+04  0.25500000920E-02 0.  1.
    10030    2    1    2    0    0  0.00000000000E+00  0.00000000000E+00  0.66800944402E+03  0.28476789408E+04  0.27682194156E+04 0.  0.
        4    1    3    3  502    0  0.97195515801E+03 -0.78718890153E+03  0.94380585149E+03  0.15668868160E+04  0.12699999809E+01 0.  1.
       -4    1    3    3    0  502 -0.97195515801E+03  0.78718890153E+03 -0.27579640747E+03  0.12807921249E+04  0.12699999809E+01 0. -1.
</event>
<event>
 5   0  0.5023691E-06  0.2757487E+04  0.7818609E-02  0.8316590E-01
       -1   -1    0    0    0  501  0.00000000000E+00  0.00000000000E+00  0.13472467705E+04  0.13472467705E+04  0.50400001928E-02 0.  1.
        1   -1    0    0  501    0  0.00000000000E+00  0.00000000000E+00 -0.14109770238E+04  0.14109770238E+04  0.50400001928E-02 0. -1.
    10030    2    1    2    0    0  0.00000000000E+00  0.00000000000E+00 -0.63730253347E+02  0.27582237943E+04  0.27574874350E+04 0.  0.
        5    1    3    3  502    0  0.13448577588E+04  0.27715110753E+03  0.92494340377E+02  0.13762385044E+04  0.46999998093E+01 0.  1.
       -5    1    3    3    0  502 -0.13448577588E+04 -0.27715110753E+03 -0.15622459372E+03  0.13819852899E+04  0.46999998093E+01 0. -1.
</event>
<event>
 5   0  0.4447500E-06  0.2824787E+04  0.7818609E-02  0.8295614E-01
       -3   -1    0    0    0  501  0.00000000000E+00  0.00000000000E+00  0.15938313074E+04  0.15938313106E+04  0.10100000352E+00 0. -1.
        3   -1    0    0  501    0  0.00000000000E+00  0.00000000000E+00 -0.12516100105E+04  0.12516100146E+04  0.10100000352E+00 0.  1.
    10030    2    1    2    0    0  0.00000000000E+00  0.00000000000E+00  0.34222129687E+03  0.28454413252E+04  0.28247868803E+04 0.  0.
        4    1    3    3  502    0 -0.50548621207E+03 -0.11148653575E+04 -0.53860653344E+03  0.13373629600E+04  0.12699999809E+01 0.  1.
       -4    1    3    3    0  502  0.50548621207E+03  0.11148653575E+04  0.88082783031E+03  0.15080783652E+04  0.12699999809E+01 0. -1.
</event>
<event>
 5   0  0.1388269E-05  0.2692979E+04  0.7818609E-02  0.8337287E-01
       -2   -1    0    0    0  501  0.00000000000E+00  0.00000000000E+00  0.89196217270E+03  0.89196217271E+03  0.25500000920E-02 0.  1.
        2   -1    0    0  501    0  0.00000000000E+00  0.00000000000E+00 -0.20326354513E+04  0.20326354513E+04  0.25500000920E-02 0. -1.
    10030    2    1    2    0    0  0.00000000000E+00  0.00000000000E+00 -0.11406732786E+04  0.29245976240E+04  0.26929789702E+04 0.  0.
        1    1    3    3  502    0  0.87918235741E+02  0.91817085436E+03 -0.16356585679E+04  0.18778035799E+04  0.50400001928E-02 0. -1.
       -1    1    3    3    0  502 -0.87918235741E+02 -0.91817085436E+03  0.49498528935E+03  0.10467940441E+04  0.50400001928E-02 0.  1.
</event>
<event>
 5   0  0.1330962E-05  0.2779515E+04  0.7818609E-02  0.8309657E-01
       -2   -1    0    0    0  501  0.00000000000E+00  0.00000000000E+00  0.14108118618E+04  0.14108118618E+04  0.25500000920E-02 0. -1.
        2   -1    0    0  501    0  0.00000000000E+00  0.00000000000E+00 -0.13690169472E+04  0.13690169472E+04  0.25500000920E-02 0.  1.
    10030    2    1    2    0    0  0.00000000000E+00  0.00000000000E+00  0.41794914529E+02  0.27798288090E+04  0.27795145965E+04 0.  0.
        4    1    3    3  502    0 -0.10118551307E+03  0.13621041998E+04  0.27755338750E+03  0.13937732438E+04  0.12699999809E+01 0.  1.
       -4    1    3    3    0  502  0.10118551307E+03 -0.13621041998E+04 -0.23575847297E+03  0.13860555652E+04  0.12699999809E+01 0. -1.
</event>
<event>
 5   0  0.1330962E-05  0.2802880E+04  0.7818609E-02  0.8302375E-01
       -2   -1    0    0    0  501  0.00000000000E+00  0.00000000000E+00  0.92094503355E+03  0.92094503356E+03  0.25500000920E-02 0. -1.
        2   -1    0    0  501    0  0.00000000000E+00  0.00000000000E+00 -0.21326291825E+04  0.21326291825E+04  0.25500000920E-02 0.  1.
    10030    2    1    2    0    0  0.00000000000E+00  0.00000000000E+00 -0.12116841490E+04  0.30535742161E+04  0.28028801288E+04 0.  0.
        4    1    3    3  502    0 -0.41571312206E+02  0.53361270881E+03 -0.20168947871E+04  0.20867047928E+04  0.12699999809E+01 0.  1.
       -4    1    3    3    0  502  0.41571312206E+02 -0.53361270881E+03  0.80521063816E+03  0.96686942330E+03  0.12699999809E+01 0. -1.
</event>
<event>
 5   0  0.5217999E-06  0.2796456E+04  0.7818609E-02  0.8304370E-01
       -1   -1    0    0    0  501  0.00000000000E+00  0.00000000000E+00  0.16165235739E+04  0.16165235739E+04  0.50400001928E-02 0.  1.
        1   -1    0    0  501    0  0.00000000000E+00  0.00000000000E+00 -0.12094107373E+04  0.12094107373E+04  0.50400001928E-02 0. -1.
    10030    2    1    2    0    0  0.00000000000E+00  0.00000000000E+00  0.40711283655E+03  0.28259343112E+04  0.27964555905E+04 0.  0.
        1    1    3    3  502    0  0.13118840055E+04  0.13325572337E+03  0.67347909745E+03  0.14806656701E+04  0.50400001928E-02 0.  1.
       -1    1    3    3    0  502 -0.13118840055E+04 -0.13325572337E+03 -0.26636626089E+03  0.13452686411E+04  0.50400001928E-02 0. -1.
</event>
<event>
 5   0  0.4764214E-06  0.2802514E+04  0.7818609E-02  0.8302488E-01
        1   -1    0    0  501    0  0.00000000000E+00  0.00000000000E+00  0.21387011914E+04  0.21387011914E+04  0.50400001928E-02 0.  1.
       -1   -1    0    0    0  501  0.00000000000E+00  0.00000000000E+00 -0.91809039425E+03  0.91809039427E+03  0.50400001928E-02 0. -1.
    10030    2    1    2    0    0  0.00000000000E+00  0.00000000000E+00  0.12206107971E+04  0.30567915857E+04  0.28025138858E+04 0.  0.
        3    1    3    3  502    0 -0.53130532319E+03 -0.74840457067E+03 -0.54459709504E+03  0.10672304128E+04  0.10100000352E+00 0. -1.
       -3    1    3    3    0  502  0.53130532319E+03  0.74840457067E+03  0.17652078922E+04  0.19895611729E+04  0.10100000352E+00 0.  1.
</event>
<event>
 5   0  0.4764214E-06  0.2802488E+04  0.7818609E-02  0.8302496E-01
       -1   -1    0    0    0  501  0.00000000000E+00  0.00000000000E+00  0.17631275316E+04  0.17631275316E+04  0.50400001928E-02 0.  1.
        1   -1    0    0  501    0  0.00000000000E+00  0.00000000000E+00 -0.11136375925E+04  0.11136375925E+04  0.50400001928E-02 0. -1.
    10030    2    1    2    0    0  0.00000000000E+00  0.00000000000E+00  0.64948993905E+03  0.28767651241E+04  0.28024882512E+04 0.  0.
        3    1    3    3  502    0  0.11178837290E+03  0.11791318562E+04  0.10933465879E+04  0.16119104646E+04  0.10100000352E+00 0.  1.
       -3    1    3    3    0  502 -0.11178837290E+03 -0.11791318562E+04 -0.44385664885E+03  0.12648546594E+04  0.10100000352E+00 0. -1.
</event>
<event>
 5   0  0.1330962E-05  0.2782906E+04  0.7818609E-02  0.8308595E-01
       -2   -1    0    0    0  501  0.00000000000E+00  0.00000000000E+00  0.73591050164E+03  0.73591050164E+03  0.25500000920E-02 0.  1.
        2   -1    0    0  501    0  0.00000000000E+00  0.00000000000E+00 -0.26309462100E+04  0.26309462100E+04  0.25500000920E-02 0. -1.
    10030    2    1    2    0    0  0.00000000000E+00  0.00000000000E+00 -0.18950357083E+04  0.33668567116E+04  0.27829056363E+04 0.  0.
        4    1    3    3  502    0  0.37992848987E+03 -0.12391292736E+04 -0.15600724153E+04  0.20282047648E+04  0.12699999809E+01 0. -1.
       -4    1    3    3    0  502 -0.37992848987E+03  0.12391292736E+04 -0.33496329301E+03  0.13386519468E+04  0.12699999809E+01 0.  1.
</event>
<event>
 5   0  0.5281919E-06  0.2812950E+04  0.7818609E-02  0.8299259E-01
        1   -1    0    0  501    0  0.00000000000E+00  0.00000000000E+00  0.15097467033E+04  0.15097467033E+04  0.50400001928E-02 0. -1.
       -1   -1    0    0    0  501  0.00000000000E+00  0.00000000000E+00 -0.13102675221E+04  0.13102675221E+04  0.50400001928E-02 0.  1.
    10030    2    1    2    0    0  0.00000000000E+00  0.00000000000E+00  0.19947918114E+03  0.28200142254E+04  0.28129501040E+04 0.  0.
        4    1    3    3  502    0 -0.91727260505E+03  0.90621816009E+03  0.66288871485E+03  0.14498425593E+04  0.12699999809E+01 0. -1.
       -4    1    3    3    0  502  0.91727260505E+03 -0.90621816009E+03 -0.46340953371E+03  0.13701716661E+04  0.12699999809E+01 0.  1.
</event>
<event>
 5   0  0.1388269E-05  0.2737715E+04  0.7818609E-02  0.8322870E-01
        2   -1    0    0  501    0  0.00000000000E+00  0.00000000000E+00  0.98671166766E+03  0.98671166766E+03  0.25500000920E-02 0.  1.
       -2   -1    0    0    0  501  0.00000000000E+00  0.00000000000E+00 -0.18990061009E+04  0.18990061009E+04  0.25500000920E-02 0. -1.
    10030    2    1    2    0    0  0.00000000000E+00  0.00000000000E+00 -0.91229443325E+03  0.28857177686E+04  0.27377154540E+04 0.  0.
        1    1    3    3  502    0 -0.26215271371E+03 -0.43900376372E+03 -0.17945646592E+04  0.18659878526E+04  0.50400001928E-02 0. -1.
       -1    1    3    3    0  502  0.26215271371E+03  0.43900376372E+03  0.88227022598E+03  0.10197299160E+04  0.50400001928E-02 0.  1.
</event>
<event>
 5   0  0.5023691E-06  0.2826724E+04  0.7818609E-02  0.8295019E-01
       -1   -1    0    0    0  501  0.00000000000E+00  0.00000000000E+00  0.11942837059E+04  0.11942837059E+04  0.50400001928E-02 0. -1.
        1   -1    0    0  501    0  0.00000000000E+00  0.00000000000E+00 -0.16726280520E+04  0.16726280520E+04  0.50400001928E-02 0.  1.
    10030    2    1    2    0    0  0.00000000000E+00  0.00000000000E+00 -0.47834434612E+03  0.28669117579E+04  0.28267242020E+04 0.  0.
        5    1    3    3  502    0 -0.47225042458E+03 -0.21037906573E+03  0.10949340290E+04  0.12108602036E+04  0.46999998093E+01 0. -1.
       -5    1    3    3    0  502  0.47225042458E+03  0.21037906573E+03 -0.15732783751E+04  0.16560515543E+04  0.46999998093E+01 0.  1.
</event>
<event>
 5   0  0.1350863E-05  0.2797159E+04  0.7818609E-02  0.8304151E-01
       -2   -1    0    0    0  501  0.00000000000E+00  0.00000000000E+00  0.11331425010E+04  0.11331425010E+04  0.25500000920E-02 0. -1.
        2   -1    0    0  501    0  0.00000000000E+00  0.00000000000E+00 -0.17261943869E+04  0.17261943869E+04  0.25500000920E-02 0.  1.
    10030    2    1    2    0    0  0.00000000000E+00  0.00000000000E+00 -0.59305188583E+03  0.28593368879E+04  0.27971587190E+04 0.  0.
        3    1    3    3  502    0 -0.50136455710E+02 -0.13654485380E+04  0.85385143097E+01  0.13663953639E+04  0.10100000352E+00 0. -1.
       -3    1    3    3    0  502  0.50136455710E+02  0.13654485380E+04 -0.60159040014E+03  0.14929415239E+04  0.10100000352E+00 0.  1.
</event>
<event>
 5   0  0.1388269E-05  0.2781435E+04  0.7818609E-02  0.8309055E-01
        2   -1    0    0  501    0  0.00000000000E+00  0.00000000000E+00  0.19103828816E+04  0.19103828816E+04  0.25500000920E-02 0. -1.
       -2   -1    0    0    0  501  0.00000000000E+00  0.00000000000E+00 -0.10124120300E+04  0.10124120300E+04  0.25500000920E-02 0.  1.
    10030    2    1    2    0    0  0.00000000000E+00  0.00000000000E+00  0.89797085161E+03  0.29227949115E+04  0.27814346019E+04 0.  0.
        1    1    3    3  502    0 -0.19696636728E+03 -0.13915028656E+03  0.18882429389E+04  0.19035808227E+04  0.50400001928E-02 0. -1.
       -1    1    3    3    0  502  0.19696636728E+03  0.13915028656E+03 -0.99027208729E+03  0.10192140889E+04  0.50400001928E-02 0.  1.
</event>
<event>
 5   0  0.5023691E-06  0.2778566E+04  0.7818609E-02  0.8309954E-01
       -1   -1    0    0    0  501  0.00000000000E+00  0.00000000000E+00  0.10005734562E+04  0.10005734562E+04  0.50400001928E-02 0.  1.
        1   -1    0    0  501    0  0.00000000000E+00  0.00000000000E+00 -0.19290005017E+04  0.19290005017E+04  0.50400001928E-02 0. -1.
    10030    2    1    2    0    0  0.00000000000E+00  0.00000000000E+00 -0.92842704551E+03  0.29295739580E+04  0.27785656005E+04 0.  0.
        5    1    3    3  502    0 -0.72186182453E+03  0.11854581353E+04 -0.40017438212E+03  0.14444919904E+04  0.46999998093E+01 0. -1.
       -5    1    3    3    0  502  0.72186182453E+03 -0.11854581353E+04 -0.52825266339E+03  0.14850819676E+04  0.46999998093E+01 0.  1.
</event>
<event>
 5   0  0.5107453E-06  0.2973189E+04  0.7818609E-02  0.8251429E-01
       -1   -1    0    0    0  501  0.00000000000E+00  0.00000000000E+00  0.18822070160E+04  0.18822070160E+04  0.50400001928E-02 0.  1.
        1   -1    0    0  501    0  0.00000000000E+00  0.00000000000E+00 -0.11741339469E+04  0.11741339469E+04  0.50400001928E-02 0. -1.
    10030    2    1    2    0    0  0.00000000000E+00  0.00000000000E+00  0.70807306906E+03  0.30563409629E+04  0.29731889631E+04 0.  0.
        2    1    3    3  502    0  0.90565146756E+03 -0.11787182036E+04  0.33394593102E+03  0.15235160219E+04  0.25500000920E-02 0. -1.
       -2    1    3    3    0  502 -0.90565146756E+03  0.11787182036E+04  0.37412713804E+03  0.15328249410E+04  0.25500000920E-02 0.  1.
</event>
<event>
 5   0  0.1302063E-05  0.2756406E+04  0.7818609E-02  0.8316932E-01
        2   -1    0    0  501    0  0.00000000000E+00  0.00000000000E+00  0.14922713162E+04  0.14922713162E+04  0.25500000920E-02 0. -1.
       -2   -1    0    0    0  501  0.00000000000E+00  0.00000000000E+00 -0.12728543221E+04  0.12728543221E+04  0.25500000920E-02 0.  1.
    10030    2    1    2    0    0  0.00000000000E+00  0.00000000000E+00  0.21941699412E+03  0.27651256383E+04  0.27564063521E+04 0.  0.
        2    1    3    3  502    0  0.18759204130E+03 -0.45989170992E+03  0.13993695436E+04  0.14848994169E+04  0.25500000920E-02 0. -1.
       -2    1    3    3    0  502 -0.18759204130E+03  0.45989170992E+03 -0.11799525495E+04  0.12802262214E+04  0.25500000920E-02 0.  1.
</event>
<event>
 5   0  0.1302063E-05  0.2930518E+04  0.7818609E-02  0.8263855E-01
       -2   -1    0    0    0  501  0.00000000000E+00  0.00000000000E+00  0.14590562701E+04  0.14590562701E+04  0.25500000920E-02 0.  1.
        2   -1    0    0  501    0  0.00000000000E+00  0.00000000000E+00 -0.14714883071E+04  0.14714883071E+04  0.25500000920E-02 0. -1.
    10030    2    1    2    0    0  0.00000000000E+00  0.00000000000E+00 -0.12432037006E+02  0.29305445773E+04  0.29305182074E+04 0.  0.
        2    1    3    3  502    0 -0.67713725326E+03 -0.66713974677E+03 -0.11213018074E+04  0.14700027363E+04  0.25500000920E-02 0. -1.
       -2    1    3    3    0  502  0.67713725326E+03  0.66713974677E+03  0.11088697704E+04  0.14605418410E+04  0.25500000920E-02 0.  1.
</event>
<event>
 5   0  0.4764214E-06  0.2754923E+04  0.7818609E-02  0.8317401E-01
        1   -1    0    0  501    0  0.00000000000E+00  0.00000000000E+00  0.19249255592E+04  0.19249255592E+04  0.50400001928E-02 0. -1.
       -1   -1    0    0    0  501  0.00000000000E+00  0.00000000000E+00 -0.98570064983E+03  0.98570064984E+03  0.50400001928E-02 0.  1.
    10030    2    1    2    0    0  0.00000000000E+00  0.00000000000E+00  0.93922490941E+03  0.29106262091E+04  0.27549231384E+04 0.  0.
        3    1    3    3  502    0  0.73085954453E+03  0.10336521225E+04 -0.10403697570E+03  0.12702031675E+04  0.10100000352E+00 0.  1.
       -3    1    3    3    0  502 -0.73085954453E+03 -0.10336521225E+04  0.10432618851E+04  0.16404230416E+04  0.10100000352E+00 0. -1.
</event>
<event>
 5   0  0.5107453E-06  0.2885301E+04  0.7818609E-02  0.8277264E-01
       -1   -1    0    0    0  501  0.00000000000E+00  0.00000000000E+00  0.15703320462E+04  0.15703320462E+04  0.50400001928E-02 0.  1.
        1   -1    0    0  501    0  0.00000000000E+00  0.00000000000E+00 -0.13253504199E+04  0.13253504199E+04  0.50400001928E-02 0. -1.
    10030    2    1    2    0    0  0.00000000000E+00  0.00000000000E+00  0.24498162633E+03  0.28956824661E+04  0.28853008417E+04 0.  0.
        2    1    3    3  502    0  0.14150288472E+04 -0.19611844376E+03 -0.79407471736E+02  0.14307601577E+04  0.25500000920E-02 0. -1.
       -2    1    3    3    0  502 -0.14150288472E+04  0.19611844376E+03  0.32438909807E+03  0.14649223083E+04  0.25500000920E-02 0.  1.
</event>
<event>
 5   0  0.1388269E-05  0.2789238E+04  0.7818609E-02  0.8306617E-01
       -2   -1    0    0    0  501  0.00000000000E+00  0.00000000000E+00  0.72510186588E+03  0.72510186589E+03  0.25500000920E-02 0. -1.
        2   -1    0    0  501    0  0.00000000000E+00  0.00000000000E+00 -0.26823291579E+04  0.26823291579E+04  0.25500000920E-02 0.  1.
    10030    2    1    2    0    0  0.00000000000E+00  0.00000000000E+00 -0.19572272920E+04  0.34074310238E+04  0.27892378008E+04 0.  0.
        1    1    3    3  502    0  0.94021431634E+03  0.73355834834E+03 -0.18619590015E+04  0.22111088020E+04  0.50400001928E-02 0.  1.
       -1    1    3    3    0  502 -0.94021431634E+03 -0.73355834834E+03 -0.95268290508E+02  0.11963222218E+04  0.50400001928E-02 0. -1.
</event>
<event>
 5   0  0.5281919E-06  0.2286266E+04  0.7818609E-02  0.8483356E-01
       -1   -1    0    0    0  501  0.00000000000E+00  0.00000000000E+00  0.66638200346E+03  0.66638200348E+03  0.50400001928E-02 0. -1.
        1   -1    0    0  501    0  0.00000000000E+00  0.00000000000E+00 -0.19609660549E+04  0.19609660549E+04  0.50400001928E-02 0.  1.
    10030    2    1    2    0    0  0.00000000000E+00  0.00000000000E+00 -0.12945840514E+04  0.26273480584E+04  0.22862655038E+04 0.  0.
        4    1    3    3  502    0  0.77245675543E+03 -0.84238371917E+03 -0.67169992166E+03  0.13257006325E+04  0.12699999809E+01 0. -1.
       -4    1    3    3    0  502 -0.77245675543E+03  0.84238371917E+03 -0.62288412978E+03  0.13016474259E+04  0.12699999809E+01 0.  1.
</event>
<event>
 5   0  0.1388269E-05  0.2786715E+04  0.7818609E-02  0.8307405E-01
        2   -1    0    0  501    0  0.00000000000E+00  0.00000000000E+00  0.16203461318E+04  0.16203461318E+04  0.25500000920E-02 0. -1.
       -2   -1    0    0    0  501  0.00000000000E+00  0.00000000000E+00 -0.11981667790E+04  0.11981667790E+04  0.25500000920E-02 0.  1.
    10030    2    1    2    0    0  0.00000000000E+00  0.00000000000E+00  0.42217935282E+03  0.28185129108E+04  0.27867148441E+04 0.  0.
        1    1    3    3  502    0 -0.71142588186E+03 -0.94680377797E+03  0.95355097899E+03  0.15204682334E+04  0.50400001928E-02 0. -1.
       -1    1    3    3    0  502  0.71142588186E+03  0.94680377797E+03 -0.53137162616E+03  0.12980446774E+04  0.50400001928E-02 0.  1.
</event>
<event>
 5   0  0.5217999E-06  0.2819844E+04  0.7818609E-02  0.8297134E-01
       -1   -1    0    0    0  501  0.00000000000E+00  0.00000000000E+00  0.86992181780E+03  0.86992181781E+03  0.50400001928E-02 0. -1.
        1   -1    0    0  501    0  0.00000000000E+00  0.00000000000E+00 -0.22851247501E+04  0.22851247501E+04  0.50400001928E-02 0.  1.
    10030    2    1    2    0    0  0.00000000000E+00  0.00000000000E+00 -0.14152029323E+04  0.31550465679E+04  0.28198438797E+04 0.  0.
        1    1    3    3  502    0  0.55305290855E+03 -0.10774161960E+04  0.10014928519E+03  0.12152049450E+04  0.50400001928E-02 0. -1.
       -1    1    3    3    0  502 -0.55305290855E+03  0.10774161960E+04 -0.15153522175E+04  0.19398416229E+04  0.50400001928E-02 0.  1.
</event>
<event>
 5   0  0.1330962E-05  0.2811808E+04  0.7818609E-02  0.8299612E-01
       -2   -1    0    0    0  501  0.00000000000E+00  0.00000000000E+00  0.13877232502E+04  0.13877232502E+04  0.25500000920E-02 0.  1.
        2   -1    0    0  501    0  0.00000000000E+00  0.00000000000E+00 -0.14243227879E+04  0.14243227879E+04  0.25500000920E-02 0. -1.
    10030    2    1    2    0    0  0.00000000000E+00  0.00000000000E+00 -0.36599537745E+02  0.28120460381E+04  0.28118078516E+04 0.  0.
        4    1    3    3  502    0  0.32887825860E+03  0.39559434903E+03 -0.13268097915E+04  0.14230536300E+04  0.12699999809E+01 0. -1.
       -4    1    3    3    0  502 -0.32887825860E+03 -0.39559434903E+03  0.12902102538E+04  0.13889924081E+04  0.12699999809E+01 0.  1.
</event>
<event>
 5   0  0.4447500E-06  0.2816610E+04  0.7818609E-02  0.8298130E-01
       -3   -1    0    0    0  501  0.00000000000E+00  0.00000000000E+00  0.85935752789E+03  0.85935753382E+03  0.10100000352E+00 0.  1.
        3   -1    0    0  501    0  0.00000000000E+00  0.00000000000E+00 -0.23079137656E+04  0.23079137678E+04  0.10100000352E+00 0. -1.
    10030    2    1    2    0    0  0.00000000000E+00  0.00000000000E+00 -0.14485562377E+04  0.31672713016E+04  0.28166100767E+04 0.  0.
        2    1    3    3  502    0  0.11511390559E+04  0.80680700348E+03 -0.62843546353E+03  0.15398018699E+04  0.25500000920E-02 0. -1.
       -2    1    3    3    0  502 -0.11511390559E+04 -0.80680700348E+03 -0.82012077419E+03  0.16274694317E+04  0.25500000920E-02 0.  1.
</event>
<event>
 5   0  0.1350863E-05  0.2800614E+04  0.7818609E-02  0.8303078E-01
       -2   -1    0    0    0  501  0.00000000000E+00  0.00000000000E+00  0.16443171150E+04  0.16443171150E+04  0.25500000920E-02 0. -1.
        2   -1    0    0  501    0  0.00000000000E+00  0.00000000000E+00 -0.11925069683E+04  0.11925069683E+04  0.25500000920E-02 0.  1.
    10030    2    1    2    0    0  0.00000000000E+00  0.00000000000E+00  0.45181014674E+03  0.28368240833E+04  0.28006139454E+04 0.  0.
        3    1    3    3  502    0 -0.76213378760E+03 -0.11747358703E+04  0.22316222244E+03  0.14179751983E+04  0.10100000352E+00 0. -1.
       -3    1    3    3    0  502  0.76213378760E+03  0.11747358703E+04  0.22864792430E+03  0.14188488851E+04  0.10100000352E+00 0.  1.
</event>
<event>
 5   0  0.1302063E-05  0.2790665E+04  0.7818609E-02  0.8306172E-01
        2   -1    0    0  501    0  0.00000000000E+00  0.00000000000E+00  0.14801089818E+04  0.14801089818E+04  0.25500000920E-02 0.  1.
       -2   -1    0    0    0  501  0.00000000000E+00  0.00000000000E+00 -0.13154116170E+04  0.13154116170E+04  0.25500000920E-02 0. -1.
    10030    2    1    2    0    0  0.00000000000E+00  0.00000000000E+00  0.16469736482E+03  0.27955205988E+04  0.27906648305E+04 0.  0.
        2    1    3    3  502    0  0.84185393913E+03  0.62630222991E+03  0.10037208058E+04  0.14520426970E+04  0.25500000920E-02 0.  1.
       -2    1    3    3    0  502 -0.84185393913E+03 -0.62630222991E+03 -0.83902344094E+03  0.13434779017E+04  0.25500000920E-02 0. -1.
</event>
<event>
 5   0  0.1388269E-05  0.2693571E+04  0.7818609E-02  0.8337094E-01
        2   -1    0    0  501    0  0.00000000000E+00  0.00000000000E+00  0.17284962928E+04  0.17284962928E+04  0.25500000920E-02 0. -1.
       -2   -1    0    0    0  501  0.00000000000E+00  0.00000000000E+00 -0.10493696113E+04  0.10493696113E+04  0.25500000920E-02 0.  1.
    10030    2    1    2    0    0  0.00000000000E+00  0.00000000000E+00  0.67912668148E+03  0.27778659041E+04  0.26935712227E+04 0.  0.
        1    1    3    3  502    0 -0.13344612040E+04  0.66998605369E+02  0.51383679239E+03  0.14315389507E+04  0.50400001928E-02 0.  1.
       -1    1    3    3    0  502  0.13344612040E+04 -0.66998605369E+02  0.16528988909E+03  0.13463269534E+04  0.50400001928E-02 0. -1.
</event>
<event>
 5   0  0.5281919E-06  0.2631139E+04  0.7818609E-02  0.8357700E-01
       -1   -1    0    0    0  501  0.00000000000E+00  0.00000000000E+00  0.16596026282E+04  0.16596026282E+04  0.50400001928E-02 0.  1.
        1   -1    0    0  501    0  0.00000000000E+00  0.00000000000E+00 -0.10428537845E+04  0.10428537845E+04  0.50400001928E-02 0. -1.
    10030    2    1    2    0    0  0.00000000000E+00  0.00000000000E+00  0.61674884375E+03  0.27024564127E+04  0.26311388269E+04 0.  0.
        4    1    3    3  502    0 -0.10348288335E+04 -0.67174297819E+03  0.77749501781E+03  0.14582899091E+04  0.12699999809E+01 0.  1.
       -4    1    3    3    0  502  0.10348288335E+04  0.67174297819E+03 -0.16074617406E+03  0.12441665036E+04  0.12699999809E+01 0. -1.
</event>
<event>
 5   0  0.1302063E-05  0.2781253E+04  0.7818609E-02  0.8309112E-01
       -2   -1    0    0    0  501  0.00000000000E+00  0.00000000000E+00  0.10322138340E+04  0.10322138340E+04  0.25500000920E-02 0. -1.
        2   -1    0    0  501    0  0.00000000000E+00  0.00000000000E+00 -0.18734903544E+04  0.18734903544E+04  0.25500000920E-02 0.  1.
    10030    2    1    2    0    0  0.00000000000E+00  0.00000000000E+00 -0.84127652043E+03  0.29057041884E+04  0.27812534308E+04 0.  0.
        2    1    3    3  502    0 -0.56866993823E+03 -0.91219185683E+03 -0.13423645548E+04  0.17197156975E+04  0.25500000920E-02 0.  1.
       -2    1    3    3    0  502  0.56866993823E+03  0.91219185683E+03  0.50108803434E+03  0.11859884909E+04  0.25500000920E-02 0. -1.
</event>
<event>
 5   0  0.4764214E-06  0.2785641E+04  0.7818609E-02  0.8307740E-01
        1   -1    0    0  501    0  0.00000000000E+00  0.00000000000E+00  0.12226275980E+04  0.12226275980E+04  0.50400001928E-02 0.  1.
       -1   -1    0    0    0  501  0.00000000000E+00  0.00000000000E+00 -0.15867050208E+04  0.15867050208E+04  0.50400001928E-02 0. -1.
    10030    2    1    2    0    0  0.00000000000E+00  0.00000000000E+00 -0.36407742278E+03  0.28093326188E+04  0.27856412894E+04 0.  0.
        3    1    3    3  502    0  0.14802761856E+03 -0.10014418402E+02  0.12146355350E+04  0.12236633350E+04  0.10100000352E+00 0.  1.
       -3    1    3    3    0  502 -0.14802761856E+03  0.10014418402E+02 -0.15787129577E+04  0.15856692838E+04  0.10100000352E+00 0. -1.
</event>
<event>
 5   0  0.5281919E-06  0.2131395E+04  0.7818609E-02  0.8547538E-01
       -1   -1    0    0    0  501  0.00000000000E+00  0.00000000000E+00  0.62714064663E+03  0.62714064665E+03  0.50400001928E-02 0. -1.
        1   -1    0    0  501    0  0.00000000000E+00  0.00000000000E+00 -0.18109359586E+04  0.18109359586E+04  0.50400001928E-02 0.  1.
    10030    2    1    2    0    0  0.00000000000E+00  0.00000000000E+00 -0.11837953120E+04  0.24380766052E+04  0.21313953628E+04 0.  0.
        4    1    3    3  502    0  0.89599131897E+03 -0.54843947472E+03 -0.38687792192E+03  0.11194920457E+04  0.12699999809E+01 0.  1.
       -4    1    3    3    0  502 -0.89599131897E+03  0.54843947472E+03 -0.79691739003E+03  0.13185845595E+04  0.12699999809E+01 0. -1.
</event>
<event>
 5   0  0.5107453E-06  0.2813921E+04  0.7818609E-02  0.8298959E-01
        1   -1    0    0  501    0  0.00000000000E+00  0.00000000000E+00  0.61462603222E+03  0.61462603224E+03  0.50400001928E-02 0.  1.
       -1   -1    0    0    0  501  0.00000000000E+00  0.00000000000E+00 -0.32207193441E+04  0.32207193441E+04  0.50400001928E-02 0. -1.
    10030    2    1    2    0    0  0.00000000000E+00  0.00000000000E+00 -0.26060933119E+04  0.38353453764E+04  0.28139210731E+04 0.  0.
        2    1    3    3  502    0  0.45054468337E+03  0.11510626986E+04 -0.22189940785E+04  0.25400532609E+04  0.25500000920E-02 0.  1.
       -2    1    3    3    0  502 -0.45054468337E+03 -0.11510626986E+04 -0.38709923347E+03  0.12952921155E+04  0.25500000920E-02 0. -1.
</event>
<event>
 5   0  0.5023691E-06  0.2767321E+04  0.7818609E-02  0.8313486E-01
       -1   -1    0    0    0  501  0.00000000000E+00  0.00000000000E+00  0.12285631647E+04  0.12285631647E+04  0.50400001928E-02 0. -1.
        1   -1    0    0  501    0  0.00000000000E+00  0.00000000000E+00 -0.15583375644E+04  0.15583375644E+04  0.50400001928E-02 0.  1.
    10030    2    1    2    0    0  0.00000000000E+00  0.00000000000E+00 -0.32977439964E+03  0.27869007291E+04  0.27673208197E+04 0.  0.
        5    1    3    3  502    0  0.10098710149E+04 -0.93384465472E+03 -0.13528310142E+02  0.13755400434E+04  0.46999998093E+01 0.  1.
       -5    1    3    3    0  502 -0.10098710149E+04  0.93384465472E+03 -0.31624608950E+03  0.14113606857E+04  0.46999998093E+01 0. -1.
</event>
<event>
 5   0  0.1350863E-05  0.2797854E+04  0.7818609E-02  0.8303935E-01
        2   -1    0    0  501    0  0.00000000000E+00  0.00000000000E+00  0.94761985814E+03  0.94761985814E+03  0.25500000920E-02 0.  1.
       -2   -1    0    0    0  501  0.00000000000E+00  0.00000000000E+00 -0.20651699892E+04  0.20651699892E+04  0.25500000920E-02 0. -1.
    10030    2    1    2    0    0  0.00000000000E+00  0.00000000000E+00 -0.11175501311E+04  0.30127898473E+04  0.27978535288E+04 0.  0.
        3    1    3    3  502    0  0.13401879858E+04  0.19551952207E+02 -0.99018969236E+03  0.16664218413E+04  0.10100000352E+00 0.  1.
       -3    1    3    3    0  502 -0.13401879858E+04 -0.19551952207E+02 -0.12736043870E+03  0.13463680060E+04  0.10100000352E+00 0. -1.
</event>
<event>
 5   0  0.1330962E-05  0.2761106E+04  0.7818609E-02  0.8315446E-01
       -2   -1    0    0    0  501  0.00000000000E+00  0.00000000000E+00  0.12796089296E+04  0.12796089296E+04  0.25500000920E-02 0. -1.
        2   -1    0    0  501    0  0.00000000000E+00  0.00000000000E+00 -0.14894597330E+04  0.14894597330E+04  0.25500000920E-02 0.  1.
    10030    2    1    2    0    0  0.00000000000E+00  0.00000000000E+00 -0.20985080335E+03  0.27690686626E+04  0.27611055573E+04 0.  0.
        4    1    3    3  502    0 -0.67155008555E+03 -0.67918120090E+03  0.89477329232E+03  0.13087732724E+04  0.12699999809E+01 0. -1.
       -4    1    3    3    0  502  0.67155008555E+03  0.67918120090E+03 -0.11046240957E+04  0.14602953902E+04  0.12699999809E+01 0.  1.
</event>
<event>
 5   0  0.1283052E-05  0.2786529E+04  0.7818609E-02  0.8307463E-01
        2   -1    0    0  501    0  0.00000000000E+00  0.00000000000E+00  0.16060827143E+04  0.16060827143E+04  0.25500000920E-02 0. -1.
       -2   -1    0    0    0  501  0.00000000000E+00  0.00000000000E+00 -0.12086462777E+04  0.12086462777E+04  0.25500000920E-02 0.  1.
    10030    2    1    2    0    0  0.00000000000E+00  0.00000000000E+00  0.39743643651E+03  0.28147289920E+04  0.27865289479E+04 0.  0.
        5    1    3    3  502    0 -0.55517906195E+03 -0.66991150966E+03 -0.90048492311E+03  0.12521583000E+04  0.46999998093E+01 0.  1.
       -5    1    3    3    0  502  0.55517906195E+03  0.66991150966E+03  0.12979213596E+04  0.15625706920E+04  0.46999998093E+01 0. -1.
</event>
<event>
 5   0  0.5107453E-06  0.2738079E+04  0.7818609E-02  0.8322754E-01
       -1   -1    0    0    0  501  0.00000000000E+00  0.00000000000E+00  0.83352564279E+03  0.83352564280E+03  0.50400001928E-02 0. -1.
        1   -1    0    0  501    0  0.00000000000E+00  0.00000000000E+00 -0.22486037670E+04  0.22486037670E+04  0.50400001928E-02 0.  1.
    10030    2    1    2    0    0  0.00000000000E+00  0.00000000000E+00 -0.14150781242E+04  0.30821294098E+04  0.27380788157E+04 0.  0.
        2    1    3    3  502    0 -0.10790563121E+04  0.71491919158E+03 -0.20564766012E+03  0.13106345544E+04  0.25500000920E-02 0. -1.
       -2    1    3    3    0  502  0.10790563121E+04 -0.71491919158E+03 -0.12094304641E+04  0.17714948554E+04  0.25500000920E-02 0.  1.
</event>
<event>
 5   0  0.5107453E-06  0.2665761E+04  0.7818609E-02  0.8346201E-01
       -1   -1    0    0    0  501  0.00000000000E+00  0.00000000000E+00  0.75892611460E+03  0.75892611462E+03  0.50400001928E-02 0.  1.
        1   -1    0    0  501    0  0.00000000000E+00  0.00000000000E+00 -0.23408999007E+04  0.23408999007E+04  0.50400001928E-02 0. -1.
    10030    2    1    2    0    0  0.00000000000E+00  0.00000000000E+00 -0.15819737861E+04  0.30998260153E+04  0.26657607292E+04 0.  0.
        2    1    3    3  502    0  0.24594447216E+03  0.20448783665E+03 -0.22956123168E+04  0.23177877098E+04  0.25500000920E-02 0. -1.
       -2    1    3    3    0  502 -0.24594447216E+03 -0.20448783665E+03  0.71363853072E+03  0.78203830549E+03  0.25500000920E-02 0.  1.
</event>
<event>
 5   0  0.4447500E-06  0.2818305E+04  0.7818609E-02  0.8297608E-01
       -3   -1    0    0    0  501  0.00000000000E+00  0.00000000000E+00  0.15233450691E+04  0.15233450725E+04  0.10100000352E+00 0. -1.
        3   -1    0    0  501    0  0.00000000000E+00  0.00000000000E+00 -0.13035197457E+04  0.13035197497E+04  0.10100000352E+00 0.  1.
    10030    2    1    2    0    0  0.00000000000E+00  0.00000000000E+00  0.21982532337E+03  0.28268648221E+04  0.28183047298E+04 0.  0.
        1    1    3    3  502    0  0.94225145829E+03  0.77376793779E+03  0.81856811483E+03  0.14685395435E+04  0.50400001928E-02 0. -1.
       -1    1    3    3    0  502 -0.94225145829E+03 -0.77376793779E+03 -0.59874279146E+03  0.13583252786E+04  0.50400001928E-02 0.  1.
</event>
<event>
 5   0  0.4447500E-06  0.2593725E+04  0.7818609E-02  0.8370336E-01
        3   -1    0    0  501    0  0.00000000000E+00  0.00000000000E+00  0.13771860683E+04  0.13771860720E+04  0.10100000352E+00 0.  1.
       -3   -1    0    0    0  501  0.00000000000E+00  0.00000000000E+00 -0.12212241161E+04  0.12212241202E+04  0.10100000352E+00 0. -1.
    10030    2    1    2    0    0  0.00000000000E+00  0.00000000000E+00  0.15596195222E+03  0.25984101922E+04  0.25937253896E+04 0.  0.
        4    1    3    3  502    0  0.79813689027E+03 -0.63909558813E+03 -0.72119768540E+03  0.12512367405E+04  0.12699999809E+01 0. -1.
       -4    1    3    3    0  502 -0.79813689027E+03  0.63909558813E+03  0.87715963762E+03  0.13471734518E+04  0.12699999809E+01 0.  1.
</event>
<event>
 5   0  0.5281919E-06  0.2702710E+04  0.7818609E-02  0.8334126E-01
       -1   -1    0    0    0  501  0.00000000000E+00  0.00000000000E+00  0.10880108542E+04  0.10880108542E+04  0.50400001928E-02 0. -1.
        1   -1    0    0  501    0  0.00000000000E+00  0.00000000000E+00 -0.16784392774E+04  0.16784392774E+04  0.50400001928E-02 0.  1.
    10030    2    1    2    0    0  0.00000000000E+00  0.00000000000E+00 -0.59042842326E+03  0.27664501316E+04  0.27027098638E+04 0.  0.
        4    1    3    3  502    0 -0.13081752572E+04 -0.33740982302E+03 -0.26299737738E+03  0.13763492019E+04  0.12699999809E+01 0. -1.
       -4    1    3    3    0  502  0.13081752572E+04  0.33740982302E+03 -0.32743104587E+03  0.13901009297E+04  0.12699999809E+01 0.  1.
</event>
<event>
 5   0  0.4764214E-06  0.2926032E+04  0.7818609E-02  0.8265174E-01
       -1   -1    0    0    0  501  0.00000000000E+00  0.00000000000E+00  0.14171064574E+04  0.14171064574E+04  0.50400001928E-02 0. -1.
        1   -1    0    0  501    0  0.00000000000E+00  0.00000000000E+00 -0.15104124579E+04  0.15104124579E+04  0.50400001928E-02 0.  1.
    10030    2    1    2    0    0  0.00000000000E+00  0.00000000000E+00 -0.93306000508E+02  0.29275189153E+04  0.29260316112E+04 0.  0.
        3    1    3    3  502    0  0.12665977223E+04  0.64711158054E+03  0.29614638841E+03  0.14528337418E+04  0.10100000352E+00 0. -1.
       -3    1    3    3    0  502 -0.12665977223E+04 -0.64711158054E+03 -0.38945238892E+03  0.14746851736E+04  0.10100000352E+00 0.  1.
</event>
<event>
 5   0  0.1330962E-05  0.2844785E+04  0.7818609E-02  0.8289498E-01
        2   -1    0    0  501    0  0.00000000000E+00  0.00000000000E+00  0.14266265491E+04  0.14266265491E+04  0.25500000920E-02 0. -1.
       -2   -1    0    0    0  501  0.00000000000E+00  0.00000000000E+00 -0.14181713983E+04  0.14181713983E+04  0.25500000920E-02 0.  1.
    10030    2    1    2    0    0  0.00000000000E+00  0.00000000000E+00  0.84551508111E+01  0.28447979475E+04  0.28447853825E+04 0.  0.
        4    1    3    3  502    0  0.46762935585E+03 -0.62142942636E+03 -0.11867216838E+04  0.14188593003E+04  0.12699999809E+01 0.  1.
       -4    1    3    3    0  502 -0.46762935585E+03  0.62142942636E+03  0.11951768346E+04  0.14259386471E+04  0.12699999809E+01 0. -1.
</event>
<event>
 5   0  0.1283052E-05  0.2778890E+04  0.7818609E-02  0.8309852E-01
       -2   -1    0    0    0  501  0.00000000000E+00  0.00000000000E+00  0.79167103543E+03  0.79167103543E+03  0.25500000920E-02 0.  1.
        2   -1    0    0  501    0  0.00000000000E+00  0.00000000000E+00 -0.24385849613E+04  0.24385849613E+04  0.25500000920E-02 0. -1.
    10030    2    1    2    0    0  0.00000000000E+00  0.00000000000E+00 -0.16469139259E+04  0.32302559967E+04  0.27788897648E+04 0.  0.
        5    1    3    3  502    0  0.72421217030E+03 -0.99657799388E+03 -0.15703865494E+04  0.19959426269E+04  0.46999998093E+01 0. -1.
       -5    1    3    3    0  502 -0.72421217030E+03  0.99657799388E+03 -0.76527376486E+02  0.12343133698E+04  0.46999998093E+01 0.  1.
</event>
<event>
 5   0  0.5023691E-06  0.2788598E+04  0.7818609E-02  0.8306817E-01
        1   -1    0    0  501    0  0.00000000000E+00  0.00000000000E+00  0.13256879198E+04  0.13256879198E+04  0.50400001928E-02 0. -1.
       -1   -1    0    0    0  501  0.00000000000E+00  0.00000000000E+00 -0.14664609886E+04  0.14664609886E+04  0.50400001928E-02 0.  1.
    10030    2    1    2    0    0  0.00000000000E+00  0.00000000000E+00 -0.14077306880E+03  0.27921489084E+04  0.27885979398E+04 0.  0.
        5    1    3    3  502    0  0.77371912943E+03  0.26910019622E+03  0.10593193609E+04  0.13391175472E+04  0.46999998093E+01 0. -1.
       -5    1    3    3    0  502 -0.77371912943E+03 -0.26910019622E+03 -0.12000924297E+04  0.14530313612E+04  0.46999998093E+01 0.  1.
</event>
<event>
 5   0  0.1388269E-05  0.2867894E+04  0.7818609E-02  0.8282494E-01
       -2   -1    0    0    0  501  0.00000000000E+00  0.00000000000E+00  0.15737172811E+04  0.15737172811E+04  0.25500000920E-02 0. -1.
        2   -1    0    0  501    0  0.00000000000E+00  0.00000000000E+00 -0.13065905596E+04  0.13065905596E+04  0.25500000920E-02 0.  1.
    10030    2    1    2    0    0  0.00000000000E+00  0.00000000000E+00  0.26712672145E+03  0.28803078407E+04  0.28678941005E+04 0.  0.
        1    1    3    3  502    0  0.13478872749E+04  0.41751327819E+03 -0.12266188670E+03  0.14163909707E+04  0.50400001928E-02 0. -1.
       -1    1    3    3    0  502 -0.13478872749E+04 -0.41751327819E+03  0.38978860815E+03  0.14639168700E+04  0.50400001928E-02 0.  1.
</event>
<event>
 5   0  0.1302063E-05  0.3134861E+04  0.7818609E-02  0.8206235E-01
        2   -1    0    0  501    0  0.00000000000E+00  0.00000000000E+00  0.15240693295E+04  0.15240693295E+04  0.25500000920E-02 0. -1.
       -2   -1    0    0    0  501  0.00000000000E+00  0.00000000000E+00 -0.16120254739E+04  0.16120254739E+04  0.25500000920E-02 0.  1.
    10030    2    1    2    0    0  0.00000000000E+00  0.00000000000E+00 -0.87956144404E+02  0.31360948033E+04  0.31348611344E+04 0.  0.
        2    1    3    3  502    0 -0.15553433435E+04 -0.11449743982E+03  0.11304229973E+03  0.15636435467E+04  0.25500000920E-02 0. -1.
       -2    1    3    3    0  502  0.15553433435E+04  0.11449743982E+03 -0.20099844413E+03  0.15724512566E+04  0.25500000920E-02 0.  1.
</event>
<event>
 5   0  0.1302063E-05  0.2643860E+04  0.7818609E-02  0.8353454E-01
        2   -1    0    0  501    0  0.00000000000E+00  0.00000000000E+00  0.10542908830E+04  0.10542908830E+04  0.25500000920E-02 0. -1.
       -2   -1    0    0    0  501  0.00000000000E+00  0.00000000000E+00 -0.16575115828E+04  0.16575115829E+04  0.25500000920E-02 0.  1.
    10030    2    1    2    0    0  0.00000000000E+00  0.00000000000E+00 -0.60322069981E+03  0.27118024659E+04  0.26438603218E+04 0.  0.
        2    1    3    3  502    0  0.25818599793E+03 -0.47485924884E+03  0.93576931920E+03  0.10806551413E+04  0.25500000920E-02 0. -1.
       -2    1    3    3    0  502 -0.25818599793E+03  0.47485924884E+03 -0.15389900190E+04  0.16311473245E+04  0.25500000920E-02 0.  1.
</event>
<event>
 5   0  0.5281919E-06  0.2922915E+04  0.7818609E-02  0.8266092E-01
       -1   -1    0    0    0  501  0.00000000000E+00  0.00000000000E+00  0.11056199201E+04  0.11056199201E+04  0.50400001928E-02 0.  1.
        1   -1    0    0  501    0  0.00000000000E+00  0.00000000000E+00 -0.19318194894E+04  0.19318194894E+04  0.50400001928E-02 0. -1.
    10030    2    1    2    0    0  0.00000000000E+00  0.00000000000E+00 -0.82619956937E+03  0.30374394095E+04  0.29229150583E+04 0.  0.
        4    1    3    3  502    0  0.12056978776E+04  0.81156177104E+03 -0.25373995924E+03  0.14753729902E+04  0.12699999809E+01 0.  1.
       -4    1    3    3    0  502 -0.12056978776E+04 -0.81156177104E+03 -0.57245961013E+03  0.15620664193E+04  0.12699999809E+01 0. -1.
</event>
<event>
 5   0  0.5217999E-06  0.2720284E+04  0.7818609E-02  0.8328453E-01
       -1   -1    0    0    0  501  0.00000000000E+00  0.00000000000E+00  0.64383706696E+03  0.64383706698E+03  0.50400001928E-02 0.  1.
        1   -1    0    0  501    0  0.00000000000E+00  0.00000000000E+00 -0.28733760428E+04  0.28733760428E+04  0.50400001928E-02 0. -1.
    10030    2    1    2    0    0  0.00000000000E+00  0.00000000000E+00 -0.22295389759E+04  0.35172131098E+04  0.27202838115E+04 0.  0.
        1    1    3    3  502    0 -0.62366039087E+03 -0.13397419980E+03 -0.26679801655E+04  0.27431769051E+04  0.50400001928E-02 0. -1.
       -1    1    3    3    0  502  0.62366039087E+03  0.13397419980E+03  0.43844118964E+03  0.77403620467E+03  0.50400001928E-02 0.  1.
</event>
<event>
 5   0  0.1283052E-05  0.2811098E+04  0.7818609E-02  0.8299831E-01
        2   -1    0    0  501    0  0.00000000000E+00  0.00000000000E+00  0.20136542448E+04  0.20136542448E+04  0.25500000920E-02 0. -1.
       -2   -1    0    0    0  501  0.00000000000E+00  0.00000000000E+00 -0.98108623127E+03  0.98108623127E+03  0.25500000920E-02 0.  1.
    10030    2    1    2    0    0  0.00000000000E+00  0.00000000000E+00  0.10325680135E+04  0.29947404761E+04  0.28110983292E+04 0.  0.
        5    1    3    3  502    0  0.74878636057E+03 -0.30865552778E+02 -0.75047630484E+03  0.10605991091E+04  0.46999998093E+01 0.  1.
       -5    1    3    3    0  502 -0.74878636057E+03  0.30865552778E+02  0.17830443184E+04  0.19341413670E+04  0.46999998093E+01 0. -1.
</event>
<event>
 5   0  0.5023691E-06  0.2815579E+04  0.7818609E-02  0.8298448E-01
       -1   -1    0    0    0  501  0.00000000000E+00  0.00000000000E+00  0.11469337777E+04  0.11469337777E+04  0.50400001928E-02 0.  1.
        1   -1    0    0  501    0  0.00000000000E+00  0.00000000000E+00 -0.17279733144E+04  0.17279733144E+04  0.50400001928E-02 0. -1.
    10030    2    1    2    0    0  0.00000000000E+00  0.00000000000E+00 -0.58103953666E+03  0.28749070921E+04  0.28155787762E+04 0.  0.
        5    1    3    3  502    0  0.29453290015E+03 -0.10215232967E+04 -0.12327808504E+04  0.16278913324E+04  0.46999998093E+01 0. -1.
       -5    1    3    3    0  502 -0.29453290015E+03  0.10215232967E+04  0.65174131374E+03  0.12470157597E+04  0.46999998093E+01 0.  1.
</event>
<event>
 5   0  0.1302063E-05  0.2836785E+04  0.7818609E-02  0.8291938E-01
       -2   -1    0    0    0  501  0.00000000000E+00  0.00000000000E+00  0.16114817027E+04  0.16114817027E+04  0.25500000920E-02 0.  1.
        2   -1    0    0  501    0  0.00000000000E+00  0.00000000000E+00 -0.12484397597E+04  0.12484397597E+04  0.25500000920E-02 0. -1.
    10030    2    1    2    0    0  0.00000000000E+00  0.00000000000E+00  0.36304194308E+03  0.28599214624E+04  0.28367853847E+04 0.  0.
        2    1    3    3  502    0 -0.12719396055E+04  0.56813662634E+03 -0.87541881971E+02  0.13958055621E+04  0.25500000920E-02 0.  1.
       -2    1    3    3    0  502  0.12719396055E+04 -0.56813662634E+03  0.45058382505E+03  0.14641159003E+04  0.25500000920E-02 0. -1.
</event>
<event>
 5   0  0.1330962E-05  0.2774165E+04  0.7818609E-02  0.8311334E-01
       -2   -1    0    0    0  501  0.00000000000E+00  0.00000000000E+00  0.18279081891E+04  0.18279081891E+04  0.25500000920E-02 0. -1.
        2   -1    0    0  501    0  0.00000000000E+00  0.00000000000E+00 -0.10525684837E+04  0.10525684837E+04  0.25500000920E-02 0.  1.
    10030    2    1    2    0    0  0.00000000000E+00  0.00000000000E+00  0.77533970538E+03  0.28804766729E+04  0.27741654969E+04 0.  0.
        4    1    3    3  502    0  0.69395354689E+03  0.11954868400E+04  0.26821035557E+03  0.14080833490E+04  0.12699999809E+01 0. -1.
       -4    1    3    3    0  502 -0.69395354689E+03 -0.11954868400E+04  0.50712934981E+03  0.14723933239E+04  0.12699999809E+01 0.  1.
</event>
<event>
 5   0  0.5281919E-06  0.2810051E+04  0.7818609E-02  0.8300155E-01
        1   -1    0    0  501    0  0.00000000000E+00  0.00000000000E+00  0.13452909129E+04  0.13452909129E+04  0.50400001928E-02 0.  1.
       -1   -1    0    0    0  501  0.00000000000E+00  0.00000000000E+00 -0.14674124505E+04  0.14674124505E+04  0.50400001928E-02 0. -1.
    10030    2    1    2    0    0  0.00000000000E+00  0.00000000000E+00 -0.12212153760E+03  0.28127033634E+04  0.28100509854E+04 0.  0.
        4    1    3    3  502    0  0.84835905144E+03 -0.69842822795E+03  0.81531116663E+03  0.13683014950E+04  0.12699999809E+01 0.  1.
       -4    1    3    3    0  502 -0.84835905144E+03  0.69842822795E+03 -0.93743270423E+03  0.14444018685E+04  0.12699999809E+01 0. -1.
</event>
<event>
 5   0  0.1283052E-05  0.2853359E+04  0.7818609E-02  0.8286891E-01
       -2   -1    0    0    0  501  0.00000000000E+00  0.00000000000E+00  0.16142514202E+04  0.16142514202E+04  0.25500000920E-02 0.  1.
        2   -1    0    0  501    0  0.00000000000E+00  0.00000000000E+00 -0.12609028751E+04  0.12609028751E+04  0.25500000920E-02 0. -1.
    10030    2    1    2    0    0  0.00000000000E+00  0.00000000000E+00  0.35334854517E+03  0.28751542953E+04  0.28533589027E+04 0.  0.
        5    1    3    3  502    0  0.56421391572E+03 -0.13094731605E+04  0.22536381972E+03  0.14435609589E+04  0.46999998093E+01 0. -1.
       -5    1    3    3    0  502 -0.56421391572E+03  0.13094731605E+04  0.12798472545E+03  0.14315933364E+04  0.46999998093E+01 0.  1.
</event>
<event>
 5   0  0.1350863E-05  0.3174323E+04  0.7818609E-02  0.8195631E-01
        2   -1    0    0  501    0  0.00000000000E+00  0.00000000000E+00  0.14156963918E+04  0.14156963918E+04  0.25500000920E-02 0.  1.
       -2   -1    0    0    0  501  0.00000000000E+00  0.00000000000E+00 -0.17793940846E+04  0.17793940846E+04  0.25500000920E-02 0. -1.
    10030    2    1    2    0    0  0.00000000000E+00  0.00000000000E+00 -0.36369769282E+03  0.31950904764E+04  0.31743230996E+04 0.  0.
        3    1    3    3  502    0  0.73079436623E+03 -0.84457133275E+03 -0.13169325539E+04  0.17267520099E+04  0.10100000352E+00 0. -1.
       -3    1    3    3    0  502 -0.73079436623E+03  0.84457133275E+03  0.95323486109E+03  0.14683384666E+04  0.10100000352E+00 0.  1.
</event>
<event>
 5   0  0.1330962E-05  0.2757916E+04  0.7818609E-02  0.8316454E-01
        2   -1    0    0  501    0  0.00000000000E+00  0.00000000000E+00  0.17753065226E+04  0.17753065226E+04  0.25500000920E-02 0. -1.
       -2   -1    0    0    0  501  0.00000000000E+00  0.00000000000E+00 -0.10710967200E+04  0.10710967200E+04  0.25500000920E-02 0.  1.
    10030    2    1    2    0    0  0.00000000000E+00  0.00000000000E+00  0.70420980258E+03  0.28464032425E+04  0.27579158749E+04 0.  0.
        4    1    3    3  502    0  0.53430504694E+03 -0.80518105548E+03  0.13673978811E+04  0.16743885431E+04  0.12699999809E+01 0. -1.
       -4    1    3    3    0  502 -0.53430504694E+03  0.80518105548E+03 -0.66318807850E+03  0.11720146994E+04  0.12699999809E+01 0.  1.
</event>
<event>
 5   0  0.5107453E-06  0.2757275E+04  0.7818609E-02  0.8316657E-01
       -1   -1    0    0    0  501  0.00000000000E+00  0.00000000000E+00  0.87133391002E+03  0.87133391003E+03  0.50400001928E-02 0. -1.
        1   -1    0    0  501    0  0.00000000000E+00  0.00000000000E+00 -0.21813011715E+04  0.21813011715E+04  0.50400001928E-02 0.  1.
    10030    2    1    2    0    0  0.00000000000E+00  0.00000000000E+00 -0.13099672615E+04  0.30526350815E+04  0.27572752338E+04 0.  0.
        2    1    3    3  502    0 -0.49994735418E+03 -0.66460041828E+03  0.56234554309E+03  0.10039290726E+04  0.25500000920E-02 0. -1.
       -2    1    3    3    0  502  0.49994735418E+03  0.66460041828E+03 -0.18723128045E+04  0.20487060089E+04  0.25500000920E-02 0.  1.
</event>
<event>
 5   0  0.1283052E-05  0.2850585E+04  0.7818609E-02  0.8287734E-01
       -2   -1    0    0    0  501  0.00000000000E+00  0.00000000000E+00  0.85260478499E+03  0.85260478500E+03  0.25500000920E-02 0. -1.
        2   -1    0    0  501    0  0.00000000000E+00  0.00000000000E+00 -0.23826497390E+04  0.23826497390E+04  0.25500000920E-02 0.  1.
    10030    2    1    2    0    0  0.00000000000E+00  0.00000000000E+00 -0.15300449540E+04  0.32352545240E+04  0.28505849003E+04 0.  0.
        5    1    3    3  502    0  0.80946224466E+03  0.11676840333E+04 -0.89303165133E+03  0.16781664838E+04  0.46999998093E+01 0. -1.
       -5    1    3    3    0  502 -0.80946224466E+03 -0.11676840333E+04 -0.63701330268E+03  0.15570880402E+04  0.46999998093E+01 0.  1.
</event>
<event>
 5   0  0.5023691E-06  0.2773540E+04  0.7818609E-02  0.8311530E-01
        1   -1    0    0  501    0  0.00000000000E+00  0.00000000000E+00  0.35624207056E+04  0.35624207056E+04  0.50400001928E-02 0. -1.
       -1   -1    0    0    0  501  0.00000000000E+00  0.00000000000E+00 -0.53983835943E+03  0.53983835945E+03  0.50400001928E-02 0.  1.
    10030    2    1    2    0    0  0.00000000000E+00  0.00000000000E+00  0.30225823462E+04  0.41022590650E+04  0.27735402282E+04 0.  0.
        5    1    3    3  502    0  0.11147970853E+04  0.79414085366E+03  0.18409512781E+04  0.22940261409E+04  0.46999998093E+01 0. -1.
       -5    1    3    3    0  502 -0.11147970853E+04 -0.79414085366E+03  0.11816310680E+04  0.18082329241E+04  0.46999998093E+01 0.  1.
</event>
<event>
 5   0  0.1330962E-05  0.2828128E+04  0.7818609E-02  0.8294589E-01
       -2   -1    0    0    0  501  0.00000000000E+00  0.00000000000E+00  0.10230272820E+04  0.10230272820E+04  0.25500000920E-02 0. -1.
        2   -1    0    0  501    0  0.00000000000E+00  0.00000000000E+00 -0.19545680982E+04  0.19545680982E+04  0.25500000920E-02 0.  1.
    10030    2    1    2    0    0  0.00000000000E+00  0.00000000000E+00 -0.93154081619E+03  0.29775953803E+04  0.28281276415E+04 0.  0.
        4    1    3    3  502    0  0.86935884062E+03  0.10396540459E+04 -0.89072247307E+03  0.16217439581E+04  0.12699999809E+01 0.  1.
       -4    1    3    3    0  502 -0.86935884062E+03 -0.10396540459E+04 -0.40818343121E+02  0.13558514221E+04  0.12699999809E+01 0. -1.
</event>
<event>
 5   0  0.5217999E-06  0.2717006E+04  0.7818609E-02  0.8329508E-01
       -1   -1    0    0    0  501  0.00000000000E+00  0.00000000000E+00  0.13775852670E+04  0.13775852671E+04  0.50400001928E-02 0.  1.
        1   -1    0    0  501    0  0.00000000000E+00  0.00000000000E+00 -0.13396846261E+04  0.13396846261E+04  0.50400001928E-02 0. -1.
    10030    2    1    2    0    0  0.00000000000E+00  0.00000000000E+00  0.37900640971E+02  0.27172698931E+04  0.27170055601E+04 0.  0.
        1    1    3    3  502    0 -0.17684393495E+03  0.60342627277E+03  0.12232820585E+04  0.13754330368E+04  0.50400001928E-02 0.  1.
       -1    1    3    3    0  502  0.17684393495E+03 -0.60342627277E+03 -0.11853814175E+04  0.13418368563E+04  0.50400001928E-02 0. -1.
</event>
<event>
 5   0  0.1283052E-05  0.2632213E+04  0.7818609E-02  0.8357341E-01
        2   -1    0    0  501    0  0.00000000000E+00  0.00000000000E+00  0.12199980627E+04  0.12199980627E+04  0.25500000920E-02 0. -1.
       -2   -1    0    0    0  501  0.00000000000E+00  0.00000000000E+00 -0.14197864860E+04  0.14197864860E+04  0.25500000920E-02 0.  1.
    10030    2    1    2    0    0  0.00000000000E+00  0.00000000000E+00 -0.19978842322E+03  0.26397845487E+04  0.26322133366E+04 0.  0.
        5    1    3    3  502    0 -0.24225485014E+03 -0.12518383276E+04 -0.42691197618E+03  0.13446421592E+04  0.46999998093E+01 0. -1.
       -5    1    3    3    0  502  0.24225485014E+03  0.12518383276E+04  0.22712355296E+03  0.12951423895E+04  0.46999998093E+01 0.  1.
</event>
<event>
 5   0  0.5023691E-06  0.2010721E+04  0.7818609E-02  0.8601624E-01
        1   -1    0    0  501    0  0.00000000000E+00  0.00000000000E+00  0.21937422509E+04  0.21937422509E+04  0.50400001928E-02 0. -1.
       -1   -1    0    0    0  501  0.00000000000E+00  0.00000000000E+00 -0.46074246770E+03  0.46074246773E+03  0.50400001928E-02 0.  1.
    10030    2    1    2    0    0  0.00000000000E+00  0.00000000000E+00  0.17329997832E+04  0.26544847186E+04  0.20107214807E+04 0.  0.
        5    1    3    3  502    0 -0.63065989978E+03  0.11919999913E+02  0.18999913021E+04  0.20019647933E+04  0.46999998093E+01 0. -1.
       -5    1    3    3    0  502  0.63065989978E+03 -0.11919999913E+02 -0.16699151889E+03  0.65251992534E+03  0.46999998093E+01 0.  1.
</event>
<event>
 5   0  0.5023691E-06  0.2790165E+04  0.7818609E-02  0.8306328E-01
       -1   -1    0    0    0  501  0.00000000000E+00  0.00000000000E+00  0.10124285305E+04  0.10124285305E+04  0.50400001928E-02 0. -1.
        1   -1    0    0  501    0  0.00000000000E+00  0.00000000000E+00 -0.19223628244E+04  0.19223628244E+04  0.50400001928E-02 0.  1.
    10030    2    1    2    0    0  0.00000000000E+00  0.00000000000E+00 -0.90993429386E+03  0.29347913549E+04  0.27901648478E+04 0.  0.
        5    1    3    3  502    0  0.66045079676E+03 -0.11793536086E+04 -0.81805984736E+03  0.15799728456E+04  0.46999998093E+01 0.  1.
       -5    1    3    3    0  502 -0.66045079676E+03  0.11793536086E+04 -0.91874446502E+02  0.13548185093E+04  0.46999998093E+01 0. -1.
</event>
<event>
 5   0  0.1283052E-05  0.2829918E+04  0.7818609E-02  0.8294040E-01
        2   -1    0    0  501    0  0.00000000000E+00  0.00000000000E+00  0.19871593505E+04  0.19871593505E+04  0.25500000920E-02 0.  1.
       -2   -1    0    0    0  501  0.00000000000E+00  0.00000000000E+00 -0.10075228840E+04  0.10075228840E+04  0.25500000920E-02 0. -1.
    10030    2    1    2    0    0  0.00000000000E+00  0.00000000000E+00  0.97963646652E+03  0.29946822345E+04  0.28299176806E+04 0.  0.
        5    1    3    3  502    0 -0.59653199421E+02 -0.55586860454E+03  0.18653192898E+04  0.19473023783E+04  0.46999998093E+01 0.  1.
       -5    1    3    3    0  502  0.59653199421E+02  0.55586860454E+03 -0.88568282326E+03  0.10473798562E+04  0.46999998093E+01 0. -1.
</event>
<event>
 5   0  0.5281919E-06  0.2804094E+04  0.7818609E-02  0.8301998E-01
       -1   -1    0    0    0  501  0.00000000000E+00  0.00000000000E+00  0.11380682329E+04  0.11380682329E+04  0.50400001928E-02 0. -1.
        1   -1    0    0  501    0  0.00000000000E+00  0.00000000000E+00 -0.17272569544E+04  0.17272569544E+04  0.50400001928E-02 0.  1.
    10030    2    1    2    0    0  0.00000000000E+00  0.00000000000E+00 -0.58918872147E+03  0.28653251872E+04  0.28040943421E+04 0.  0.
        4    1    3    3  502    0 -0.79331701270E+01  0.55101041365E+03  0.10227658640E+04  0.11617775332E+04  0.12699999809E+01 0. -1.
       -4    1    3    3    0  502  0.79331701270E+01 -0.55101041365E+03 -0.16119545855E+04  0.17035476541E+04  0.12699999809E+01 0.  1.
</event>
<event>
 5   0  0.5281919E-06  0.2824618E+04  0.7818609E-02  0.8295666E-01
       -1   -1    0    0    0  501  0.00000000000E+00  0.00000000000E+00  0.11384093463E+04  0.11384093463E+04  0.50400001928E-02 0.  1.
        1   -1    0    0  501    0  0.00000000000E+00  0.00000000000E+00 -0.17521085951E+04  0.17521085951E+04  0.50400001928E-02 0. -1.
    10030    2    1    2    0    0  0.00000000000E+00  0.00000000000E+00 -0.61369924881E+03  0.28905179415E+04  0.28246180631E+04 0.  0.
        4    1    3    3  502    0 -0.99303994282E+03 -0.92103364369E+03 -0.71641699599E+03  0.15322161159E+04  0.12699999809E+01 0.  1.
       -4    1    3    3    0  502  0.99303994282E+03  0.92103364369E+03  0.10271774719E+03  0.13583018256E+04  0.12699999809E+01 0. -1.
</event>
<event>
 5   0  0.5023691E-06  0.2794203E+04  0.7818609E-02  0.8305070E-01
       -1   -1    0    0    0  501  0.00000000000E+00  0.00000000000E+00  0.10376348036E+04  0.10376348036E+04  0.50400001928E-02 0.  1.
        1   -1    0    0  501    0  0.00000000000E+00  0.00000000000E+00 -0.18810973390E+04  0.18810973390E+04  0.50400001928E-02 0. -1.
    10030    2    1    2    0    0  0.00000000000E+00  0.00000000000E+00 -0.84346253541E+03  0.29187321425E+04  0.27942026182E+04 0.  0.
        5    1    3    3  502    0  0.74858598988E+02 -0.12373293140E+04 -0.10948754168E+04  0.16538929559E+04  0.46999998093E+01 0. -1.
       -5    1    3    3    0  502 -0.74858598988E+02  0.12373293140E+04  0.25141288138E+03  0.12648391867E+04  0.46999998093E+01 0.  1.
</event>
<event>
 5   0  0.5281919E-06  0.2799109E+04  0.7818609E-02  0.8303545E-01
        1   -1    0    0  501    0  0.00000000000E+00  0.00000000000E+00  0.17216041454E+04  0.17216041454E+04  0.50400001928E-02 0.  1.
       -1   -1    0    0    0  501  0.00000000000E+00  0.00000000000E+00 -0.11377482838E+04  0.11377482838E+04  0.50400001928E-02 0. -1.
    10030    2    1    2    0    0  0.00000000000E+00  0.00000000000E+00  0.58385586160E+03  0.28593524293E+04  0.27991085452E+04 0.  0.
        4    1    3    3  502    0  0.46047240809E+02 -0.12168060715E+03  0.17154128916E+04  0.17203399432E+04  0.12699999809E+01 0.  1.
       -4    1    3    3    0  502 -0.46047240809E+02  0.12168060715E+03 -0.11315570300E+04  0.11390124861E+04  0.12699999809E+01 0. -1.
</event>
<event>
 5   0  0.5281919E-06  0.2804633E+04  0.7818609E-02  0.8301831E-01
        1   -1    0    0  501    0  0.00000000000E+00  0.00000000000E+00  0.17837228201E+04  0.17837228201E+04  0.50400001928E-02 0. -1.
       -1   -1    0    0    0  501  0.00000000000E+00  0.00000000000E+00 -0.11024651496E+04  0.11024651496E+04  0.50400001928E-02 0.  1.
    10030    2    1    2    0    0  0.00000000000E+00  0.00000000000E+00  0.68125767049E+03  0.28861879697E+04  0.28046334846E+04 0.  0.
        4    1    3    3  502    0  0.96901998159E+03  0.17392158430E+03 -0.68702966620E+03  0.12005248091E+04  0.12699999809E+01 0.  1.
       -4    1    3    3    0  502 -0.96901998159E+03 -0.17392158430E+03  0.13682873367E+04  0.16856631605E+04  0.12699999809E+01 0. -1.
</event>
<event>
 5   0  0.5281919E-06  0.2819089E+04  0.7818609E-02  0.8297366E-01
       -1   -1    0    0    0  501  0.00000000000E+00  0.00000000000E+00  0.78956987200E+03  0.78956987201E+03  0.50400001928E-02 0.  1.
        1   -1    0    0  501    0  0.00000000000E+00  0.00000000000E+00 -0.25163262951E+04  0.25163262951E+04  0.50400001928E-02 0. -1.
    10030    2    1    2    0    0  0.00000000000E+00  0.00000000000E+00 -0.17267564231E+04  0.33058961671E+04  0.28190888108E+04 0.  0.
        4    1    3    3  502    0  0.20646077458E+03 -0.78358536414E+03 -0.22158740659E+04  0.23593922021E+04  0.12699999809E+01 0. -1.
       -4    1    3    3    0  502 -0.20646077458E+03  0.78358536414E+03  0.48911764285E+03  0.94650396501E+03  0.12699999809E+01 0.  1.
</event>
<event>
 5   0  0.5217999E-06  0.2116138E+04  0.7818609E-02  0.8554168E-01
       -1   -1    0    0    0  501  0.00000000000E+00  0.00000000000E+00  0.82488464011E+03  0.82488464012E+03  0.50400001928E-02 0. -1.
        1   -1    0    0  501    0  0.00000000000E+00  0.00000000000E+00 -0.13571712168E+04  0.13571712168E+04  0.50400001928E-02 0.  1.
    10030    2    1    2    0    0  0.00000000000E+00  0.00000000000E+00 -0.53228657667E+03  0.21820558569E+04  0.21161376994E+04 0.  0.
        1    1    3    3  502    0 -0.10749718261E+03  0.35286689403E+03 -0.12887194239E+04  0.13404732160E+04  0.50400001928E-02 0.  1.
       -1    1    3    3    0  502  0.10749718261E+03 -0.35286689403E+03  0.75643284722E+03  0.84158264095E+03  0.50400001928E-02 0. -1.
</event>
<event>
 5   0  0.1302063E-05  0.2767837E+04  0.7818609E-02  0.8313324E-01
       -2   -1    0    0    0  501  0.00000000000E+00  0.00000000000E+00  0.73809352488E+03  0.73809352489E+03  0.25500000920E-02 0. -1.
        2   -1    0    0  501    0  0.00000000000E+00  0.00000000000E+00 -0.25948342046E+04  0.25948342046E+04  0.25500000920E-02 0.  1.
    10030    2    1    2    0    0  0.00000000000E+00  0.00000000000E+00 -0.18567406797E+04  0.33329277295E+04  0.27678369349E+04 0.  0.
        2    1    3    3  502    0 -0.21230572880E+03 -0.35026996985E+03  0.66343499591E+03  0.77968504414E+03  0.25500000920E-02 0. -1.
       -2    1    3    3    0  502  0.21230572880E+03  0.35026996985E+03 -0.25201756756E+04  0.25532426853E+04  0.25500000920E-02 0.  1.
</event>
<event>
 5   0  0.5217999E-06  0.2813092E+04  0.7818609E-02  0.8299215E-01
        1   -1    0    0  501    0  0.00000000000E+00  0.00000000000E+00  0.21524678088E+04  0.21524678088E+04  0.50400001928E-02 0.  1.
       -1   -1    0    0    0  501  0.00000000000E+00  0.00000000000E+00 -0.91911807711E+03  0.91911807712E+03  0.50400001928E-02 0. -1.
    10030    2    1    2    0    0  0.00000000000E+00  0.00000000000E+00  0.12333497317E+04  0.30715858859E+04  0.28130923010E+04 0.  0.
        1    1    3    3  502    0  0.20173448060E+03  0.12606021822E+04 -0.27963043688E+02  0.12769481565E+04  0.50400001928E-02 0. -1.
       -1    1    3    3    0  502 -0.20173448060E+03 -0.12606021822E+04  0.12613127753E+04  0.17946377294E+04  0.50400001928E-02 0.  1.
</event>
<event>
 5   0  0.5217999E-06  0.2734857E+04  0.7818609E-02  0.8323783E-01
       -1   -1    0    0    0  501  0.00000000000E+00  0.00000000000E+00  0.17528535197E+04  0.17528535197E+04  0.50400001928E-02 0. -1.
        1   -1    0    0  501    0  0.00000000000E+00  0.00000000000E+00 -0.10667521106E+04  0.10667521106E+04  0.50400001928E-02 0.  1.
    10030    2    1    2    0    0  0.00000000000E+00  0.00000000000E+00  0.68610140913E+03  0.28196056303E+04  0.27348566263E+04 0.  0.
        1    1    3    3  502    0  0.80249774353E+02 -0.11036913343E+04  0.11712403448E+04  0.16113281891E+04  0.50400001928E-02 0. -1.
       -1    1    3    3    0  502 -0.80249774353E+02  0.11036913343E+04 -0.48513893567E+03  0.12082774411E+04  0.50400001928E-02 0.  1.
</event>
<event>
 5   0  0.1283052E-05  0.2798946E+04  0.7818609E-02  0.8303596E-01
        2   -1    0    0  501    0  0.00000000000E+00  0.00000000000E+00  0.14890527398E+04  0.14890527398E+04  0.25500000920E-02 0.  1.
       -2   -1    0    0    0  501  0.00000000000E+00  0.00000000000E+00 -0.13152819585E+04  0.13152819585E+04  0.25500000920E-02 0. -1.
    10030    2    1    2    0    0  0.00000000000E+00  0.00000000000E+00  0.17377078130E+03  0.28043346983E+04  0.27989456614E+04 0.  0.
        5    1    3    3  502    0 -0.10633182424E+04 -0.16967766347E+03 -0.80874058867E+03  0.13466698273E+04  0.46999998093E+01 0. -1.
       -5    1    3    3    0  502  0.10633182424E+04  0.16967766347E+03  0.98251136997E+03  0.14576648710E+04  0.46999998093E+01 0.  1.
</event>
<event>
 5   0  0.4447500E-06  0.2554853E+04  0.7818609E-02  0.8383700E-01
       -4   -1    0    0    0  501  0.00000000000E+00  0.00000000000E+00  0.10475792116E+04  0.10475799814E+04  0.12699999809E+01 0.  1.
        4   -1    0    0  501    0  0.00000000000E+00  0.00000000000E+00 -0.15577030938E+04  0.15577036116E+04  0.12699999809E+01 0. -1.
    10030    2    1    2    0    0  0.00000000000E+00  0.00000000000E+00 -0.51012388227E+03  0.26052835930E+04  0.25548534644E+04 0.  0.
        1    1    3    3  502    0  0.14723997535E+03 -0.11049004845E+04 -0.89134502613E+03  0.14272283092E+04  0.50400001928E-02 0. -1.
       -1    1    3    3    0  502 -0.14723997535E+03  0.11049004845E+04  0.38122114386E+03  0.11780552837E+04  0.50400001928E-02 0.  1.
</event>
<event>
 5   0  0.4764214E-06  0.2785564E+04  0.7818609E-02  0.8307764E-01
       -1   -1    0    0    0  501  0.00000000000E+00  0.00000000000E+00  0.21980284617E+04  0.21980284617E+04  0.50400001928E-02 0.  1.
        1   -1    0    0  501    0  0.00000000000E+00  0.00000000000E+00 -0.88253714542E+03  0.88253714543E+03  0.50400001928E-02 0. -1.
    10030    2    1    2    0    0  0.00000000000E+00  0.00000000000E+00  0.13154913163E+04  0.30805656072E+04  0.27855640464E+04 0.  0.
        3    1    3    3  502    0 -0.14640327623E+03 -0.13850299471E+04  0.64669324157E+03  0.15355630995E+04  0.10100000352E+00 0. -1.
       -3    1    3    3    0  502  0.14640327623E+03  0.13850299471E+04  0.66879807474E+03  0.15450025077E+04  0.10100000352E+00 0.  1.
</event>
<event>
 5   0  0.5281919E-06  0.2759804E+04  0.7818609E-02  0.8315857E-01
        1   -1    0    0  501    0  0.00000000000E+00  0.00000000000E+00  0.21142363397E+04  0.21142363397E+04  0.50400001928E-02 0.  1.
       -1   -1    0    0    0  501  0.00000000000E+00  0.00000000000E+00 -0.90062315719E+03  0.90062315720E+03  0.50400001928E-02 0. -1.
    10030    2    1    2    0    0  0.00000000000E+00  0.00000000000E+00  0.12136131825E+04  0.30148594969E+04  0.27598044911E+04 0.  0.
        4    1    3    3  502    0 -0.70097260495E+03 -0.11882056373E+04  0.64018107391E+03  0.15208644416E+04  0.12699999809E+01 0. -1.
       -4    1    3    3    0  502  0.70097260495E+03  0.11882056373E+04  0.57343210858E+03  0.14939950553E+04  0.12699999809E+01 0.  1.
</event>
<event>
 5   0  0.5281919E-06  0.2146181E+04  0.7818609E-02  0.8541169E-01
       -1   -1    0    0    0  501  0.00000000000E+00  0.00000000000E+00  0.92597554643E+03  0.92597554645E+03  0.50400001928E-02 0. -1.
        1   -1    0    0  501    0  0.00000000000E+00  0.00000000000E+00 -0.12435782269E+04  0.12435782269E+04  0.50400001928E-02 0.  1.
    10030    2    1    2    0    0  0.00000000000E+00  0.00000000000E+00 -0.31760268048E+03  0.21695537734E+04  0.21461808202E+04 0.  0.
        4    1    3    3  502    0 -0.43180164940E+03  0.19960681822E+03  0.81356069261E+03  0.94243204517E+03  0.12699999809E+01 0. -1.
       -4    1    3    3    0  502  0.43180164940E+03 -0.19960681822E+03 -0.11311633731E+04  0.12271217282E+04  0.12699999809E+01 0.  1.
</event>
<event>
 5   0  0.1330962E-05  0.2834274E+04  0.7818609E-02  0.8292706E-01
       -2   -1    0    0    0  501  0.00000000000E+00  0.00000000000E+00  0.13766260744E+04  0.13766260744E+04  0.25500000920E-02 0.  1.
        2   -1    0    0  501    0  0.00000000000E+00  0.00000000000E+00 -0.14588404078E+04  0.14588404078E+04  0.25500000920E-02 0. -1.
    10030    2    1    2    0    0  0.00000000000E+00  0.00000000000E+00 -0.82214333424E+02  0.28354664823E+04  0.28342743296E+04 0.  0.
        4    1    3    3  502    0 -0.38492911283E+03 -0.11135695355E+04 -0.82888272794E+03  0.14405747887E+04  0.12699999809E+01 0.  1.
       -4    1    3    3    0  502  0.38492911283E+03  0.11135695355E+04  0.74666839451E+03  0.13948916935E+04  0.12699999809E+01 0. -1.
</event>
<event>
 5   0  0.4447500E-06  0.2826646E+04  0.7818609E-02  0.8295043E-01
        3   -1    0    0  501    0  0.00000000000E+00  0.00000000000E+00  0.11067203923E+04  0.11067203969E+04  0.10100000352E+00 0.  1.
       -3   -1    0    0    0  501  0.00000000000E+00  0.00000000000E+00 -0.18048661659E+04  0.18048661687E+04  0.10100000352E+00 0. -1.
    10030    2    1    2    0    0  0.00000000000E+00  0.00000000000E+00 -0.69814577356E+03  0.29115865656E+04  0.28266462120E+04 0.  0.
        1    1    3    3  502    0  0.42571688564E+03  0.31754533048E+03  0.10000220478E+04  0.11323047292E+04  0.50400001928E-02 0.  1.
       -1    1    3    3    0  502 -0.42571688564E+03 -0.31754533048E+03 -0.16981678214E+04  0.17792818364E+04  0.50400001928E-02 0. -1.
</event>
<event>
 5   0  0.4764214E-06  0.2825086E+04  0.7818609E-02  0.8295522E-01
        1   -1    0    0  501    0  0.00000000000E+00  0.00000000000E+00  0.23976605108E+04  0.23976605108E+04  0.50400001928E-02 0. -1.
       -1   -1    0    0    0  501  0.00000000000E+00  0.00000000000E+00 -0.83217677891E+03  0.83217677893E+03  0.50400001928E-02 0.  1.
    10030    2    1    2    0    0  0.00000000000E+00  0.00000000000E+00  0.15654837319E+04  0.32298372897E+04  0.28250857692E+04 0.  0.
        3    1    3    3  502    0  0.13766031823E+04 -0.28005625789E+03  0.61390298169E+03  0.15330833996E+04  0.10100000352E+00 0.  1.
       -3    1    3    3    0  502 -0.13766031823E+04  0.28005625789E+03  0.95158075018E+03  0.16967538901E+04  0.10100000352E+00 0. -1.
</event>
<event>
 5   0  0.1302063E-05  0.2745922E+04  0.7818609E-02  0.8320257E-01
       -2   -1    0    0    0  501  0.00000000000E+00  0.00000000000E+00  0.76885764223E+03  0.76885764223E+03  0.25500000920E-02 0. -1.
        2   -1    0    0  501    0  0.00000000000E+00  0.00000000000E+00 -0.24517173573E+04  0.24517173573E+04  0.25500000920E-02 0.  1.
    10030    2    1    2    0    0  0.00000000000E+00  0.00000000000E+00 -0.16828597151E+04  0.32205749995E+04  0.27459217955E+04 0.  0.
        2    1    3    3  502    0  0.12673288982E+04 -0.37386108748E+03 -0.40395718553E+03  0.13816931847E+04  0.25500000920E-02 0. -1.
       -2    1    3    3    0  502 -0.12673288982E+04  0.37386108748E+03 -0.12789025295E+04  0.18388818148E+04  0.25500000920E-02 0.  1.
</event>
<event>
 5   0  0.1283052E-05  0.2722394E+04  0.7818609E-02  0.8327775E-01
       -2   -1    0    0    0  501  0.00000000000E+00  0.00000000000E+00  0.15258623162E+04  0.15258623162E+04  0.25500000920E-02 0.  1.
        2   -1    0    0  501    0  0.00000000000E+00  0.00000000000E+00 -0.12143015247E+04  0.12143015247E+04  0.25500000920E-02 0. -1.
    10030    2    1    2    0    0  0.00000000000E+00  0.00000000000E+00  0.31156079158E+03  0.27401638409E+04  0.27223937533E+04 0.  0.
        5    1    3    3  502    0  0.63681571524E+03  0.42876588847E+03  0.12871549574E+04  0.14987209269E+04  0.46999998093E+01 0.  1.
       -5    1    3    3    0  502 -0.63681571524E+03 -0.42876588847E+03 -0.97559416585E+03  0.12414429140E+04  0.46999998093E+01 0. -1.
</event>
<event>
 5   0  0.1350863E-05  0.2745874E+04  0.7818609E-02  0.8320272E-01
       -2   -1    0    0    0  501  0.00000000000E+00  0.00000000000E+00  0.92194156951E+03  0.92194156951E+03  0.25500000920E-02 0. -1.
        2   -1    0    0  501    0  0.00000000000E+00  0.00000000000E+00 -0.20445509257E+04  0.20445509257E+04  0.25500000920E-02 0.  1.
    10030    2    1    2    0    0  0.00000000000E+00  0.00000000000E+00 -0.11226093561E+04  0.29664924952E+04  0.27458743521E+04 0.  0.
        3    1    3    3  502    0  0.86362922815E+03 -0.10637038252E+04 -0.46690445446E+03  0.14475223837E+04  0.10100000352E+00 0. -1.
       -3    1    3    3    0  502 -0.86362922815E+03  0.10637038252E+04 -0.65570490169E+03  0.15189701115E+04  0.10100000352E+00 0.  1.
</event>
<event>
 5   0  0.5107453E-06  0.2787994E+04  0.7818609E-02  0.8307005E-01
        1   -1    0    0  501    0  0.00000000000E+00  0.00000000000E+00  0.32627051837E+04  0.32627051837E+04  0.50400001928E-02 0. -1.
       -1   -1    0    0    0  501  0.00000000000E+00  0.00000000000E+00 -0.59558807674E+03  0.59558807676E+03  0.50400001928E-02 0.  1.
    10030    2    1    2    0    0  0.00000000000E+00  0.00000000000E+00  0.26671171070E+04  0.38582932605E+04  0.27879944802E+04 0.  0.
        2    1    3    3  502    0  0.11351545216E+03  0.30006330230E+03 -0.54380410846E+03  0.63138470970E+03  0.25500000920E-02 0.  1.
       -2    1    3    3    0  502 -0.11351545216E+03 -0.30006330230E+03  0.32109212154E+04  0.32269085508E+04  0.25500000920E-02 0. -1.
</event>
<event>
 5   0  0.1350863E-05  0.2793309E+04  0.7818609E-02  0.8305349E-01
        2   -1    0    0  501    0  0.00000000000E+00  0.00000000000E+00  0.29707986518E+04  0.29707986518E+04  0.25500000920E-02 0.  1.
       -2   -1    0    0    0  501  0.00000000000E+00  0.00000000000E+00 -0.65660571206E+03  0.65660571206E+03  0.25500000920E-02 0. -1.
    10030    2    1    2    0    0  0.00000000000E+00  0.00000000000E+00  0.23141929398E+04  0.36274043639E+04  0.27933086934E+04 0.  0.
        3    1    3    3  502    0  0.13031112685E+04  0.48334386851E+03  0.97845883532E+03  0.16997358547E+04  0.10100000352E+00 0. -1.
       -3    1    3    3    0  502 -0.13031112685E+04 -0.48334386851E+03  0.13357341045E+04  0.19276685092E+04  0.10100000352E+00 0.  1.
</event>
<event>
 5   0  0.5023691E-06  0.2843740E+04  0.7818609E-02  0.8289816E-01
        1   -1    0    0  501    0  0.00000000000E+00  0.00000000000E+00  0.18016456552E+04  0.18016456552E+04  0.50400001928E-02 0. -1.
       -1   -1    0    0    0  501  0.00000000000E+00  0.00000000000E+00 -0.11221483040E+04  0.11221483040E+04  0.50400001928E-02 0.  1.
    10030    2    1    2    0    0  0.00000000000E+00  0.00000000000E+00  0.67949735120E+03  0.29237939593E+04  0.28437395215E+04 0.  0.
        5    1    3    3  502    0  0.79563389875E+03 -0.90105496300E+03  0.11205738949E+04  0.16433627996E+04  0.46999998093E+01 0. -1.
       -5    1    3    3    0  502 -0.79563389875E+03  0.90105496300E+03 -0.44107654374E+03  0.12804311597E+04  0.46999998093E+01 0.  1.
</event>
<event>
 5   0  0.4764214E-06  0.2685922E+04  0.7818609E-02  0.8339587E-01
        1   -1    0    0  501    0  0.00000000000E+00  0.00000000000E+00  0.17141707379E+04  0.17141707379E+04  0.50400001928E-02 0.  1.
       -1   -1    0    0    0  501  0.00000000000E+00  0.00000000000E+00 -0.10521382682E+04  0.10521382682E+04  0.50400001928E-02 0. -1.
    10030    2    1    2    0    0  0.00000000000E+00  0.00000000000E+00  0.66203246973E+03  0.27663090061E+04  0.26859222859E+04 0.  0.
        3    1    3    3  502    0  0.60081926237E+03 -0.11405368421E+04  0.71876299005E+03  0.14759499722E+04  0.10100000352E+00 0.  1.
       -3    1    3    3    0  502 -0.60081926237E+03  0.11405368421E+04 -0.56730520316E+02  0.12903590339E+04  0.10100000352E+00 0. -1.
</event>
<event>
 5   0  0.5281919E-06  0.2342343E+04  0.7818609E-02  0.8461410E-01
        1   -1    0    0  501    0  0.00000000000E+00  0.00000000000E+00  0.14113630232E+04  0.14113630232E+04  0.50400001928E-02 0.  1.
       -1   -1    0    0    0  501  0.00000000000E+00  0.00000000000E+00 -0.97185707488E+03  0.97185707489E+03  0.50400001928E-02 0. -1.
    10030    2    1    2    0    0  0.00000000000E+00  0.00000000000E+00  0.43950594831E+03  0.23832200981E+04  0.23423433901E+04 0.  0.
        4    1    3    3  502    0  0.60070722993E+03 -0.89876223655E+03 -0.23868618724E+03  0.11070661420E+04  0.12699999809E+01 0.  1.
       -4    1    3    3    0  502 -0.60070722993E+03  0.89876223655E+03  0.67819213555E+03  0.12761539561E+04  0.12699999809E+01 0. -1.
</event>
<event>
 5   0  0.1330962E-05  0.2789792E+04  0.7818609E-02  0.8306444E-01
        2   -1    0    0  501    0  0.00000000000E+00  0.00000000000E+00  0.25243241986E+04  0.25243241986E+04  0.25500000920E-02 0. -1.
       -2   -1    0    0    0  501  0.00000000000E+00  0.00000000000E+00 -0.77079458825E+03  0.77079458825E+03  0.25500000920E-02 0.  1.
    10030    2    1    2    0    0  0.00000000000E+00  0.00000000000E+00  0.17535296103E+04  0.32951187868E+04  0.27897924161E+04 0.  0.
        4    1    3    3  502    0  0.13432588109E+02  0.10560575864E+04  0.19530208297E+04  0.22202995371E+04  0.12699999809E+01 0. -1.
       -4    1    3    3    0  502 -0.13432588109E+02 -0.10560575864E+04 -0.19949121939E+03  0.10748192498E+04  0.12699999809E+01 0.  1.
</event>
<event>
 5   0  0.5281919E-06  0.2519095E+04  0.7818609E-02  0.8396214E-01
       -1   -1    0    0    0  501  0.00000000000E+00  0.00000000000E+00  0.15941510436E+04  0.15941510436E+04  0.50400001928E-02 0. -1.
        1   -1    0    0  501    0  0.00000000000E+00  0.00000000000E+00 -0.99517516134E+03  0.99517516135E+03  0.50400001928E-02 0.  1.
    10030    2    1    2    0    0  0.00000000000E+00  0.00000000000E+00  0.59897588222E+03  0.25893262049E+04  0.25190946961E+04 0.  0.
        4    1    3    3  502    0 -0.11561614675E+03  0.89359135698E+03  0.12041302580E+04  0.15039294857E+04  0.12699999809E+01 0. -1.
       -4    1    3    3    0  502  0.11561614675E+03 -0.89359135698E+03 -0.60515437582E+03  0.10853967192E+04  0.12699999809E+01 0.  1.
</event>
<event>
 5   0  0.1283052E-05  0.2856144E+04  0.7818609E-02  0.8286047E-01
       -2   -1    0    0    0  501  0.00000000000E+00  0.00000000000E+00  0.10047430185E+04  0.10047430185E+04  0.25500000920E-02 0. -1.
        2   -1    0    0  501    0  0.00000000000E+00  0.00000000000E+00 -0.20297624208E+04  0.20297624208E+04  0.25500000920E-02 0.  1.
    10030    2    1    2    0    0  0.00000000000E+00  0.00000000000E+00 -0.10250194024E+04  0.30345054393E+04  0.28561439890E+04 0.  0.
        5    1    3    3  502    0 -0.86593162616E+03 -0.11354454014E+04 -0.49430208898E+03  0.15111024075E+04  0.46999998093E+01 0. -1.
       -5    1    3    3    0  502  0.86593162616E+03  0.11354454014E+04 -0.53071731339E+03  0.15234030318E+04  0.46999998093E+01 0.  1.
</event>
<event>
 5   0  0.4764214E-06  0.2835148E+04  0.7818609E-02  0.8292439E-01
       -1   -1    0    0    0  501  0.00000000000E+00  0.00000000000E+00  0.14341167344E+04  0.14341167344E+04  0.50400001928E-02 0. -1.
        1   -1    0    0  501    0  0.00000000000E+00  0.00000000000E+00 -0.14012223276E+04  0.14012223276E+04  0.50400001928E-02 0.  1.
    10030    2    1    2    0    0  0.00000000000E+00  0.00000000000E+00  0.32894406803E+02  0.28353390620E+04  0.28351482421E+04 0.  0.
        3    1    3    3  502    0 -0.38028107804E+03 -0.56297188114E+03  0.12607034954E+04  0.14321048672E+04  0.10100000352E+00 0. -1.
       -3    1    3    3    0  502  0.38028107804E+03  0.56297188114E+03 -0.12278090886E+04  0.14032341948E+04  0.10100000352E+00 0.  1.
</event>
<event>
 5   0  0.1302063E-05  0.2723516E+04  0.7818609E-02  0.8327415E-01
        2   -1    0    0  501    0  0.00000000000E+00  0.00000000000E+00  0.12615444474E+04  0.12615444474E+04  0.25500000920E-02 0.  1.
       -2   -1    0    0    0  501  0.00000000000E+00  0.00000000000E+00 -0.14699319973E+04  0.14699319973E+04  0.25500000920E-02 0. -1.
    10030    2    1    2    0    0  0.00000000000E+00  0.00000000000E+00 -0.20838754983E+03  0.27314764447E+04  0.27235157788E+04 0.  0.
        2    1    3    3  502    0  0.40736582568E+03  0.66538524064E+03  0.10151779079E+04  0.12803400404E+04  0.25500000920E-02 0.  1.
       -2    1    3    3    0  502 -0.40736582568E+03 -0.66538524064E+03 -0.12235654578E+04  0.14511364043E+04  0.25500000920E-02 0. -1.
</event>
<event>
 5   0  0.1330962E-05  0.2363844E+04  0.7818609E-02  0.8453165E-01
       -2   -1    0    0    0  501  0.00000000000E+00  0.00000000000E+00  0.76712915142E+03  0.76712915143E+03  0.25500000920E-02 0.  1.
        2   -1    0    0  501    0  0.00000000000E+00  0.00000000000E+00 -0.18209965534E+04  0.18209965534E+04  0.25500000920E-02 0. -1.
    10030    2    1    2    0    0  0.00000000000E+00  0.00000000000E+00 -0.10538674020E+04  0.25881257048E+04  0.23638439380E+04 0.  0.
        4    1    3    3  502    0  0.73849922402E+01 -0.81185777318E+03 -0.14673651909E+04  0.16770002380E+04  0.12699999809E+01 0. -1.
       -4    1    3    3    0  502 -0.73849922402E+01  0.81185777318E+03  0.41349778889E+03  0.91112546683E+03  0.12699999809E+01 0.  1.
</event>
<event>
 5   0  0.1302063E-05  0.2802948E+04  0.7818609E-02  0.8302354E-01
        2   -1    0    0  501    0  0.00000000000E+00  0.00000000000E+00  0.87271967458E+03  0.87271967458E+03  0.25500000920E-02 0.  1.
       -2   -1    0    0    0  501  0.00000000000E+00  0.00000000000E+00 -0.22505840195E+04  0.22505840195E+04  0.25500000920E-02 0. -1.
    10030    2    1    2    0    0  0.00000000000E+00  0.00000000000E+00 -0.13778643449E+04  0.31233036941E+04  0.28029477006E+04 0.  0.
        2    1    3    3  502    0  0.15489186804E+03 -0.20944364488E+03  0.84550602724E+03  0.88472513996E+03  0.25500000920E-02 0.  1.
       -2    1    3    3    0  502 -0.15489186804E+03  0.20944364488E+03 -0.22233703721E+04  0.22385785541E+04  0.25500000920E-02 0. -1.
</event>
<event>
 5   0  0.5281919E-06  0.2780288E+04  0.7818609E-02  0.8309414E-01
       -1   -1    0    0    0  501  0.00000000000E+00  0.00000000000E+00  0.10164850265E+04  0.10164850265E+04  0.50400001928E-02 0.  1.
        1   -1    0    0  501    0  0.00000000000E+00  0.00000000000E+00 -0.19011600161E+04  0.19011600161E+04  0.50400001928E-02 0. -1.
    10030    2    1    2    0    0  0.00000000000E+00  0.00000000000E+00 -0.88467498952E+03  0.29176450426E+04  0.27802882508E+04 0.  0.
        4    1    3    3  502    0 -0.10343833062E+04 -0.15074298495E+03  0.51935781181E+03  0.11672216676E+04  0.12699999809E+01 0.  1.
       -4    1    3    3    0  502  0.10343833062E+04  0.15074298495E+03 -0.14040328013E+04  0.17504233750E+04  0.12699999809E+01 0. -1.
</event>
<event>
 5   0  0.1283052E-05  0.2760931E+04  0.7818609E-02  0.8315501E-01
        2   -1    0    0  501    0  0.00000000000E+00  0.00000000000E+00  0.22388320203E+04  0.22388320203E+04  0.25500000920E-02 0.  1.
       -2   -1    0    0    0  501  0.00000000000E+00  0.00000000000E+00 -0.85119600142E+03  0.85119600143E+03  0.25500000920E-02 0. -1.
    10030    2    1    2    0    0  0.00000000000E+00  0.00000000000E+00  0.13876360189E+04  0.30900280218E+04  0.27609309036E+04 0.  0.
        5    1    3    3  502    0  0.13567785438E+04  0.21149897028E+03  0.53521166710E+03  0.14737888078E+04  0.46999998093E+01 0. -1.
       -5    1    3    3    0  502 -0.13567785438E+04 -0.21149897028E+03  0.85242435182E+03  0.16162392140E+04  0.46999998093E+01 0.  1.
</event>
<event>
 5   0  0.5107453E-06  0.2691730E+04  0.7818609E-02  0.8337693E-01
        1   -1    0    0  501    0  0.00000000000E+00  0.00000000000E+00  0.62678186827E+03  0.62678186829E+03  0.50400001928E-02 0.  1.
       -1   -1    0    0    0  501  0.00000000000E+00  0.00000000000E+00 -0.28899257918E+04  0.28899257918E+04  0.50400001928E-02 0. -1.
    10030    2    1    2    0    0  0.00000000000E+00  0.00000000000E+00 -0.22631439235E+04  0.35167076601E+04  0.26917303631E+04 0.  0.
        2    1    3    3  502    0 -0.35586886439E+03 -0.10535217401E+04 -0.21220936594E+04  0.23957946917E+04  0.25500000920E-02 0. -1.
       -2    1    3    3    0  502  0.35586886439E+03  0.10535217401E+04 -0.14105026411E+03  0.11209129683E+04  0.25500000920E-02 0.  1.
</event>
<event>
 5   0  0.5217999E-06  0.2752637E+04  0.7818609E-02  0.8318125E-01
       -1   -1    0    0    0  501  0.00000000000E+00  0.00000000000E+00  0.15607032334E+04  0.15607032334E+04  0.50400001928E-02 0. -1.
        1   -1    0    0  501    0  0.00000000000E+00  0.00000000000E+00 -0.12137174603E+04  0.12137174603E+04  0.50400001928E-02 0.  1.
    10030    2    1    2    0    0  0.00000000000E+00  0.00000000000E+00  0.34698577308E+03  0.27744206938E+04  0.27526371100E+04 0.  0.
        1    1    3    3  502    0  0.36748780633E+03 -0.12662192078E+04 -0.22446636425E+03  0.13374391645E+04  0.50400001928E-02 0.  1.
       -1    1    3    3    0  502 -0.36748780633E+03  0.12662192078E+04  0.57145213733E+03  0.14369815292E+04  0.50400001928E-02 0. -1.
</event>
<event>
 5   0  0.5023691E-06  0.2855655E+04  0.7818609E-02  0.8286195E-01
       -1   -1    0    0    0  501  0.00000000000E+00  0.00000000000E+00  0.11267804122E+04  0.11267804122E+04  0.50400001928E-02 0. -1.
        1   -1    0    0  501    0  0.00000000000E+00  0.00000000000E+00 -0.18093071364E+04  0.18093071364E+04  0.50400001928E-02 0.  1.
    10030    2    1    2    0    0  0.00000000000E+00  0.00000000000E+00 -0.68252672415E+03  0.29360875486E+04  0.28556553300E+04 0.  0.
        5    1    3    3  502    0  0.39092379114E+03  0.58670661947E+03  0.93532946525E+03  0.11712853480E+04  0.46999998093E+01 0. -1.
       -5    1    3    3    0  502 -0.39092379114E+03 -0.58670661947E+03 -0.16178561894E+04  0.17648022006E+04  0.46999998093E+01 0.  1.
</event>
<event>
 5   0  0.5281919E-06  0.2525493E+04  0.7818609E-02  0.8393959E-01
        1   -1    0    0  501    0  0.00000000000E+00  0.00000000000E+00  0.95298906868E+03  0.95298906869E+03  0.50400001928E-02 0.  1.
       -1   -1    0    0    0  501  0.00000000000E+00  0.00000000000E+00 -0.16731866637E+04  0.16731866637E+04  0.50400001928E-02 0. -1.
    10030    2    1    2    0    0  0.00000000000E+00  0.00000000000E+00 -0.72019759499E+03  0.26261757324E+04  0.25254929027E+04 0.  0.
        4    1    3    3  502    0 -0.22353558940E+03  0.80665286032E+03 -0.13432375387E+04  0.15827020235E+04  0.12699999809E+01 0. -1.
       -4    1    3    3    0  502  0.22353558940E+03 -0.80665286032E+03  0.62303994372E+03  0.10434737089E+04  0.12699999809E+01 0.  1.
</event>
<event>
 5   0  0.1388269E-05  0.2806629E+04  0.7818609E-02  0.8301213E-01
        2   -1    0    0  501    0  0.00000000000E+00  0.00000000000E+00  0.23274288797E+04  0.23274288797E+04  0.25500000920E-02 0.  1.
       -2   -1    0    0    0  501  0.00000000000E+00  0.00000000000E+00 -0.84612346163E+03  0.84612346164E+03  0.25500000920E-02 0. -1.
    10030    2    1    2    0    0  0.00000000000E+00  0.00000000000E+00  0.14813054181E+04  0.31735523414E+04  0.28066294236E+04 0.  0.
        1    1    3    3  502    0 -0.73459931277E+03 -0.10286381467E+04  0.51405793969E+02  0.12650593436E+04  0.50400001928E-02 0.  1.
       -1    1    3    3    0  502  0.73459931277E+03  0.10286381467E+04  0.14298996241E+04  0.19084929977E+04  0.50400001928E-02 0. -1.
</event>
<event>
 5   0  0.5217999E-06  0.2805493E+04  0.7818609E-02  0.8301565E-01
       -1   -1    0    0    0  501  0.00000000000E+00  0.00000000000E+00  0.10825800457E+04  0.10825800457E+04  0.50400001928E-02 0.  1.
        1   -1    0    0  501    0  0.00000000000E+00  0.00000000000E+00 -0.18176004492E+04  0.18176004492E+04  0.50400001928E-02 0. -1.
    10030    2    1    2    0    0  0.00000000000E+00  0.00000000000E+00 -0.73502040354E+03  0.29001804949E+04  0.28054931668E+04 0.  0.
        1    1    3    3  502    0  0.11414140092E+04  0.78596572685E+03 -0.14308887190E+03  0.13932130094E+04  0.50400001928E-02 0. -1.
       -1    1    3    3    0  502 -0.11414140092E+04 -0.78596572685E+03 -0.59193153164E+03  0.15069674855E+04  0.50400001928E-02 0.  1.
</event>
<event>
 5   0  0.1350863E-05  0.2861016E+04  0.7818609E-02  0.8284572E-01
       -2   -1    0    0    0  501  0.00000000000E+00  0.00000000000E+00  0.12345664728E+04  0.12345664728E+04  0.25500000920E-02 0.  1.
        2   -1    0    0  501    0  0.00000000000E+00  0.00000000000E+00 -0.16575474378E+04  0.16575474378E+04  0.25500000920E-02 0. -1.
    10030    2    1    2    0    0  0.00000000000E+00  0.00000000000E+00 -0.42298096499E+03  0.28921139106E+04  0.28610155497E+04 0.  0.
        3    1    3    3  502    0  0.81602738733E+03  0.90342378587E+03  0.54785855480E+03  0.13349997154E+04  0.10100000352E+00 0.  1.
       -3    1    3    3    0  502 -0.81602738733E+03 -0.90342378587E+03 -0.97083951979E+03  0.15571141953E+04  0.10100000352E+00 0. -1.
</event>
<event>
 5   0  0.1388269E-05  0.2802628E+04  0.7818609E-02  0.8302453E-01
        2   -1    0    0  501    0  0.00000000000E+00  0.00000000000E+00  0.15334469784E+04  0.15334469784E+04  0.25500000920E-02 0.  1.
       -2   -1    0    0    0  501  0.00000000000E+00  0.00000000000E+00 -0.12805663831E+04  0.12805663831E+04  0.25500000920E-02 0. -1.
    10030    2    1    2    0    0  0.00000000000E+00  0.00000000000E+00  0.25288059531E+03  0.28140133614E+04  0.28026278031E+04 0.  0.
        1    1    3    3  502    0 -0.83613766358E+03  0.10487550848E+04 -0.28100031825E+03  0.13703921334E+04  0.50400001928E-02 0. -1.
       -1    1    3    3    0  502  0.83613766358E+03 -0.10487550848E+04  0.53388091356E+03  0.14436212281E+04  0.50400001928E-02 0.  1.
</event>
<event>
 5   0  0.1388269E-05  0.2805128E+04  0.7818609E-02  0.8301678E-01
        2   -1    0    0  501    0  0.00000000000E+00  0.00000000000E+00  0.12234065879E+04  0.12234065879E+04  0.25500000920E-02 0.  1.
       -2   -1    0    0    0  501  0.00000000000E+00  0.00000000000E+00 -0.16079576217E+04  0.16079576217E+04  0.25500000920E-02 0. -1.
    10030    2    1    2    0    0  0.00000000000E+00  0.00000000000E+00 -0.38455103376E+03  0.28313642097E+04  0.28051281237E+04 0.  0.
        1    1    3    3  502    0  0.95022118201E+03 -0.98565441319E+03 -0.49967448653E+03  0.14574325060E+04  0.50400001928E-02 0. -1.
       -1    1    3    3    0  502 -0.95022118201E+03  0.98565441319E+03  0.11512345276E+03  0.13739317037E+04  0.50400001928E-02 0.  1.
</event>
<event>
 5   0  0.1283052E-05  0.2788257E+04  0.7818609E-02  0.8306923E-01
       -2   -1    0    0    0  501  0.00000000000E+00  0.00000000000E+00  0.10057973750E+04  0.10057973750E+04  0.25500000920E-02 0.  1.
        2   -1    0    0  501    0  0.00000000000E+00  0.00000000000E+00 -0.19323912086E+04  0.19323912086E+04  0.25500000920E-02 0. -1.
    10030    2    1    2    0    0  0.00000000000E+00  0.00000000000E+00 -0.92659383368E+03  0.29381885836E+04  0.27882568067E+04 0.  0.
        5    1    3    3  502    0  0.69249739620E+03  0.68081065673E+03  0.59074757043E+03  0.11366884252E+04  0.46999998093E+01 0.  1.
       -5    1    3    3    0  502 -0.69249739620E+03 -0.68081065673E+03 -0.15173414041E+04  0.18015001584E+04  0.46999998093E+01 0. -1.
</event>
<event>
 5   0  0.5023691E-06  0.2823989E+04  0.7818609E-02  0.8295859E-01
       -1   -1    0    0    0  501  0.00000000000E+00  0.00000000000E+00  0.10117941755E+04  0.10117941755E+04  0.50400001928E-02 0. -1.
        1   -1    0    0  501    0  0.00000000000E+00  0.00000000000E+00 -0.19704885582E+04  0.19704885582E+04  0.50400001928E-02 0.  1.
    10030    2    1    2    0    0  0.00000000000E+00  0.00000000000E+00 -0.95869438270E+03  0.29822827337E+04  0.28239892677E+04 0.  0.
        5    1    3    3  502    0 -0.13848327094E+04 -0.22982222325E+03 -0.63994669162E+03  0.15427682086E+04  0.46999998093E+01 0.  1.
       -5    1    3    3    0  502  0.13848327094E+04  0.22982222325E+03 -0.31874769107E+03  0.14395145251E+04  0.46999998093E+01 0. -1.
</event>
<event>
 5   0  0.1350863E-05  0.2704800E+04  0.7818609E-02  0.8333449E-01
        2   -1    0    0  501    0  0.00000000000E+00  0.00000000000E+00  0.17600154294E+04  0.17600154294E+04  0.25500000920E-02 0. -1.
       -2   -1    0    0    0  501  0.00000000000E+00  0.00000000000E+00 -0.10391870191E+04  0.10391870191E+04  0.25500000920E-02 0.  1.
    10030    2    1    2    0    0  0.00000000000E+00  0.00000000000E+00  0.72082841032E+03  0.27992024486E+04  0.27047995769E+04 0.  0.
        3    1    3    3  502    0 -0.86831345766E+03  0.42767653550E+03  0.13378952621E+04  0.16513143924E+04  0.10100000352E+00 0. -1.
       -3    1    3    3    0  502  0.86831345766E+03 -0.42767653550E+03 -0.61706685182E+03  0.11478880562E+04  0.10100000352E+00 0.  1.
</event>
<event>
 5   0  0.5107453E-06  0.2748459E+04  0.7818609E-02  0.8319451E-01
        1   -1    0    0  501    0  0.00000000000E+00  0.00000000000E+00  0.14934759460E+04  0.14934759460E+04  0.50400001928E-02 0.  1.
       -1   -1    0    0    0  501  0.00000000000E+00  0.00000000000E+00 -0.12645040373E+04  0.12645040373E+04  0.50400001928E-02 0. -1.
    10030    2    1    2    0    0  0.00000000000E+00  0.00000000000E+00  0.22897190872E+03  0.27579799832E+04  0.27484587414E+04 0.  0.
        2    1    3    3  502    0 -0.11844174864E+03 -0.11147375401E+04 -0.68315015082E+03  0.13127689666E+04  0.25500000920E-02 0. -1.
       -2    1    3    3    0  502  0.11844174864E+03  0.11147375401E+04  0.91212205954E+03  0.14452110166E+04  0.25500000920E-02 0.  1.
</event>
<event>
 5   0  0.5217999E-06  0.2757569E+04  0.7818609E-02  0.8316564E-01
        1   -1    0    0  501    0  0.00000000000E+00  0.00000000000E+00  0.16568619163E+04  0.16568619163E+04  0.50400001928E-02 0. -1.
       -1   -1    0    0    0  501  0.00000000000E+00  0.00000000000E+00 -0.11473782338E+04  0.11473782338E+04  0.50400001928E-02 0.  1.
    10030    2    1    2    0    0  0.00000000000E+00  0.00000000000E+00  0.50948368249E+03  0.28042401501E+04  0.27575694365E+04 0.  0.
        1    1    3    3  502    0  0.13179521475E+04  0.40338289325E+03  0.21763207007E+03  0.13953778483E+04  0.50400001928E-02 0. -1.
       -1    1    3    3    0  502 -0.13179521475E+04 -0.40338289325E+03  0.29185161242E+03  0.14088623018E+04  0.50400001928E-02 0.  1.
</event>
<event>
 5   0  0.4764214E-06  0.2764380E+04  0.7818609E-02  0.8314413E-01
        1   -1    0    0  501    0  0.00000000000E+00  0.00000000000E+00  0.11385221271E+04  0.11385221271E+04  0.50400001928E-02 0.  1.
       -1   -1    0    0    0  501  0.00000000000E+00  0.00000000000E+00 -0.16780079794E+04  0.16780079795E+04  0.50400001928E-02 0. -1.
    10030    2    1    2    0    0  0.00000000000E+00  0.00000000000E+00 -0.53948585238E+03  0.28165301065E+04  0.27643800130E+04 0.  0.
        3    1    3    3  502    0 -0.79766078893E+03  0.78349539929E+03  0.55818846499E+03  0.12496808183E+04  0.10100000352E+00 0.  1.
       -3    1    3    3    0  502  0.79766078893E+03 -0.78349539929E+03 -0.10976743174E+04  0.15668492883E+04  0.10100000352E+00 0. -1.
</event>
<event>
 5   0  0.4764214E-06  0.2866496E+04  0.7818609E-02  0.8282916E-01
       -1   -1    0    0    0  501  0.00000000000E+00  0.00000000000E+00  0.14266502835E+04  0.14266502835E+04  0.50400001928E-02 0. -1.
        1   -1    0    0  501    0  0.00000000000E+00  0.00000000000E+00 -0.14398766767E+04  0.14398766767E+04  0.50400001928E-02 0.  1.
    10030    2    1    2    0    0  0.00000000000E+00  0.00000000000E+00 -0.13226393236E+02  0.28665269602E+04  0.28664964462E+04 0.  0.
        3    1    3    3  502    0 -0.89860059252E+03 -0.42187305692E+03 -0.10404232911E+04  0.14380335656E+04  0.10100000352E+00 0.  1.
       -3    1    3    3    0  502  0.89860059252E+03  0.42187305692E+03  0.10271968979E+04  0.14284933945E+04  0.10100000352E+00 0. -1.
</event>
<event>
 5   0  0.1302063E-05  0.2855466E+04  0.7818609E-02  0.8286252E-01
       -2   -1    0    0    0  501  0.00000000000E+00  0.00000000000E+00  0.11864092084E+04  0.11864092084E+04  0.25500000920E-02 0.  1.
        2   -1    0    0  501    0  0.00000000000E+00  0.00000000000E+00 -0.17181438464E+04  0.17181438464E+04  0.25500000920E-02 0. -1.
    10030    2    1    2    0    0  0.00000000000E+00  0.00000000000E+00 -0.53173463800E+03  0.29045530549E+04  0.28554661131E+04 0.  0.
        2    1    3    3  502    0 -0.76317980456E+02 -0.23540811481E+02  0.11841352052E+04  0.11868255087E+04  0.25500000920E-02 0.  1.
       -2    1    3    3    0  502  0.76317980456E+02  0.23540811481E+02 -0.17158698432E+04  0.17177275461E+04  0.25500000920E-02 0. -1.
</event>
<event>
 5   0  0.5023691E-06  0.2835207E+04  0.7818609E-02  0.8292421E-01
       -1   -1    0    0    0  501  0.00000000000E+00  0.00000000000E+00  0.17274761418E+04  0.17274761418E+04  0.50400001928E-02 0. -1.
        1   -1    0    0  501    0  0.00000000000E+00  0.00000000000E+00 -0.11633154731E+04  0.11633154731E+04  0.50400001928E-02 0.  1.
    10030    2    1    2    0    0  0.00000000000E+00  0.00000000000E+00  0.56416066876E+03  0.28907916149E+04  0.28352070296E+04 0.  0.
        5    1    3    3  502    0 -0.42836687439E+03  0.10886328064E+04 -0.53421406889E+03  0.12860895489E+04  0.46999998093E+01 0.  1.
       -5    1    3    3    0  502  0.42836687439E+03 -0.10886328064E+04  0.10983747376E+04  0.16047020660E+04  0.46999998093E+01 0. -1.
</event>
<event>
 5   0  0.1283052E-05  0.2798350E+04  0.7818609E-02  0.8303781E-01
       -2   -1    0    0    0  501  0.00000000000E+00  0.00000000000E+00  0.10144848205E+04  0.10144848205E+04  0.25500000920E-02 0.  1.
        2   -1    0    0  501    0  0.00000000000E+00  0.00000000000E+00 -0.19297386161E+04  0.19297386161E+04  0.25500000920E-02 0. -1.
    10030    2    1    2    0    0  0.00000000000E+00  0.00000000000E+00 -0.91525379560E+03  0.29442234366E+04  0.27983498949E+04 0.  0.
        5    1    3    3  502    0  0.93945132350E+03  0.82133930698E+03  0.20821445981E+03  0.12651254474E+04  0.46999998093E+01 0.  1.
       -5    1    3    3    0  502 -0.93945132350E+03 -0.82133930698E+03 -0.11234682554E+04  0.16790979892E+04  0.46999998093E+01 0. -1.
</event>
<event>
 5   0  0.5107453E-06  0.2790692E+04  0.7818609E-02  0.8306164E-01
       -1   -1    0    0    0  501  0.00000000000E+00  0.00000000000E+00  0.10258938998E+04  0.10258938998E+04  0.50400001928E-02 0.  1.
        1   -1    0    0  501    0  0.00000000000E+00  0.00000000000E+00 -0.18978479780E+04  0.18978479780E+04  0.50400001928E-02 0. -1.
    10030    2    1    2    0    0  0.00000000000E+00  0.00000000000E+00 -0.87195407820E+03  0.29237418778E+04  0.27906921459E+04 0.  0.
        2    1    3    3  502    0  0.12794149056E+04  0.27003132029E+03 -0.94619779087E+03  0.16140352146E+04  0.25500000920E-02 0. -1.
       -2    1    3    3    0  502 -0.12794149056E+04 -0.27003132029E+03  0.74243712667E+02  0.13097066631E+04  0.25500000920E-02 0.  1.
</event>
<event>
 5   0  0.4447500E-06  0.2431741E+04  0.7818609E-02  0.8427715E-01
        4   -1    0    0  501    0  0.00000000000E+00  0.00000000000E+00  0.15340710542E+04  0.15340715799E+04  0.12699999809E+01 0. -1.
       -4   -1    0    0    0  501  0.00000000000E+00  0.00000000000E+00 -0.96367058516E+03  0.96367142201E+03  0.12699999809E+01 0.  1.
    10030    2    1    2    0    0  0.00000000000E+00  0.00000000000E+00  0.57040046905E+03  0.24977430019E+04  0.24317408185E+04 0.  0.
        5    1    3    3  502    0  0.37480050524E+03 -0.10071866073E+04  0.86933476904E+03  0.13822681764E+04  0.46999998093E+01 0. -1.
       -5    1    3    3    0  502 -0.37480050524E+03  0.10071866073E+04 -0.29893429999E+03  0.11154748255E+04  0.46999998093E+01 0.  1.
</event>
<event>
 5   0  0.5217999E-06  0.2778844E+04  0.7818609E-02  0.8309867E-01
        1   -1    0    0  501    0  0.00000000000E+00  0.00000000000E+00  0.10888172448E+04  0.10888172448E+04  0.50400001928E-02 0.  1.
       -1   -1    0    0    0  501  0.00000000000E+00  0.00000000000E+00 -0.17730186206E+04  0.17730186206E+04  0.50400001928E-02 0. -1.
    10030    2    1    2    0    0  0.00000000000E+00  0.00000000000E+00 -0.68420137579E+03  0.28618358654E+04  0.27788438240E+04 0.  0.
        1    1    3    3  502    0 -0.25232868741E+03 -0.98103922695E+03  0.63729318439E+03  0.11967666164E+04  0.50400001928E-02 0.  1.
       -1    1    3    3    0  502  0.25232868741E+03  0.98103922695E+03 -0.13214945602E+04  0.16650692490E+04  0.50400001928E-02 0. -1.
</event>
<event>
 5   0  0.5107453E-06  0.2788922E+04  0.7818609E-02  0.8306716E-01
        1   -1    0    0  501    0  0.00000000000E+00  0.00000000000E+00  0.16667599561E+04  0.16667599561E+04  0.50400001928E-02 0. -1.
       -1   -1    0    0    0  501  0.00000000000E+00  0.00000000000E+00 -0.11666476606E+04  0.11666476606E+04  0.50400001928E-02 0.  1.
    10030    2    1    2    0    0  0.00000000000E+00  0.00000000000E+00  0.50011229548E+03  0.28334076167E+04  0.27889220882E+04 0.  0.
        2    1    3    3  502    0 -0.98576152387E+02 -0.45636257238E+03 -0.10848806019E+04  0.11810800039E+04  0.25500000920E-02 0.  1.
       -2    1    3    3    0  502  0.98576152387E+02  0.45636257238E+03  0.15849928974E+04  0.16523276128E+04  0.25500000920E-02 0. -1.
</event>
<event>
 5   0  0.1388269E-05  0.2817650E+04  0.7818609E-02  0.8297810E-01
        2   -1    0    0  501    0  0.00000000000E+00  0.00000000000E+00  0.12174598179E+04  0.12174598179E+04  0.25500000920E-02 0. -1.
       -2   -1    0    0    0  501  0.00000000000E+00  0.00000000000E+00 -0.16302695037E+04  0.16302695037E+04  0.25500000920E-02 0.  1.
    10030    2    1    2    0    0  0.00000000000E+00  0.00000000000E+00 -0.41280968587E+03  0.28477293216E+04  0.28176498101E+04 0.  0.
        1    1    3    3  502    0  0.23853729472E+01 -0.34169940386E+03  0.11749423569E+04  0.12236231915E+04  0.50400001928E-02 0. -1.
       -1    1    3    3    0  502 -0.23853729472E+01  0.34169940386E+03 -0.15877520428E+04  0.16241061301E+04  0.50400001928E-02 0.  1.
</event>
<event>
 5   0  0.1388269E-05  0.2863694E+04  0.7818609E-02  0.8283762E-01
        2   -1    0    0  501    0  0.00000000000E+00  0.00000000000E+00  0.16979470222E+04  0.16979470222E+04  0.25500000920E-02 0.  1.
       -2   -1    0    0    0  501  0.00000000000E+00  0.00000000000E+00 -0.12074502035E+04  0.12074502035E+04  0.25500000920E-02 0. -1.
    10030    2    1    2    0    0  0.00000000000E+00  0.00000000000E+00  0.49049681875E+03  0.29053972257E+04  0.28636944513E+04 0.  0.
        1    1    3    3  502    0 -0.73963475001E+03  0.60941753431E+03 -0.83407508778E+03  0.12704843748E+04  0.50400001928E-02 0. -1.
       -1    1    3    3    0  502  0.73963475001E+03 -0.60941753431E+03  0.13245719065E+04  0.16349128509E+04  0.50400001928E-02 0.  1.
</event>
<event>
 5   0  0.4447500E-06  0.2763125E+04  0.7818609E-02  0.8314809E-01
       -3   -1    0    0    0  501  0.00000000000E+00  0.00000000000E+00  0.12591750733E+04  0.12591750773E+04  0.10100000352E+00 0. -1.
        3   -1    0    0  501    0  0.00000000000E+00  0.00000000000E+00 -0.15158452306E+04  0.15158452339E+04  0.10100000352E+00 0.  1.
    10030    2    1    2    0    0  0.00000000000E+00  0.00000000000E+00 -0.25667015729E+03  0.27750203113E+04  0.27631247092E+04 0.  0.
        1    1    3    3  502    0 -0.89940291530E+03 -0.81727904472E+03 -0.78831249333E+03  0.14485534951E+04  0.50400001928E-02 0.  1.
       -1    1    3    3    0  502  0.89940291530E+03  0.81727904472E+03  0.53164233604E+03  0.13264668162E+04  0.50400001928E-02 0. -1.
</event>
<event>
 5   0  0.5281919E-06  0.2785991E+04  0.7818609E-02  0.8307631E-01
       -1   -1    0    0    0  501  0.00000000000E+00  0.00000000000E+00  0.11693126549E+04  0.11693126549E+04  0.50400001928E-02 0. -1.
        1   -1    0    0  501    0  0.00000000000E+00  0.00000000000E+00 -0.16594672978E+04  0.16594672979E+04  0.50400001928E-02 0.  1.
    10030    2    1    2    0    0  0.00000000000E+00  0.00000000000E+00 -0.49015464293E+03  0.28287799528E+04  0.27859907479E+04 0.  0.
        4    1    3    3  502    0 -0.24408846396E+02 -0.13103332614E+04 -0.72441422958E+03  0.14974467058E+04  0.12699999809E+01 0.  1.
       -4    1    3    3    0  502  0.24408846396E+02  0.13103332614E+04  0.23425958664E+03  0.13313332470E+04  0.12699999809E+01 0. -1.
</event>
<event>
 5   0  0.1283052E-05  0.2739942E+04  0.7818609E-02  0.8322160E-01
        2   -1    0    0  501    0  0.00000000000E+00  0.00000000000E+00  0.19087078014E+04  0.19087078014E+04  0.25500000920E-02 0.  1.
       -2   -1    0    0    0  501  0.00000000000E+00  0.00000000000E+00 -0.98329410393E+03  0.98329410393E+03  0.25500000920E-02 0. -1.
    10030    2    1    2    0    0  0.00000000000E+00  0.00000000000E+00  0.92541369751E+03  0.28920019054E+04  0.27399424281E+04 0.  0.
        5    1    3    3  502    0 -0.62761475370E+03  0.88727097826E+03  0.13430504467E+04  0.17277027118E+04  0.46999998093E+01 0.  1.
       -5    1    3    3    0  502  0.62761475370E+03 -0.88727097826E+03 -0.41763674920E+03  0.11642991936E+04  0.46999998093E+01 0. -1.
</event>
<event>
 5   0  0.5023691E-06  0.2788602E+04  0.7818609E-02  0.8306816E-01
       -1   -1    0    0    0  501  0.00000000000E+00  0.00000000000E+00  0.13721504506E+04  0.13721504506E+04  0.50400001928E-02 0.  1.
        1   -1    0    0  501    0  0.00000000000E+00  0.00000000000E+00 -0.14168090237E+04  0.14168090237E+04  0.50400001928E-02 0. -1.
    10030    2    1    2    0    0  0.00000000000E+00  0.00000000000E+00 -0.44658573101E+02  0.27889594743E+04  0.27886019008E+04 0.  0.
        5    1    3    3  502    0 -0.65476360436E+03  0.21136548030E+03  0.11905348803E+04  0.13750585933E+04  0.46999998093E+01 0.  1.
       -5    1    3    3    0  502  0.65476360436E+03 -0.21136548030E+03 -0.12351934534E+04  0.14139008810E+04  0.46999998093E+01 0. -1.
</event>
<event>
 5   0  0.5107453E-06  0.2761418E+04  0.7818609E-02  0.8315348E-01
        1   -1    0    0  501    0  0.00000000000E+00  0.00000000000E+00  0.16867151742E+04  0.16867151742E+04  0.50400001928E-02 0. -1.
       -1   -1    0    0    0  501  0.00000000000E+00  0.00000000000E+00 -0.11302190189E+04  0.11302190189E+04  0.50400001928E-02 0.  1.
    10030    2    1    2    0    0  0.00000000000E+00  0.00000000000E+00  0.55649615531E+03  0.28169341930E+04  0.27614181641E+04 0.  0.
        2    1    3    3  502    0 -0.42188556752E+03 -0.86417460366E+03 -0.73241335129E+03  0.12088070544E+04  0.25500000920E-02 0.  1.
       -2    1    3    3    0  502  0.42188556752E+03  0.86417460366E+03  0.12889095066E+04  0.16081271386E+04  0.25500000920E-02 0. -1.
</event>
<event>
 5   0  0.1283052E-05  0.2820682E+04  0.7818609E-02  0.8296876E-01
        2   -1    0    0  501    0  0.00000000000E+00  0.00000000000E+00  0.17251099626E+04  0.17251099626E+04  0.25500000920E-02 0.  1.
       -2   -1    0    0    0  501  0.00000000000E+00  0.00000000000E+00 -0.11530060080E+04  0.11530060080E+04  0.25500000920E-02 0. -1.
    10030    2    1    2    0    0  0.00000000000E+00  0.00000000000E+00  0.57210395459E+03  0.28781159707E+04  0.28206822944E+04 0.  0.
        5    1    3    3  502    0  0.65094051287E+03 -0.33328410199E+03  0.15165244257E+04  0.16836479049E+04  0.46999998093E+01 0.  1.
       -5    1    3    3    0  502 -0.65094051287E+03  0.33328410199E+03 -0.94442047110E+03  0.11944680658E+04  0.46999998093E+01 0. -1.
</event>
<event>
 5   0  0.1388269E-05  0.2961127E+04  0.7818609E-02  0.8254919E-01
        2   -1    0    0  501    0  0.00000000000E+00  0.00000000000E+00  0.22595650967E+04  0.22595650967E+04  0.25500000920E-02 0.  1.
       -2   -1    0    0    0  501  0.00000000000E+00  0.00000000000E+00 -0.97012814134E+03  0.97012814134E+03  0.25500000920E-02 0. -1.
    10030    2    1    2    0    0  0.00000000000E+00  0.00000000000E+00  0.12894369553E+04  0.32296932380E+04  0.29611266015E+04 0.  0.
        1    1    3    3  502    0 -0.27985979335E+03  0.94515728200E+03 -0.56020550790E+03  0.11337874593E+04  0.50400001928E-02 0.  1.
       -1    1    3    3    0  502  0.27985979335E+03 -0.94515728200E+03  0.18496424632E+04  0.20959057788E+04  0.50400001928E-02 0. -1.
</event>
<event>
 5   0  0.5107453E-06  0.2854874E+04  0.7818609E-02  0.8286432E-01
       -1   -1    0    0    0  501  0.00000000000E+00  0.00000000000E+00  0.15165583527E+04  0.15165583527E+04  0.50400001928E-02 0. -1.
        1   -1    0    0  501    0  0.00000000000E+00  0.00000000000E+00 -0.13435532195E+04  0.13435532195E+04  0.50400001928E-02 0.  1.
    10030    2    1    2    0    0  0.00000000000E+00  0.00000000000E+00  0.17300513324E+03  0.28601115722E+04  0.28548743281E+04 0.  0.
        2    1    3    3  502    0  0.27237927959E+03 -0.48144512651E+03  0.14048181603E+04  0.15097993063E+04  0.25500000920E-02 0. -1.
       -2    1    3    3    0  502 -0.27237927959E+03  0.48144512651E+03 -0.12318130271E+04  0.13503122659E+04  0.25500000920E-02 0.  1.
</event>
<event>
 5   0  0.5023691E-06  0.2783013E+04  0.7818609E-02  0.8308561E-01
       -1   -1    0    0    0  501  0.00000000000E+00  0.00000000000E+00  0.91204578172E+03  0.91204578174E+03  0.50400001928E-02 0.  1.
        1   -1    0    0  501    0  0.00000000000E+00  0.00000000000E+00 -0.21230193829E+04  0.21230193829E+04  0.50400001928E-02 0. -1.
    10030    2    1    2    0    0  0.00000000000E+00  0.00000000000E+00 -0.12109736011E+04  0.30350651646E+04  0.27830133831E+04 0.  0.
        5    1    3    3  502    0  0.88328633647E+03  0.98638742953E+03 -0.13881308039E+03  0.13313324433E+04  0.46999998093E+01 0.  1.
       -5    1    3    3    0  502 -0.88328633647E+03 -0.98638742953E+03 -0.10721605208E+04  0.17037327213E+04  0.46999998093E+01 0. -1.
</event>
<event>
 5   0  0.4764214E-06  0.2775759E+04  0.7818609E-02  0.8310834E-01
        1   -1    0    0  501    0  0.00000000000E+00  0.00000000000E+00  0.17564195514E+04  0.17564195514E+04  0.50400001928E-02 0.  1.
       -1   -1    0    0    0  501  0.00000000000E+00  0.00000000000E+00 -0.10966680377E+04  0.10966680378E+04  0.50400001928E-02 0. -1.
    10030    2    1    2    0    0  0.00000000000E+00  0.00000000000E+00  0.65975151369E+03  0.28530875892E+04  0.27757587669E+04 0.  0.
        3    1    3    3  502    0 -0.35734825795E+03 -0.65152979131E+03  0.15347173819E+04  0.17051528667E+04  0.10100000352E+00 0.  1.
       -3    1    3    3    0  502  0.35734825795E+03  0.65152979131E+03 -0.87496586818E+03  0.11479347225E+04  0.10100000352E+00 0. -1.
</event>
<event>
 5   0  0.4764214E-06  0.2760293E+04  0.7818609E-02  0.8315703E-01
        1   -1    0    0  501    0  0.00000000000E+00  0.00000000000E+00  0.23445239674E+04  0.23445239674E+04  0.50400001928E-02 0. -1.
       -1   -1    0    0    0  501  0.00000000000E+00  0.00000000000E+00 -0.81244794787E+03  0.81244794789E+03  0.50400001928E-02 0.  1.
    10030    2    1    2    0    0  0.00000000000E+00  0.00000000000E+00  0.15320760196E+04  0.31569719153E+04  0.27602925107E+04 0.  0.
        3    1    3    3  502    0  0.87586917624E+03 -0.45284282006E+03  0.18705261195E+04  0.21144931798E+04  0.10100000352E+00 0. -1.
       -3    1    3    3    0  502 -0.87586917624E+03  0.45284282006E+03 -0.33845009996E+03  0.10424787355E+04  0.10100000352E+00 0.  1.
</event>
<event>
 5   0  0.5023691E-06  0.2787265E+04  0.7818609E-02  0.8307233E-01
       -1   -1    0    0    0  501  0.00000000000E+00  0.00000000000E+00  0.11337178416E+04  0.11337178416E+04  0.50400001928E-02 0.  1.
        1   -1    0    0  501    0  0.00000000000E+00  0.00000000000E+00 -0.17131349071E+04  0.17131349071E+04  0.50400001928E-02 0. -1.
    10030    2    1    2    0    0  0.00000000000E+00  0.00000000000E+00 -0.57941706554E+03  0.28468527487E+04  0.27872650460E+04 0.  0.
        5    1    3    3  502    0 -0.47445689420E+02 -0.13909830630E+04 -0.36268203977E+03  0.14382785985E+04  0.46999998093E+01 0.  1.
       -5    1    3    3    0  502  0.47445689420E+02  0.13909830630E+04 -0.21673502577E+03  0.14085741501E+04  0.46999998093E+01 0. -1.
</event>
<event>
 5   0  0.5281919E-06  0.2774614E+04  0.7818609E-02  0.8311193E-01
       -1   -1    0    0    0  501  0.00000000000E+00  0.00000000000E+00  0.93896567602E+03  0.93896567604E+03  0.50400001928E-02 0. -1.
        1   -1    0    0  501    0  0.00000000000E+00  0.00000000000E+00 -0.20497241183E+04  0.20497241184E+04  0.50400001928E-02 0.  1.
    10030    2    1    2    0    0  0.00000000000E+00  0.00000000000E+00 -0.11107584423E+04  0.29886897944E+04  0.27746139137E+04 0.  0.
        4    1    3    3  502    0 -0.60478671422E+03  0.11718963812E+04 -0.10193204575E+04  0.16667705019E+04  0.12699999809E+01 0.  1.
       -4    1    3    3    0  502  0.60478671422E+03 -0.11718963812E+04 -0.91437984861E+02  0.13219192925E+04  0.12699999809E+01 0. -1.
</event>
<event>
 5   0  0.5023691E-06  0.2777460E+04  0.7818609E-02  0.8310300E-01
        1   -1    0    0  501    0  0.00000000000E+00  0.00000000000E+00  0.16098538580E+04  0.16098538580E+04  0.50400001928E-02 0. -1.
       -1   -1    0    0    0  501  0.00000000000E+00  0.00000000000E+00 -0.11979788575E+04  0.11979788575E+04  0.50400001928E-02 0.  1.
    10030    2    1    2    0    0  0.00000000000E+00  0.00000000000E+00  0.41187500053E+03  0.28078327156E+04  0.27774599084E+04 0.  0.
        5    1    3    3  502    0 -0.10796334989E+04 -0.11249644035E+03  0.10815995355E+04  0.15323653566E+04  0.46999998093E+01 0. -1.
       -5    1    3    3    0  502  0.10796334989E+04  0.11249644035E+03 -0.66972453496E+03  0.12754673589E+04  0.46999998093E+01 0.  1.
</event>
<event>
 5   0  0.1330962E-05  0.2859543E+04  0.7818609E-02  0.8285018E-01
       -2   -1    0    0    0  501  0.00000000000E+00  0.00000000000E+00  0.91095845706E+03  0.91095845707E+03  0.25500000920E-02 0. -1.
        2   -1    0    0  501    0  0.00000000000E+00  0.00000000000E+00 -0.22440605244E+04  0.22440605244E+04  0.25500000920E-02 0.  1.
    10030    2    1    2    0    0  0.00000000000E+00  0.00000000000E+00 -0.13331020673E+04  0.31550189815E+04  0.28595425598E+04 0.  0.
        4    1    3    3  502    0 -0.12422339903E+04  0.70788119228E+03 -0.66853424832E+03  0.15783474659E+04  0.12699999809E+01 0.  1.
       -4    1    3    3    0  502  0.12422339903E+04 -0.70788119228E+03 -0.66456781901E+03  0.15766715156E+04  0.12699999809E+01 0. -1.
</event>
<event>
 5   0  0.5023691E-06  0.2821493E+04  0.7818609E-02  0.8296626E-01
        1   -1    0    0  501    0  0.00000000000E+00  0.00000000000E+00  0.20457387982E+04  0.20457387982E+04  0.50400001928E-02 0. -1.
       -1   -1    0    0    0  501  0.00000000000E+00  0.00000000000E+00 -0.97285438849E+03  0.97285438850E+03  0.50400001928E-02 0.  1.
    10030    2    1    2    0    0  0.00000000000E+00  0.00000000000E+00  0.10728844097E+04  0.30185931867E+04  0.28214931987E+04 0.  0.
        5    1    3    3  502    0 -0.11063983285E+04  0.17038150149E+03 -0.38203874765E+03  0.11828452189E+04  0.46999998093E+01 0.  1.
       -5    1    3    3    0  502  0.11063983285E+04 -0.17038150149E+03  0.14549231574E+04  0.18357479678E+04  0.46999998093E+01 0. -1.
</event>
<event>
 5   0  0.1350863E-05  0.3001286E+04  0.7818609E-02  0.8243364E-01
       -2   -1    0    0    0  501  0.00000000000E+00  0.00000000000E+00  0.19675274923E+04  0.19675274923E+04  0.25500000920E-02 0. -1.
        2   -1    0    0  501    0  0.00000000000E+00  0.00000000000E+00 -0.11445478111E+04  0.11445478111E+04  0.25500000920E-02 0.  1.
    10030    2    1    2    0    0  0.00000000000E+00  0.00000000000E+00  0.82297968123E+03  0.31120753034E+04  0.30012859141E+04 0.  0.
        3    1    3    3  502    0  0.89360254979E+03 -0.60038396062E+03 -0.67254054374E+03  0.12693688236E+04  0.10100000352E+00 0.  1.
       -3    1    3    3    0  502 -0.89360254979E+03  0.60038396062E+03  0.14955202250E+04  0.18427064798E+04  0.10100000352E+00 0. -1.
</event>
<event>
 5   0  0.1350863E-05  0.2770110E+04  0.7818609E-02  0.8312609E-01
       -2   -1    0    0    0  501  0.00000000000E+00  0.00000000000E+00  0.16488798727E+04  0.16488798727E+04  0.25500000920E-02 0.  1.
        2   -1    0    0  501    0  0.00000000000E+00  0.00000000000E+00 -0.11634425640E+04  0.11634425640E+04  0.25500000920E-02 0. -1.
    10030    2    1    2    0    0  0.00000000000E+00  0.00000000000E+00  0.48543730867E+03  0.28123224366E+04  0.27701097644E+04 0.  0.
        3    1    3    3  502    0  0.10378899551E+04 -0.78265880757E+03  0.72813294958E+03  0.14899489825E+04  0.10100000352E+00 0.  1.
       -3    1    3    3    0  502 -0.10378899551E+04  0.78265880757E+03 -0.24269564091E+03  0.13223734542E+04  0.10100000352E+00 0. -1.
</event>
<event>
 5   0  0.5107453E-06  0.2857463E+04  0.7818609E-02  0.8285647E-01
        1   -1    0    0  501    0  0.00000000000E+00  0.00000000000E+00  0.14790278837E+04  0.14790278837E+04  0.50400001928E-02 0. -1.
       -1   -1    0    0    0  501  0.00000000000E+00  0.00000000000E+00 -0.13801459170E+04  0.13801459170E+04  0.50400001928E-02 0.  1.
    10030    2    1    2    0    0  0.00000000000E+00  0.00000000000E+00  0.98881966646E+02  0.28591738007E+04  0.28574634170E+04 0.  0.
        2    1    3    3  502    0 -0.14828199251E+03 -0.12473222619E+03 -0.13669375210E+04  0.13806027176E+04  0.25500000920E-02 0.  1.
       -2    1    3    3    0  502  0.14828199251E+03  0.12473222619E+03  0.14658194876E+04  0.14785710831E+04  0.25500000920E-02 0. -1.
</event>
<event>
 5   0  0.1283052E-05  0.2790775E+04  0.7818609E-02  0.8306138E-01
        2   -1    0    0  501    0  0.00000000000E+00  0.00000000000E+00  0.13729880266E+04  0.13729880266E+04  0.25500000920E-02 0.  1.
       -2   -1    0    0    0  501  0.00000000000E+00  0.00000000000E+00 -0.14181523977E+04  0.14181523977E+04  0.25500000920E-02 0. -1.
    10030    2    1    2    0    0  0.00000000000E+00  0.00000000000E+00 -0.45164371151E+02  0.27911404243E+04  0.27907749905E+04 0.  0.
        5    1    3    3  502    0  0.12099490107E+04  0.63093267175E+03  0.26905765629E+03  0.13908510909E+04  0.46999998093E+01 0. -1.
       -5    1    3    3    0  502 -0.12099490107E+04 -0.63093267175E+03 -0.31422202744E+03  0.14002893334E+04  0.46999998093E+01 0.  1.
</event>
<event>
 5   0  0.5023691E-06  0.2806597E+04  0.7818609E-02  0.8301223E-01
        1   -1    0    0  501    0  0.00000000000E+00  0.00000000000E+00  0.17268239779E+04  0.17268239779E+04  0.50400001928E-02 0.  1.
       -1   -1    0    0    0  501  0.00000000000E+00  0.00000000000E+00 -0.11403867443E+04  0.11403867443E+04  0.50400001928E-02 0. -1.
    10030    2    1    2    0    0  0.00000000000E+00  0.00000000000E+00  0.58643723357E+03  0.28672107222E+04  0.28065973521E+04 0.  0.
        5    1    3    3  502    0  0.24097298381E+03 -0.78585563999E+03  0.14551420035E+04  0.16712562360E+04  0.46999998093E+01 0.  1.
       -5    1    3    3    0  502 -0.24097298381E+03  0.78585563999E+03 -0.86870476997E+03  0.11959544863E+04  0.46999998093E+01 0. -1.
</event>
<event>
 5   0  0.5107453E-06  0.2750792E+04  0.7818609E-02  0.8318711E-01
       -1   -1    0    0    0  501  0.00000000000E+00  0.00000000000E+00  0.60297563098E+03  0.60297563100E+03  0.50400001928E-02 0. -1.
        1   -1    0    0  501    0  0.00000000000E+00  0.00000000000E+00 -0.31372967812E+04  0.31372967812E+04  0.50400001928E-02 0.  1.
    10030    2    1    2    0    0  0.00000000000E+00  0.00000000000E+00 -0.25343211502E+04  0.37402724122E+04  0.27507915270E+04 0.  0.
        2    1    3    3  502    0  0.94253205285E+03 -0.88064871713E+03 -0.19161339356E+04  0.23098653841E+04  0.25500000920E-02 0.  1.
       -2    1    3    3    0  502 -0.94253205285E+03  0.88064871713E+03 -0.61818721462E+03  0.14304070281E+04  0.25500000920E-02 0. -1.
</event>
<event>
 5   0  0.1283052E-05  0.2804699E+04  0.7818609E-02  0.8301811E-01
       -2   -1    0    0    0  501  0.00000000000E+00  0.00000000000E+00  0.90272869270E+03  0.90272869270E+03  0.25500000920E-02 0.  1.
        2   -1    0    0  501    0  0.00000000000E+00  0.00000000000E+00 -0.21784887398E+04  0.21784887398E+04  0.25500000920E-02 0. -1.
    10030    2    1    2    0    0  0.00000000000E+00  0.00000000000E+00 -0.12757600471E+04  0.30812174325E+04  0.28046991227E+04 0.  0.
        5    1    3    3  502    0 -0.90749325970E+03  0.22544739251E+03  0.51023525246E+03  0.10652383048E+04  0.46999998093E+01 0.  1.
       -5    1    3    3    0  502  0.90749325970E+03 -0.22544739251E+03 -0.17859952996E+04  0.20159791277E+04  0.46999998093E+01 0. -1.
</event>
<event>
 5   0  0.1388269E-05  0.2803182E+04  0.7818609E-02  0.8302281E-01
       -2   -1    0    0    0  501  0.00000000000E+00  0.00000000000E+00  0.11640241288E+04  0.11640241288E+04  0.25500000920E-02 0. -1.
        2   -1    0    0  501    0  0.00000000000E+00  0.00000000000E+00 -0.16876437105E+04  0.16876437105E+04  0.25500000920E-02 0.  1.
    10030    2    1    2    0    0  0.00000000000E+00  0.00000000000E+00 -0.52361958168E+03  0.28516678393E+04  0.28031824770E+04 0.  0.
        1    1    3    3  502    0 -0.47541679945E+03  0.86928210615E+03  0.74669260721E+03  0.12406540061E+04  0.50400001928E-02 0. -1.
       -1    1    3    3    0  502  0.47541679945E+03 -0.86928210615E+03 -0.12703121889E+04  0.16110138331E+04  0.50400001928E-02 0.  1.
</event>
<event>
 5   0  0.5107453E-06  0.2822604E+04  0.7818609E-02  0.8296285E-01
        1   -1    0    0  501    0  0.00000000000E+00  0.00000000000E+00  0.22938779003E+04  0.22938779003E+04  0.50400001928E-02 0. -1.
       -1   -1    0    0    0  501  0.00000000000E+00  0.00000000000E+00 -0.86829963881E+03  0.86829963883E+03  0.50400001928E-02 0.  1.
    10030    2    1    2    0    0  0.00000000000E+00  0.00000000000E+00  0.14255782615E+04  0.31621775391E+04  0.28226040121E+04 0.  0.
        2    1    3    3  502    0 -0.82374733854E+03 -0.37738921943E+03 -0.49941564947E+03  0.10346005469E+04  0.25500000920E-02 0.  1.
       -2    1    3    3    0  502  0.82374733854E+03  0.37738921943E+03  0.19249939109E+04  0.21275769922E+04  0.25500000920E-02 0. -1.
</event>
<event>
 5   0  0.1388269E-05  0.2847969E+04  0.7818609E-02  0.8288529E-01
       -2   -1    0    0    0  501  0.00000000000E+00  0.00000000000E+00  0.13107720463E+04  0.13107720463E+04  0.25500000920E-02 0. -1.
        2   -1    0    0  501    0  0.00000000000E+00  0.00000000000E+00 -0.15469751124E+04  0.15469751124E+04  0.25500000920E-02 0.  1.
    10030    2    1    2    0    0  0.00000000000E+00  0.00000000000E+00 -0.23620306615E+03  0.28577471587E+04  0.28479689139E+04 0.  0.
        1    1    3    3  502    0  0.27047412045E+02  0.13995050477E+04  0.14430310055E+03  0.14071848940E+04  0.50400001928E-02 0. -1.
       -1    1    3    3    0  502 -0.27047412045E+02 -0.13995050477E+04 -0.38050616670E+03  0.14505622647E+04  0.50400001928E-02 0.  1.
</event>
<event>
 5   0  0.5281919E-06  0.2983322E+04  0.7818609E-02  0.8248509E-01
       -1   -1    0    0    0  501  0.00000000000E+00  0.00000000000E+00  0.90412837557E+03  0.90412837558E+03  0.50400001928E-02 0. -1.
        1   -1    0    0  501    0  0.00000000000E+00  0.00000000000E+00 -0.24609917441E+04  0.24609917441E+04  0.50400001928E-02 0.  1.
    10030    2    1    2    0    0  0.00000000000E+00  0.00000000000E+00 -0.15568633686E+04  0.33651201197E+04  0.29833219524E+04 0.  0.
        4    1    3    3  502    0  0.87174500997E+03 -0.16160027672E+03  0.57466979231E+03  0.10565514635E+04  0.12699999809E+01 0. -1.
       -4    1    3    3    0  502 -0.87174500997E+03  0.16160027672E+03 -0.21315331609E+04  0.23085686563E+04  0.12699999809E+01 0.  1.
</event>
<event>
 5   0  0.1350863E-05  0.2661642E+04  0.7818609E-02  0.8347559E-01
       -2   -1    0    0    0  501  0.00000000000E+00  0.00000000000E+00  0.98947136300E+03  0.98947136300E+03  0.25500000920E-02 0. -1.
        2   -1    0    0  501    0  0.00000000000E+00  0.00000000000E+00 -0.17899305381E+04  0.17899305381E+04  0.25500000920E-02 0.  1.
    10030    2    1    2    0    0  0.00000000000E+00  0.00000000000E+00 -0.80045917508E+03  0.27794019011E+04  0.26616423570E+04 0.  0.
        3    1    3    3  502    0 -0.48753657993E+02 -0.71964222046E+03 -0.15681133142E+04  0.17260478618E+04  0.10100000352E+00 0.  1.
       -3    1    3    3    0  502  0.48753657993E+02  0.71964222046E+03  0.76765413914E+03  0.10533540393E+04  0.10100000352E+00 0. -1.
</event>
<event>
 5   0  0.5281919E-06  0.3009642E+04  0.7818609E-02  0.8240983E-01
        1   -1    0    0  501    0  0.00000000000E+00  0.00000000000E+00  0.18393985911E+04  0.18393985911E+04  0.50400001928E-02 0. -1.
       -1   -1    0    0    0  501  0.00000000000E+00  0.00000000000E+00 -0.12311015913E+04  0.12311015913E+04  0.50400001928E-02 0.  1.
    10030    2    1    2    0    0  0.00000000000E+00  0.00000000000E+00  0.60829699982E+03  0.30705001824E+04  0.30096421930E+04 0.  0.
        4    1    3    3  502    0 -0.75506111559E+03 -0.24543684808E+02 -0.10236154366E+04  0.12722066875E+04  0.12699999809E+01 0.  1.
       -4    1    3    3    0  502  0.75506111559E+03  0.24543684808E+02  0.16319124364E+04  0.17982934949E+04  0.12699999809E+01 0. -1.
</event>
<event>
 5   0  0.1350863E-05  0.2778647E+04  0.7818609E-02  0.8309928E-01
       -2   -1    0    0    0  501  0.00000000000E+00  0.00000000000E+00  0.17034122410E+04  0.17034122410E+04  0.25500000920E-02 0.  1.
        2   -1    0    0  501    0  0.00000000000E+00  0.00000000000E+00 -0.11331487863E+04  0.11331487863E+04  0.25500000920E-02 0. -1.
    10030    2    1    2    0    0  0.00000000000E+00  0.00000000000E+00  0.57026345474E+03  0.28365610274E+04  0.27786468027E+04 0.  0.
        3    1    3    3  502    0  0.75153971864E+02 -0.46476910784E+03  0.16194948689E+04  0.16865414563E+04  0.10100000352E+00 0.  1.
       -3    1    3    3    0  502 -0.75153971864E+02  0.46476910784E+03 -0.10492314142E+04  0.11500195711E+04  0.10100000352E+00 0. -1.
</event>
<event>
 5   0  0.1330962E-05  0.2725737E+04  0.7818609E-02  0.8326702E-01
        2   -1    0    0  501    0  0.00000000000E+00  0.00000000000E+00  0.15984539205E+04  0.15984539206E+04  0.25500000920E-02 0.  1.
       -2   -1    0    0    0  501  0.00000000000E+00  0.00000000000E+00 -0.11620040783E+04  0.11620040783E+04  0.25500000920E-02 0. -1.
    10030    2    1    2    0    0  0.00000000000E+00  0.00000000000E+00  0.43644984222E+03  0.27604579989E+04  0.27257365791E+04 0.  0.
        4    1    3    3  502    0  0.13402590641E+04  0.22654999610E+03  0.11802469764E+03  0.13643865661E+04  0.12699999809E+01 0.  1.
       -4    1    3    3    0  502 -0.13402590641E+04 -0.22654999610E+03  0.31842514458E+03  0.13960714327E+04  0.12699999809E+01 0. -1.
</event>
<event>
 5   0  0.1302063E-05  0.2807444E+04  0.7818609E-02  0.8300961E-01
       -2   -1    0    0    0  501  0.00000000000E+00  0.00000000000E+00  0.75029751254E+03  0.75029751254E+03  0.25500000920E-02 0. -1.
        2   -1    0    0  501    0  0.00000000000E+00  0.00000000000E+00 -0.26262062846E+04  0.26262062846E+04  0.25500000920E-02 0.  1.
    10030    2    1    2    0    0  0.00000000000E+00  0.00000000000E+00 -0.18759087720E+04  0.33765037971E+04  0.28074444199E+04 0.  0.
        2    1    3    3  502    0 -0.54193186827E+03  0.61979957575E+02  0.61762304702E+03  0.82400843030E+03  0.25500000920E-02 0. -1.
       -2    1    3    3    0  502  0.54193186827E+03 -0.61979957575E+02 -0.24935318191E+04  0.25524953668E+04  0.25500000920E-02 0.  1.
</event>
<event>
 5   0  0.1302063E-05  0.2082706E+04  0.7818609E-02  0.8568900E-01
        2   -1    0    0  501    0  0.00000000000E+00  0.00000000000E+00  0.84720262301E+03  0.84720262301E+03  0.25500000920E-02 0. -1.
       -2   -1    0    0    0  501  0.00000000000E+00  0.00000000000E+00 -0.12799959746E+04  0.12799959746E+04  0.25500000920E-02 0.  1.
    10030    2    1    2    0    0  0.00000000000E+00  0.00000000000E+00 -0.43279335159E+03  0.21271985976E+04  0.20827058814E+04 0.  0.
        2    1    3    3  502    0  0.33448277047E+03 -0.41451204358E+03  0.69754738752E+03  0.87765102168E+03  0.25500000920E-02 0. -1.
       -2    1    3    3    0  502 -0.33448277047E+03  0.41451204358E+03 -0.11303407391E+04  0.12495475759E+04  0.25500000920E-02 0.  1.
</event>
<event>
 5   0  0.5281919E-06  0.2796408E+04  0.7818609E-02  0.8304384E-01
        1   -1    0    0  501    0  0.00000000000E+00  0.00000000000E+00  0.17691219436E+04  0.17691219436E+04  0.50400001928E-02 0.  1.
       -1   -1    0    0    0  501  0.00000000000E+00  0.00000000000E+00 -0.11050532535E+04  0.11050532535E+04  0.50400001928E-02 0. -1.
    10030    2    1    2    0    0  0.00000000000E+00  0.00000000000E+00  0.66406869017E+03  0.28741751971E+04  0.27964076667E+04 0.  0.
        4    1    3    3  502    0  0.60248087613E+03  0.24445724460E+03  0.16042909228E+04  0.17310382805E+04  0.12699999809E+01 0.  1.
       -4    1    3    3    0  502 -0.60248087613E+03 -0.24445724460E+03 -0.94022223265E+03  0.11431369166E+04  0.12699999809E+01 0. -1.
</event>
<event>
 5   0  0.1302063E-05  0.2788683E+04  0.7818609E-02  0.8306790E-01
       -2   -1    0    0    0  501  0.00000000000E+00  0.00000000000E+00  0.76237990757E+03  0.76237990758E+03  0.25500000920E-02 0.  1.
        2   -1    0    0  501    0  0.00000000000E+00  0.00000000000E+00 -0.25501572093E+04  0.25501572093E+04  0.25500000920E-02 0. -1.
    10030    2    1    2    0    0  0.00000000000E+00  0.00000000000E+00 -0.17877773017E+04  0.33125371168E+04  0.27886832861E+04 0.  0.
        2    1    3    3  502    0 -0.12950108926E+04  0.28990914140E+03 -0.14021552991E+04  0.19305802249E+04  0.25500000920E-02 0. -1.
       -2    1    3    3    0  502  0.12950108926E+04 -0.28990914140E+03 -0.38562200259E+03  0.13819568919E+04  0.25500000920E-02 0.  1.
</event>
<event>
 5   0  0.1283052E-05  0.2810182E+04  0.7818609E-02  0.8300114E-01
        2   -1    0    0  501    0  0.00000000000E+00  0.00000000000E+00  0.14840146716E+04  0.14840146716E+04  0.25500000920E-02 0.  1.
       -2   -1    0    0    0  501  0.00000000000E+00  0.00000000000E+00 -0.13303646743E+04  0.13303646743E+04  0.25500000920E-02 0. -1.
    10030    2    1    2    0    0  0.00000000000E+00  0.00000000000E+00  0.15364999729E+03  0.28143793459E+04  0.28101819836E+04 0.  0.
        5    1    3    3  502    0 -0.57639359463E+03  0.74079450104E+03  0.11239738884E+04  0.14643583785E+04  0.46999998093E+01 0.  1.
       -5    1    3    3    0  502  0.57639359463E+03 -0.74079450104E+03 -0.97032389115E+03  0.13500209674E+04  0.46999998093E+01 0. -1.
</event>
<event>
 5   0  0.1283052E-05  0.2630530E+04  0.7818609E-02  0.8357904E-01
       -2   -1    0    0    0  501  0.00000000000E+00  0.00000000000E+00  0.13360537085E+04  0.13360537085E+04  0.25500000920E-02 0.  1.
        2   -1    0    0  501    0  0.00000000000E+00  0.00000000000E+00 -0.12947995981E+04  0.12947995981E+04  0.25500000920E-02 0. -1.
    10030    2    1    2    0    0  0.00000000000E+00  0.00000000000E+00  0.41254110403E+02  0.26308533066E+04  0.26305298362E+04 0.  0.
        5    1    3    3  502    0  0.24245861454E+03  0.67812081642E+03 -0.10800834449E+04  0.12981665376E+04  0.46999998093E+01 0. -1.
       -5    1    3    3    0  502 -0.24245861454E+03 -0.67812081642E+03  0.11213375553E+04  0.13326867690E+04  0.46999998093E+01 0.  1.
</event>
<event>
 5   0  0.1350863E-05  0.2811033E+04  0.7818609E-02  0.8299851E-01
       -2   -1    0    0    0  501  0.00000000000E+00  0.00000000000E+00  0.12741357877E+04  0.12741357877E+04  0.25500000920E-02 0. -1.
        2   -1    0    0  501    0  0.00000000000E+00  0.00000000000E+00 -0.15504440173E+04  0.15504440174E+04  0.25500000920E-02 0.  1.
    10030    2    1    2    0    0  0.00000000000E+00  0.00000000000E+00 -0.27630822964E+03  0.28245798051E+04  0.28110326995E+04 0.  0.
        3    1    3    3  502    0 -0.44712630997E+03  0.17681744398E+03  0.11889264208E+04  0.12824712043E+04  0.10100000352E+00 0. -1.
       -3    1    3    3    0  502  0.44712630997E+03 -0.17681744398E+03 -0.14652346504E+04  0.15421086008E+04  0.10100000352E+00 0.  1.
</event>
<event>
 5   0  0.5023691E-06  0.2828952E+04  0.7818609E-02  0.8294336E-01
       -1   -1    0    0    0  501  0.00000000000E+00  0.00000000000E+00  0.11432474180E+04  0.11432474180E+04  0.50400001928E-02 0.  1.
        1   -1    0    0  501    0  0.00000000000E+00  0.00000000000E+00 -0.17500522055E+04  0.17500522055E+04  0.50400001928E-02 0. -1.
    10030    2    1    2    0    0  0.00000000000E+00  0.00000000000E+00 -0.60680478747E+03  0.28932996235E+04  0.28289522197E+04 0.  0.
        5    1    3    3  502    0 -0.84754418000E+03  0.66866312219E+03  0.63132204368E+03  0.12506122984E+04  0.46999998093E+01 0.  1.
       -5    1    3    3    0  502  0.84754418000E+03 -0.66866312219E+03 -0.12381268311E+04  0.16426873251E+04  0.46999998093E+01 0. -1.
</event>
<event>
 5   0  0.5217999E-06  0.2894028E+04  0.7818609E-02  0.8274657E-01
        1   -1    0    0  501    0  0.00000000000E+00  0.00000000000E+00  0.17534398251E+04  0.17534398251E+04  0.50400001928E-02 0. -1.
       -1   -1    0    0    0  501  0.00000000000E+00  0.00000000000E+00 -0.11941379299E+04  0.11941379299E+04  0.50400001928E-02 0.  1.
    10030    2    1    2    0    0  0.00000000000E+00  0.00000000000E+00  0.55930189524E+03  0.29475777550E+04  0.28940276453E+04 0.  0.
        1    1    3    3  502    0  0.83485397145E+03 -0.77477812252E+03 -0.62938095094E+03  0.13013003782E+04  0.50400001928E-02 0.  1.
       -1    1    3    3    0  502 -0.83485397145E+03  0.77477812252E+03  0.11886828462E+04  0.16462773769E+04  0.50400001928E-02 0. -1.
</event>
<event>
 5   0  0.1350863E-05  0.2780209E+04  0.7818609E-02  0.8309439E-01
       -2   -1    0    0    0  501  0.00000000000E+00  0.00000000000E+00  0.12389494115E+04  0.12389494115E+04  0.25500000920E-02 0. -1.
        2   -1    0    0  501    0  0.00000000000E+00  0.00000000000E+00 -0.15597006275E+04  0.15597006275E+04  0.25500000920E-02 0.  1.
    10030    2    1    2    0    0  0.00000000000E+00  0.00000000000E+00 -0.32075121607E+03  0.27986500390E+04  0.27802087508E+04 0.  0.
        3    1    3    3  502    0  0.16389698298E+03  0.92310536785E+02  0.12260788938E+04  0.12404244920E+04  0.10100000352E+00 0. -1.
       -3    1    3    3    0  502 -0.16389698298E+03 -0.92310536785E+02 -0.15468301099E+04  0.15582255470E+04  0.10100000352E+00 0.  1.
</event>
<event>
 5   0  0.5107453E-06  0.2811179E+04  0.7818609E-02  0.8299806E-01
        1   -1    0    0  501    0  0.00000000000E+00  0.00000000000E+00  0.15731371926E+04  0.15731371926E+04  0.50400001928E-02 0. -1.
       -1   -1    0    0    0  501  0.00000000000E+00  0.00000000000E+00 -0.12558866005E+04  0.12558866005E+04  0.50400001928E-02 0.  1.
    10030    2    1    2    0    0  0.00000000000E+00  0.00000000000E+00  0.31725059214E+03  0.28290237931E+04  0.28111790558E+04 0.  0.
        2    1    3    3  502    0 -0.37512663875E+03 -0.12023803525E+04  0.78647938636E+03  0.14849203118E+04  0.25500000920E-02 0. -1.
       -2    1    3    3    0  502  0.37512663875E+03  0.12023803525E+04 -0.46922879422E+03  0.13441034813E+04  0.25500000920E-02 0.  1.
</event>
<event>
 5   0  0.1330962E-05  0.2594023E+04  0.7818609E-02  0.8370234E-01
        2   -1    0    0  501    0  0.00000000000E+00  0.00000000000E+00  0.20751996082E+04  0.20751996082E+04  0.25500000920E-02 0. -1.
       -2   -1    0    0    0  501  0.00000000000E+00  0.00000000000E+00 -0.81063953808E+03  0.81063953808E+03  0.25500000920E-02 0.  1.
    10030    2    1    2    0    0  0.00000000000E+00  0.00000000000E+00  0.12645600701E+04  0.28858391463E+04  0.25940230159E+04 0.  0.
        4    1    3    3  502    0 -0.11858115248E+04 -0.37871295755E+03  0.22707383040E+03  0.12653602704E+04  0.12699999809E+01 0.  1.
       -4    1    3    3    0  502  0.11858115248E+04  0.37871295755E+03  0.10374862397E+04  0.16204788759E+04  0.12699999809E+01 0. -1.
</event>
<event>
 5   0  0.5281919E-06  0.2800911E+04  0.7818609E-02  0.8302986E-01
       -1   -1    0    0    0  501  0.00000000000E+00  0.00000000000E+00  0.84883466059E+03  0.84883466061E+03  0.50400001928E-02 0.  1.
        1   -1    0    0  501    0  0.00000000000E+00  0.00000000000E+00 -0.23105512459E+04  0.23105512459E+04  0.50400001928E-02 0. -1.
    10030    2    1    2    0    0  0.00000000000E+00  0.00000000000E+00 -0.14617165853E+04  0.31593859065E+04  0.28009112679E+04 0.  0.
        4    1    3    3  502    0  0.69604241247E+03  0.11082027587E+04 -0.12933666417E+04  0.18399421939E+04  0.12699999809E+01 0. -1.
       -4    1    3    3    0  502 -0.69604241247E+03 -0.11082027587E+04 -0.16834994364E+03  0.13194437126E+04  0.12699999809E+01 0.  1.
</event>
<event>
 5   0  0.1330962E-05  0.2802486E+04  0.7818609E-02  0.8302497E-01
        2   -1    0    0  501    0  0.00000000000E+00  0.00000000000E+00  0.99420214189E+03  0.99420214190E+03  0.25500000920E-02 0.  1.
       -2   -1    0    0    0  501  0.00000000000E+00  0.00000000000E+00 -0.19749327181E+04  0.19749327181E+04  0.25500000920E-02 0. -1.
    10030    2    1    2    0    0  0.00000000000E+00  0.00000000000E+00 -0.98073057620E+03  0.29691348600E+04  0.28024862807E+04 0.  0.
        4    1    3    3  502    0  0.64991977989E+03  0.69358038908E+03 -0.15811668794E+04  0.18448685021E+04  0.12699999809E+01 0. -1.
       -4    1    3    3    0  502 -0.64991977989E+03 -0.69358038908E+03  0.60043630324E+03  0.11242663579E+04  0.12699999809E+01 0.  1.
</event>
<event>
 5   0  0.1388269E-05  0.3074804E+04  0.7818609E-02  0.8222687E-01
       -2   -1    0    0    0  501  0.00000000000E+00  0.00000000000E+00  0.96884193515E+03  0.96884193516E+03  0.25500000920E-02 0. -1.
        2   -1    0    0  501    0  0.00000000000E+00  0.00000000000E+00 -0.24396188005E+04  0.24396188005E+04  0.25500000920E-02 0.  1.
    10030    2    1    2    0    0  0.00000000000E+00  0.00000000000E+00 -0.14707768654E+04  0.34084607357E+04  0.30748040586E+04 0.  0.
        1    1    3    3  502    0  0.14364453936E+04  0.52629982902E+03 -0.56640607954E+03  0.16313131906E+04  0.50400001928E-02 0.  1.
       -1    1    3    3    0  502 -0.14364453936E+04 -0.52629982902E+03 -0.90437078584E+03  0.17771475451E+04  0.50400001928E-02 0. -1.
</event>
<event>
 5   0  0.1302063E-05  0.2925926E+04  0.7818609E-02  0.8265205E-01
       -2   -1    0    0    0  501  0.00000000000E+00  0.00000000000E+00  0.16253918725E+04  0.16253918725E+04  0.25500000920E-02 0.  1.
        2   -1    0    0  501    0  0.00000000000E+00  0.00000000000E+00 -0.13167661225E+04  0.13167661225E+04  0.25500000920E-02 0. -1.
    10030    2    1    2    0    0  0.00000000000E+00  0.00000000000E+00  0.30862575000E+03  0.29421579950E+04  0.29259261464E+04 0.  0.
        2    1    3    3  502    0 -0.67550590515E+03  0.55877512101E+03 -0.10233903260E+04  0.13475405831E+04  0.25500000920E-02 0. -1.
       -2    1    3    3    0  502  0.67550590515E+03 -0.55877512101E+03  0.13320160760E+04  0.15946174119E+04  0.25500000920E-02 0.  1.
</event>
<event>
 5   0  0.4764214E-06  0.2799406E+04  0.7818609E-02  0.8303453E-01
        1   -1    0    0  501    0  0.00000000000E+00  0.00000000000E+00  0.10511630255E+04  0.10511630255E+04  0.50400001928E-02 0. -1.
       -1   -1    0    0    0  501  0.00000000000E+00  0.00000000000E+00 -0.18638097208E+04  0.18638097208E+04  0.50400001928E-02 0.  1.
    10030    2    1    2    0    0  0.00000000000E+00  0.00000000000E+00 -0.81264669526E+03  0.29149727463E+04  0.27994055549E+04 0.  0.
        3    1    3    3  502    0  0.52923320353E+03  0.11254597717E+04  0.26238806351E+03  0.12710605759E+04  0.10100000352E+00 0. -1.
       -3    1    3    3    0  502 -0.52923320353E+03 -0.11254597717E+04 -0.10750347588E+04  0.16439121705E+04  0.10100000352E+00 0.  1.
</event>
<event>
 5   0  0.5217999E-06  0.2775010E+04  0.7818609E-02  0.8311069E-01
       -1   -1    0    0    0  501  0.00000000000E+00  0.00000000000E+00  0.73008445453E+03  0.73008445455E+03  0.50400001928E-02 0. -1.
        1   -1    0    0  501    0  0.00000000000E+00  0.00000000000E+00 -0.26369143096E+04  0.26369143096E+04  0.50400001928E-02 0.  1.
    10030    2    1    2    0    0  0.00000000000E+00  0.00000000000E+00 -0.19068298551E+04  0.33669987642E+04  0.27750100147E+04 0.  0.
        1    1    3    3  502    0  0.36866809437E+02  0.62245399685E+03  0.55050661887E+03  0.83178463395E+03  0.50400001928E-02 0. -1.
       -1    1    3    3    0  502 -0.36866809437E+02 -0.62245399685E+03 -0.24573364739E+04  0.25352141302E+04  0.50400001928E-02 0.  1.
</event>
<event>
 5   0  0.5107453E-06  0.2762603E+04  0.7818609E-02  0.8314974E-01
        1   -1    0    0  501    0  0.00000000000E+00  0.00000000000E+00  0.17090941624E+04  0.17090941624E+04  0.50400001928E-02 0.  1.
       -1   -1    0    0    0  501  0.00000000000E+00  0.00000000000E+00 -0.11163768791E+04  0.11163768792E+04  0.50400001928E-02 0. -1.
    10030    2    1    2    0    0  0.00000000000E+00  0.00000000000E+00  0.59271728322E+03  0.28254710415E+04  0.27626025463E+04 0.  0.
        2    1    3    3  502    0 -0.69636905217E+03 -0.11208013774E+04  0.71414907582E+03  0.15003781147E+04  0.25500000920E-02 0.  1.
       -2    1    3    3    0  502  0.69636905217E+03  0.11208013774E+04 -0.12143179260E+03  0.13250929268E+04  0.25500000920E-02 0. -1.
</event>
<event>
 5   0  0.1302063E-05  0.2787946E+04  0.7818609E-02  0.8307020E-01
       -2   -1    0    0    0  501  0.00000000000E+00  0.00000000000E+00  0.15303248102E+04  0.15303248102E+04  0.25500000920E-02 0. -1.
        2   -1    0    0  501    0  0.00000000000E+00  0.00000000000E+00 -0.12697699556E+04  0.12697699556E+04  0.25500000920E-02 0.  1.
    10030    2    1    2    0    0  0.00000000000E+00  0.00000000000E+00  0.26055485457E+03  0.28000947659E+04  0.27879458147E+04 0.  0.
        2    1    3    3  502    0  0.10579887321E+04  0.81896082572E+03 -0.26273772037E+03  0.13634764762E+04  0.25500000920E-02 0.  1.
       -2    1    3    3    0  502 -0.10579887321E+04 -0.81896082572E+03  0.52329257495E+03  0.14366182897E+04  0.25500000920E-02 0. -1.
</event>
<event>
 5   0  0.1283052E-05  0.2868824E+04  0.7818609E-02  0.8282214E-01
        2   -1    0    0  501    0  0.00000000000E+00  0.00000000000E+00  0.13449702586E+04  0.13449702587E+04  0.25500000920E-02 0.  1.
       -2   -1    0    0    0  501  0.00000000000E+00  0.00000000000E+00 -0.15298013768E+04  0.15298013768E+04  0.25500000920E-02 0. -1.
    10030    2    1    2    0    0  0.00000000000E+00  0.00000000000E+00 -0.18483111812E+03  0.28747716354E+04  0.28688236986E+04 0.  0.
        5    1    3    3  502    0 -0.58346088990E+03 -0.67664302270E+03 -0.12169020493E+04  0.15096837675E+04  0.46999998093E+01 0. -1.
       -5    1    3    3    0  502  0.58346088990E+03  0.67664302270E+03  0.10320709312E+04  0.13650878679E+04  0.46999998093E+01 0.  1.
</event>
<event>
 5   0  0.5217999E-06  0.2811739E+04  0.7818609E-02  0.8299633E-01
       -1   -1    0    0    0  501  0.00000000000E+00  0.00000000000E+00  0.97714466776E+03  0.97714466777E+03  0.50400001928E-02 0. -1.
        1   -1    0    0  501    0  0.00000000000E+00  0.00000000000E+00 -0.20226981819E+04  0.20226981819E+04  0.50400001928E-02 0.  1.
    10030    2    1    2    0    0  0.00000000000E+00  0.00000000000E+00 -0.10455535142E+04  0.29998428497E+04  0.28117387809E+04 0.  0.
        1    1    3    3  502    0  0.10225849486E+04 -0.96298238334E+03 -0.46007704606E+03  0.14780683124E+04  0.50400001928E-02 0.  1.
       -1    1    3    3    0  502 -0.10225849486E+04  0.96298238334E+03 -0.58547646812E+03  0.15217745373E+04  0.50400001928E-02 0. -1.
</event>
<event>
 5   0  0.1388269E-05  0.2791855E+04  0.7818609E-02  0.8305801E-01
        2   -1    0    0  501    0  0.00000000000E+00  0.00000000000E+00  0.15201118891E+04  0.15201118891E+04  0.25500000920E-02 0. -1.
       -2   -1    0    0    0  501  0.00000000000E+00  0.00000000000E+00 -0.12818884588E+04  0.12818884588E+04  0.25500000920E-02 0.  1.
    10030    2    1    2    0    0  0.00000000000E+00  0.00000000000E+00  0.23822343032E+03  0.28020003479E+04  0.27918552159E+04 0.  0.
        1    1    3    3  502    0 -0.13418137539E+04  0.38061443003E+03  0.61611360715E+02  0.13961115480E+04  0.50400001928E-02 0. -1.
       -1    1    3    3    0  502  0.13418137539E+04 -0.38061443003E+03  0.17661206960E+03  0.14058887999E+04  0.50400001928E-02 0.  1.
</event>
<event>
 5   0  0.5217999E-06  0.2747536E+04  0.7818609E-02  0.8319744E-01
        1   -1    0    0  501    0  0.00000000000E+00  0.00000000000E+00  0.19855021600E+04  0.19855021600E+04  0.50400001928E-02 0.  1.
       -1   -1    0    0    0  501  0.00000000000E+00  0.00000000000E+00 -0.95050922941E+03  0.95050922942E+03  0.50400001928E-02 0. -1.
    10030    2    1    2    0    0  0.00000000000E+00  0.00000000000E+00  0.10349929306E+04  0.29360113894E+04  0.27475357163E+04 0.  0.
        1    1    3    3  502    0 -0.57024720348E+03 -0.59381465713E+03  0.16926825125E+04  0.18822783557E+04  0.50400001928E-02 0.  1.
       -1    1    3    3    0  502  0.57024720348E+03  0.59381465713E+03 -0.65768958195E+03  0.10537330337E+04  0.50400001928E-02 0. -1.
</event>
<event>
 5   0  0.1283052E-05  0.2708246E+04  0.7818609E-02  0.8332335E-01
       -2   -1    0    0    0  501  0.00000000000E+00  0.00000000000E+00  0.13859170649E+04  0.13859170649E+04  0.25500000920E-02 0. -1.
        2   -1    0    0  501    0  0.00000000000E+00  0.00000000000E+00 -0.13230578920E+04  0.13230578920E+04  0.25500000920E-02 0.  1.
    10030    2    1    2    0    0  0.00000000000E+00  0.00000000000E+00  0.62859172878E+02  0.27089749568E+04  0.27082455651E+04 0.  0.
        5    1    3    3  502    0  0.67876318338E+03  0.63699722487E+03  0.10151279716E+04  0.13773132586E+04  0.46999998093E+01 0. -1.
       -5    1    3    3    0  502 -0.67876318338E+03 -0.63699722487E+03 -0.95226879870E+03  0.13316616982E+04  0.46999998093E+01 0.  1.
</event>
<event>
 5   0  0.1330962E-05  0.2774999E+04  0.7818609E-02  0.8311072E-01
        2   -1    0    0  501    0  0.00000000000E+00  0.00000000000E+00  0.29225550859E+04  0.29225550859E+04  0.25500000920E-02 0.  1.
       -2   -1    0    0    0  501  0.00000000000E+00  0.00000000000E+00 -0.65872326553E+03  0.65872326553E+03  0.25500000920E-02 0. -1.
    10030    2    1    2    0    0  0.00000000000E+00  0.00000000000E+00  0.22638318204E+04  0.35812783514E+04  0.27749991206E+04 0.  0.
        4    1    3    3  502    0 -0.81338048820E+03 -0.81594991928E+03  0.21297309203E+04  0.24213875145E+04  0.12699999809E+01 0.  1.
       -4    1    3    3    0  502  0.81338048820E+03  0.81594991928E+03  0.13410090004E+03  0.11598908370E+04  0.12699999809E+01 0. -1.
</event>
<event>
 5   0  0.1283052E-05  0.2899344E+04  0.7818609E-02  0.8273073E-01
        2   -1    0    0  501    0  0.00000000000E+00  0.00000000000E+00  0.12155274163E+04  0.12155274163E+04  0.25500000920E-02 0.  1.
       -2   -1    0    0    0  501  0.00000000000E+00  0.00000000000E+00 -0.17289198572E+04  0.17289198572E+04  0.25500000920E-02 0. -1.
    10030    2    1    2    0    0  0.00000000000E+00  0.00000000000E+00 -0.51339244097E+03  0.29444472735E+04  0.28993443997E+04 0.  0.
        5    1    3    3  502    0  0.34796480580E+03  0.69170270981E+03  0.98792802096E+03  0.12552115397E+04  0.46999998093E+01 0.  1.
       -5    1    3    3    0  502 -0.34796480580E+03 -0.69170270981E+03 -0.15013204619E+04  0.16892357338E+04  0.46999998093E+01 0. -1.
</event>
<event>
 5   0  0.1283052E-05  0.2781587E+04  0.7818609E-02  0.8309008E-01
       -2   -1    0    0    0  501  0.00000000000E+00  0.00000000000E+00  0.21443578571E+04  0.21443578571E+04  0.25500000920E-02 0. -1.
        2   -1    0    0  501    0  0.00000000000E+00  0.00000000000E+00 -0.90204445590E+03  0.90204445591E+03  0.25500000920E-02 0.  1.
    10030    2    1    2    0    0  0.00000000000E+00  0.00000000000E+00  0.12423134012E+04  0.30464023131E+04  0.27815866814E+04 0.  0.
        5    1    3    3  502    0  0.19197589420E+03  0.13709152608E+04  0.76817779346E+03  0.15831559015E+04  0.46999998093E+01 0.  1.
       -5    1    3    3    0  502 -0.19197589420E+03 -0.13709152608E+04  0.47413560778E+03  0.14632464115E+04  0.46999998093E+01 0. -1.
</event>
<event>
 5   0  0.5107453E-06  0.2706330E+04  0.7818609E-02  0.8332954E-01
        1   -1    0    0  501    0  0.00000000000E+00  0.00000000000E+00  0.17945129017E+04  0.17945129017E+04  0.50400001928E-02 0. -1.
       -1   -1    0    0    0  501  0.00000000000E+00  0.00000000000E+00 -0.10203637724E+04  0.10203637724E+04  0.50400001928E-02 0.  1.
    10030    2    1    2    0    0  0.00000000000E+00  0.00000000000E+00  0.77414912927E+03  0.28148766741E+04  0.27063303228E+04 0.  0.
        2    1    3    3  502    0 -0.30728539872E+03  0.13168825019E+04  0.33556962520E+03  0.13932734166E+04  0.25500000920E-02 0. -1.
       -2    1    3    3    0  502  0.30728539872E+03 -0.13168825019E+04  0.43857950407E+03  0.14216032574E+04  0.25500000920E-02 0.  1.
</event>
<event>
 5   0  0.1388269E-05  0.2823300E+04  0.7818609E-02  0.8296071E-01
       -2   -1    0    0    0  501  0.00000000000E+00  0.00000000000E+00  0.14588076134E+04  0.14588076134E+04  0.25500000920E-02 0. -1.
        2   -1    0    0  501    0  0.00000000000E+00  0.00000000000E+00 -0.13660171455E+04  0.13660171455E+04  0.25500000920E-02 0.  1.
    10030    2    1    2    0    0  0.00000000000E+00  0.00000000000E+00  0.92790467940E+02  0.28248247589E+04  0.28233003467E+04 0.  0.
        1    1    3    3  502    0  0.72329493629E+03  0.11335315124E+04  0.47640276021E+03  0.14265373617E+04  0.50400001928E-02 0.  1.
       -1    1    3    3    0  502 -0.72329493629E+03 -0.11335315124E+04 -0.38361229227E+03  0.13982873972E+04  0.50400001928E-02 0. -1.
</event>
<event>
 5   0  0.5107453E-06  0.2810431E+04  0.7818609E-02  0.8300037E-01
        1   -1    0    0  501    0  0.00000000000E+00  0.00000000000E+00  0.13347656037E+04  0.13347656037E+04  0.50400001928E-02 0.  1.
       -1   -1    0    0    0  501  0.00000000000E+00  0.00000000000E+00 -0.14793835654E+04  0.14793835654E+04  0.50400001928E-02 0. -1.
    10030    2    1    2    0    0  0.00000000000E+00  0.00000000000E+00 -0.14461796169E+03  0.28141491691E+04  0.28104307839E+04 0.  0.
        2    1    3    3  502    0 -0.82747442047E+03 -0.12287303698E+03  0.10582635147E+04  0.13489749317E+04  0.25500000920E-02 0.  1.
       -2    1    3    3    0  502  0.82747442047E+03  0.12287303698E+03 -0.12028814764E+04  0.14651742374E+04  0.25500000920E-02 0. -1.
</event>
<event>
 5   0  0.1330962E-05  0.2779265E+04  0.7818609E-02  0.8309735E-01
        2   -1    0    0  501    0  0.00000000000E+00  0.00000000000E+00  0.19281059012E+04  0.19281059012E+04  0.25500000920E-02 0.  1.
       -2   -1    0    0    0  501  0.00000000000E+00  0.00000000000E+00 -0.10015414767E+04  0.10015414767E+04  0.25500000920E-02 0. -1.
    10030    2    1    2    0    0  0.00000000000E+00  0.00000000000E+00  0.92656442447E+03  0.29296473780E+04  0.27792646737E+04 0.  0.
        4    1    3    3  502    0  0.70119773257E+03  0.44775527572E+03  0.16365736821E+04  0.18359025238E+04  0.12699999809E+01 0.  1.
       -4    1    3    3    0  502 -0.70119773257E+03 -0.44775527572E+03 -0.71000925764E+03  0.10937448541E+04  0.12699999809E+01 0. -1.
</event>
<event>
 5   0  0.4764214E-06  0.2046918E+04  0.7818609E-02  0.8584994E-01
        1   -1    0    0  501    0  0.00000000000E+00  0.00000000000E+00  0.17642582551E+04  0.17642582551E+04  0.50400001928E-02 0. -1.
       -1   -1    0    0    0  501  0.00000000000E+00  0.00000000000E+00 -0.59371615824E+03  0.59371615826E+03  0.50400001928E-02 0.  1.
    10030    2    1    2    0    0  0.00000000000E+00  0.00000000000E+00  0.11705420969E+04  0.23579744134E+04  0.20469183016E+04 0.  0.
        3    1    3    3  502    0 -0.32604172490E+03  0.62645215138E+03  0.14385975002E+04  0.16025942350E+04  0.10100000352E+00 0. -1.
       -3    1    3    3    0  502  0.32604172490E+03 -0.62645215138E+03 -0.26805540336E+03  0.75538017833E+03  0.10100000352E+00 0.  1.
</event>
<event>
 5   0  0.1350863E-05  0.2855486E+04  0.7818609E-02  0.8286246E-01
        2   -1    0    0  501    0  0.00000000000E+00  0.00000000000E+00  0.10678565139E+04  0.10678565139E+04  0.25500000920E-02 0.  1.
       -2   -1    0    0    0  501  0.00000000000E+00  0.00000000000E+00 -0.19089180853E+04  0.19089180853E+04  0.25500000920E-02 0. -1.
    10030    2    1    2    0    0  0.00000000000E+00  0.00000000000E+00 -0.84106157139E+03  0.29767745993E+04  0.28554863768E+04 0.  0.
        3    1    3    3  502    0  0.13331621382E+03  0.12717314863E+04 -0.10826270081E+04  0.16754567840E+04  0.10100000352E+00 0. -1.
       -3    1    3    3    0  502 -0.13331621382E+03 -0.12717314863E+04  0.24156543675E+03  0.13013178153E+04  0.10100000352E+00 0.  1.
</event>
<event>
 5   0  0.5281919E-06  0.2805433E+04  0.7818609E-02  0.8301584E-01
        1   -1    0    0  501    0  0.00000000000E+00  0.00000000000E+00  0.22149629002E+04  0.22149629002E+04  0.50400001928E-02 0.  1.
       -1   -1    0    0    0  501  0.00000000000E+00  0.00000000000E+00 -0.88832783230E+03  0.88832783231E+03  0.50400001928E-02 0. -1.
    10030    2    1    2    0    0  0.00000000000E+00  0.00000000000E+00  0.13266350679E+04  0.31032907326E+04  0.28054327237E+04 0.  0.
        4    1    3    3  502    0 -0.83870971230E+02 -0.13443305604E+04  0.23013777586E+03  0.13664640516E+04  0.12699999809E+01 0. -1.
       -4    1    3    3    0  502  0.83870971230E+02  0.13443305604E+04  0.10964972921E+04  0.17368266810E+04  0.12699999809E+01 0.  1.
</event>
<event>
 5   0  0.1388269E-05  0.2696621E+04  0.7818609E-02  0.8336102E-01
        2   -1    0    0  501    0  0.00000000000E+00  0.00000000000E+00  0.69227736940E+03  0.69227736940E+03  0.25500000920E-02 0.  1.
       -2   -1    0    0    0  501  0.00000000000E+00  0.00000000000E+00 -0.26260293702E+04  0.26260293702E+04  0.25500000920E-02 0. -1.
    10030    2    1    2    0    0  0.00000000000E+00  0.00000000000E+00 -0.19337520008E+04  0.33183067396E+04  0.26966206291E+04 0.  0.
        1    1    3    3  502    0  0.15749490020E+02  0.51430137258E+03 -0.25004633446E+04  0.25528554377E+04  0.50400001928E-02 0. -1.
       -1    1    3    3    0  502 -0.15749490020E+02 -0.51430137258E+03  0.56671134381E+03  0.76545130185E+03  0.50400001928E-02 0.  1.
</event>
<event>
 5   0  0.5023691E-06  0.2380889E+04  0.7818609E-02  0.8446693E-01
       -1   -1    0    0    0  501  0.00000000000E+00  0.00000000000E+00  0.56145923064E+03  0.56145923067E+03  0.50400001928E-02 0.  1.
        1   -1    0    0  501    0  0.00000000000E+00  0.00000000000E+00 -0.25240621263E+04  0.25240621263E+04  0.50400001928E-02 0. -1.
    10030    2    1    2    0    0  0.00000000000E+00  0.00000000000E+00 -0.19626028956E+04  0.30855213569E+04  0.23808888925E+04 0.  0.
        5    1    3    3  502    0  0.48715125995E+03  0.10846164577E+04 -0.10571637733E+04  0.15910143129E+04  0.46999998093E+01 0.  1.
       -5    1    3    3    0  502 -0.48715125995E+03 -0.10846164577E+04 -0.90543912235E+03  0.14945070440E+04  0.46999998093E+01 0. -1.
</event>
<event>
 5   0  0.5281919E-06  0.2712378E+04  0.7818609E-02  0.8331000E-01
        1   -1    0    0  501    0  0.00000000000E+00  0.00000000000E+00  0.17366298411E+04  0.17366298411E+04  0.50400001928E-02 0.  1.
       -1   -1    0    0    0  501  0.00000000000E+00  0.00000000000E+00 -0.10590908208E+04  0.10590908208E+04  0.50400001928E-02 0. -1.
    10030    2    1    2    0    0  0.00000000000E+00  0.00000000000E+00  0.67753902029E+03  0.27957206619E+04  0.27123780885E+04 0.  0.
        4    1    3    3  502    0 -0.49247363720E+02  0.74283250913E+03  0.15071889519E+04  0.16810251602E+04  0.12699999809E+01 0.  1.
       -4    1    3    3    0  502  0.49247363720E+02 -0.74283250913E+03 -0.82964993164E+03  0.11146955017E+04  0.12699999809E+01 0. -1.
</event>
<event>
 5   0  0.1350863E-05  0.2801828E+04  0.7818609E-02  0.8302701E-01
       -2   -1    0    0    0  501  0.00000000000E+00  0.00000000000E+00  0.85953630685E+03  0.85953630686E+03  0.25500000920E-02 0. -1.
        2   -1    0    0  501    0  0.00000000000E+00  0.00000000000E+00 -0.22832778085E+04  0.22832778085E+04  0.25500000920E-02 0.  1.
    10030    2    1    2    0    0  0.00000000000E+00  0.00000000000E+00 -0.14237415017E+04  0.31428141154E+04  0.28018280997E+04 0.  0.
        3    1    3    3  502    0  0.18655287471E+03 -0.28198589871E+03  0.81308289570E+03  0.88058039248E+03  0.10100000352E+00 0. -1.
       -3    1    3    3    0  502 -0.18655287471E+03  0.28198589871E+03 -0.22368243974E+04  0.22622337229E+04  0.10100000352E+00 0.  1.
</event>
<event>
 5   0  0.5023691E-06  0.2814347E+04  0.7818609E-02  0.8298828E-01
        1   -1    0    0  501    0  0.00000000000E+00  0.00000000000E+00  0.10549543950E+04  0.10549543950E+04  0.50400001928E-02 0. -1.
       -1   -1    0    0    0  501  0.00000000000E+00  0.00000000000E+00 -0.18769886731E+04  0.18769886731E+04  0.50400001928E-02 0.  1.
    10030    2    1    2    0    0  0.00000000000E+00  0.00000000000E+00 -0.82203427817E+03  0.29319430681E+04  0.28143471357E+04 0.  0.
        5    1    3    3  502    0 -0.69404729387E+03 -0.35403646178E+03 -0.16317608846E+04  0.18082337064E+04  0.46999998093E+01 0.  1.
       -5    1    3    3    0  502  0.69404729387E+03  0.35403646178E+03  0.80972660644E+03  0.11237093617E+04  0.46999998093E+01 0. -1.
</event>
<event>
 5   0  0.4764214E-06  0.2809131E+04  0.7818609E-02  0.8300439E-01
        1   -1    0    0  501    0  0.00000000000E+00  0.00000000000E+00  0.19121044417E+04  0.19121044417E+04  0.50400001928E-02 0.  1.
       -1   -1    0    0    0  501  0.00000000000E+00  0.00000000000E+00 -0.10317451098E+04  0.10317451098E+04  0.50400001928E-02 0. -1.
    10030    2    1    2    0    0  0.00000000000E+00  0.00000000000E+00  0.88035933192E+03  0.29438495514E+04  0.28091311162E+04 0.  0.
        3    1    3    3  502    0  0.12945015495E+04 -0.44772415025E+03  0.76591275677E+03  0.15693353808E+04  0.10100000352E+00 0. -1.
       -3    1    3    3    0  502 -0.12945015495E+04  0.44772415025E+03  0.11444657515E+03  0.13745141706E+04  0.10100000352E+00 0.  1.
</event>
<event>
 5   0  0.5107453E-06  0.2807578E+04  0.7818609E-02  0.8300920E-01
       -1   -1    0    0    0  501  0.00000000000E+00  0.00000000000E+00  0.11126144109E+04  0.11126144109E+04  0.50400001928E-02 0.  1.
        1   -1    0    0  501    0  0.00000000000E+00  0.00000000000E+00 -0.17711645336E+04  0.17711645336E+04  0.50400001928E-02 0. -1.
    10030    2    1    2    0    0  0.00000000000E+00  0.00000000000E+00 -0.65855012265E+03  0.28837789445E+04  0.28075777347E+04 0.  0.
        2    1    3    3  502    0 -0.87982889654E+02  0.66476115292E+03  0.93747573778E+03  0.11526097077E+04  0.25500000920E-02 0.  1.
       -2    1    3    3    0  502  0.87982889654E+02 -0.66476115292E+03 -0.15960258604E+04  0.17311692368E+04  0.25500000920E-02 0. -1.
</event>
<event>
 5   0  0.1302063E-05  0.2812450E+04  0.7818609E-02  0.8299414E-01
       -2   -1    0    0    0  501  0.00000000000E+00  0.00000000000E+00  0.16125310886E+04  0.16125310886E+04  0.25500000920E-02 0. -1.
        2   -1    0    0  501    0  0.00000000000E+00  0.00000000000E+00 -0.12263133735E+04  0.12263133735E+04  0.25500000920E-02 0.  1.
    10030    2    1    2    0    0  0.00000000000E+00  0.00000000000E+00  0.38621771507E+03  0.28388444620E+04  0.28124497784E+04 0.  0.
        2    1    3    3  502    0  0.80612284462E+03  0.24844657604E+03  0.13287941834E+04  0.15739293896E+04  0.25500000920E-02 0. -1.
       -2    1    3    3    0  502 -0.80612284462E+03 -0.24844657604E+03 -0.94257646832E+03  0.12649150724E+04  0.25500000920E-02 0.  1.
</event>
<event>
 5   0  0.5107453E-06  0.2754941E+04  0.7818609E-02  0.8317396E-01
        1   -1    0    0  501    0  0.00000000000E+00  0.00000000000E+00  0.13839191721E+04  0.13839191721E+04  0.50400001928E-02 0.  1.
       -1   -1    0    0    0  501  0.00000000000E+00  0.00000000000E+00 -0.13710517838E+04  0.13710517838E+04  0.50400001928E-02 0. -1.
    10030    2    1    2    0    0  0.00000000000E+00  0.00000000000E+00  0.12867388280E+02  0.27549709560E+04  0.27549409065E+04 0.  0.
        2    1    3    3  502    0 -0.93776121323E+03 -0.15971484254E+03 -0.98983011506E+03  0.13728323207E+04  0.25500000920E-02 0. -1.
       -2    1    3    3    0  502  0.93776121323E+03  0.15971484254E+03  0.10026975033E+04  0.13821386353E+04  0.25500000920E-02 0.  1.
</event>
<event>
 5   0  0.5107453E-06  0.2805548E+04  0.7818609E-02  0.8301548E-01
        1   -1    0    0  501    0  0.00000000000E+00  0.00000000000E+00  0.20558425175E+04  0.20558425175E+04  0.50400001928E-02 0.  1.
       -1   -1    0    0    0  501  0.00000000000E+00  0.00000000000E+00 -0.95716218912E+03  0.95716218914E+03  0.50400001928E-02 0. -1.
    10030    2    1    2    0    0  0.00000000000E+00  0.00000000000E+00  0.10986803284E+04  0.30130047067E+04  0.28055478785E+04 0.  0.
        2    1    3    3  502    0 -0.88509443953E+03  0.91346209111E+03 -0.85986766377E+02  0.12748328843E+04  0.25500000920E-02 0. -1.
       -2    1    3    3    0  502  0.88509443953E+03 -0.91346209111E+03  0.11846670948E+04  0.17381718224E+04  0.25500000920E-02 0.  1.
</event>
<event>
 5   0  0.4764214E-06  0.2050532E+04  0.7818609E-02  0.8583353E-01
       -1   -1    0    0    0  501  0.00000000000E+00  0.00000000000E+00  0.61751564415E+03  0.61751564417E+03  0.50400001928E-02 0.  1.
        1   -1    0    0  501    0  0.00000000000E+00  0.00000000000E+00 -0.17022578769E+04  0.17022578769E+04  0.50400001928E-02 0. -1.
    10030    2    1    2    0    0  0.00000000000E+00  0.00000000000E+00 -0.10847422327E+04  0.23197735211E+04  0.20505324863E+04 0.  0.
        3    1    3    3  502    0 -0.69843296181E+03 -0.13161898748E+03  0.29359879122E+03  0.76898141747E+03  0.10100000352E+00 0.  1.
       -3    1    3    3    0  502  0.69843296181E+03  0.13161898748E+03 -0.13783410240E+04  0.15507921036E+04  0.10100000352E+00 0. -1.
</event>
<event>
 5   0  0.1388269E-05  0.2845125E+04  0.7818609E-02  0.8289394E-01
       -2   -1    0    0    0  501  0.00000000000E+00  0.00000000000E+00  0.82361669632E+03  0.82361669633E+03  0.25500000920E-02 0. -1.
        2   -1    0    0  501    0  0.00000000000E+00  0.00000000000E+00 -0.24570699599E+04  0.24570699599E+04  0.25500000920E-02 0.  1.
    10030    2    1    2    0    0  0.00000000000E+00  0.00000000000E+00 -0.16334532636E+04  0.32806866563E+04  0.28451248430E+04 0.  0.
        1    1    3    3  502    0  0.25252413686E+03  0.12955058906E+04 -0.20484947162E+03  0.13356898062E+04  0.50400001928E-02 0. -1.
       -1    1    3    3    0  502 -0.25252413686E+03 -0.12955058906E+04 -0.14286037920E+04  0.19449968501E+04  0.50400001928E-02 0.  1.
</event>
<event>
 5   0  0.1330962E-05  0.2832224E+04  0.7818609E-02  0.8293333E-01
       -2   -1    0    0    0  501  0.00000000000E+00  0.00000000000E+00  0.98709987513E+03  0.98709987513E+03  0.25500000920E-02 0. -1.
        2   -1    0    0  501    0  0.00000000000E+00  0.00000000000E+00 -0.20315812371E+04  0.20315812371E+04  0.25500000920E-02 0.  1.
    10030    2    1    2    0    0  0.00000000000E+00  0.00000000000E+00 -0.10444813620E+04  0.30186811123E+04  0.28322242747E+04 0.  0.
        4    1    3    3  502    0 -0.88067331408E+03  0.98422737642E+02 -0.16995408667E+04  0.19166933224E+04  0.12699999809E+01 0.  1.
       -4    1    3    3    0  502  0.88067331408E+03 -0.98422737642E+02  0.65505950474E+03  0.11019877899E+04  0.12699999809E+01 0. -1.
</event>
<event>
 5   0  0.5217999E-06  0.2786901E+04  0.7818609E-02  0.8307347E-01
       -1   -1    0    0    0  501  0.00000000000E+00  0.00000000000E+00  0.12823611206E+04  0.12823611206E+04  0.50400001928E-02 0. -1.
        1   -1    0    0  501    0  0.00000000000E+00  0.00000000000E+00 -0.15141631134E+04  0.15141631134E+04  0.50400001928E-02 0.  1.
    10030    2    1    2    0    0  0.00000000000E+00  0.00000000000E+00 -0.23180199279E+03  0.27965242340E+04  0.27869007207E+04 0.  0.
        1    1    3    3  502    0 -0.77484411310E+03  0.21787008126E+03 -0.12573054966E+04  0.14928723601E+04  0.50400001928E-02 0.  1.
       -1    1    3    3    0  502  0.77484411310E+03 -0.21787008126E+03  0.10255035038E+04  0.13036518738E+04  0.50400001928E-02 0. -1.
</event>
<event>
 5   0  0.1388269E-05  0.2753686E+04  0.7818609E-02  0.8317793E-01
        2   -1    0    0  501    0  0.00000000000E+00  0.00000000000E+00  0.11719906738E+04  0.11719906738E+04  0.25500000920E-02 0.  1.
       -2   -1    0    0    0  501  0.00000000000E+00  0.00000000000E+00 -0.16175009708E+04  0.16175009708E+04  0.25500000920E-02 0. -1.
    10030    2    1    2    0    0  0.00000000000E+00  0.00000000000E+00 -0.44551029697E+03  0.27894916446E+04  0.27536855686E+04 0.  0.
        1    1    3    3  502    0  0.11656211521E+04  0.99270199864E+02 -0.95826004762E+03  0.15122134644E+04  0.50400001928E-02 0. -1.
       -1    1    3    3    0  502 -0.11656211521E+04 -0.99270199864E+02  0.51274975065E+03  0.12772781802E+04  0.50400001928E-02 0.  1.
</event>
<event>
 5   0  0.1330962E-05  0.2838710E+04  0.7818609E-02  0.8291350E-01
       -2   -1    0    0    0  501  0.00000000000E+00  0.00000000000E+00  0.11970808612E+04  0.11970808612E+04  0.25500000920E-02 0.  1.
        2   -1    0    0  501    0  0.00000000000E+00  0.00000000000E+00 -0.16829012113E+04  0.16829012113E+04  0.25500000920E-02 0. -1.
    10030    2    1    2    0    0  0.00000000000E+00  0.00000000000E+00 -0.48582035013E+03  0.28799820726E+04  0.28387101518E+04 0.  0.
        4    1    3    3  502    0  0.75227911727E+03  0.12021574328E+04 -0.18322582930E+03  0.14299229633E+04  0.12699999809E+01 0.  1.
       -4    1    3    3    0  502 -0.75227911727E+03 -0.12021574328E+04 -0.30259452083E+03  0.14500591093E+04  0.12699999809E+01 0. -1.
</event>
<event>
 5   0  0.1283052E-05  0.2832561E+04  0.7818609E-02  0.8293230E-01
        2   -1    0    0  501    0  0.00000000000E+00  0.00000000000E+00  0.17896883332E+04  0.17896883332E+04  0.25500000920E-02 0.  1.
       -2   -1    0    0    0  501  0.00000000000E+00  0.00000000000E+00 -0.11207820675E+04  0.11207820675E+04  0.25500000920E-02 0. -1.
    10030    2    1    2    0    0  0.00000000000E+00  0.00000000000E+00  0.66890626564E+03  0.29104704007E+04  0.28325610957E+04 0.  0.
        5    1    3    3  502    0 -0.94265397133E+03 -0.10548596631E+04  0.26550241074E+03  0.14393884252E+04  0.46999998093E+01 0. -1.
       -5    1    3    3    0  502  0.94265397133E+03  0.10548596631E+04  0.40340385490E+03  0.14710819755E+04  0.46999998093E+01 0.  1.
</event>
<event>
 5   0  0.1388269E-05  0.2801445E+04  0.7818609E-02  0.8302820E-01
        2   -1    0    0  501    0  0.00000000000E+00  0.00000000000E+00  0.14193390974E+04  0.14193390974E+04  0.25500000920E-02 0. -1.
       -2   -1    0    0    0  501  0.00000000000E+00  0.00000000000E+00 -0.13823504106E+04  0.13823504106E+04  0.25500000920E-02 0.  1.
    10030    2    1    2    0    0  0.00000000000E+00  0.00000000000E+00  0.36988686796E+02  0.28016895079E+04  0.28014453298E+04 0.  0.
        1    1    3    3  502    0  0.13809784552E+04 -0.16091585960E+03  0.18888693983E+03  0.14030943246E+04  0.50400001928E-02 0. -1.
       -1    1    3    3    0  502 -0.13809784552E+04  0.16091585960E+03 -0.15189825304E+03  0.13985951834E+04  0.50400001928E-02 0.  1.
</event>
<event>
 5   0  0.1283052E-05  0.2592408E+04  0.7818609E-02  0.8370784E-01
       -2   -1    0    0    0  501  0.00000000000E+00  0.00000000000E+00  0.80774315026E+03  0.80774315026E+03  0.25500000920E-02 0. -1.
        2   -1    0    0  501    0  0.00000000000E+00  0.00000000000E+00 -0.20800491027E+04  0.20800491027E+04  0.25500000920E-02 0.  1.
    10030    2    1    2    0    0  0.00000000000E+00  0.00000000000E+00 -0.12723059524E+04  0.28877922530E+04  0.25924084670E+04 0.  0.
        5    1    3    3  502    0  0.42916947923E+03  0.47577397257E+03  0.61898615430E+03  0.89090586713E+03  0.46999998093E+01 0. -1.
       -5    1    3    3    0  502 -0.42916947923E+03 -0.47577397257E+03 -0.18912921067E+04  0.19968863858E+04  0.46999998093E+01 0.  1.
</event>
<event>
 5   0  0.1388269E-05  0.2732285E+04  0.7818609E-02  0.8324605E-01
       -2   -1    0    0    0  501  0.00000000000E+00  0.00000000000E+00  0.10740775837E+04  0.10740775837E+04  0.25500000920E-02 0. -1.
        2   -1    0    0  501    0  0.00000000000E+00  0.00000000000E+00 -0.17376256170E+04  0.17376256170E+04  0.25500000920E-02 0.  1.
    10030    2    1    2    0    0  0.00000000000E+00  0.00000000000E+00 -0.66354803329E+03  0.28117032007E+04  0.27322845562E+04 0.  0.
        1    1    3    3  502    0  0.43121397037E+02 -0.91590236743E+03 -0.13739337134E+04  0.16517961285E+04  0.50400001928E-02 0.  1.
       -1    1    3    3    0  502 -0.43121397037E+02  0.91590236743E+03  0.71038568006E+03  0.11599070721E+04  0.50400001928E-02 0. -1.
</event>
<event>
 5   0  0.5281919E-06  0.2805119E+04  0.7818609E-02  0.8301681E-01
        1   -1    0    0  501    0  0.00000000000E+00  0.00000000000E+00  0.27289021508E+04  0.27289021508E+04  0.50400001928E-02 0. -1.
       -1   -1    0    0    0  501  0.00000000000E+00  0.00000000000E+00 -0.72086598044E+03  0.72086598046E+03  0.50400001928E-02 0.  1.
    10030    2    1    2    0    0  0.00000000000E+00  0.00000000000E+00  0.20080361703E+04  0.34497681313E+04  0.28051186959E+04 0.  0.
        4    1    3    3  502    0 -0.93476842596E+03  0.10453417125E+04  0.97291076124E+03  0.17067771584E+04  0.12699999809E+01 0. -1.
       -4    1    3    3    0  502  0.93476842596E+03 -0.10453417125E+04  0.10351254091E+04  0.17429909729E+04  0.12699999809E+01 0.  1.
</event>
<event>
 5   0  0.4764214E-06  0.2717022E+04  0.7818609E-02  0.8329503E-01
        1   -1    0    0  501    0  0.00000000000E+00  0.00000000000E+00  0.17250425720E+04  0.17250425720E+04  0.50400001928E-02 0. -1.
       -1   -1    0    0    0  501  0.00000000000E+00  0.00000000000E+00 -0.10698588442E+04  0.10698588442E+04  0.50400001928E-02 0.  1.
    10030    2    1    2    0    0  0.00000000000E+00  0.00000000000E+00  0.65518372774E+03  0.27949014162E+04  0.27170219376E+04 0.  0.
        3    1    3    3  502    0 -0.21147344072E+02  0.13583344307E+04  0.33344767749E+03  0.13988234341E+04  0.10100000352E+00 0.  1.
       -3    1    3    3    0  502  0.21147344072E+02 -0.13583344307E+04  0.32173605025E+03  0.13960779821E+04  0.10100000352E+00 0. -1.
</event>
<event>
 5   0  0.1388269E-05  0.2215356E+04  0.7818609E-02  0.8512064E-01
        2   -1    0    0  501    0  0.00000000000E+00  0.00000000000E+00  0.17711963459E+04  0.17711963459E+04  0.25500000920E-02 0. -1.
       -2   -1    0    0    0  501  0.00000000000E+00  0.00000000000E+00 -0.69272432098E+03  0.69272432098E+03  0.25500000920E-02 0.  1.
    10030    2    1    2    0    0  0.00000000000E+00  0.00000000000E+00  0.10784720249E+04  0.24639206669E+04  0.22153562116E+04 0.  0.
        1    1    3    3  502    0 -0.66006712958E+03 -0.34554525929E+03 -0.37240268956E+03  0.83293091249E+03  0.50400001928E-02 0.  1.
       -1    1    3    3    0  502  0.66006712958E+03  0.34554525929E+03  0.14508747145E+04  0.16309897544E+04  0.50400001928E-02 0. -1.
</event>
<event>
 5   0  0.5107453E-06  0.2816937E+04  0.7818609E-02  0.8298029E-01
       -1   -1    0    0    0  501  0.00000000000E+00  0.00000000000E+00  0.14340563285E+04  0.14340563285E+04  0.50400001928E-02 0. -1.
        1   -1    0    0  501    0  0.00000000000E+00  0.00000000000E+00 -0.13833377133E+04  0.13833377133E+04  0.50400001928E-02 0.  1.
    10030    2    1    2    0    0  0.00000000000E+00  0.00000000000E+00  0.50718615206E+02  0.28173940418E+04  0.28169374876E+04 0.  0.
        2    1    3    3  502    0  0.20706417637E+03 -0.65000456517E+03 -0.12070752438E+04  0.13865107833E+04  0.25500000920E-02 0.  1.
       -2    1    3    3    0  502 -0.20706417637E+03  0.65000456517E+03  0.12577938590E+04  0.14308832586E+04  0.25500000920E-02 0. -1.
</event>
<event>
 5   0  0.1302063E-05  0.2794206E+04  0.7818609E-02  0.8305069E-01
        2   -1    0    0  501    0  0.00000000000E+00  0.00000000000E+00  0.21353936360E+04  0.21353936360E+04  0.25500000920E-02 0. -1.
       -2   -1    0    0    0  501  0.00000000000E+00  0.00000000000E+00 -0.91406895016E+03  0.91406895017E+03  0.25500000920E-02 0.  1.
    10030    2    1    2    0    0  0.00000000000E+00  0.00000000000E+00  0.12213246858E+04  0.30494625862E+04  0.27942061621E+04 0.  0.
        2    1    3    3  502    0  0.39846856368E+03  0.27605444727E+03 -0.81934775609E+03  0.95200525183E+03  0.25500000920E-02 0.  1.
       -2    1    3    3    0  502 -0.39846856368E+03 -0.27605444727E+03  0.20406724419E+04  0.20974573343E+04  0.25500000920E-02 0. -1.
</event>
<event>
 5   0  0.5281919E-06  0.2800509E+04  0.7818609E-02  0.8303110E-01
       -1   -1    0    0    0  501  0.00000000000E+00  0.00000000000E+00  0.12080275774E+04  0.12080275774E+04  0.50400001928E-02 0. -1.
        1   -1    0    0  501    0  0.00000000000E+00  0.00000000000E+00 -0.16230691931E+04  0.16230691931E+04  0.50400001928E-02 0.  1.
    10030    2    1    2    0    0  0.00000000000E+00  0.00000000000E+00 -0.41504161566E+03  0.28310967705E+04  0.28005087718E+04 0.  0.
        4    1    3    3  502    0 -0.81280735052E+03  0.64603262957E+02 -0.13583222536E+04  0.15842570272E+04  0.12699999809E+01 0.  1.
       -4    1    3    3    0  502  0.81280735052E+03 -0.64603262957E+02  0.94328063794E+03  0.12468397433E+04  0.12699999809E+01 0. -1.
</event>
<event>
 5   0  0.1283052E-05  0.2278726E+04  0.7818609E-02  0.8486357E-01
       -2   -1    0    0    0  501  0.00000000000E+00  0.00000000000E+00  0.14980790243E+04  0.14980790243E+04  0.25500000920E-02 0.  1.
        2   -1    0    0  501    0  0.00000000000E+00  0.00000000000E+00 -0.86654170719E+03  0.86654170720E+03  0.25500000920E-02 0. -1.
    10030    2    1    2    0    0  0.00000000000E+00  0.00000000000E+00  0.63153731711E+03  0.23646207315E+04  0.22787259205E+04 0.  0.
        5    1    3    3  502    0  0.36042636770E+03 -0.63689549091E+02 -0.80386558682E+03  0.88328109732E+03  0.46999998093E+01 0. -1.
       -5    1    3    3    0  502 -0.36042636770E+03  0.63689549091E+02  0.14354029039E+04  0.14813396342E+04  0.46999998093E+01 0.  1.
</event>
<event>
 5   0  0.5217999E-06  0.2772815E+04  0.7818609E-02  0.8311758E-01
       -1   -1    0    0    0  501  0.00000000000E+00  0.00000000000E+00  0.74505393024E+03  0.74505393025E+03  0.50400001928E-02 0.  1.
        1   -1    0    0  501    0  0.00000000000E+00  0.00000000000E+00 -0.25798472052E+04  0.25798472052E+04  0.50400001928E-02 0. -1.
    10030    2    1    2    0    0  0.00000000000E+00  0.00000000000E+00 -0.18347932750E+04  0.33249011355E+04  0.27728146708E+04 0.  0.
        1    1    3    3  502    0 -0.25778948704E+03  0.93546654219E+03  0.27000512060E+03  0.10072019839E+04  0.50400001928E-02 0.  1.
       -1    1    3    3    0  502  0.25778948704E+03 -0.93546654219E+03 -0.21047983956E+04  0.23176991516E+04  0.50400001928E-02 0. -1.
</event>
<event>
 5   0  0.1388269E-05  0.2759970E+04  0.7818609E-02  0.8315805E-01
       -2   -1    0    0    0  501  0.00000000000E+00  0.00000000000E+00  0.84958225649E+03  0.84958225650E+03  0.25500000920E-02 0.  1.
        2   -1    0    0  501    0  0.00000000000E+00  0.00000000000E+00 -0.22415234627E+04  0.22415234627E+04  0.25500000920E-02 0. -1.
    10030    2    1    2    0    0  0.00000000000E+00  0.00000000000E+00 -0.13919412062E+04  0.30911057192E+04  0.27599699719E+04 0.  0.
        1    1    3    3  502    0  0.58244409128E+03 -0.90056681851E+03  0.27660431259E+03  0.11075972462E+04  0.50400001928E-02 0.  1.
       -1    1    3    3    0  502 -0.58244409128E+03  0.90056681851E+03 -0.16685455188E+04  0.19835084730E+04  0.50400001928E-02 0. -1.
</event>
<event>
 5   0  0.5107453E-06  0.2758734E+04  0.7818609E-02  0.8316196E-01
        1   -1    0    0  501    0  0.00000000000E+00  0.00000000000E+00  0.23884780846E+04  0.23884780846E+04  0.50400001928E-02 0. -1.
       -1   -1    0    0    0  501  0.00000000000E+00  0.00000000000E+00 -0.79659636192E+03  0.79659636194E+03  0.50400001928E-02 0.  1.
    10030    2    1    2    0    0  0.00000000000E+00  0.00000000000E+00  0.15918817226E+04  0.31850744465E+04  0.27587337332E+04 0.  0.
        2    1    3    3  502    0  0.34598004714E+03 -0.95724648123E+03 -0.27885663299E+03  0.10553596736E+04  0.25500000920E-02 0.  1.
       -2    1    3    3    0  502 -0.34598004714E+03  0.95724648123E+03  0.18707383556E+04  0.21297147729E+04  0.25500000920E-02 0. -1.
</event>
<event>
 5   0  0.5107453E-06  0.2681686E+04  0.7818609E-02  0.8340972E-01
       -1   -1    0    0    0  501  0.00000000000E+00  0.00000000000E+00  0.16343802032E+04  0.16343802032E+04  0.50400001928E-02 0. -1.
        1   -1    0    0  501    0  0.00000000000E+00  0.00000000000E+00 -0.11000255344E+04  0.11000255344E+04  0.50400001928E-02 0.  1.
    10030    2    1    2    0    0  0.00000000000E+00  0.00000000000E+00  0.53435466876E+03  0.27344057376E+04  0.26816860043E+04 0.  0.
        2    1    3    3  502    0 -0.18848299894E+03  0.12060784352E+04  0.83279775019E+03  0.14777358105E+04  0.25500000920E-02 0. -1.
       -2    1    3    3    0  502  0.18848299894E+03 -0.12060784352E+04 -0.29844308143E+03  0.12566699271E+04  0.25500000920E-02 0.  1.
</event>
<event>
 5   0  0.4764214E-06  0.2767553E+04  0.7818609E-02  0.8313413E-01
        1   -1    0    0  501    0  0.00000000000E+00  0.00000000000E+00  0.11915804471E+04  0.11915804471E+04  0.50400001928E-02 0. -1.
       -1   -1    0    0    0  501  0.00000000000E+00  0.00000000000E+00 -0.16069731985E+04  0.16069731985E+04  0.50400001928E-02 0.  1.
    10030    2    1    2    0    0  0.00000000000E+00  0.00000000000E+00 -0.41539275137E+03  0.27985536457E+04  0.27675533183E+04 0.  0.
        3    1    3    3  502    0  0.72651731120E+03 -0.21939600148E+03 -0.13777554511E+04  0.15729501270E+04  0.10100000352E+00 0.  1.
       -3    1    3    3    0  502 -0.72651731120E+03  0.21939600148E+03  0.96236269969E+03  0.12256035186E+04  0.10100000352E+00 0. -1.
</event>
<event>
 5   0  0.5023691E-06  0.2838418E+04  0.7818609E-02  0.8291439E-01
        1   -1    0    0  501    0  0.00000000000E+00  0.00000000000E+00  0.12699161392E+04  0.12699161392E+04  0.50400001928E-02 0.  1.
       -1   -1    0    0    0  501  0.00000000000E+00  0.00000000000E+00 -0.15860529710E+04  0.15860529710E+04  0.50400001928E-02 0. -1.
    10030    2    1    2    0    0  0.00000000000E+00  0.00000000000E+00 -0.31613683175E+03  0.28559691102E+04  0.28384180562E+04 0.  0.
        5    1    3    3  502    0  0.94388095165E+03  0.68320728447E+03 -0.97329353247E+03  0.15182245667E+04  0.46999998093E+01 0. -1.
       -5    1    3    3    0  502 -0.94388095165E+03 -0.68320728447E+03  0.65715670073E+03  0.13377445435E+04  0.46999998093E+01 0.  1.
</event>
<event>
 5   0  0.5281919E-06  0.2495533E+04  0.7818609E-02  0.8404579E-01
        1   -1    0    0  501    0  0.00000000000E+00  0.00000000000E+00  0.11536130059E+04  0.11536130059E+04  0.50400001928E-02 0.  1.
       -1   -1    0    0    0  501  0.00000000000E+00  0.00000000000E+00 -0.13496047592E+04  0.13496047592E+04  0.50400001928E-02 0. -1.
    10030    2    1    2    0    0  0.00000000000E+00  0.00000000000E+00 -0.19599175327E+03  0.25032177651E+04  0.24955332922E+04 0.  0.
        4    1    3    3  502    0 -0.65158159872E+03 -0.83859274664E+03  0.55909656550E+03  0.12001612212E+04  0.12699999809E+01 0.  1.
       -4    1    3    3    0  502  0.65158159872E+03  0.83859274664E+03 -0.75508831877E+03  0.13030565439E+04  0.12699999809E+01 0. -1.
</event>
<event>
 5   0  0.1330962E-05  0.2807334E+04  0.7818609E-02  0.8300995E-01
       -2   -1    0    0    0  501  0.00000000000E+00  0.00000000000E+00  0.99243191106E+03  0.99243191107E+03  0.25500000920E-02 0.  1.
        2   -1    0    0  501    0  0.00000000000E+00  0.00000000000E+00 -0.19853067204E+04  0.19853067204E+04  0.25500000920E-02 0. -1.
    10030    2    1    2    0    0  0.00000000000E+00  0.00000000000E+00 -0.99287480929E+03  0.29777386314E+04  0.28073344956E+04 0.  0.
        4    1    3    3  502    0 -0.13173118404E+04  0.46831061314E+03 -0.62915129280E+03  0.15331204380E+04  0.12699999809E+01 0. -1.
       -4    1    3    3    0  502  0.13173118404E+04 -0.46831061314E+03 -0.36372351649E+03  0.14446181934E+04  0.12699999809E+01 0.  1.
</event>
<event>
 5   0  0.1388269E-05  0.2812272E+04  0.7818609E-02  0.8299468E-01
        2   -1    0    0  501    0  0.00000000000E+00  0.00000000000E+00  0.16459607884E+04  0.16459607884E+04  0.25500000920E-02 0. -1.
       -2   -1    0    0    0  501  0.00000000000E+00  0.00000000000E+00 -0.12012550952E+04  0.12012550952E+04  0.25500000920E-02 0.  1.
    10030    2    1    2    0    0  0.00000000000E+00  0.00000000000E+00  0.44470569318E+03  0.28472158836E+04  0.28122722369E+04 0.  0.
        1    1    3    3  502    0  0.23487496206E+03  0.12468537562E+04  0.83602651389E+03  0.15194574259E+04  0.50400001928E-02 0. -1.
       -1    1    3    3    0  502 -0.23487496206E+03 -0.12468537562E+04 -0.39132082071E+03  0.13277584577E+04  0.50400001928E-02 0.  1.
</event>
<event>
 5   0  0.1283052E-05  0.2656428E+04  0.7818609E-02  0.8349282E-01
        2   -1    0    0  501    0  0.00000000000E+00  0.00000000000E+00  0.20325963232E+04  0.20325963232E+04  0.25500000920E-02 0. -1.
       -2   -1    0    0    0  501  0.00000000000E+00  0.00000000000E+00 -0.86793080688E+03  0.86793080688E+03  0.25500000920E-02 0.  1.
    10030    2    1    2    0    0  0.00000000000E+00  0.00000000000E+00  0.11646655163E+04  0.29005271300E+04  0.26564284043E+04 0.  0.
        5    1    3    3  502    0  0.25465208164E+03 -0.12296307937E+04  0.10979379418E+03  0.12605222484E+04  0.46999998093E+01 0. -1.
       -5    1    3    3    0  502 -0.25465208164E+03  0.12296307937E+04  0.10548717221E+04  0.16400048816E+04  0.46999998093E+01 0.  1.
</event>
<event>
 5   0  0.1302063E-05  0.2765638E+04  0.7818609E-02  0.8314016E-01
       -2   -1    0    0    0  501  0.00000000000E+00  0.00000000000E+00  0.77992846900E+03  0.77992846901E+03  0.25500000920E-02 0. -1.
        2   -1    0    0  501    0  0.00000000000E+00  0.00000000000E+00 -0.24517487265E+04  0.24517487265E+04  0.25500000920E-02 0.  1.
    10030    2    1    2    0    0  0.00000000000E+00  0.00000000000E+00 -0.16718202575E+04  0.32316771955E+04  0.27656381763E+04 0.  0.
        2    1    3    3  502    0 -0.30648680493E+03  0.12047058034E+04 -0.15437404971E+04  0.19820153775E+04  0.25500000920E-02 0.  1.
       -2    1    3    3    0  502  0.30648680493E+03 -0.12047058034E+04 -0.12807976041E+03  0.12496618180E+04  0.25500000920E-02 0. -1.
</event>
<event>
 5   0  0.5107453E-06  0.2789694E+04  0.7818609E-02  0.8306475E-01
       -1   -1    0    0    0  501  0.00000000000E+00  0.00000000000E+00  0.10319246320E+04  0.10319246320E+04  0.50400001928E-02 0.  1.
        1   -1    0    0  501    0  0.00000000000E+00  0.00000000000E+00 -0.18854074299E+04  0.18854074299E+04  0.50400001928E-02 0. -1.
    10030    2    1    2    0    0  0.00000000000E+00  0.00000000000E+00 -0.85348279792E+03  0.29173320619E+04  0.27896941540E+04 0.  0.
        2    1    3    3  502    0 -0.58504971016E+03 -0.12642320027E+04 -0.35255444168E+03  0.14369621966E+04  0.25500000920E-02 0. -1.
       -2    1    3    3    0  502  0.58504971016E+03  0.12642320027E+04 -0.50092835624E+03  0.14803698653E+04  0.25500000920E-02 0.  1.
</event>
<event>
 5   0  0.5217999E-06  0.2815354E+04  0.7818609E-02  0.8298517E-01
        1   -1    0    0  501    0  0.00000000000E+00  0.00000000000E+00  0.19104029345E+04  0.19104029345E+04  0.50400001928E-02 0. -1.
       -1   -1    0    0    0  501  0.00000000000E+00  0.00000000000E+00 -0.10372445971E+04  0.10372445971E+04  0.50400001928E-02 0.  1.
    10030    2    1    2    0    0  0.00000000000E+00  0.00000000000E+00  0.87315833741E+03  0.29476475316E+04  0.28153544161E+04 0.  0.
        1    1    3    3  502    0  0.67549463015E+03 -0.23653883135E+03  0.17056896079E+04  0.18497623233E+04  0.50400001928E-02 0. -1.
       -1    1    3    3    0  502 -0.67549463015E+03  0.23653883135E+03 -0.83253127051E+03  0.10978852083E+04  0.50400001928E-02 0.  1.
</event>
<event>
 5   0  0.1283052E-05  0.2105734E+04  0.7818609E-02  0.8558722E-01
       -2   -1    0    0    0  501  0.00000000000E+00  0.00000000000E+00  0.82302615666E+03  0.82302615666E+03  0.25500000920E-02 0.  1.
        2   -1    0    0  501    0  0.00000000000E+00  0.00000000000E+00 -0.13468938265E+04  0.13468938265E+04  0.25500000920E-02 0. -1.
    10030    2    1    2    0    0  0.00000000000E+00  0.00000000000E+00 -0.52386766988E+03  0.21699199832E+04  0.21057339333E+04 0.  0.
        5    1    3    3  502    0  0.90693149869E+03 -0.46872572027E+03 -0.52722673448E+03  0.11490076865E+04  0.46999998093E+01 0. -1.
       -5    1    3    3    0  502 -0.90693149869E+03  0.46872572027E+03  0.33590646029E+01  0.10209122967E+04  0.46999998093E+01 0.  1.
</event>
<event>
 5   0  0.1388269E-05  0.2793620E+04  0.7818609E-02  0.8305252E-01
       -2   -1    0    0    0  501  0.00000000000E+00  0.00000000000E+00  0.13044028431E+04  0.13044028431E+04  0.25500000920E-02 0.  1.
        2   -1    0    0  501    0  0.00000000000E+00  0.00000000000E+00 -0.14957635762E+04  0.14957635762E+04  0.25500000920E-02 0. -1.
    10030    2    1    2    0    0  0.00000000000E+00  0.00000000000E+00 -0.19136073303E+03  0.28001664193E+04  0.27936200611E+04 0.  0.
        1    1    3    3  502    0  0.11959601591E+04  0.31672466079E+03 -0.74561561420E+03  0.14444991717E+04  0.50400001928E-02 0. -1.
       -1    1    3    3    0  502 -0.11959601591E+04 -0.31672466079E+03  0.55425488118E+03  0.13556672476E+04  0.50400001928E-02 0.  1.
</event>
<event>
 5   0  0.5023691E-06  0.2827140E+04  0.7818609E-02  0.8294892E-01
        1   -1    0    0  501    0  0.00000000000E+00  0.00000000000E+00  0.17176503298E+04  0.17176503298E+04  0.50400001928E-02 0.  1.
       -1   -1    0    0    0  501  0.00000000000E+00  0.00000000000E+00 -0.11633215790E+04  0.11633215790E+04  0.50400001928E-02 0. -1.
    10030    2    1    2    0    0  0.00000000000E+00  0.00000000000E+00  0.55432875080E+03  0.28809719088E+04  0.28271396809E+04 0.  0.
        5    1    3    3  502    0  0.71521753760E+03  0.16448124900E+03 -0.95396539764E+03  0.12036038706E+04  0.46999998093E+01 0. -1.
       -5    1    3    3    0  502 -0.71521753760E+03 -0.16448124900E+03  0.15082941484E+04  0.16773680382E+04  0.46999998093E+01 0.  1.
</event>
<event>
 5   0  0.4764214E-06  0.2788317E+04  0.7818609E-02  0.8306905E-01
        1   -1    0    0  501    0  0.00000000000E+00  0.00000000000E+00  0.15506902016E+04  0.15506902016E+04  0.50400001928E-02 0. -1.
       -1   -1    0    0    0  501  0.00000000000E+00  0.00000000000E+00 -0.12534275569E+04  0.12534275569E+04  0.50400001928E-02 0.  1.
    10030    2    1    2    0    0  0.00000000000E+00  0.00000000000E+00  0.29726264463E+03  0.28041177585E+04  0.27883169339E+04 0.  0.
        3    1    3    3  502    0  0.12924601279E+04  0.37766158116E+03  0.51206039185E+03  0.14405857514E+04  0.10100000352E+00 0. -1.
       -3    1    3    3    0  502 -0.12924601279E+04 -0.37766158116E+03 -0.21479774722E+03  0.13635320071E+04  0.10100000352E+00 0.  1.
</event>
<event>
 5   0  0.1283052E-05  0.2868873E+04  0.7818609E-02  0.8282199E-01
        2   -1    0    0  501    0  0.00000000000E+00  0.00000000000E+00  0.21679740373E+04  0.21679740373E+04  0.25500000920E-02 0. -1.
       -2   -1    0    0    0  501  0.00000000000E+00  0.00000000000E+00 -0.94909287530E+03  0.94909287530E+03  0.25500000920E-02 0.  1.
    10030    2    1    2    0    0  0.00000000000E+00  0.00000000000E+00  0.12188811620E+04  0.31170669126E+04  0.28688734463E+04 0.  0.
        5    1    3    3  502    0 -0.79763186191E+03  0.94342138345E+03 -0.18254143728E+03  0.12488410468E+04  0.46999998093E+01 0.  1.
       -5    1    3    3    0  502  0.79763186191E+03 -0.94342138345E+03  0.14014225993E+04  0.18682258658E+04  0.46999998093E+01 0. -1.
</event>
<event>
 5   0  0.4764214E-06  0.2828256E+04  0.7818609E-02  0.8294549E-01
       -1   -1    0    0    0  501  0.00000000000E+00  0.00000000000E+00  0.11197199146E+04  0.11197199146E+04  0.50400001928E-02 0.  1.
        1   -1    0    0  501    0  0.00000000000E+00  0.00000000000E+00 -0.17859452410E+04  0.17859452410E+04  0.50400001928E-02 0. -1.
    10030    2    1    2    0    0  0.00000000000E+00  0.00000000000E+00 -0.66622532639E+03  0.29056651556E+04  0.28282563199E+04 0.  0.
        3    1    3    3  502    0 -0.51251303194E+03  0.10674747685E+04  0.46108237801E+03  0.12707355975E+04  0.10100000352E+00 0.  1.
       -3    1    3    3    0  502  0.51251303194E+03 -0.10674747685E+04 -0.11273077044E+04  0.16349295581E+04  0.10100000352E+00 0. -1.
</event>
<event>
 5   0  0.1283052E-05  0.2756146E+04  0.7818609E-02  0.8317014E-01
        2   -1    0    0  501    0  0.00000000000E+00  0.00000000000E+00  0.13974292095E+04  0.13974292095E+04  0.25500000920E-02 0. -1.
       -2   -1    0    0    0  501  0.00000000000E+00  0.00000000000E+00 -0.13589848823E+04  0.13589848823E+04  0.25500000920E-02 0.  1.
    10030    2    1    2    0    0  0.00000000000E+00  0.00000000000E+00  0.38444327202E+02  0.27564140917E+04  0.27561459829E+04 0.  0.
        5    1    3    3  502    0 -0.12965807010E+04 -0.46427058473E+03  0.68159425252E+02  0.13788895849E+04  0.46999998093E+01 0.  1.
       -5    1    3    3    0  502  0.12965807010E+04  0.46427058473E+03 -0.29715098050E+02  0.13775245069E+04  0.46999998093E+01 0. -1.
</event>
<event>
 5   0  0.5107453E-06  0.2802435E+04  0.7818609E-02  0.8302513E-01
        1   -1    0    0  501    0  0.00000000000E+00  0.00000000000E+00  0.13749549699E+04  0.13749549699E+04  0.50400001928E-02 0. -1.
       -1   -1    0    0    0  501  0.00000000000E+00  0.00000000000E+00 -0.14279817332E+04  0.14279817332E+04  0.50400001928E-02 0.  1.
    10030    2    1    2    0    0  0.00000000000E+00  0.00000000000E+00 -0.53026763338E+02  0.28029367032E+04  0.28024350705E+04 0.  0.
        2    1    3    3  502    0 -0.10099796312E+04 -0.64402032935E+03  0.70065839427E+03  0.13877115066E+04  0.25500000920E-02 0. -1.
       -2    1    3    3    0  502  0.10099796312E+04  0.64402032935E+03 -0.75368515761E+03  0.14152251965E+04  0.25500000920E-02 0.  1.
</event>
<event>
 5   0  0.1388269E-05  0.2828996E+04  0.7818609E-02  0.8294322E-01
       -2   -1    0    0    0  501  0.00000000000E+00  0.00000000000E+00  0.92450355481E+03  0.92450355481E+03  0.25500000920E-02 0. -1.
        2   -1    0    0  501    0  0.00000000000E+00  0.00000000000E+00 -0.21641933897E+04  0.21641933897E+04  0.25500000920E-02 0.  1.
    10030    2    1    2    0    0  0.00000000000E+00  0.00000000000E+00 -0.12396898349E+04  0.30886969446E+04  0.28289959223E+04 0.  0.
        1    1    3    3  502    0 -0.23830089887E+03  0.13879982582E+04 -0.76418562602E+03  0.16022815464E+04  0.50400001928E-02 0.  1.
       -1    1    3    3    0  502  0.23830089887E+03 -0.13879982582E+04 -0.47550420892E+03  0.14864153981E+04  0.50400001928E-02 0. -1.
</event>
<event>
 5   0  0.5107453E-06  0.2862921E+04  0.7818609E-02  0.8283996E-01
       -1   -1    0    0    0  501  0.00000000000E+00  0.00000000000E+00  0.13065564660E+04  0.13065564660E+04  0.50400001928E-02 0.  1.
        1   -1    0    0  501    0  0.00000000000E+00  0.00000000000E+00 -0.15683048519E+04  0.15683048519E+04  0.50400001928E-02 0. -1.
    10030    2    1    2    0    0  0.00000000000E+00  0.00000000000E+00 -0.26174838582E+03  0.28748613179E+04  0.28629207778E+04 0.  0.
        2    1    3    3  502    0 -0.94509338684E+02  0.11423155520E+04  0.73017632498E+03  0.13590343267E+04  0.25500000920E-02 0.  1.
       -2    1    3    3    0  502  0.94509338684E+02 -0.11423155520E+04 -0.99192471081E+03  0.15158269912E+04  0.25500000920E-02 0. -1.
</event>
<event>
 5   0  0.1330962E-05  0.2784266E+04  0.7818609E-02  0.8308170E-01
        2   -1    0    0  501    0  0.00000000000E+00  0.00000000000E+00  0.19726265576E+04  0.19726265576E+04  0.25500000920E-02 0. -1.
       -2   -1    0    0    0  501  0.00000000000E+00  0.00000000000E+00 -0.98246372132E+03  0.98246372132E+03  0.25500000920E-02 0.  1.
    10030    2    1    2    0    0  0.00000000000E+00  0.00000000000E+00  0.99016283631E+03  0.29550902790E+04  0.27842658124E+04 0.  0.
        4    1    3    3  502    0  0.79919707723E+03  0.25303268555E+03  0.16747083542E+04  0.18728030310E+04  0.12699999809E+01 0. -1.
       -4    1    3    3    0  502 -0.79919707723E+03 -0.25303268555E+03 -0.68454551790E+03  0.10822872480E+04  0.12699999809E+01 0.  1.
</event>
<event>
 5   0  0.5281919E-06  0.2836188E+04  0.7818609E-02  0.8292121E-01
        1   -1    0    0  501    0  0.00000000000E+00  0.00000000000E+00  0.11903037057E+04  0.11903037057E+04  0.50400001928E-02 0.  1.
       -1   -1    0    0    0  501  0.00000000000E+00  0.00000000000E+00 -0.16894767981E+04  0.16894767981E+04  0.50400001928E-02 0. -1.
    10030    2    1    2    0    0  0.00000000000E+00  0.00000000000E+00 -0.49917309235E+03  0.28797805038E+04  0.28361879299E+04 0.  0.
        4    1    3    3  502    0  0.42859349450E+02 -0.77023771403E+03 -0.14577856215E+04  0.16493160980E+04  0.12699999809E+01 0. -1.
       -4    1    3    3    0  502 -0.42859349450E+02  0.77023771403E+03  0.95861252917E+03  0.12304644058E+04  0.12699999809E+01 0.  1.
</event>
<event>
 5   0  0.5107453E-06  0.2820750E+04  0.7818609E-02  0.8296855E-01
        1   -1    0    0  501    0  0.00000000000E+00  0.00000000000E+00  0.15373699305E+04  0.15373699306E+04  0.50400001928E-02 0.  1.
       -1   -1    0    0    0  501  0.00000000000E+00  0.00000000000E+00 -0.12938707100E+04  0.12938707100E+04  0.50400001928E-02 0. -1.
    10030    2    1    2    0    0  0.00000000000E+00  0.00000000000E+00  0.24349922052E+03  0.28312406406E+04  0.28207502007E+04 0.  0.
        2    1    3    3  502    0 -0.49694993312E+03 -0.39489555980E+03  0.13859002248E+04  0.15243428658E+04  0.25500000920E-02 0.  1.
       -2    1    3    3    0  502  0.49694993312E+03  0.39489555980E+03 -0.11424010043E+04  0.13068977748E+04  0.25500000920E-02 0. -1.
</event>
<event>
 5   0  0.5023691E-06  0.2760331E+04  0.7818609E-02  0.8315691E-01
        1   -1    0    0  501    0  0.00000000000E+00  0.00000000000E+00  0.20749368067E+04  0.20749368067E+04  0.50400001928E-02 0.  1.
       -1   -1    0    0    0  501  0.00000000000E+00  0.00000000000E+00 -0.91803117011E+03  0.91803117012E+03  0.50400001928E-02 0. -1.
    10030    2    1    2    0    0  0.00000000000E+00  0.00000000000E+00  0.11569056366E+04  0.29929679768E+04  0.27603308965E+04 0.  0.
        5    1    3    3  502    0  0.25706582247E+03  0.60511894018E+03  0.18942252605E+04  0.20050843365E+04  0.46999998093E+01 0.  1.
       -5    1    3    3    0  502 -0.25706582247E+03 -0.60511894018E+03 -0.73731962398E+03  0.98788364029E+03  0.46999998093E+01 0. -1.
</event>
<event>
 5   0  0.5107453E-06  0.2914721E+04  0.7818609E-02  0.8268511E-01
       -1   -1    0    0    0  501  0.00000000000E+00  0.00000000000E+00  0.95443558269E+03  0.95443558270E+03  0.50400001928E-02 0. -1.
        1   -1    0    0  501    0  0.00000000000E+00  0.00000000000E+00 -0.22252938427E+04  0.22252938427E+04  0.50400001928E-02 0.  1.
    10030    2    1    2    0    0  0.00000000000E+00  0.00000000000E+00 -0.12708582600E+04  0.31797294254E+04  0.29147209989E+04 0.  0.
        2    1    3    3  502    0  0.19488573410E+03  0.64300364073E+03  0.77539136222E+03  0.10259950760E+04  0.25500000920E-02 0. -1.
       -2    1    3    3    0  502 -0.19488573410E+03 -0.64300364073E+03 -0.20462496222E+04  0.21537343494E+04  0.25500000920E-02 0.  1.
</event>
<event>
 5   0  0.4764214E-06  0.2735366E+04  0.7818609E-02  0.8323620E-01
        1   -1    0    0  501    0  0.00000000000E+00  0.00000000000E+00  0.19249762197E+04  0.19249762198E+04  0.50400001928E-02 0. -1.
       -1   -1    0    0    0  501  0.00000000000E+00  0.00000000000E+00 -0.97172998934E+03  0.97172998935E+03  0.50400001928E-02 0.  1.
    10030    2    1    2    0    0  0.00000000000E+00  0.00000000000E+00  0.95324623041E+03  0.28967062091E+04  0.27353662435E+04 0.  0.
        3    1    3    3  502    0  0.12181045037E+04 -0.57490731422E+03  0.22544068774E+03  0.13656941516E+04  0.10100000352E+00 0. -1.
       -3    1    3    3    0  502 -0.12181045037E+04  0.57490731422E+03  0.72780554266E+03  0.15310120575E+04  0.10100000352E+00 0.  1.
</event>
<event>
 5   0  0.5023691E-06  0.2571329E+04  0.7818609E-02  0.8378006E-01
       -1   -1    0    0    0  501  0.00000000000E+00  0.00000000000E+00  0.13145610646E+04  0.13145610646E+04  0.50400001928E-02 0. -1.
        1   -1    0    0  501    0  0.00000000000E+00  0.00000000000E+00 -0.12574028931E+04  0.12574028931E+04  0.50400001928E-02 0.  1.
    10030    2    1    2    0    0  0.00000000000E+00  0.00000000000E+00  0.57158171529E+02  0.25719639578E+04  0.25713287506E+04 0.  0.
        5    1    3    3  502    0 -0.69907187940E+03 -0.10654905774E+04  0.19873616767E+03  0.12897634734E+04  0.46999998093E+01 0.  1.
       -5    1    3    3    0  502  0.69907187940E+03  0.10654905774E+04 -0.14157799614E+03  0.12822004843E+04  0.46999998093E+01 0. -1.
</event>
<event>
 5   0  0.5023691E-06  0.2804536E+04  0.7818609E-02  0.8301862E-01
        1   -1    0    0  501    0  0.00000000000E+00  0.00000000000E+00  0.13763230275E+04  0.13763230275E+04  0.50400001928E-02 0. -1.
       -1   -1    0    0    0  501  0.00000000000E+00  0.00000000000E+00 -0.14287019376E+04  0.14287019376E+04  0.50400001928E-02 0.  1.
    10030    2    1    2    0    0  0.00000000000E+00  0.00000000000E+00 -0.52378910151E+02  0.28050249651E+04  0.28045358804E+04 0.  0.
        5    1    3    3  502    0 -0.13174611777E+03 -0.81221471041E+03  0.11094747681E+04  0.13813059496E+04  0.46999998093E+01 0. -1.
       -5    1    3    3    0  502  0.13174611777E+03  0.81221471041E+03 -0.11618536783E+04  0.14237190155E+04  0.46999998093E+01 0.  1.
</event>
<event>
 5   0  0.5023691E-06  0.2795331E+04  0.7818609E-02  0.8304719E-01
        1   -1    0    0  501    0  0.00000000000E+00  0.00000000000E+00  0.25532951773E+04  0.25532951773E+04  0.50400001928E-02 0. -1.
       -1   -1    0    0    0  501  0.00000000000E+00  0.00000000000E+00 -0.76507748001E+03  0.76507748002E+03  0.50400001928E-02 0.  1.
    10030    2    1    2    0    0  0.00000000000E+00  0.00000000000E+00  0.17882176973E+04  0.33183726574E+04  0.27953308498E+04 0.  0.
        5    1    3    3  502    0  0.11626114005E+04  0.25205035734E+03  0.23175893623E+02  0.11898545555E+04  0.46999998093E+01 0.  1.
       -5    1    3    3    0  502 -0.11626114005E+04 -0.25205035734E+03  0.17650418037E+04  0.21285181019E+04  0.46999998093E+01 0. -1.
</event>
<event>
 5   0  0.1330962E-05  0.2767197E+04  0.7818609E-02  0.8313525E-01
       -2   -1    0    0    0  501  0.00000000000E+00  0.00000000000E+00  0.12928187191E+04  0.12928187191E+04  0.25500000920E-02 0.  1.
        2   -1    0    0  501    0  0.00000000000E+00  0.00000000000E+00 -0.14807526127E+04  0.14807526127E+04  0.25500000920E-02 0. -1.
    10030    2    1    2    0    0  0.00000000000E+00  0.00000000000E+00 -0.18793389355E+03  0.27735713318E+04  0.27671969182E+04 0.  0.
        4    1    3    3  502    0 -0.71646774774E+03 -0.11755648503E+04  0.44424763083E+02  0.13774084083E+04  0.12699999809E+01 0. -1.
       -4    1    3    3    0  502  0.71646774774E+03  0.11755648503E+04 -0.23235865664E+03  0.13961629235E+04  0.12699999809E+01 0.  1.
</event>
<event>
 5   0  0.5281919E-06  0.2808669E+04  0.7818609E-02  0.8300582E-01
        1   -1    0    0  501    0  0.00000000000E+00  0.00000000000E+00  0.23115233214E+04  0.23115233214E+04  0.50400001928E-02 0. -1.
       -1   -1    0    0    0  501  0.00000000000E+00  0.00000000000E+00 -0.85318448565E+03  0.85318448567E+03  0.50400001928E-02 0.  1.
    10030    2    1    2    0    0  0.00000000000E+00  0.00000000000E+00  0.14583388357E+04  0.31647078070E+04  0.28086693191E+04 0.  0.
        4    1    3    3  502    0 -0.11458433510E+04  0.59984020228E+03  0.11264411362E+03  0.12982509628E+04  0.12699999809E+01 0.  1.
       -4    1    3    3    0  502  0.11458433510E+04 -0.59984020228E+03  0.13456947221E+04  0.18664568442E+04  0.12699999809E+01 0. -1.
</event>
<event>
 5   0  0.1350863E-05  0.2415502E+04  0.7818609E-02  0.8433722E-01
        2   -1    0    0  501    0  0.00000000000E+00  0.00000000000E+00  0.13703273033E+04  0.13703273033E+04  0.25500000920E-02 0.  1.
       -2   -1    0    0    0  501  0.00000000000E+00  0.00000000000E+00 -0.10644630373E+04  0.10644630373E+04  0.25500000920E-02 0. -1.
    10030    2    1    2    0    0  0.00000000000E+00  0.00000000000E+00  0.30586426601E+03  0.24347903407E+04  0.24155022364E+04 0.  0.
        3    1    3    3  502    0  0.97599026448E+03  0.39027342279E+03  0.75248624170E+03  0.12927126112E+04  0.10100000352E+00 0.  1.
       -3    1    3    3    0  502 -0.97599026448E+03 -0.39027342279E+03 -0.44662197569E+03  0.11420777295E+04  0.10100000352E+00 0. -1.
</event>
<event>
 5   0  0.1388269E-05  0.2734396E+04  0.7818609E-02  0.8323930E-01
        2   -1    0    0  501    0  0.00000000000E+00  0.00000000000E+00  0.22548586376E+04  0.22548586376E+04  0.25500000920E-02 0.  1.
       -2   -1    0    0    0  501  0.00000000000E+00  0.00000000000E+00 -0.82897885154E+03  0.82897885155E+03  0.25500000920E-02 0. -1.
    10030    2    1    2    0    0  0.00000000000E+00  0.00000000000E+00  0.14258797861E+04  0.30838374892E+04  0.27343958191E+04 0.  0.
        1    1    3    3  502    0  0.35949198730E+03  0.12489424563E+04  0.11916066020E+04  0.17632407782E+04  0.50400001928E-02 0.  1.
       -1    1    3    3    0  502 -0.35949198730E+03 -0.12489424563E+04  0.23427318408E+03  0.13205967109E+04  0.50400001928E-02 0. -1.
</event>
<event>
 5   0  0.5281919E-06  0.2530432E+04  0.7818609E-02  0.8392224E-01
        1   -1    0    0  501    0  0.00000000000E+00  0.00000000000E+00  0.12347196223E+04  0.12347196223E+04  0.50400001928E-02 0. -1.
       -1   -1    0    0    0  501  0.00000000000E+00  0.00000000000E+00 -0.12964653787E+04  0.12964653787E+04  0.50400001928E-02 0.  1.
    10030    2    1    2    0    0  0.00000000000E+00  0.00000000000E+00 -0.61745756377E+02  0.25311850010E+04  0.25304317756E+04 0.  0.
        4    1    3    3  502    0 -0.26439163622E+03 -0.54658324858E+03 -0.11412093463E+04  0.12926780612E+04  0.12699999809E+01 0.  1.
       -4    1    3    3    0  502  0.26439163622E+03  0.54658324858E+03  0.10794635900E+04  0.12385069398E+04  0.12699999809E+01 0. -1.
</event>
<event>
 5   0  0.1388269E-05  0.2842713E+04  0.7818609E-02  0.8290129E-01
        2   -1    0    0  501    0  0.00000000000E+00  0.00000000000E+00  0.12602255188E+04  0.12602255188E+04  0.25500000920E-02 0.  1.
       -2   -1    0    0    0  501  0.00000000000E+00  0.00000000000E+00 -0.16030899389E+04  0.16030899389E+04  0.25500000920E-02 0. -1.
    10030    2    1    2    0    0  0.00000000000E+00  0.00000000000E+00 -0.34286442007E+03  0.28633154577E+04  0.28427133868E+04 0.  0.
        1    1    3    3  502    0 -0.54565534056E+03 -0.25719512626E+03 -0.14677582533E+04  0.15868848017E+04  0.50400001928E-02 0. -1.
       -1    1    3    3    0  502  0.54565534056E+03  0.25719512626E+03  0.11248938332E+04  0.12764306560E+04  0.50400001928E-02 0.  1.
</event>
<event>
 5   0  0.1350863E-05  0.2770113E+04  0.7818609E-02  0.8312608E-01
       -2   -1    0    0    0  501  0.00000000000E+00  0.00000000000E+00  0.66307813640E+03  0.66307813641E+03  0.25500000920E-02 0. -1.
        2   -1    0    0  501    0  0.00000000000E+00  0.00000000000E+00 -0.28931457257E+04  0.28931457257E+04  0.25500000920E-02 0.  1.
    10030    2    1    2    0    0  0.00000000000E+00  0.00000000000E+00 -0.22300675893E+04  0.35562238621E+04  0.27701131213E+04 0.  0.
        3    1    3    3  502    0  0.11192945375E+04  0.15129549347E+03 -0.21442010624E+04  0.24234910345E+04  0.10100000352E+00 0. -1.
       -3    1    3    3    0  502 -0.11192945375E+04 -0.15129549347E+03 -0.85866526832E+02  0.11327328276E+04  0.10100000352E+00 0.  1.
</event>
<event>
 5   0  0.5107453E-06  0.2831079E+04  0.7818609E-02  0.8293684E-01
       -1   -1    0    0    0  501  0.00000000000E+00  0.00000000000E+00  0.12712268127E+04  0.12712268127E+04  0.50400001928E-02 0.  1.
        1   -1    0    0  501    0  0.00000000000E+00  0.00000000000E+00 -0.15762352746E+04  0.15762352746E+04  0.50400001928E-02 0. -1.
    10030    2    1    2    0    0  0.00000000000E+00  0.00000000000E+00 -0.30500846186E+03  0.28474620873E+04  0.28310793307E+04 0.  0.
        2    1    3    3  502    0 -0.81923801463E+03 -0.74291649979E+03 -0.10411762753E+04  0.15189219488E+04  0.25500000920E-02 0. -1.
       -2    1    3    3    0  502  0.81923801463E+03  0.74291649979E+03  0.73616781340E+03  0.13285401386E+04  0.25500000920E-02 0.  1.
</event>
<event>
 5   0  0.1350863E-05  0.2784804E+04  0.7818609E-02  0.8308002E-01
       -2   -1    0    0    0  501  0.00000000000E+00  0.00000000000E+00  0.14954790593E+04  0.14954790593E+04  0.25500000920E-02 0.  1.
        2   -1    0    0  501    0  0.00000000000E+00  0.00000000000E+00 -0.12964294184E+04  0.12964294184E+04  0.25500000920E-02 0. -1.
    10030    2    1    2    0    0  0.00000000000E+00  0.00000000000E+00  0.19904964085E+03  0.27919084777E+04  0.27848037971E+04 0.  0.
        3    1    3    3  502    0 -0.73823119258E+03  0.79040058078E+03 -0.77967583675E+03  0.13332714624E+04  0.10100000352E+00 0. -1.
       -3    1    3    3    0  502  0.73823119258E+03 -0.79040058078E+03  0.97872547761E+03  0.14586370153E+04  0.10100000352E+00 0.  1.
</event>
<event>
 5   0  0.5281919E-06  0.2794035E+04  0.7818609E-02  0.8305123E-01
        1   -1    0    0  501    0  0.00000000000E+00  0.00000000000E+00  0.19011782272E+04  0.19011782272E+04  0.50400001928E-02 0. -1.
       -1   -1    0    0    0  501  0.00000000000E+00  0.00000000000E+00 -0.10265515203E+04  0.10265515203E+04  0.50400001928E-02 0.  1.
    10030    2    1    2    0    0  0.00000000000E+00  0.00000000000E+00  0.87462670689E+03  0.29277297474E+04  0.27940346450E+04 0.  0.
        4    1    3    3  502    0  0.11749311393E+04 -0.75385422573E+03  0.49370688208E+03  0.14807118133E+04  0.12699999809E+01 0.  1.
       -4    1    3    3    0  502 -0.11749311393E+04  0.75385422573E+03  0.38091982481E+03  0.14470179341E+04  0.12699999809E+01 0. -1.
</event>
<event>
 5   0  0.5107453E-06  0.2481006E+04  0.7818609E-02  0.8409784E-01
        1   -1    0    0  501    0  0.00000000000E+00  0.00000000000E+00  0.12010022654E+04  0.12010022654E+04  0.50400001928E-02 0.  1.
       -1   -1    0    0    0  501  0.00000000000E+00  0.00000000000E+00 -0.12813029698E+04  0.12813029698E+04  0.50400001928E-02 0. -1.
    10030    2    1    2    0    0  0.00000000000E+00  0.00000000000E+00 -0.80300704402E+02  0.24823052351E+04  0.24810060615E+04 0.  0.
        2    1    3    3  502    0 -0.10909710053E+03  0.12001987133E+02 -0.12764355037E+04  0.12811455109E+04  0.25500000920E-02 0. -1.
       -2    1    3    3    0  502  0.10909710053E+03 -0.12001987133E+02  0.11961347993E+04  0.12011597242E+04  0.25500000920E-02 0.  1.
</event>
<event>
 5   0  0.5217999E-06  0.2838109E+04  0.7818609E-02  0.8291534E-01
       -1   -1    0    0    0  501  0.00000000000E+00  0.00000000000E+00  0.78067483738E+03  0.78067483740E+03  0.50400001928E-02 0. -1.
        1   -1    0    0  501    0  0.00000000000E+00  0.00000000000E+00 -0.25794549352E+04  0.25794549352E+04  0.50400001928E-02 0.  1.
    10030    2    1    2    0    0  0.00000000000E+00  0.00000000000E+00 -0.17987800978E+04  0.33601297726E+04  0.28381089211E+04 0.  0.
        1    1    3    3  502    0 -0.64680639657E+02 -0.89343821694E+03 -0.22024154254E+04  0.23776141694E+04  0.50400001928E-02 0.  1.
       -1    1    3    3    0  502  0.64680639657E+02  0.89343821694E+03  0.40363532763E+03  0.98251560312E+03  0.50400001928E-02 0. -1.
</event>
<event>
 5   0  0.1388269E-05  0.2701340E+04  0.7818609E-02  0.8334570E-01
        2   -1    0    0  501    0  0.00000000000E+00  0.00000000000E+00  0.17663848384E+04  0.17663848384E+04  0.25500000920E-02 0.  1.
       -2   -1    0    0    0  501  0.00000000000E+00  0.00000000000E+00 -0.10327929380E+04  0.10327929380E+04  0.25500000920E-02 0. -1.
    10030    2    1    2    0    0  0.00000000000E+00  0.00000000000E+00  0.73359190049E+03  0.27991777764E+04  0.27013402502E+04 0.  0.
        1    1    3    3  502    0  0.65624107043E+03  0.33533987785E+03 -0.80610256970E+03  0.10922026044E+04  0.50400001928E-02 0. -1.
       -1    1    3    3    0  502 -0.65624107043E+03 -0.33533987785E+03  0.15396944702E+04  0.17069751720E+04  0.50400001928E-02 0.  1.
</event>
<event>
 5   0  0.5217999E-06  0.2756782E+04  0.7818609E-02  0.8316813E-01
       -1   -1    0    0    0  501  0.00000000000E+00  0.00000000000E+00  0.18665700749E+04  0.18665700749E+04  0.50400001928E-02 0.  1.
        1   -1    0    0  501    0  0.00000000000E+00  0.00000000000E+00 -0.10178893450E+04  0.10178893450E+04  0.50400001928E-02 0. -1.
    10030    2    1    2    0    0  0.00000000000E+00  0.00000000000E+00  0.84868072986E+03  0.28844594199E+04  0.27567820305E+04 0.  0.
        1    1    3    3  502    0 -0.11631966995E+03  0.49890599768E+03 -0.91458350773E+03  0.10482845285E+04  0.50400001928E-02 0. -1.
       -1    1    3    3    0  502  0.11631966995E+03 -0.49890599768E+03  0.17632642376E+04  0.18361748914E+04  0.50400001928E-02 0.  1.
</event>
<event>
 5   0  0.5281919E-06  0.2789776E+04  0.7818609E-02  0.8306450E-01
       -1   -1    0    0    0  501  0.00000000000E+00  0.00000000000E+00  0.90736958479E+03  0.90736958481E+03  0.50400001928E-02 0.  1.
        1   -1    0    0  501    0  0.00000000000E+00  0.00000000000E+00 -0.21443436447E+04  0.21443436447E+04  0.50400001928E-02 0. -1.
    10030    2    1    2    0    0  0.00000000000E+00  0.00000000000E+00 -0.12369740599E+04  0.30517132295E+04  0.27897757635E+04 0.  0.
        4    1    3    3  502    0  0.57963468019E+03 -0.18551932928E+03 -0.19914485850E+04  0.20823695310E+04  0.12699999809E+01 0. -1.
       -4    1    3    3    0  502 -0.57963468019E+03  0.18551932928E+03  0.75447452508E+03  0.96934369854E+03  0.12699999809E+01 0.  1.
</event>
<event>
 5   0  0.1302063E-05  0.2802017E+04  0.7818609E-02  0.8302642E-01
        2   -1    0    0  501    0  0.00000000000E+00  0.00000000000E+00  0.22575508430E+04  0.22575508430E+04  0.25500000920E-02 0. -1.
       -2   -1    0    0    0  501  0.00000000000E+00  0.00000000000E+00 -0.86944905575E+03  0.86944905576E+03  0.25500000920E-02 0.  1.
    10030    2    1    2    0    0  0.00000000000E+00  0.00000000000E+00  0.13881017873E+04  0.31269998988E+04  0.28020174509E+04 0.  0.
        2    1    3    3  502    0  0.74404260189E+02  0.11509518385E+04 -0.19355748260E+03  0.11694830599E+04  0.25500000920E-02 0.  1.
       -2    1    3    3    0  502 -0.74404260189E+02 -0.11509518385E+04  0.15816592699E+04  0.19575168388E+04  0.25500000920E-02 0. -1.
</event>
<event>
 5   0  0.1302063E-05  0.2016135E+04  0.7818609E-02  0.8599114E-01
       -2   -1    0    0    0  501  0.00000000000E+00  0.00000000000E+00  0.59723367478E+03  0.59723367479E+03  0.25500000920E-02 0. -1.
        2   -1    0    0  501    0  0.00000000000E+00  0.00000000000E+00 -0.17015118604E+04  0.17015118604E+04  0.25500000920E-02 0.  1.
    10030    2    1    2    0    0  0.00000000000E+00  0.00000000000E+00 -0.11042781857E+04  0.22987455352E+04  0.20161350958E+04 0.  0.
        2    1    3    3  502    0 -0.35313320214E+03 -0.12936317123E+03  0.51425147752E+03  0.63709690838E+03  0.25500000920E-02 0. -1.
       -2    1    3    3    0  502  0.35313320214E+03  0.12936317123E+03 -0.16185296632E+04  0.16616486269E+04  0.25500000920E-02 0.  1.
</event>
<event>
 5   0  0.1283052E-05  0.2480564E+04  0.7818609E-02  0.8409943E-01
        2   -1    0    0  501    0  0.00000000000E+00  0.00000000000E+00  0.15774055705E+04  0.15774055705E+04  0.25500000920E-02 0.  1.
       -2   -1    0    0    0  501  0.00000000000E+00  0.00000000000E+00 -0.97520836360E+03  0.97520836361E+03  0.25500000920E-02 0. -1.
    10030    2    1    2    0    0  0.00000000000E+00  0.00000000000E+00  0.60219720693E+03  0.25526139341E+04  0.24805637304E+04 0.  0.
        5    1    3    3  502    0 -0.12198103061E+04  0.22429516643E+03  0.30687508370E+03  0.12776697193E+04  0.46999998093E+01 0.  1.
       -5    1    3    3    0  502  0.12198103061E+04 -0.22429516643E+03  0.29532212323E+03  0.12749442149E+04  0.46999998093E+01 0. -1.
</event>
<event>
 5   0  0.1388269E-05  0.2785151E+04  0.7818609E-02  0.8307893E-01
       -2   -1    0    0    0  501  0.00000000000E+00  0.00000000000E+00  0.69474038539E+03  0.69474038540E+03  0.25500000920E-02 0.  1.
        2   -1    0    0  501    0  0.00000000000E+00  0.00000000000E+00 -0.27913550738E+04  0.27913550738E+04  0.25500000920E-02 0. -1.
    10030    2    1    2    0    0  0.00000000000E+00  0.00000000000E+00 -0.20966146884E+04  0.34860954592E+04  0.27851514140E+04 0.  0.
        1    1    3    3  502    0  0.25915430095E+03  0.12014610813E+04 -0.18677437219E+04  0.22358748382E+04  0.50400001928E-02 0. -1.
       -1    1    3    3    0  502 -0.25915430095E+03 -0.12014610813E+04 -0.22887096653E+03  0.12502206209E+04  0.50400001928E-02 0.  1.
</event>
<event>
 5   0  0.4764214E-06  0.2801178E+04  0.7818609E-02  0.8302903E-01
       -1   -1    0    0    0  501  0.00000000000E+00  0.00000000000E+00  0.80844185300E+03  0.80844185302E+03  0.50400001928E-02 0. -1.
        1   -1    0    0  501    0  0.00000000000E+00  0.00000000000E+00 -0.24264572131E+04  0.24264572131E+04  0.50400001928E-02 0.  1.
    10030    2    1    2    0    0  0.00000000000E+00  0.00000000000E+00 -0.16180153601E+04  0.32348990661E+04  0.28011780133E+04 0.  0.
        3    1    3    3  502    0 -0.70594926274E+03 -0.11566744377E+04 -0.12179391234E+04  0.18219867823E+04  0.10100000352E+00 0.  1.
       -3    1    3    3    0  502  0.70594926274E+03  0.11566744377E+04 -0.40007623669E+03  0.14129122838E+04  0.10100000352E+00 0. -1.
</event>
<event>
 5   0  0.1330962E-05  0.2789286E+04  0.7818609E-02  0.8306602E-01
        2   -1    0    0  501    0  0.00000000000E+00  0.00000000000E+00  0.16892539826E+04  0.16892539826E+04  0.25500000920E-02 0.  1.
       -2   -1    0    0    0  501  0.00000000000E+00  0.00000000000E+00 -0.11514133157E+04  0.11514133157E+04  0.25500000920E-02 0. -1.
    10030    2    1    2    0    0  0.00000000000E+00  0.00000000000E+00  0.53784066691E+03  0.28406672983E+04  0.27892863095E+04 0.  0.
        4    1    3    3  502    0  0.61619583642E+03  0.10487582353E+04 -0.42587616671E+03  0.12887836386E+04  0.12699999809E+01 0. -1.
       -4    1    3    3    0  502 -0.61619583642E+03 -0.10487582353E+04  0.96371683363E+03  0.15518836597E+04  0.12699999809E+01 0.  1.
</event>
<event>
 5   0  0.1283052E-05  0.2798228E+04  0.7818609E-02  0.8303819E-01
       -2   -1    0    0    0  501  0.00000000000E+00  0.00000000000E+00  0.87871573402E+03  0.87871573402E+03  0.25500000920E-02 0. -1.
        2   -1    0    0  501    0  0.00000000000E+00  0.00000000000E+00 -0.22277055761E+04  0.22277055761E+04  0.25500000920E-02 0.  1.
    10030    2    1    2    0    0  0.00000000000E+00  0.00000000000E+00 -0.13489898420E+04  0.31064213101E+04  0.27982279682E+04 0.  0.
        5    1    3    3  502    0  0.11077361764E+04  0.46482979643E+03  0.12167789043E+03  0.12074658484E+04  0.46999998093E+01 0. -1.
       -5    1    3    3    0  502 -0.11077361764E+04 -0.46482979643E+03 -0.14706677325E+04  0.18989554617E+04  0.46999998093E+01 0.  1.
</event>
<event>
 5   0  0.1350863E-05  0.2777832E+04  0.7818609E-02  0.8310184E-01
        2   -1    0    0  501    0  0.00000000000E+00  0.00000000000E+00  0.18246737551E+04  0.18246737551E+04  0.25500000920E-02 0. -1.
       -2   -1    0    0    0  501  0.00000000000E+00  0.00000000000E+00 -0.10572235064E+04  0.10572235064E+04  0.25500000920E-02 0.  1.
    10030    2    1    2    0    0  0.00000000000E+00  0.00000000000E+00  0.76745024867E+03  0.28818972614E+04  0.27778322378E+04 0.  0.
        3    1    3    3  502    0  0.34277735300E+03  0.92610985290E+03 -0.62954837055E+03  0.11711135446E+04  0.10100000352E+00 0.  1.
       -3    1    3    3    0  502 -0.34277735300E+03 -0.92610985290E+03  0.13969986192E+04  0.17107837168E+04  0.10100000352E+00 0. -1.
</event>
<event>
 5   0  0.5217999E-06  0.2875499E+04  0.7818609E-02  0.8280205E-01
        1   -1    0    0  501    0  0.00000000000E+00  0.00000000000E+00  0.15560452751E+04  0.15560452751E+04  0.50400001928E-02 0.  1.
       -1   -1    0    0    0  501  0.00000000000E+00  0.00000000000E+00 -0.13284472225E+04  0.13284472225E+04  0.50400001928E-02 0. -1.
    10030    2    1    2    0    0  0.00000000000E+00  0.00000000000E+00  0.22759805256E+03  0.28844924976E+04  0.28754992776E+04 0.  0.
        1    1    3    3  502    0 -0.28497459545E+03  0.38016268928E+03  0.14750212202E+04  0.15496521515E+04  0.50400001928E-02 0.  1.
       -1    1    3    3    0  502  0.28497459545E+03 -0.38016268928E+03 -0.12474231677E+04  0.13348403461E+04  0.50400001928E-02 0. -1.
</event>
<event>
 5   0  0.5107453E-06  0.2436323E+04  0.7818609E-02  0.8426029E-01
        1   -1    0    0  501    0  0.00000000000E+00  0.00000000000E+00  0.93459256634E+03  0.93459256636E+03  0.50400001928E-02 0. -1.
       -1   -1    0    0    0  501  0.00000000000E+00  0.00000000000E+00 -0.15877690841E+04  0.15877690841E+04  0.50400001928E-02 0.  1.
    10030    2    1    2    0    0  0.00000000000E+00  0.00000000000E+00 -0.65317651776E+03  0.25223616505E+04  0.24363227890E+04 0.  0.
        2    1    3    3  502    0 -0.78996046950E+03  0.16798453412E+03  0.61757186120E+03  0.10166864565E+04  0.25500000920E-02 0. -1.
       -2    1    3    3    0  502  0.78996046950E+03 -0.16798453412E+03 -0.12707483790E+04  0.15056751940E+04  0.25500000920E-02 0.  1.
</event>
<event>
 5   0  0.5107453E-06  0.2815727E+04  0.7818609E-02  0.8298402E-01
       -1   -1    0    0    0  501  0.00000000000E+00  0.00000000000E+00  0.14877867091E+04  0.14877867091E+04  0.50400001928E-02 0. -1.
        1   -1    0    0  501    0  0.00000000000E+00  0.00000000000E+00 -0.13322333251E+04  0.13322333251E+04  0.50400001928E-02 0.  1.
    10030    2    1    2    0    0  0.00000000000E+00  0.00000000000E+00  0.15555338399E+03  0.28200200342E+04  0.28157265737E+04 0.  0.
        2    1    3    3  502    0  0.11129479633E+04 -0.77060178453E+03  0.46514644258E+03  0.14313774807E+04  0.25500000920E-02 0. -1.
       -2    1    3    3    0  502 -0.11129479633E+04  0.77060178453E+03 -0.30959305859E+03  0.13886425534E+04  0.25500000920E-02 0.  1.
</event>
<event>
 5   0  0.1302063E-05  0.2756165E+04  0.7818609E-02  0.8317008E-01
        2   -1    0    0  501    0  0.00000000000E+00  0.00000000000E+00  0.17739006655E+04  0.17739006655E+04  0.25500000920E-02 0.  1.
       -2   -1    0    0    0  501  0.00000000000E+00  0.00000000000E+00 -0.10705852665E+04  0.10705852665E+04  0.25500000920E-02 0. -1.
    10030    2    1    2    0    0  0.00000000000E+00  0.00000000000E+00  0.70331539894E+03  0.28444859320E+04  0.27561653918E+04 0.  0.
        2    1    3    3  502    0  0.13380592471E+04 -0.85039816757E+02  0.68042120565E+03  0.15035316213E+04  0.25500000920E-02 0.  1.
       -2    1    3    3    0  502 -0.13380592471E+04  0.85039816757E+02  0.22894193293E+02  0.13409543107E+04  0.25500000920E-02 0. -1.
</event>
<event>
 5   0  0.1330962E-05  0.2781694E+04  0.7818609E-02  0.8308974E-01
        2   -1    0    0  501    0  0.00000000000E+00  0.00000000000E+00  0.17302546938E+04  0.17302546938E+04  0.25500000920E-02 0. -1.
       -2   -1    0    0    0  501  0.00000000000E+00  0.00000000000E+00 -0.11180173420E+04  0.11180173421E+04  0.25500000920E-02 0.  1.
    10030    2    1    2    0    0  0.00000000000E+00  0.00000000000E+00  0.61223735175E+03  0.28482720358E+04  0.27816935517E+04 0.  0.
        4    1    3    3  502    0  0.91936151767E+03  0.10306567226E+04  0.13794928172E+03  0.13879879312E+04  0.12699999809E+01 0. -1.
       -4    1    3    3    0  502 -0.91936151767E+03 -0.10306567226E+04  0.47428807003E+03  0.14602841046E+04  0.12699999809E+01 0.  1.
</event>
<event>
 5   0  0.1283052E-05  0.2498477E+04  0.7818609E-02  0.8403528E-01
        2   -1    0    0  501    0  0.00000000000E+00  0.00000000000E+00  0.21056564179E+04  0.21056564179E+04  0.25500000920E-02 0. -1.
       -2   -1    0    0    0  501  0.00000000000E+00  0.00000000000E+00 -0.74114525060E+03  0.74114525060E+03  0.25500000920E-02 0.  1.
    10030    2    1    2    0    0  0.00000000000E+00  0.00000000000E+00  0.13645111673E+04  0.28468016685E+04  0.24984773391E+04 0.  0.
        5    1    3    3  502    0 -0.22705892801E+03 -0.12256137348E+04  0.58767469720E+03  0.13780669154E+04  0.46999998093E+01 0.  1.
       -5    1    3    3    0  502  0.22705892801E+03  0.12256137348E+04  0.77683647009E+03  0.14687347531E+04  0.46999998093E+01 0. -1.
</event>
<event>
 5   0  0.5217999E-06  0.2803509E+04  0.7818609E-02  0.8302180E-01
        1   -1    0    0  501    0  0.00000000000E+00  0.00000000000E+00  0.11970620214E+04  0.11970620214E+04  0.50400001928E-02 0.  1.
       -1   -1    0    0    0  501  0.00000000000E+00  0.00000000000E+00 -0.16414481448E+04  0.16414481448E+04  0.50400001928E-02 0. -1.
    10030    2    1    2    0    0  0.00000000000E+00  0.00000000000E+00 -0.44438612340E+03  0.28385101662E+04  0.28035086833E+04 0.  0.
        1    1    3    3  502    0  0.53685045155E+02 -0.39719184855E+03 -0.15821950001E+04  0.16321717027E+04  0.50400001928E-02 0. -1.
       -1    1    3    3    0  502 -0.53685045155E+02  0.39719184855E+03  0.11378088767E+04  0.12063384635E+04  0.50400001928E-02 0.  1.
</event>
<event>
 5   0  0.5281919E-06  0.2926251E+04  0.7818609E-02  0.8265110E-01
        1   -1    0    0  501    0  0.00000000000E+00  0.00000000000E+00  0.21401695075E+04  0.21401695075E+04  0.50400001928E-02 0.  1.
       -1   -1    0    0    0  501  0.00000000000E+00  0.00000000000E+00 -0.10002645213E+04  0.10002645213E+04  0.50400001928E-02 0. -1.
    10030    2    1    2    0    0  0.00000000000E+00  0.00000000000E+00  0.11399049862E+04  0.31404340288E+04  0.29262505894E+04 0.  0.
        4    1    3    3  502    0  0.20538074002E+03 -0.14463556897E+04  0.65719189955E+03  0.16018829031E+04  0.12699999809E+01 0. -1.
       -4    1    3    3    0  502 -0.20538074002E+03  0.14463556897E+04  0.48271308668E+03  0.15385511257E+04  0.12699999809E+01 0.  1.
</event>
<event>
 5   0  0.1302063E-05  0.2808799E+04  0.7818609E-02  0.8300542E-01
        2   -1    0    0  501    0  0.00000000000E+00  0.00000000000E+00  0.20800922957E+04  0.20800922957E+04  0.25500000920E-02 0.  1.
       -2   -1    0    0    0  501  0.00000000000E+00  0.00000000000E+00 -0.94819734234E+03  0.94819734234E+03  0.25500000920E-02 0. -1.
    10030    2    1    2    0    0  0.00000000000E+00  0.00000000000E+00  0.11318949533E+04  0.30282896380E+04  0.28087990221E+04 0.  0.
        2    1    3    3  502    0 -0.20297743110E+03 -0.35587028814E+03  0.20142341186E+04  0.20554762427E+04  0.25500000920E-02 0.  1.
       -2    1    3    3    0  502  0.20297743110E+03  0.35587028814E+03 -0.88233916530E+03  0.97281339534E+03  0.25500000920E-02 0. -1.
</event>
<event>
 5   0  0.1388269E-05  0.2781128E+04  0.7818609E-02  0.8309151E-01
        2   -1    0    0  501    0  0.00000000000E+00  0.00000000000E+00  0.23360095508E+04  0.23360095508E+04  0.25500000920E-02 0.  1.
       -2   -1    0    0    0  501  0.00000000000E+00  0.00000000000E+00 -0.82776547333E+03  0.82776547333E+03  0.25500000920E-02 0. -1.
    10030    2    1    2    0    0  0.00000000000E+00  0.00000000000E+00  0.15082440775E+04  0.31637750242E+04  0.27811278659E+04 0.  0.
        1    1    3    3  502    0  0.62231717525E+03  0.11632403442E+04  0.25402179093E+03  0.13434782601E+04  0.50400001928E-02 0. -1.
       -1    1    3    3    0  502 -0.62231717525E+03 -0.11632403442E+04  0.12542222866E+04  0.18202967641E+04  0.50400001928E-02 0.  1.
</event>
<event>
 5   0  0.1388269E-05  0.2787046E+04  0.7818609E-02  0.8307301E-01
       -2   -1    0    0    0  501  0.00000000000E+00  0.00000000000E+00  0.82927401655E+03  0.82927401655E+03  0.25500000920E-02 0.  1.
        2   -1    0    0  501    0  0.00000000000E+00  0.00000000000E+00 -0.23416946338E+04  0.23416946338E+04  0.25500000920E-02 0. -1.
    10030    2    1    2    0    0  0.00000000000E+00  0.00000000000E+00 -0.15124206173E+04  0.31709686504E+04  0.27870461170E+04 0.  0.
        1    1    3    3  502    0  0.86150676426E+03 -0.10483760032E+03 -0.19966849383E+04  0.21771393089E+04  0.50400001928E-02 0. -1.
       -1    1    3    3    0  502 -0.86150676426E+03  0.10483760032E+03  0.48426432107E+03  0.99382934148E+03  0.50400001928E-02 0.  1.
</event>
<event>
 5   0  0.5107453E-06  0.2604087E+04  0.7818609E-02  0.8366814E-01
       -1   -1    0    0    0  501  0.00000000000E+00  0.00000000000E+00  0.14154767141E+04  0.14154767141E+04  0.50400001928E-02 0. -1.
        1   -1    0    0  501    0  0.00000000000E+00  0.00000000000E+00 -0.11977005087E+04  0.11977005087E+04  0.50400001928E-02 0.  1.
    10030    2    1    2    0    0  0.00000000000E+00  0.00000000000E+00  0.21777620538E+03  0.26131772228E+04  0.26040869267E+04 0.  0.
        2    1    3    3  502    0  0.11658110591E+04 -0.57185504968E+03  0.20505350530E+03  0.13146028158E+04  0.25500000920E-02 0. -1.
       -2    1    3    3    0  502 -0.11658110591E+04  0.57185504968E+03  0.12722700084E+02  0.12985744070E+04  0.25500000920E-02 0.  1.
</event>
<event>
 5   0  0.1283052E-05  0.2920515E+04  0.7818609E-02  0.8266800E-01
        2   -1    0    0  501    0  0.00000000000E+00  0.00000000000E+00  0.10845640747E+04  0.10845640747E+04  0.25500000920E-02 0.  1.
       -2   -1    0    0    0  501  0.00000000000E+00  0.00000000000E+00 -0.19660913055E+04  0.19660913055E+04  0.25500000920E-02 0. -1.
    10030    2    1    2    0    0  0.00000000000E+00  0.00000000000E+00 -0.88152723080E+03  0.30506553803E+04  0.29205150214E+04 0.  0.
        5    1    3    3  502    0  0.71081721174E+02 -0.61154435914E+03 -0.18238862285E+04  0.19249992672E+04  0.46999998093E+01 0. -1.
       -5    1    3    3    0  502 -0.71081721174E+02  0.61154435914E+03  0.94235899770E+03  0.11256561130E+04  0.46999998093E+01 0.  1.
</event>
<event>
 5   0  0.5281919E-06  0.2735169E+04  0.7818609E-02  0.8323683E-01
        1   -1    0    0  501    0  0.00000000000E+00  0.00000000000E+00  0.13419012762E+04  0.13419012762E+04  0.50400001928E-02 0. -1.
       -1   -1    0    0    0  501  0.00000000000E+00  0.00000000000E+00 -0.13937596768E+04  0.13937596768E+04  0.50400001928E-02 0.  1.
    10030    2    1    2    0    0  0.00000000000E+00  0.00000000000E+00 -0.51858400669E+02  0.27356609530E+04  0.27351693834E+04 0.  0.
        4    1    3    3  502    0  0.72375389563E+03 -0.11401374168E+04  0.18987158796E+03  0.13637396612E+04  0.12699999809E+01 0.  1.
       -4    1    3    3    0  502 -0.72375389563E+03  0.11401374168E+04 -0.24172998863E+03  0.13719212918E+04  0.12699999809E+01 0. -1.
</event>
<event>
 5   0  0.5217999E-06  0.3031760E+04  0.7818609E-02  0.8234719E-01
        1   -1    0    0  501    0  0.00000000000E+00  0.00000000000E+00  0.18166187255E+04  0.18166187256E+04  0.50400001928E-02 0.  1.
       -1   -1    0    0    0  501  0.00000000000E+00  0.00000000000E+00 -0.12649281054E+04  0.12649281054E+04  0.50400001928E-02 0. -1.
    10030    2    1    2    0    0  0.00000000000E+00  0.00000000000E+00  0.55169062017E+03  0.30815468309E+04  0.30317599395E+04 0.  0.
        1    1    3    3  502    0 -0.31077611295E+03 -0.13962799659E+04 -0.23410327868E+03  0.14494771060E+04  0.50400001928E-02 0. -1.
       -1    1    3    3    0  502  0.31077611295E+03  0.13962799659E+04  0.78579389885E+03  0.16320697250E+04  0.50400001928E-02 0.  1.
</event>
<event>
 5   0  0.5217999E-06  0.2859981E+04  0.7818609E-02  0.8284885E-01
        1   -1    0    0  501    0  0.00000000000E+00  0.00000000000E+00  0.16928001353E+04  0.16928001353E+04  0.50400001928E-02 0. -1.
       -1   -1    0    0    0  501  0.00000000000E+00  0.00000000000E+00 -0.12079824557E+04  0.12079824557E+04  0.50400001928E-02 0.  1.
    10030    2    1    2    0    0  0.00000000000E+00  0.00000000000E+00  0.48481767957E+03  0.29007825910E+04  0.28599810240E+04 0.  0.
        1    1    3    3  502    0  0.27478417565E+03  0.13642717331E+04  0.57593003803E+03  0.15061338299E+04  0.50400001928E-02 0. -1.
       -1    1    3    3    0  502 -0.27478417565E+03 -0.13642717331E+04 -0.91112358462E+02  0.13946487611E+04  0.50400001928E-02 0.  1.
</event>
<event>
 5   0  0.5107453E-06  0.2735189E+04  0.7818609E-02  0.8323677E-01
       -1   -1    0    0    0  501  0.00000000000E+00  0.00000000000E+00  0.10097183361E+04  0.10097183361E+04  0.50400001928E-02 0.  1.
        1   -1    0    0  501    0  0.00000000000E+00  0.00000000000E+00 -0.18523128073E+04  0.18523128073E+04  0.50400001928E-02 0. -1.
    10030    2    1    2    0    0  0.00000000000E+00  0.00000000000E+00 -0.84259447117E+03  0.28620311434E+04  0.27351886265E+04 0.  0.
        2    1    3    3  502    0  0.12318466259E+04  0.47408449762E+03 -0.79582321940E+03  0.15412776574E+04  0.25500000920E-02 0. -1.
       -2    1    3    3    0  502 -0.12318466259E+04 -0.47408449762E+03 -0.46771251761E+02  0.13207534860E+04  0.25500000920E-02 0.  1.
</event>
<event>
 5   0  0.4764214E-06  0.2889584E+04  0.7818609E-02  0.8275983E-01
        1   -1    0    0  501    0  0.00000000000E+00  0.00000000000E+00  0.13316150724E+04  0.13316150724E+04  0.50400001928E-02 0. -1.
       -1   -1    0    0    0  501  0.00000000000E+00  0.00000000000E+00 -0.15675877208E+04  0.15675877208E+04  0.50400001928E-02 0.  1.
    10030    2    1    2    0    0  0.00000000000E+00  0.00000000000E+00 -0.23597264840E+03  0.28992027932E+04  0.28895836630E+04 0.  0.
        3    1    3    3  502    0 -0.20602178219E+03 -0.13819572800E+03  0.13100860625E+04  0.13333673670E+04  0.10100000352E+00 0. -1.
       -3    1    3    3    0  502  0.20602178219E+03  0.13819572800E+03 -0.15460587110E+04  0.15658354262E+04  0.10100000352E+00 0.  1.
</event>
<event>
 5   0  0.1350863E-05  0.2753516E+04  0.7818609E-02  0.8317847E-01
       -2   -1    0    0    0  501  0.00000000000E+00  0.00000000000E+00  0.92121738079E+03  0.92121738079E+03  0.25500000920E-02 0.  1.
        2   -1    0    0  501    0  0.00000000000E+00  0.00000000000E+00 -0.20575625181E+04  0.20575625181E+04  0.25500000920E-02 0. -1.
    10030    2    1    2    0    0  0.00000000000E+00  0.00000000000E+00 -0.11363451373E+04  0.29787798989E+04  0.27535158280E+04 0.  0.
        3    1    3    3  502    0  0.13460639870E+04  0.15333928901E+03 -0.30304941654E+03  0.13882507532E+04  0.10100000352E+00 0. -1.
       -3    1    3    3    0  502 -0.13460639870E+04 -0.15333928901E+03 -0.83329572073E+03  0.15905291456E+04  0.10100000352E+00 0.  1.
</event>
<event>
 5   0  0.4764214E-06  0.2823267E+04  0.7818609E-02  0.8296081E-01
        1   -1    0    0  501    0  0.00000000000E+00  0.00000000000E+00  0.28119899488E+04  0.28119899488E+04  0.50400001928E-02 0.  1.
       -1   -1    0    0    0  501  0.00000000000E+00  0.00000000000E+00 -0.70864710384E+03  0.70864710385E+03  0.50400001928E-02 0. -1.
    10030    2    1    2    0    0  0.00000000000E+00  0.00000000000E+00  0.21033428450E+04  0.35206370526E+04  0.28232665714E+04 0.  0.
        3    1    3    3  502    0  0.36562368581E+03 -0.47708763976E+03  0.26444361344E+04  0.27118878618E+04  0.10100000352E+00 0.  1.
       -3    1    3    3    0  502 -0.36562368581E+03  0.47708763976E+03 -0.54109328946E+03  0.80874919087E+03  0.10100000352E+00 0. -1.
</event>
<event>
 5   0  0.1330962E-05  0.2388344E+04  0.7818609E-02  0.8443880E-01
       -2   -1    0    0    0  501  0.00000000000E+00  0.00000000000E+00  0.92355765566E+03  0.92355765566E+03  0.25500000920E-02 0.  1.
        2   -1    0    0  501    0  0.00000000000E+00  0.00000000000E+00 -0.15440801801E+04  0.15440801801E+04  0.25500000920E-02 0. -1.
    10030    2    1    2    0    0  0.00000000000E+00  0.00000000000E+00 -0.62052252443E+03  0.24676378358E+04  0.23883442560E+04 0.  0.
        4    1    3    3  502    0  0.56362163263E+03 -0.59674376379E+03 -0.12063937661E+04  0.14591641430E+04  0.12699999809E+01 0. -1.
       -4    1    3    3    0  502 -0.56362163263E+03  0.59674376379E+03  0.58587124163E+03  0.10084736928E+04  0.12699999809E+01 0.  1.
</event>
<event>
 5   0  0.1350863E-05  0.2770122E+04  0.7818609E-02  0.8312605E-01
       -2   -1    0    0    0  501  0.00000000000E+00  0.00000000000E+00  0.10507550994E+04  0.10507550994E+04  0.25500000920E-02 0.  1.
        2   -1    0    0  501    0  0.00000000000E+00  0.00000000000E+00 -0.18257290566E+04  0.18257290566E+04  0.25500000920E-02 0. -1.
    10030    2    1    2    0    0  0.00000000000E+00  0.00000000000E+00 -0.77497395725E+03  0.28764841560E+04  0.27701221030E+04 0.  0.
        3    1    3    3  502    0 -0.36512449727E+03  0.53562845800E+03  0.88351177245E+03  0.10958133079E+04  0.10100000352E+00 0.  1.
       -3    1    3    3    0  502  0.36512449727E+03 -0.53562845800E+03 -0.16584857297E+04  0.17806708481E+04  0.10100000352E+00 0. -1.
</event>
<event>
 5   0  0.1302063E-05  0.2355547E+04  0.7818609E-02  0.8456336E-01
        2   -1    0    0  501    0  0.00000000000E+00  0.00000000000E+00  0.29671505719E+04  0.29671505719E+04  0.25500000920E-02 0.  1.
       -2   -1    0    0    0  501  0.00000000000E+00  0.00000000000E+00 -0.46750235962E+03  0.46750235962E+03  0.25500000920E-02 0. -1.
    10030    2    1    2    0    0  0.00000000000E+00  0.00000000000E+00  0.24996482123E+04  0.34346529315E+04  0.23555465555E+04 0.  0.
        2    1    3    3  502    0  0.56283852044E+03  0.74224657014E+03  0.19893759126E+03  0.95251946762E+03  0.25500000920E-02 0. -1.
       -2    1    3    3    0  502 -0.56283852044E+03 -0.74224657014E+03  0.23007106210E+04  0.24821334639E+04  0.25500000920E-02 0.  1.
</event>
<event>
 5   0  0.5023691E-06  0.2795487E+04  0.7818609E-02  0.8304671E-01
       -1   -1    0    0    0  501  0.00000000000E+00  0.00000000000E+00  0.12762205957E+04  0.12762205957E+04  0.50400001928E-02 0. -1.
        1   -1    0    0  501    0  0.00000000000E+00  0.00000000000E+00 -0.15308377200E+04  0.15308377200E+04  0.50400001928E-02 0.  1.
    10030    2    1    2    0    0  0.00000000000E+00  0.00000000000E+00 -0.25461712433E+03  0.28070583157E+04  0.27954868105E+04 0.  0.
        5    1    3    3  502    0 -0.12679436842E+04  0.55139055179E+03  0.78360675826E+02  0.13848737172E+04  0.46999998093E+01 0.  1.
       -5    1    3    3    0  502  0.12679436842E+04 -0.55139055179E+03 -0.33297780015E+03  0.14221845986E+04  0.46999998093E+01 0. -1.
</event>
<event>
 5   0  0.5217999E-06  0.2800357E+04  0.7818609E-02  0.8303158E-01
       -1   -1    0    0    0  501  0.00000000000E+00  0.00000000000E+00  0.11843373728E+04  0.11843373729E+04  0.50400001928E-02 0. -1.
        1   -1    0    0  501    0  0.00000000000E+00  0.00000000000E+00 -0.16553556330E+04  0.16553556330E+04  0.50400001928E-02 0.  1.
    10030    2    1    2    0    0  0.00000000000E+00  0.00000000000E+00 -0.47101826014E+03  0.28396930058E+04  0.28003567926E+04 0.  0.
        1    1    3    3  502    0 -0.11825310998E+04 -0.74808711715E+03 -0.18495500651E+03  0.14114611193E+04  0.50400001928E-02 0.  1.
       -1    1    3    3    0  502  0.11825310998E+04  0.74808711715E+03 -0.28606325363E+03  0.14282318866E+04  0.50400001928E-02 0. -1.
</event>
<event>
 5   0  0.1330962E-05  0.2883080E+04  0.7818609E-02  0.8277929E-01
        2   -1    0    0  501    0  0.00000000000E+00  0.00000000000E+00  0.16489762029E+04  0.16489762029E+04  0.25500000920E-02 0. -1.
       -2   -1    0    0    0  501  0.00000000000E+00  0.00000000000E+00 -0.12601987131E+04  0.12601987131E+04  0.25500000920E-02 0.  1.
    10030    2    1    2    0    0  0.00000000000E+00  0.00000000000E+00  0.38877748983E+03  0.29091749160E+04  0.28830800814E+04 0.  0.
        4    1    3    3  502    0 -0.11401182411E+04 -0.71648381655E+03  0.71365057290E+03  0.15239807795E+04  0.12699999809E+01 0. -1.
       -4    1    3    3    0  502  0.11401182411E+04  0.71648381655E+03 -0.32487308307E+03  0.13851941366E+04  0.12699999809E+01 0.  1.
</event>
<event>
 5   0  0.1330962E-05  0.2936963E+04  0.7818609E-02  0.8261964E-01
        2   -1    0    0  501    0  0.00000000000E+00  0.00000000000E+00  0.11549927948E+04  0.11549927948E+04  0.25500000920E-02 0.  1.
       -2   -1    0    0    0  501  0.00000000000E+00  0.00000000000E+00 -0.18670571694E+04  0.18670571694E+04  0.25500000920E-02 0. -1.
    10030    2    1    2    0    0  0.00000000000E+00  0.00000000000E+00 -0.71206437457E+03  0.30220499642E+04  0.29369627701E+04 0.  0.
        4    1    3    3  502    0 -0.13993563759E+03 -0.41201402522E+03  0.10871336659E+04  0.11709819640E+04  0.12699999809E+01 0.  1.
       -4    1    3    3    0  502  0.13993563759E+03  0.41201402522E+03 -0.17991980405E+04  0.18510680002E+04  0.12699999809E+01 0. -1.
</event>
<event>
 5   0  0.1283052E-05  0.2820732E+04  0.7818609E-02  0.8296861E-01
       -2   -1    0    0    0  501  0.00000000000E+00  0.00000000000E+00  0.13634375823E+04  0.13634375823E+04  0.25500000920E-02 0. -1.
        2   -1    0    0  501    0  0.00000000000E+00  0.00000000000E+00 -0.14589099614E+04  0.14589099614E+04  0.25500000920E-02 0.  1.
    10030    2    1    2    0    0  0.00000000000E+00  0.00000000000E+00 -0.95472379078E+02  0.28223475438E+04  0.28207322955E+04 0.  0.
        5    1    3    3  502    0  0.85474226301E+03 -0.84785996069E+03 -0.78277221856E+03  0.14360380515E+04  0.46999998093E+01 0.  1.
       -5    1    3    3    0  502 -0.85474226301E+03  0.84785996069E+03  0.68729983949E+03  0.13863094923E+04  0.46999998093E+01 0. -1.
</event>
<event>
 5   0  0.1350863E-05  0.2527726E+04  0.7818609E-02  0.8393174E-01
        2   -1    0    0  501    0  0.00000000000E+00  0.00000000000E+00  0.74832585513E+03  0.74832585514E+03  0.25500000920E-02 0.  1.
       -2   -1    0    0    0  501  0.00000000000E+00  0.00000000000E+00 -0.21345649841E+04  0.21345649841E+04  0.25500000920E-02 0. -1.
    10030    2    1    2    0    0  0.00000000000E+00  0.00000000000E+00 -0.13862391290E+04  0.28828908392E+04  0.25277263832E+04 0.  0.
        3    1    3    3  502    0 -0.71387597458E+03  0.32526178791E+03  0.43703991517E+03  0.89800781478E+03  0.10100000352E+00 0.  1.
       -3    1    3    3    0  502  0.71387597458E+03 -0.32526178791E+03 -0.18232790441E+04  0.19848830244E+04  0.10100000352E+00 0. -1.
</event>
<event>
 5   0  0.1330962E-05  0.2747729E+04  0.7818609E-02  0.8319683E-01
       -2   -1    0    0    0  501  0.00000000000E+00  0.00000000000E+00  0.11009020112E+04  0.11009020112E+04  0.25500000920E-02 0.  1.
        2   -1    0    0  501    0  0.00000000000E+00  0.00000000000E+00 -0.17145070175E+04  0.17145070175E+04  0.25500000920E-02 0. -1.
    10030    2    1    2    0    0  0.00000000000E+00  0.00000000000E+00 -0.61360500638E+03  0.28154090287E+04  0.27477294072E+04 0.  0.
        4    1    3    3  502    0 -0.14469784464E+03  0.82391790216E+03 -0.14234738768E+04  0.16510777288E+04  0.12699999809E+01 0. -1.
       -4    1    3    3    0  502  0.14469784464E+03 -0.82391790216E+03  0.80986887043E+03  0.11643312999E+04  0.12699999809E+01 0.  1.
</event>
<event>
 5   0  0.5023691E-06  0.2806491E+04  0.7818609E-02  0.8301256E-01
       -1   -1    0    0    0  501  0.00000000000E+00  0.00000000000E+00  0.91755716103E+03  0.91755716104E+03  0.50400001928E-02 0.  1.
        1   -1    0    0  501    0  0.00000000000E+00  0.00000000000E+00 -0.21460219072E+04  0.21460219072E+04  0.50400001928E-02 0. -1.
    10030    2    1    2    0    0  0.00000000000E+00  0.00000000000E+00 -0.12284647462E+04  0.30635790682E+04  0.28064908827E+04 0.  0.
        5    1    3    3  502    0  0.11585811537E+03  0.32882708919E+03 -0.20979821188E+04  0.21267584297E+04  0.46999998093E+01 0. -1.
       -5    1    3    3    0  502 -0.11585811537E+03 -0.32882708919E+03  0.86951737264E+03  0.93682063854E+03  0.46999998093E+01 0.  1.
</event>
<event>
 5   0  0.5107453E-06  0.2782508E+04  0.7818609E-02  0.8308720E-01
       -1   -1    0    0    0  501  0.00000000000E+00  0.00000000000E+00  0.11822155695E+04  0.11822155695E+04  0.50400001928E-02 0.  1.
        1   -1    0    0  501    0  0.00000000000E+00  0.00000000000E+00 -0.16372544811E+04  0.16372544812E+04  0.50400001928E-02 0. -1.
    10030    2    1    2    0    0  0.00000000000E+00  0.00000000000E+00 -0.45503891167E+03  0.28194700506E+04  0.27825080333E+04 0.  0.
        2    1    3    3  502    0  0.11582569709E+04 -0.15667016544E+03 -0.99218485006E+03  0.15331456318E+04  0.25500000920E-02 0. -1.
       -2    1    3    3    0  502 -0.11582569709E+04  0.15667016544E+03  0.53714593839E+03  0.12863244189E+04  0.25500000920E-02 0.  1.
</event>
<event>
 5   0  0.1330962E-05  0.2799410E+04  0.7818609E-02  0.8303452E-01
        2   -1    0    0  501    0  0.00000000000E+00  0.00000000000E+00  0.15722850721E+04  0.15722850721E+04  0.25500000920E-02 0. -1.
       -2   -1    0    0    0  501  0.00000000000E+00  0.00000000000E+00 -0.12460679595E+04  0.12460679595E+04  0.25500000920E-02 0.  1.
    10030    2    1    2    0    0  0.00000000000E+00  0.00000000000E+00  0.32621711255E+03  0.28183530316E+04  0.27994099747E+04 0.  0.
        4    1    3    3  502    0 -0.54687552506E+03  0.68659967308E+03 -0.93453530732E+03  0.12821270625E+04  0.12699999809E+01 0.  1.
       -4    1    3    3    0  502  0.54687552506E+03 -0.68659967308E+03  0.12607524199E+04  0.15362259691E+04  0.12699999809E+01 0. -1.
</event>
<event>
 5   0  0.1350863E-05  0.2863968E+04  0.7818609E-02  0.8283679E-01
        2   -1    0    0  501    0  0.00000000000E+00  0.00000000000E+00  0.18588447943E+04  0.18588447943E+04  0.25500000920E-02 0.  1.
       -2   -1    0    0    0  501  0.00000000000E+00  0.00000000000E+00 -0.11031466844E+04  0.11031466844E+04  0.25500000920E-02 0. -1.
    10030    2    1    2    0    0  0.00000000000E+00  0.00000000000E+00  0.75569810994E+03  0.29619914787E+04  0.28639682063E+04 0.  0.
        3    1    3    3  502    0  0.21765199248E+03 -0.79335590794E+03  0.15900543561E+04  0.17902678158E+04  0.10100000352E+00 0.  1.
       -3    1    3    3    0  502 -0.21765199248E+03  0.79335590794E+03 -0.83435624621E+03  0.11717236629E+04  0.10100000352E+00 0. -1.
</event>
<event>
 5   0  0.4447500E-06  0.2770448E+04  0.7818609E-02  0.8312502E-01
        3   -1    0    0  501    0  0.00000000000E+00  0.00000000000E+00  0.17179226110E+04  0.17179226139E+04  0.10100000352E+00 0.  1.
       -3   -1    0    0    0  501  0.00000000000E+00  0.00000000000E+00 -0.11169571431E+04  0.11169571477E+04  0.10100000352E+00 0. -1.
    10030    2    1    2    0    0  0.00000000000E+00  0.00000000000E+00  0.60096546786E+03  0.28348797616E+04  0.27704482975E+04 0.  0.
        4    1    3    3  502    0 -0.12852157261E+04  0.23395941686E+02  0.82874240480E+03  0.15294255193E+04  0.12699999809E+01 0.  1.
       -4    1    3    3    0  502  0.12852157261E+04 -0.23395941686E+02 -0.22777693694E+03  0.13054542423E+04  0.12699999809E+01 0. -1.
</event>
<event>
 5   0  0.1302063E-05  0.2785656E+04  0.7818609E-02  0.8307735E-01
        2   -1    0    0  501    0  0.00000000000E+00  0.00000000000E+00  0.11849836300E+04  0.11849836300E+04  0.25500000920E-02 0.  1.
       -2   -1    0    0    0  501  0.00000000000E+00  0.00000000000E+00 -0.16371284271E+04  0.16371284271E+04  0.25500000920E-02 0. -1.
    10030    2    1    2    0    0  0.00000000000E+00  0.00000000000E+00 -0.45214479707E+03  0.28221120571E+04  0.27856563940E+04 0.  0.
        2    1    3    3  502    0  0.71695398169E+03 -0.73494276553E+03  0.72741759823E+03  0.12582925903E+04  0.25500000920E-02 0.  1.
       -2    1    3    3    0  502 -0.71695398169E+03  0.73494276553E+03 -0.11795623953E+04  0.15638194668E+04  0.25500000920E-02 0. -1.
</event>
<event>
 5   0  0.1330962E-05  0.2813111E+04  0.7818609E-02  0.8299209E-01
        2   -1    0    0  501    0  0.00000000000E+00  0.00000000000E+00  0.21304881355E+04  0.21304881355E+04  0.25500000920E-02 0.  1.
       -2   -1    0    0    0  501  0.00000000000E+00  0.00000000000E+00 -0.92861269638E+03  0.92861269638E+03  0.25500000920E-02 0. -1.
    10030    2    1    2    0    0  0.00000000000E+00  0.00000000000E+00  0.12018754391E+04  0.30591008319E+04  0.28131109698E+04 0.  0.
        4    1    3    3  502    0  0.11680777217E+04 -0.69225844403E+03  0.20172664687E+03  0.13727062942E+04  0.12699999809E+01 0.  1.
       -4    1    3    3    0  502 -0.11680777217E+04  0.69225844403E+03  0.10001487923E+04  0.16863945377E+04  0.12699999809E+01 0. -1.
</event>
<event>
 5   0  0.5217999E-06  0.2788366E+04  0.7818609E-02  0.8306889E-01
        1   -1    0    0  501    0  0.00000000000E+00  0.00000000000E+00  0.15811238112E+04  0.15811238112E+04  0.50400001928E-02 0.  1.
       -1   -1    0    0    0  501  0.00000000000E+00  0.00000000000E+00 -0.12293445194E+04  0.12293445194E+04  0.50400001928E-02 0. -1.
    10030    2    1    2    0    0  0.00000000000E+00  0.00000000000E+00  0.35177929173E+03  0.28104683306E+04  0.27883657520E+04 0.  0.
        1    1    3    3  502    0 -0.90772364899E+02 -0.70647957971E+03 -0.10321065782E+04  0.12540322992E+04  0.50400001928E-02 0. -1.
       -1    1    3    3    0  502  0.90772364899E+02  0.70647957971E+03  0.13838858699E+04  0.15564360314E+04  0.50400001928E-02 0.  1.
</event>
<event>
 5   0  0.1302063E-05  0.2824842E+04  0.7818609E-02  0.8295597E-01
       -2   -1    0    0    0  501  0.00000000000E+00  0.00000000000E+00  0.10326850895E+04  0.10326850895E+04  0.25500000920E-02 0. -1.
        2   -1    0    0  501    0  0.00000000000E+00  0.00000000000E+00 -0.19317919904E+04  0.19317919904E+04  0.25500000920E-02 0.  1.
    10030    2    1    2    0    0  0.00000000000E+00  0.00000000000E+00 -0.89910690086E+03  0.29644770799E+04  0.28248417899E+04 0.  0.
        2    1    3    3  502    0 -0.88716876298E+02  0.78022283512E+03 -0.16816028421E+04  0.18559112250E+04  0.25500000920E-02 0.  1.
       -2    1    3    3    0  502  0.88716876298E+02 -0.78022283512E+03  0.78249594121E+03  0.11085658549E+04  0.25500000920E-02 0. -1.
</event>
<event>
 5   0  0.5023691E-06  0.2418653E+04  0.7818609E-02  0.8432553E-01
       -1   -1    0    0    0  501  0.00000000000E+00  0.00000000000E+00  0.13722441407E+04  0.13722441407E+04  0.50400001928E-02 0.  1.
        1   -1    0    0  501    0  0.00000000000E+00  0.00000000000E+00 -0.10657510442E+04  0.10657510442E+04  0.50400001928E-02 0. -1.
    10030    2    1    2    0    0  0.00000000000E+00  0.00000000000E+00  0.30649309644E+03  0.24379951849E+04  0.24186530350E+04 0.  0.
        5    1    3    3  502    0  0.58628451954E+03  0.10459882311E+04  0.31143343535E+03  0.12388840915E+04  0.46999998093E+01 0.  1.
       -5    1    3    3    0  502 -0.58628451954E+03 -0.10459882311E+04 -0.49403389091E+01  0.11991110934E+04  0.46999998093E+01 0. -1.
</event>
<event>
 5   0  0.4764214E-06  0.2967230E+04  0.7818609E-02  0.8253151E-01
        1   -1    0    0  501    0  0.00000000000E+00  0.00000000000E+00  0.20267363469E+04  0.20267363469E+04  0.50400001928E-02 0. -1.
       -1   -1    0    0    0  501  0.00000000000E+00  0.00000000000E+00 -0.10860382851E+04  0.10860382851E+04  0.50400001928E-02 0.  1.
    10030    2    1    2    0    0  0.00000000000E+00  0.00000000000E+00  0.94069806180E+03  0.31127746321E+04  0.29672298641E+04 0.  0.
        3    1    3    3  502    0 -0.11468730965E+04 -0.73027235389E+03 -0.15248824662E+03  0.13681623756E+04  0.10100000352E+00 0.  1.
       -3    1    3    3    0  502  0.11468730965E+04  0.73027235389E+03  0.10931863084E+04  0.17446122565E+04  0.10100000352E+00 0. -1.
</event>
<event>
 5   0  0.1283052E-05  0.2828339E+04  0.7818609E-02  0.8294524E-01
        2   -1    0    0  501    0  0.00000000000E+00  0.00000000000E+00  0.13367580730E+04  0.13367580730E+04  0.25500000920E-02 0.  1.
       -2   -1    0    0    0  501  0.00000000000E+00  0.00000000000E+00 -0.14960635277E+04  0.14960635277E+04  0.25500000920E-02 0. -1.
    10030    2    1    2    0    0  0.00000000000E+00  0.00000000000E+00 -0.15930545464E+03  0.28328216007E+04  0.28283387339E+04 0.  0.
        5    1    3    3  502    0 -0.10629650567E+04 -0.33712912284E+02  0.85393066612E+03  0.13639101674E+04  0.46999998093E+01 0.  1.
       -5    1    3    3    0  502  0.10629650567E+04  0.33712912284E+02 -0.10132361208E+04  0.14689114332E+04  0.46999998093E+01 0. -1.
</event>
<event>
 5   0  0.5023691E-06  0.2805916E+04  0.7818609E-02  0.8301434E-01
        1   -1    0    0  501    0  0.00000000000E+00  0.00000000000E+00  0.25800305405E+04  0.25800305405E+04  0.50400001928E-02 0.  1.
       -1   -1    0    0    0  501  0.00000000000E+00  0.00000000000E+00 -0.76289472229E+03  0.76289472231E+03  0.50400001928E-02 0. -1.
    10030    2    1    2    0    0  0.00000000000E+00  0.00000000000E+00  0.18171358182E+04  0.33429252628E+04  0.28059163799E+04 0.  0.
        5    1    3    3  502    0  0.38593186197E+03 -0.96754244607E+03  0.20282080880E+04  0.22800727895E+04  0.46999998093E+01 0.  1.
       -5    1    3    3    0  502 -0.38593186197E+03  0.96754244607E+03 -0.21107226980E+03  0.10628524734E+04  0.46999998093E+01 0. -1.
</event>
<event>
 5   0  0.1350863E-05  0.2778943E+04  0.7818609E-02  0.8309836E-01
        2   -1    0    0  501    0  0.00000000000E+00  0.00000000000E+00  0.15138672581E+04  0.15138672581E+04  0.25500000920E-02 0.  1.
       -2   -1    0    0    0  501  0.00000000000E+00  0.00000000000E+00 -0.12752971508E+04  0.12752971508E+04  0.25500000920E-02 0. -1.
    10030    2    1    2    0    0  0.00000000000E+00  0.00000000000E+00  0.23857010730E+03  0.27891644089E+04  0.27789426773E+04 0.  0.
        3    1    3    3  502    0 -0.77535970339E+02  0.13720289588E+04  0.32535782891E+03  0.14122085602E+04  0.10100000352E+00 0. -1.
       -3    1    3    3    0  502  0.77535970339E+02 -0.13720289588E+04 -0.86787721604E+02  0.13769558487E+04  0.10100000352E+00 0.  1.
</event>
<event>
 5   0  0.5217999E-06  0.2769067E+04  0.7818609E-02  0.8312937E-01
        1   -1    0    0  501    0  0.00000000000E+00  0.00000000000E+00  0.19438214426E+04  0.19438214426E+04  0.50400001928E-02 0.  1.
       -1   -1    0    0    0  501  0.00000000000E+00  0.00000000000E+00 -0.98616711802E+03  0.98616711804E+03  0.50400001928E-02 0. -1.
    10030    2    1    2    0    0  0.00000000000E+00  0.00000000000E+00  0.95765432455E+03  0.29299885606E+04  0.27690668392E+04 0.  0.
        1    1    3    3  502    0  0.48241830034E+03 -0.55617067063E+03 -0.76186721341E+03  0.10594785898E+04  0.50400001928E-02 0. -1.
       -1    1    3    3    0  502 -0.48241830034E+03  0.55617067063E+03  0.17195215380E+04  0.18705099708E+04  0.50400001928E-02 0.  1.
</event>
<event>
 5   0  0.5023691E-06  0.2595105E+04  0.7818609E-02  0.8369866E-01
        1   -1    0    0  501    0  0.00000000000E+00  0.00000000000E+00  0.22774654425E+04  0.22774654425E+04  0.50400001928E-02 0. -1.
       -1   -1    0    0    0  501  0.00000000000E+00  0.00000000000E+00 -0.73926167550E+03  0.73926167552E+03  0.50400001928E-02 0.  1.
    10030    2    1    2    0    0  0.00000000000E+00  0.00000000000E+00  0.15382037670E+04  0.30167271181E+04  0.25951053304E+04 0.  0.
        5    1    3    3  502    0 -0.69203065858E+03 -0.49080352274E+03 -0.37214715227E+03  0.92645028107E+03  0.46999998093E+01 0.  1.
       -5    1    3    3    0  502  0.69203065858E+03  0.49080352274E+03  0.19103509193E+04  0.20902768370E+04  0.46999998093E+01 0. -1.
</event>
<event>
 5   0  0.1350863E-05  0.2798676E+04  0.7818609E-02  0.8303679E-01
        2   -1    0    0  501    0  0.00000000000E+00  0.00000000000E+00  0.98045655292E+03  0.98045655292E+03  0.25500000920E-02 0. -1.
       -2   -1    0    0    0  501  0.00000000000E+00  0.00000000000E+00 -0.19971788007E+04  0.19971788007E+04  0.25500000920E-02 0.  1.
    10030    2    1    2    0    0  0.00000000000E+00  0.00000000000E+00 -0.10167222478E+04  0.29776353536E+04  0.27986761459E+04 0.  0.
        3    1    3    3  502    0 -0.10255847225E+04 -0.94570036271E+03 -0.39193901332E+03  0.14490650087E+04  0.10100000352E+00 0.  1.
       -3    1    3    3    0  502  0.10255847225E+04  0.94570036271E+03 -0.62478323443E+03  0.15285703449E+04  0.10100000352E+00 0. -1.
</event>
<event>
 5   0  0.1283052E-05  0.2315548E+04  0.7818609E-02  0.8471816E-01
       -2   -1    0    0    0  501  0.00000000000E+00  0.00000000000E+00  0.12882557373E+04  0.12882557373E+04  0.25500000920E-02 0.  1.
        2   -1    0    0  501    0  0.00000000000E+00  0.00000000000E+00 -0.10405084042E+04  0.10405084042E+04  0.25500000920E-02 0. -1.
    10030    2    1    2    0    0  0.00000000000E+00  0.00000000000E+00  0.24774733308E+03  0.23287641416E+04  0.23155482474E+04 0.  0.
        5    1    3    3  502    0  0.69308610963E+03 -0.90512418526E+03 -0.79270988446E+02  0.11427703731E+04  0.46999998093E+01 0.  1.
       -5    1    3    3    0  502 -0.69308610963E+03  0.90512418526E+03  0.32701832152E+03  0.11859937684E+04  0.46999998093E+01 0. -1.
</event>
<event>
 5   0  0.1283052E-05  0.2840375E+04  0.7818609E-02  0.8290842E-01
        2   -1    0    0  501    0  0.00000000000E+00  0.00000000000E+00  0.26835299248E+04  0.26835299248E+04  0.25500000920E-02 0. -1.
       -2   -1    0    0    0  501  0.00000000000E+00  0.00000000000E+00 -0.75159661097E+03  0.75159661098E+03  0.25500000920E-02 0.  1.
    10030    2    1    2    0    0  0.00000000000E+00  0.00000000000E+00  0.19319333138E+04  0.34351265358E+04  0.28403746210E+04 0.  0.
        5    1    3    3  502    0  0.76162307767E+03  0.10005100002E+04  0.17643669009E+04  0.21665877836E+04  0.46999998093E+01 0. -1.
       -5    1    3    3    0  502 -0.76162307767E+03 -0.10005100002E+04  0.16756641292E+03  0.12685387522E+04  0.46999998093E+01 0.  1.
</event>
<event>
 5   0  0.5281919E-06  0.2581991E+04  0.7818609E-02  0.8374344E-01
        1   -1    0    0  501    0  0.00000000000E+00  0.00000000000E+00  0.17720136929E+04  0.17720136929E+04  0.50400001928E-02 0.  1.
       -1   -1    0    0    0  501  0.00000000000E+00  0.00000000000E+00 -0.94055129137E+03  0.94055129138E+03  0.50400001928E-02 0. -1.
    10030    2    1    2    0    0  0.00000000000E+00  0.00000000000E+00  0.83146240153E+03  0.27125649843E+04  0.25819912991E+04 0.  0.
        4    1    3    3  502    0 -0.11361159906E+04  0.34208775282E+03  0.95026905759E+03  0.15201304120E+04  0.12699999809E+01 0.  1.
       -4    1    3    3    0  502  0.11361159906E+04 -0.34208775282E+03 -0.11880665606E+03  0.11924345723E+04  0.12699999809E+01 0. -1.
</event>
<event>
 5   0  0.5023691E-06  0.2798171E+04  0.7818609E-02  0.8303836E-01
       -1   -1    0    0    0  501  0.00000000000E+00  0.00000000000E+00  0.13019880268E+04  0.13019880268E+04  0.50400001928E-02 0. -1.
        1   -1    0    0  501    0  0.00000000000E+00  0.00000000000E+00 -0.15034240241E+04  0.15034240241E+04  0.50400001928E-02 0.  1.
    10030    2    1    2    0    0  0.00000000000E+00  0.00000000000E+00 -0.20143599729E+03  0.28054120509E+04  0.27981708873E+04 0.  0.
        5    1    3    3  502    0 -0.15421346524E+03  0.11607545782E+04 -0.86839197359E+03  0.14578270451E+04  0.46999998093E+01 0.  1.
       -5    1    3    3    0  502  0.15421346524E+03 -0.11607545782E+04  0.66695597630E+03  0.13475850058E+04  0.46999998093E+01 0. -1.
</event>
<event>
 5   0  0.5281919E-06  0.2875607E+04  0.7818609E-02  0.8280172E-01
        1   -1    0    0  501    0  0.00000000000E+00  0.00000000000E+00  0.15357137787E+04  0.15357137787E+04  0.50400001928E-02 0.  1.
       -1   -1    0    0    0  501  0.00000000000E+00  0.00000000000E+00 -0.13461357225E+04  0.13461357225E+04  0.50400001928E-02 0. -1.
    10030    2    1    2    0    0  0.00000000000E+00  0.00000000000E+00  0.18957805621E+03  0.28818495012E+04  0.28756071895E+04 0.  0.
        4    1    3    3  502    0  0.93733936307E+02  0.12490818064E+04 -0.61263718150E+03  0.13943878007E+04  0.12699999809E+01 0.  1.
       -4    1    3    3    0  502 -0.93733936307E+02 -0.12490818064E+04  0.80221523771E+03  0.14874617004E+04  0.12699999809E+01 0. -1.
</event>
<event>
 5   0  0.4764214E-06  0.2771031E+04  0.7818609E-02  0.8312319E-01
        1   -1    0    0  501    0  0.00000000000E+00  0.00000000000E+00  0.17926066146E+04  0.17926066146E+04  0.50400001928E-02 0.  1.
       -1   -1    0    0    0  501  0.00000000000E+00  0.00000000000E+00 -0.10708726815E+04  0.10708726815E+04  0.50400001928E-02 0. -1.
    10030    2    1    2    0    0  0.00000000000E+00  0.00000000000E+00  0.72173393310E+03  0.28634792960E+04  0.27710311814E+04 0.  0.
        3    1    3    3  502    0  0.50561349085E+03  0.13407775610E+03  0.16866477448E+04  0.17658999043E+04  0.10100000352E+00 0.  1.
       -3    1    3    3    0  502 -0.50561349085E+03 -0.13407775610E+03 -0.96491381172E+03  0.10975793917E+04  0.10100000352E+00 0. -1.
</event>
<event>
 5   0  0.5217999E-06  0.2633140E+04  0.7818609E-02  0.8357031E-01
       -1   -1    0    0    0  501  0.00000000000E+00  0.00000000000E+00  0.14540326970E+04  0.14540326970E+04  0.50400001928E-02 0. -1.
        1   -1    0    0  501    0  0.00000000000E+00  0.00000000000E+00 -0.11921030244E+04  0.11921030244E+04  0.50400001928E-02 0.  1.
    10030    2    1    2    0    0  0.00000000000E+00  0.00000000000E+00  0.26192967261E+03  0.26461357214E+04  0.26331401601E+04 0.  0.
        1    1    3    3  502    0 -0.23621089711E+02 -0.14636066261E+03 -0.11836878462E+04  0.11929360069E+04  0.50400001928E-02 0.  1.
       -1    1    3    3    0  502  0.23621089711E+02  0.14636066261E+03  0.14456175188E+04  0.14531997145E+04  0.50400001928E-02 0. -1.
</event>
<event>
 5   0  0.1350863E-05  0.2785503E+04  0.7818609E-02  0.8307783E-01
       -2   -1    0    0    0  501  0.00000000000E+00  0.00000000000E+00  0.14640879387E+04  0.14640879387E+04  0.25500000920E-02 0.  1.
        2   -1    0    0  501    0  0.00000000000E+00  0.00000000000E+00 -0.13248907182E+04  0.13248907183E+04  0.25500000920E-02 0. -1.
    10030    2    1    2    0    0  0.00000000000E+00  0.00000000000E+00  0.13919722047E+03  0.27889786570E+04  0.27855028420E+04 0.  0.
        3    1    3    3  502    0  0.13472529278E+04 -0.22260321485E+03  0.34400969296E+03  0.14081851163E+04  0.10100000352E+00 0.  1.
       -3    1    3    3    0  502 -0.13472529278E+04  0.22260321485E+03 -0.20481247249E+03  0.13807935406E+04  0.10100000352E+00 0. -1.
</event>
<event>
 5   0  0.1283052E-05  0.2815405E+04  0.7818609E-02  0.8298502E-01
        2   -1    0    0  501    0  0.00000000000E+00  0.00000000000E+00  0.11667480113E+04  0.11667480113E+04  0.25500000920E-02 0. -1.
       -2   -1    0    0    0  501  0.00000000000E+00  0.00000000000E+00 -0.16984178729E+04  0.16984178729E+04  0.25500000920E-02 0.  1.
    10030    2    1    2    0    0  0.00000000000E+00  0.00000000000E+00 -0.53166986157E+03  0.28651658842E+04  0.28154045362E+04 0.  0.
        5    1    3    3  502    0  0.11998263409E+03  0.81040011939E+03 -0.14308210491E+04  0.16487617022E+04  0.46999998093E+01 0.  1.
       -5    1    3    3    0  502 -0.11998263409E+03 -0.81040011939E+03  0.89915118756E+03  0.12164041820E+04  0.46999998093E+01 0. -1.
</event>
<event>
 5   0  0.1283052E-05  0.2792215E+04  0.7818609E-02  0.8305689E-01
       -2   -1    0    0    0  501  0.00000000000E+00  0.00000000000E+00  0.21184478560E+04  0.21184478560E+04  0.25500000920E-02 0.  1.
        2   -1    0    0  501    0  0.00000000000E+00  0.00000000000E+00 -0.92006815617E+03  0.92006815617E+03  0.25500000920E-02 0. -1.
    10030    2    1    2    0    0  0.00000000000E+00  0.00000000000E+00  0.11983796999E+04  0.30385160122E+04  0.27922151872E+04 0.  0.
        5    1    3    3  502    0  0.32597126545E+03  0.28733161813E+03  0.20429771768E+04  0.20886824938E+04  0.46999998093E+01 0.  1.
       -5    1    3    3    0  502 -0.32597126545E+03 -0.28733161813E+03 -0.84459747697E+03  0.94983351845E+03  0.46999998093E+01 0. -1.
</event>
<event>
 5   0  0.5217999E-06  0.2725422E+04  0.7818609E-02  0.8326803E-01
        1   -1    0    0  501    0  0.00000000000E+00  0.00000000000E+00  0.20421710212E+04  0.20421710212E+04  0.50400001928E-02 0. -1.
       -1   -1    0    0    0  501  0.00000000000E+00  0.00000000000E+00 -0.90931715128E+03  0.90931715129E+03  0.50400001928E-02 0.  1.
    10030    2    1    2    0    0  0.00000000000E+00  0.00000000000E+00  0.11328538699E+04  0.29514881725E+04  0.27254219016E+04 0.  0.
        1    1    3    3  502    0 -0.45143000599E+03  0.57137146606E+03 -0.68095096593E+03  0.99696971898E+03  0.50400001928E-02 0.  1.
       -1    1    3    3    0  502  0.45143000599E+03 -0.57137146606E+03  0.18138048358E+04  0.19545184535E+04  0.50400001928E-02 0. -1.
</event>
<event>
 5   0  0.1388269E-05  0.2537582E+04  0.7818609E-02  0.8389718E-01
       -2   -1    0    0    0  501  0.00000000000E+00  0.00000000000E+00  0.10184079890E+04  0.10184079890E+04  0.25500000920E-02 0. -1.
        2   -1    0    0  501    0  0.00000000000E+00  0.00000000000E+00 -0.15807325454E+04  0.15807325454E+04  0.25500000920E-02 0.  1.
    10030    2    1    2    0    0  0.00000000000E+00  0.00000000000E+00 -0.56232455641E+03  0.25991405343E+04  0.25375820401E+04 0.  0.
        1    1    3    3  502    0  0.85323747908E+02  0.12326327088E+04  0.14220717643E+02  0.12356640990E+04  0.50400001928E-02 0. -1.
       -1    1    3    3    0  502 -0.85323747908E+02 -0.12326327088E+04 -0.57654527405E+03  0.13634764353E+04  0.50400001928E-02 0.  1.
</event>
<event>
 5   0  0.1388269E-05  0.2972117E+04  0.7818609E-02  0.8251738E-01
       -2   -1    0    0    0  501  0.00000000000E+00  0.00000000000E+00  0.16151263314E+04  0.16151263314E+04  0.25500000920E-02 0.  1.
        2   -1    0    0  501    0  0.00000000000E+00  0.00000000000E+00 -0.13673050509E+04  0.13673050510E+04  0.25500000920E-02 0. -1.
    10030    2    1    2    0    0  0.00000000000E+00  0.00000000000E+00  0.24782128046E+03  0.29824313824E+04  0.29721173536E+04 0.  0.
        1    1    3    3  502    0  0.89672292255E+03 -0.36006199744E+03  0.12568164565E+04  0.15853530355E+04  0.50400001928E-02 0.  1.
       -1    1    3    3    0  502 -0.89672292255E+03  0.36006199744E+03 -0.10089951761E+04  0.13970783468E+04  0.50400001928E-02 0. -1.
</event>
<event>
 5   0  0.4764214E-06  0.2760069E+04  0.7818609E-02  0.8315774E-01
        1   -1    0    0  501    0  0.00000000000E+00  0.00000000000E+00  0.69198379891E+03  0.69198379892E+03  0.50400001928E-02 0. -1.
       -1   -1    0    0    0  501  0.00000000000E+00  0.00000000000E+00 -0.27522255691E+04  0.27522255691E+04  0.50400001928E-02 0.  1.
    10030    2    1    2    0    0  0.00000000000E+00  0.00000000000E+00 -0.20602417702E+04  0.34442093680E+04  0.27600692055E+04 0.  0.
        3    1    3    3  502    0 -0.21368389962E+03  0.10104505709E+04  0.11208937202E+03  0.10388624561E+04  0.10100000352E+00 0. -1.
       -3    1    3    3    0  502  0.21368389962E+03 -0.10104505709E+04 -0.21723311422E+04  0.24053469119E+04  0.10100000352E+00 0.  1.
</event>
<event>
 5   0  0.1330962E-05  0.2782859E+04  0.7818609E-02  0.8308610E-01
        2   -1    0    0  501    0  0.00000000000E+00  0.00000000000E+00  0.13411669085E+04  0.13411669085E+04  0.25500000920E-02 0. -1.
       -2   -1    0    0    0  501  0.00000000000E+00  0.00000000000E+00 -0.14435755327E+04  0.14435755327E+04  0.25500000920E-02 0.  1.
    10030    2    1    2    0    0  0.00000000000E+00  0.00000000000E+00 -0.10240862425E+03  0.27847424412E+04  0.27828587707E+04 0.  0.
        4    1    3    3  502    0 -0.11476377882E+04  0.74414569054E+03  0.20440707509E+03  0.13829711374E+04  0.12699999809E+01 0. -1.
       -4    1    3    3    0  502  0.11476377882E+04 -0.74414569054E+03 -0.30681569934E+03  0.14017713037E+04  0.12699999809E+01 0.  1.
</event>
<event>
 5   0  0.5107453E-06  0.2687316E+04  0.7818609E-02  0.8339132E-01
       -1   -1    0    0    0  501  0.00000000000E+00  0.00000000000E+00  0.11684990093E+04  0.11684990093E+04  0.50400001928E-02 0.  1.
        1   -1    0    0  501    0  0.00000000000E+00  0.00000000000E+00 -0.15450732190E+04  0.15450732190E+04  0.50400001928E-02 0. -1.
    10030    2    1    2    0    0  0.00000000000E+00  0.00000000000E+00 -0.37657420964E+03  0.27135722283E+04  0.26873157803E+04 0.  0.
        2    1    3    3  502    0 -0.46303579897E+02 -0.12597339300E+04 -0.65795841999E+03  0.14219644435E+04  0.25500000920E-02 0. -1.
       -2    1    3    3    0  502  0.46303579897E+02  0.12597339300E+04  0.28138421036E+03  0.12916077848E+04  0.25500000920E-02 0.  1.
</event>
<event>
 5   0  0.1302063E-05  0.2795363E+04  0.7818609E-02  0.8304710E-01
       -2   -1    0    0    0  501  0.00000000000E+00  0.00000000000E+00  0.83064188573E+03  0.83064188573E+03  0.25500000920E-02 0.  1.
        2   -1    0    0  501    0  0.00000000000E+00  0.00000000000E+00 -0.23518114344E+04  0.23518114344E+04  0.25500000920E-02 0. -1.
    10030    2    1    2    0    0  0.00000000000E+00  0.00000000000E+00 -0.15211695486E+04  0.31824533201E+04  0.27953626489E+04 0.  0.
        2    1    3    3  502    0  0.31209822640E+03 -0.13322147494E+04 -0.10852234464E+04  0.17463995448E+04  0.25500000920E-02 0. -1.
       -2    1    3    3    0  502 -0.31209822640E+03  0.13322147494E+04 -0.43594610221E+03  0.14360537753E+04  0.25500000920E-02 0.  1.
</event>
<event>
 5   0  0.5217999E-06  0.3060773E+04  0.7818609E-02  0.8226587E-01
       -1   -1    0    0    0  501  0.00000000000E+00  0.00000000000E+00  0.94380942072E+03  0.94380942073E+03  0.50400001928E-02 0.  1.
        1   -1    0    0  501    0  0.00000000000E+00  0.00000000000E+00 -0.24815202166E+04  0.24815202166E+04  0.50400001928E-02 0. -1.
    10030    2    1    2    0    0  0.00000000000E+00  0.00000000000E+00 -0.15377107959E+04  0.34253296373E+04  0.30607725549E+04 0.  0.
        1    1    3    3  502    0 -0.19078456298E+03  0.14383711890E+04 -0.22430730843E+03  0.14682044120E+04  0.50400001928E-02 0.  1.
       -1    1    3    3    0  502  0.19078456298E+03 -0.14383711890E+04 -0.13134034875E+04  0.19571252253E+04  0.50400001928E-02 0. -1.
</event>
<event>
 5   0  0.1302063E-05  0.2780314E+04  0.7818609E-02  0.8309406E-01
       -2   -1    0    0    0  501  0.00000000000E+00  0.00000000000E+00  0.84975731442E+03  0.84975731442E+03  0.25500000920E-02 0. -1.
        2   -1    0    0  501    0  0.00000000000E+00  0.00000000000E+00 -0.22742214491E+04  0.22742214491E+04  0.25500000920E-02 0.  1.
    10030    2    1    2    0    0  0.00000000000E+00  0.00000000000E+00 -0.14244641347E+04  0.31239787635E+04  0.27803138751E+04 0.  0.
        2    1    3    3  502    0  0.17686618007E+03  0.52664456228E+03 -0.21440701513E+04  0.22148753812E+04  0.25500000920E-02 0.  1.
       -2    1    3    3    0  502 -0.17686618007E+03 -0.52664456228E+03  0.71960601659E+03  0.90910338233E+03  0.25500000920E-02 0. -1.
</event>
<event>
 5   0  0.1283052E-05  0.2804744E+04  0.7818609E-02  0.8301797E-01
        2   -1    0    0  501    0  0.00000000000E+00  0.00000000000E+00  0.17407619545E+04  0.17407619545E+04  0.25500000920E-02 0. -1.
       -2   -1    0    0    0  501  0.00000000000E+00  0.00000000000E+00 -0.11297621364E+04  0.11297621364E+04  0.25500000920E-02 0.  1.
    10030    2    1    2    0    0  0.00000000000E+00  0.00000000000E+00  0.61099981812E+03  0.28705240909E+04  0.28047437991E+04 0.  0.
        5    1    3    3  502    0  0.10314731170E+04 -0.24854760309E+03 -0.63301961977E+03  0.12354952979E+04  0.46999998093E+01 0.  1.
       -5    1    3    3    0  502 -0.10314731170E+04  0.24854760309E+03  0.12440194379E+04  0.16350287930E+04  0.46999998093E+01 0. -1.
</event>
<event>
 5   0  0.1283052E-05  0.2744236E+04  0.7818609E-02  0.8320793E-01
        2   -1    0    0  501    0  0.00000000000E+00  0.00000000000E+00  0.12410317674E+04  0.12410317674E+04  0.25500000920E-02 0. -1.
       -2   -1    0    0    0  501  0.00000000000E+00  0.00000000000E+00 -0.15170510017E+04  0.15170510017E+04  0.25500000920E-02 0.  1.
    10030    2    1    2    0    0  0.00000000000E+00  0.00000000000E+00 -0.27601923424E+03  0.27580827691E+04  0.27442364955E+04 0.  0.
        5    1    3    3  502    0 -0.61804622783E+02  0.77424743182E+03 -0.12748256901E+04  0.14928099434E+04  0.46999998093E+01 0.  1.
       -5    1    3    3    0  502  0.61804622783E+02 -0.77424743182E+03  0.99880645586E+03  0.12652728257E+04  0.46999998093E+01 0. -1.
</event>
<event>
 5   0  0.1283052E-05  0.2730001E+04  0.7818609E-02  0.8325336E-01
        2   -1    0    0  501    0  0.00000000000E+00  0.00000000000E+00  0.15723768250E+04  0.15723768250E+04  0.25500000920E-02 0. -1.
       -2   -1    0    0    0  501  0.00000000000E+00  0.00000000000E+00 -0.11849746336E+04  0.11849746336E+04  0.25500000920E-02 0.  1.
    10030    2    1    2    0    0  0.00000000000E+00  0.00000000000E+00  0.38740219139E+03  0.27573514586E+04  0.27300012103E+04 0.  0.
        5    1    3    3  502    0 -0.40146991247E+03 -0.80476478516E+03  0.12308184203E+04  0.15243885738E+04  0.46999998093E+01 0. -1.
       -5    1    3    3    0  502  0.40146991247E+03  0.80476478516E+03 -0.84341622892E+03  0.12329628848E+04  0.46999998093E+01 0.  1.
</event>
<event>
 5   0  0.4764214E-06  0.2775257E+04  0.7818609E-02  0.8310992E-01
        1   -1    0    0  501    0  0.00000000000E+00  0.00000000000E+00  0.19510140846E+04  0.19510140846E+04  0.50400001928E-02 0.  1.
       -1   -1    0    0    0  501  0.00000000000E+00  0.00000000000E+00 -0.98692889448E+03  0.98692889450E+03  0.50400001928E-02 0. -1.
    10030    2    1    2    0    0  0.00000000000E+00  0.00000000000E+00  0.96408519015E+03  0.29379429791E+04  0.27752565097E+04 0.  0.
        3    1    3    3  502    0  0.25299062403E+03 -0.83856194298E+03 -0.65730133496E+03  0.10950960886E+04  0.10100000352E+00 0. -1.
       -3    1    3    3    0  502 -0.25299062403E+03  0.83856194298E+03  0.16213865251E+04  0.18428468906E+04  0.10100000352E+00 0.  1.
</event>
<event>
 5   0  0.4764214E-06  0.2858079E+04  0.7818609E-02  0.8285461E-01
       -1   -1    0    0    0  501  0.00000000000E+00  0.00000000000E+00  0.90961357464E+03  0.90961357465E+03  0.50400001928E-02 0.  1.
        1   -1    0    0  501    0  0.00000000000E+00  0.00000000000E+00 -0.22450778284E+04  0.22450778284E+04  0.50400001928E-02 0. -1.
    10030    2    1    2    0    0  0.00000000000E+00  0.00000000000E+00 -0.13354642537E+04  0.31546914030E+04  0.28580785635E+04 0.  0.
        3    1    3    3  502    0 -0.97991840176E+03 -0.69937920580E+02 -0.18132318304E+04  0.20622660031E+04  0.10100000352E+00 0. -1.
       -3    1    3    3    0  502  0.97991840176E+03  0.69937920580E+02  0.47776757663E+03  0.10924253999E+04  0.10100000352E+00 0.  1.
</event>
<event>
 5   0  0.4764214E-06  0.2856606E+04  0.7818609E-02  0.8285907E-01
       -1   -1    0    0    0  501  0.00000000000E+00  0.00000000000E+00  0.95376706979E+03  0.95376706980E+03  0.50400001928E-02 0. -1.
        1   -1    0    0  501    0  0.00000000000E+00  0.00000000000E+00 -0.21389389647E+04  0.21389389647E+04  0.50400001928E-02 0.  1.
    10030    2    1    2    0    0  0.00000000000E+00  0.00000000000E+00 -0.11851718949E+04  0.30927060345E+04  0.28566060623E+04 0.  0.
        3    1    3    3  502    0 -0.97530242010E+03 -0.10263281763E+04 -0.79653041677E+03  0.16245076334E+04  0.10100000352E+00 0.  1.
       -3    1    3    3    0  502  0.97530242010E+03  0.10263281763E+04 -0.38864147810E+03  0.14681984010E+04  0.10100000352E+00 0. -1.
</event>
<event>
 5   0  0.1388269E-05  0.2799508E+04  0.7818609E-02  0.8303421E-01
        2   -1    0    0  501    0  0.00000000000E+00  0.00000000000E+00  0.12101909134E+04  0.12101909134E+04  0.25500000920E-02 0. -1.
       -2   -1    0    0    0  501  0.00000000000E+00  0.00000000000E+00 -0.16190098366E+04  0.16190098366E+04  0.25500000920E-02 0.  1.
    10030    2    1    2    0    0  0.00000000000E+00  0.00000000000E+00 -0.40881892315E+03  0.28292007500E+04  0.27995078089E+04 0.  0.
        1    1    3    3  502    0 -0.17662666357E+03  0.10215926103E+04  0.74602419367E+03  0.12772629084E+04  0.50400001928E-02 0. -1.
       -1    1    3    3    0  502  0.17662666357E+03 -0.10215926103E+04 -0.11548431168E+04  0.15519378416E+04  0.50400001928E-02 0.  1.
</event>
<event>
 5   0  0.5023691E-06  0.2771996E+04  0.7818609E-02  0.8312015E-01
       -1   -1    0    0    0  501  0.00000000000E+00  0.00000000000E+00  0.99322229046E+03  0.99322229047E+03  0.50400001928E-02 0. -1.
        1   -1    0    0  501    0  0.00000000000E+00  0.00000000000E+00 -0.19340999158E+04  0.19340999158E+04  0.50400001928E-02 0.  1.
    10030    2    1    2    0    0  0.00000000000E+00  0.00000000000E+00 -0.94087762534E+03  0.29273222063E+04  0.27719964995E+04 0.  0.
        5    1    3    3  502    0 -0.30841838620E+03 -0.11605258876E+04  0.26046085651E+03  0.12287408939E+04  0.46999998093E+01 0. -1.
       -5    1    3    3    0  502  0.30841838620E+03  0.11605258876E+04 -0.12013384818E+04  0.16985813123E+04  0.46999998093E+01 0.  1.
</event>
<event>
 5   0  0.1388269E-05  0.2786727E+04  0.7818609E-02  0.8307401E-01
       -2   -1    0    0    0  501  0.00000000000E+00  0.00000000000E+00  0.15451342518E+04  0.15451342518E+04  0.25500000920E-02 0. -1.
        2   -1    0    0  501    0  0.00000000000E+00  0.00000000000E+00 -0.12565007861E+04  0.12565007861E+04  0.25500000920E-02 0.  1.
    10030    2    1    2    0    0  0.00000000000E+00  0.00000000000E+00  0.28863346566E+03  0.28016350379E+04  0.27867274011E+04 0.  0.
        1    1    3    3  502    0  0.58914202053E+03 -0.82384506959E+03 -0.81769999640E+03  0.13017074568E+04  0.50400001928E-02 0.  1.
       -1    1    3    3    0  502 -0.58914202053E+03  0.82384506959E+03  0.11063334621E+04  0.14999275810E+04  0.50400001928E-02 0. -1.
</event>
<event>
 5   0  0.1350863E-05  0.2785334E+04  0.7818609E-02  0.8307836E-01
        2   -1    0    0  501    0  0.00000000000E+00  0.00000000000E+00  0.19566370263E+04  0.19566370263E+04  0.25500000920E-02 0.  1.
       -2   -1    0    0    0  501  0.00000000000E+00  0.00000000000E+00 -0.99125251432E+03  0.99125251433E+03  0.25500000920E-02 0. -1.
    10030    2    1    2    0    0  0.00000000000E+00  0.00000000000E+00  0.96538451193E+03  0.29478895406E+04  0.27853339993E+04 0.  0.
        3    1    3    3  502    0 -0.39183288614E+03 -0.13162499250E+03  0.18902184867E+04  0.19348860656E+04  0.10100000352E+00 0.  1.
       -3    1    3    3    0  502  0.39183288614E+03  0.13162499250E+03 -0.92483397473E+03  0.10130034750E+04  0.10100000352E+00 0. -1.
</event>
<event>
 5   0  0.1302063E-05  0.2800697E+04  0.7818609E-02  0.8303052E-01
        2   -1    0    0  501    0  0.00000000000E+00  0.00000000000E+00  0.15383320594E+04  0.15383320594E+04  0.25500000920E-02 0.  1.
       -2   -1    0    0    0  501  0.00000000000E+00  0.00000000000E+00 -0.12747420309E+04  0.12747420309E+04  0.25500000920E-02 0. -1.
    10030    2    1    2    0    0  0.00000000000E+00  0.00000000000E+00  0.26359002849E+03  0.28130740903E+04  0.28006974371E+04 0.  0.
        2    1    3    3  502    0  0.83060710760E+03 -0.94733569330E+03 -0.48215362372E+03  0.13490089695E+04  0.25500000920E-02 0. -1.
       -2    1    3    3    0  502 -0.83060710760E+03  0.94733569330E+03  0.74574365221E+03  0.14640651208E+04  0.25500000920E-02 0.  1.
</event>
<event>
 5   0  0.5107453E-06  0.2830192E+04  0.7818609E-02  0.8293956E-01
        1   -1    0    0  501    0  0.00000000000E+00  0.00000000000E+00  0.35111298639E+04  0.35111298639E+04  0.50400001928E-02 0.  1.
       -1   -1    0    0    0  501  0.00000000000E+00  0.00000000000E+00 -0.57032813139E+03  0.57032813142E+03  0.50400001928E-02 0. -1.
    10030    2    1    2    0    0  0.00000000000E+00  0.00000000000E+00  0.29408017325E+04  0.40814579953E+04  0.28301916079E+04 0.  0.
        2    1    3    3  502    0 -0.10103131689E+04  0.98828893762E+03  0.15728661721E+04  0.21145580434E+04  0.25500000920E-02 0.  1.
       -2    1    3    3    0  502  0.10103131689E+04 -0.98828893762E+03  0.13679355603E+04  0.19668999519E+04  0.25500000920E-02 0. -1.
</event>
<event>
 5   0  0.1283052E-05  0.2081070E+04  0.7818609E-02  0.8569628E-01
       -2   -1    0    0    0  501  0.00000000000E+00  0.00000000000E+00  0.12246865954E+04  0.12246865954E+04  0.25500000920E-02 0.  1.
        2   -1    0    0  501    0  0.00000000000E+00  0.00000000000E+00 -0.88407383391E+03  0.88407383392E+03  0.25500000920E-02 0. -1.
    10030    2    1    2    0    0  0.00000000000E+00  0.00000000000E+00  0.34061276149E+03  0.21087604293E+04  0.20810702763E+04 0.  0.
        5    1    3    3  502    0 -0.44115125480E+03  0.12493287279E+03  0.11167950253E+04  0.12072596534E+04  0.46999998093E+01 0.  1.
       -5    1    3    3    0  502  0.44115125480E+03 -0.12493287279E+03 -0.77618226379E+03  0.90150077589E+03  0.46999998093E+01 0. -1.
</event>
<event>
 5   0  0.4447500E-06  0.2751429E+04  0.7818609E-02  0.8318508E-01
        3   -1    0    0  501    0  0.00000000000E+00  0.00000000000E+00  0.13535888783E+04  0.13535888821E+04  0.10100000352E+00 0. -1.
       -3   -1    0    0    0  501  0.00000000000E+00  0.00000000000E+00 -0.13982018297E+04  0.13982018333E+04  0.10100000352E+00 0.  1.
    10030    2    1    2    0    0  0.00000000000E+00  0.00000000000E+00 -0.44612951337E+02  0.27517907154E+04  0.27514290516E+04 0.  0.
        3    1    3    3  502    0 -0.97299321311E+03  0.16843588539E+03 -0.98029667711E+03  0.13914266152E+04  0.10100000352E+00 0.  1.
       -3    1    3    3    0  502  0.97299321311E+03 -0.16843588539E+03  0.93568372577E+03  0.13603641002E+04  0.10100000352E+00 0. -1.
</event>
<event>
 5   0  0.1283052E-05  0.2786644E+04  0.7818609E-02  0.8307427E-01
        2   -1    0    0  501    0  0.00000000000E+00  0.00000000000E+00  0.25762577277E+04  0.25762577277E+04  0.25500000920E-02 0.  1.
       -2   -1    0    0    0  501  0.00000000000E+00  0.00000000000E+00 -0.75355280209E+03  0.75355280210E+03  0.25500000920E-02 0. -1.
    10030    2    1    2    0    0  0.00000000000E+00  0.00000000000E+00  0.18227049256E+04  0.33298105298E+04  0.27866440244E+04 0.  0.
        5    1    3    3  502    0 -0.47753527701E+03 -0.98653752074E+03  0.19392790063E+04  0.22275819569E+04  0.46999998093E+01 0.  1.
       -5    1    3    3    0  502  0.47753527701E+03  0.98653752074E+03 -0.11657408066E+03  0.11022285729E+04  0.46999998093E+01 0. -1.
</event>
<event>
 5   0  0.1388269E-05  0.2614507E+04  0.7818609E-02  0.8363290E-01
        2   -1    0    0  501    0  0.00000000000E+00  0.00000000000E+00  0.11276905267E+04  0.11276905267E+04  0.25500000920E-02 0.  1.
       -2   -1    0    0    0  501  0.00000000000E+00  0.00000000000E+00 -0.15154085357E+04  0.15154085357E+04  0.25500000920E-02 0. -1.
    10030    2    1    2    0    0  0.00000000000E+00  0.00000000000E+00 -0.38771800901E+03  0.26430990625E+04  0.26145071045E+04 0.  0.
        1    1    3    3  502    0 -0.76844381801E+03 -0.36948942706E+03  0.80787772526E+03  0.11746040853E+04  0.50400001928E-02 0.  1.
       -1    1    3    3    0  502  0.76844381801E+03  0.36948942706E+03 -0.11955957343E+04  0.14684949772E+04  0.50400001928E-02 0. -1.
</event>
<event>
 5   0  0.1330962E-05  0.2782383E+04  0.7818609E-02  0.8308759E-01
        2   -1    0    0  501    0  0.00000000000E+00  0.00000000000E+00  0.23025214503E+04  0.23025214503E+04  0.25500000920E-02 0. -1.
       -2   -1    0    0    0  501  0.00000000000E+00  0.00000000000E+00 -0.84056298093E+03  0.84056298093E+03  0.25500000920E-02 0.  1.
    10030    2    1    2    0    0  0.00000000000E+00  0.00000000000E+00  0.14619584694E+04  0.31430844312E+04  0.27823833624E+04 0.  0.
        4    1    3    3  502    0  0.76284966019E+03 -0.11633174271E+04  0.74551783486E+03  0.15783046269E+04  0.12699999809E+01 0. -1.
       -4    1    3    3    0  502 -0.76284966019E+03  0.11633174271E+04  0.71644063450E+03  0.15647798043E+04  0.12699999809E+01 0.  1.
</event>
<event>
 5   0  0.5107453E-06  0.2813443E+04  0.7818609E-02  0.8299107E-01
       -1   -1    0    0    0  501  0.00000000000E+00  0.00000000000E+00  0.10973517058E+04  0.10973517058E+04  0.50400001928E-02 0.  1.
        1   -1    0    0  501    0  0.00000000000E+00  0.00000000000E+00 -0.18033095450E+04  0.18033095450E+04  0.50400001928E-02 0. -1.
    10030    2    1    2    0    0  0.00000000000E+00  0.00000000000E+00 -0.70595783918E+03  0.29006612508E+04  0.28134425925E+04 0.  0.
        2    1    3    3  502    0  0.63173075880E+03  0.11236742806E+04 -0.93358626403E+03  0.15916378209E+04  0.25500000920E-02 0. -1.
       -2    1    3    3    0  502 -0.63173075880E+03 -0.11236742806E+04  0.22762842485E+03  0.13090234300E+04  0.25500000920E-02 0.  1.
</event>
<event>
 5   0  0.5107453E-06  0.2745142E+04  0.7818609E-02  0.8320505E-01
       -1   -1    0    0    0  501  0.00000000000E+00  0.00000000000E+00  0.12212477470E+04  0.12212477470E+04  0.50400001928E-02 0. -1.
        1   -1    0    0  501    0  0.00000000000E+00  0.00000000000E+00 -0.15426442229E+04  0.15426442229E+04  0.50400001928E-02 0.  1.
    10030    2    1    2    0    0  0.00000000000E+00  0.00000000000E+00 -0.32139647592E+03  0.27638919699E+04  0.27451417316E+04 0.  0.
        2    1    3    3  502    0 -0.45311583798E+03 -0.74282585389E+03 -0.12294791420E+04  0.15062281276E+04  0.25500000920E-02 0.  1.
       -2    1    3    3    0  502  0.45311583798E+03  0.74282585389E+03  0.90808266606E+03  0.12576638423E+04  0.25500000920E-02 0. -1.
</event>
<event>
 5   0  0.1283052E-05  0.2814000E+04  0.7818609E-02  0.8298935E-01
       -2   -1    0    0    0  501  0.00000000000E+00  0.00000000000E+00  0.12990483385E+04  0.12990483385E+04  0.25500000920E-02 0. -1.
        2   -1    0    0  501    0  0.00000000000E+00  0.00000000000E+00 -0.15239221660E+04  0.15239221660E+04  0.25500000920E-02 0.  1.
    10030    2    1    2    0    0  0.00000000000E+00  0.00000000000E+00 -0.22487382755E+03  0.28229705045E+04  0.28139996857E+04 0.  0.
        5    1    3    3  502    0 -0.12206948798E+03  0.11351704745E+04  0.71244560553E+03  0.13457762804E+04  0.46999998093E+01 0. -1.
       -5    1    3    3    0  502  0.12206948798E+03 -0.11351704745E+04 -0.93731943308E+03  0.14771942241E+04  0.46999998093E+01 0.  1.
</event>
<event>
 5   0  0.1350863E-05  0.2754978E+04  0.7818609E-02  0.8317384E-01
       -2   -1    0    0    0  501  0.00000000000E+00  0.00000000000E+00  0.89438754248E+03  0.89438754249E+03  0.25500000920E-02 0.  1.
        2   -1    0    0  501    0  0.00000000000E+00  0.00000000000E+00 -0.21215365087E+04  0.21215365087E+04  0.25500000920E-02 0. -1.
    10030    2    1    2    0    0  0.00000000000E+00  0.00000000000E+00 -0.12271489662E+04  0.30159240512E+04  0.27549779123E+04 0.  0.
        3    1    3    3  502    0 -0.63676316941E+03  0.12081599116E+04 -0.41665266316E+03  0.14278365305E+04  0.10100000352E+00 0.  1.
       -3    1    3    3    0  502  0.63676316941E+03 -0.12081599116E+04 -0.81049630306E+03  0.15880875207E+04  0.10100000352E+00 0. -1.
</event>
<event>
 5   0  0.5107453E-06  0.2778361E+04  0.7818609E-02  0.8310018E-01
       -1   -1    0    0    0  501  0.00000000000E+00  0.00000000000E+00  0.13651365818E+04  0.13651365818E+04  0.50400001928E-02 0. -1.
        1   -1    0    0  501    0  0.00000000000E+00  0.00000000000E+00 -0.14136483287E+04  0.14136483287E+04  0.50400001928E-02 0.  1.
    10030    2    1    2    0    0  0.00000000000E+00  0.00000000000E+00 -0.48511746933E+02  0.27787849105E+04  0.27783614216E+04 0.  0.
        2    1    3    3  502    0  0.56250838092E+03  0.11647711954E+04  0.48249228495E+03  0.13805456969E+04  0.25500000920E-02 0. -1.
       -2    1    3    3    0  502 -0.56250838092E+03 -0.11647711954E+04 -0.53100403188E+03  0.13982392135E+04  0.25500000920E-02 0.  1.
</event>
<event>
 5   0  0.1302063E-05  0.2772642E+04  0.7818609E-02  0.8311813E-01
       -2   -1    0    0    0  501  0.00000000000E+00  0.00000000000E+00  0.10641362662E+04  0.10641362662E+04  0.25500000920E-02 0.  1.
        2   -1    0    0  501    0  0.00000000000E+00  0.00000000000E+00 -0.18060526581E+04  0.18060526581E+04  0.25500000920E-02 0. -1.
    10030    2    1    2    0    0  0.00000000000E+00  0.00000000000E+00 -0.74191639189E+03  0.28701889242E+04  0.27726421565E+04 0.  0.
        2    1    3    3  502    0 -0.47456932999E+03 -0.25803293174E+03  0.95070967393E+03  0.10934559557E+04  0.25500000920E-02 0.  1.
       -2    1    3    3    0  502  0.47456932999E+03  0.25803293174E+03 -0.16926260658E+04  0.17767329686E+04  0.25500000920E-02 0. -1.
</event>
<event>
 5   0  0.5281919E-06  0.2808307E+04  0.7818609E-02  0.8300694E-01
        1   -1    0    0  501    0  0.00000000000E+00  0.00000000000E+00  0.14255556007E+04  0.14255556007E+04  0.50400001928E-02 0.  1.
       -1   -1    0    0    0  501  0.00000000000E+00  0.00000000000E+00 -0.13830724570E+04  0.13830724570E+04  0.50400001928E-02 0. -1.
    10030    2    1    2    0    0  0.00000000000E+00  0.00000000000E+00  0.42483143758E+02  0.28086280577E+04  0.28083067406E+04 0.  0.
        4    1    3    3  502    0 -0.39096296115E+02  0.42496431756E+03 -0.13166416101E+04  0.13840772861E+04  0.12699999809E+01 0. -1.
       -4    1    3    3    0  502  0.39096296115E+02 -0.42496431756E+03  0.13591247538E+04  0.14245507716E+04  0.12699999809E+01 0.  1.
</event>
<event>
 5   0  0.4764214E-06  0.2408448E+04  0.7818609E-02  0.8436348E-01
        1   -1    0    0  501    0  0.00000000000E+00  0.00000000000E+00  0.26199918024E+04  0.26199918024E+04  0.50400001928E-02 0.  1.
       -1   -1    0    0    0  501  0.00000000000E+00  0.00000000000E+00 -0.55349595510E+03  0.55349595512E+03  0.50400001928E-02 0. -1.
    10030    2    1    2    0    0  0.00000000000E+00  0.00000000000E+00  0.20664958473E+04  0.31734877575E+04  0.24084475207E+04 0.  0.
        3    1    3    3  502    0 -0.24280239864E+03  0.97108100940E+03  0.19153874309E+04  0.21611710604E+04  0.10100000352E+00 0.  1.
       -3    1    3    3    0  502  0.24280239864E+03 -0.97108100940E+03  0.15110841641E+03  0.10123166971E+04  0.10100000352E+00 0. -1.
</event>
<event>
 5   0  0.1388269E-05  0.2803071E+04  0.7818609E-02  0.8302316E-01
       -2   -1    0    0    0  501  0.00000000000E+00  0.00000000000E+00  0.68753499166E+03  0.68753499167E+03  0.25500000920E-02 0.  1.
        2   -1    0    0  501    0  0.00000000000E+00  0.00000000000E+00 -0.28570203230E+04  0.28570203230E+04  0.25500000920E-02 0. -1.
    10030    2    1    2    0    0  0.00000000000E+00  0.00000000000E+00 -0.21694853314E+04  0.35445553147E+04  0.28030707761E+04 0.  0.
        1    1    3    3  502    0 -0.10910545716E+04 -0.44881821773E+03 -0.20414996098E+04  0.23578716097E+04  0.50400001928E-02 0. -1.
       -1    1    3    3    0  502  0.10910545716E+04  0.44881821773E+03 -0.12798572154E+03  0.11866837050E+04  0.50400001928E-02 0.  1.
</event>
<event>
 5   0  0.5107453E-06  0.2810774E+04  0.7818609E-02  0.8299931E-01
        1   -1    0    0  501    0  0.00000000000E+00  0.00000000000E+00  0.15506442601E+04  0.15506442601E+04  0.50400001928E-02 0.  1.
       -1   -1    0    0    0  501  0.00000000000E+00  0.00000000000E+00 -0.12737365743E+04  0.12737365743E+04  0.50400001928E-02 0. -1.
    10030    2    1    2    0    0  0.00000000000E+00  0.00000000000E+00  0.27690768583E+03  0.28243808344E+04  0.28107737780E+04 0.  0.
        2    1    3    3  502    0  0.76678856426E+03  0.70377251736E+03  0.10874046972E+04  0.15052273695E+04  0.25500000920E-02 0.  1.
       -2    1    3    3    0  502 -0.76678856426E+03 -0.70377251736E+03 -0.81049701135E+03  0.13191534649E+04  0.25500000920E-02 0. -1.
</event>
<event>
 5   0  0.1388269E-05  0.2047513E+04  0.7818609E-02  0.8584723E-01
        2   -1    0    0  501    0  0.00000000000E+00  0.00000000000E+00  0.17339061578E+04  0.17339061578E+04  0.25500000920E-02 0.  1.
       -2   -1    0    0    0  501  0.00000000000E+00  0.00000000000E+00 -0.60446030526E+03  0.60446030527E+03  0.25500000920E-02 0. -1.
    10030    2    1    2    0    0  0.00000000000E+00  0.00000000000E+00  0.11294458525E+04  0.23383664630E+04  0.20475130724E+04 0.  0.
        1    1    3    3  502    0 -0.99470814709E+03  0.22509005010E+03  0.66666421307E+03  0.12184215205E+04  0.50400001928E-02 0.  1.
       -1    1    3    3    0  502  0.99470814709E+03 -0.22509005010E+03  0.46278163944E+03  0.11199449426E+04  0.50400001928E-02 0. -1.
</event>
<event>
 5   0  0.1350863E-05  0.2451991E+04  0.7818609E-02  0.8420292E-01
       -2   -1    0    0    0  501  0.00000000000E+00  0.00000000000E+00  0.69070653338E+03  0.69070653338E+03  0.25500000920E-02 0. -1.
        2   -1    0    0  501    0  0.00000000000E+00  0.00000000000E+00 -0.21761259491E+04  0.21761259491E+04  0.25500000920E-02 0.  1.
    10030    2    1    2    0    0  0.00000000000E+00  0.00000000000E+00 -0.14854194157E+04  0.28668324824E+04  0.24519905469E+04 0.  0.
        3    1    3    3  502    0 -0.63377844252E+03  0.92321491060E+02  0.47955982998E+03  0.80011000035E+03  0.10100000352E+00 0. -1.
       -3    1    3    3    0  502  0.63377844252E+03 -0.92321491060E+02 -0.19649792457E+04  0.20667224821E+04  0.10100000352E+00 0.  1.
</event>
<event>
 5   0  0.5217999E-06  0.2801445E+04  0.7818609E-02  0.8302820E-01
        1   -1    0    0  501    0  0.00000000000E+00  0.00000000000E+00  0.14642490184E+04  0.14642490184E+04  0.50400001928E-02 0.  1.
       -1   -1    0    0    0  501  0.00000000000E+00  0.00000000000E+00 -0.13399523303E+04  0.13399523303E+04  0.50400001928E-02 0. -1.
    10030    2    1    2    0    0  0.00000000000E+00  0.00000000000E+00  0.12429668810E+03  0.28042013488E+04  0.28014452588E+04 0.  0.
        1    1    3    3  502    0 -0.93573689606E+03 -0.42460699033E+03 -0.89069636770E+03  0.13598656751E+04  0.50400001928E-02 0. -1.
       -1    1    3    3    0  502  0.93573689606E+03  0.42460699033E+03  0.10149930558E+04  0.14443356737E+04  0.50400001928E-02 0.  1.
</event>
<event>
 5   0  0.5217999E-06  0.2502408E+04  0.7818609E-02  0.8402128E-01
       -1   -1    0    0    0  501  0.00000000000E+00  0.00000000000E+00  0.12160256146E+04  0.12160256146E+04  0.50400001928E-02 0.  1.
        1   -1    0    0  501    0  0.00000000000E+00  0.00000000000E+00 -0.12873995777E+04  0.12873995777E+04  0.50400001928E-02 0. -1.
    10030    2    1    2    0    0  0.00000000000E+00  0.00000000000E+00 -0.71373963097E+02  0.25034251923E+04  0.25024075309E+04 0.  0.
        1    1    3    3  502    0 -0.86178890202E+03  0.28142364103E+03 -0.89837837355E+03  0.12763083795E+04  0.50400001928E-02 0. -1.
       -1    1    3    3    0  502  0.86178890202E+03 -0.28142364103E+03  0.82700441046E+03  0.12271168128E+04  0.50400001928E-02 0.  1.
</event>
<event>
 5   0  0.1388269E-05  0.2832772E+04  0.7818609E-02  0.8293165E-01
       -2   -1    0    0    0  501  0.00000000000E+00  0.00000000000E+00  0.10644002236E+04  0.10644002236E+04  0.25500000920E-02 0.  1.
        2   -1    0    0  501    0  0.00000000000E+00  0.00000000000E+00 -0.18847701613E+04  0.18847701613E+04  0.25500000920E-02 0. -1.
    10030    2    1    2    0    0  0.00000000000E+00  0.00000000000E+00 -0.82036993769E+03  0.29491703848E+04  0.28327723389E+04 0.  0.
        1    1    3    3  502    0 -0.10773033226E+04  0.13564024524E+03 -0.13570440108E+04  0.17379727190E+04  0.50400001928E-02 0. -1.
       -1    1    3    3    0  502  0.10773033226E+04 -0.13564024524E+03  0.53667407308E+03  0.12111976658E+04  0.50400001928E-02 0.  1.
</event>
<event>
 5   0  0.5107453E-06  0.2800475E+04  0.7818609E-02  0.8303121E-01
       -1   -1    0    0    0  501  0.00000000000E+00  0.00000000000E+00  0.80831160358E+03  0.80831160359E+03  0.50400001928E-02 0.  1.
        1   -1    0    0  501    0  0.00000000000E+00  0.00000000000E+00 -0.24256296984E+04  0.24256296985E+04  0.50400001928E-02 0. -1.
    10030    2    1    2    0    0  0.00000000000E+00  0.00000000000E+00 -0.16173180949E+04  0.32339413020E+04  0.28004746964E+04 0.  0.
        2    1    3    3  502    0  0.85309435378E+03 -0.15241147866E+03  0.46142689330E+03  0.98179122686E+03  0.25500000920E-02 0.  1.
       -2    1    3    3    0  502 -0.85309435378E+03  0.15241147866E+03 -0.20787449882E+04  0.22521500752E+04  0.25500000920E-02 0. -1.
</event>
<event>
 5   0  0.5217999E-06  0.2762858E+04  0.7818609E-02  0.8314893E-01
        1   -1    0    0  501    0  0.00000000000E+00  0.00000000000E+00  0.18055540374E+04  0.18055540374E+04  0.50400001928E-02 0.  1.
       -1   -1    0    0    0  501  0.00000000000E+00  0.00000000000E+00 -0.10569307317E+04  0.10569307317E+04  0.50400001928E-02 0. -1.
    10030    2    1    2    0    0  0.00000000000E+00  0.00000000000E+00  0.74862330574E+03  0.28624847691E+04  0.27628576148E+04 0.  0.
        1    1    3    3  502    0  0.82392059651E+03 -0.42832308734E+03 -0.68532938973E+03  0.11541153274E+04  0.50400001928E-02 0. -1.
       -1    1    3    3    0  502 -0.82392059651E+03  0.42832308734E+03  0.14339526955E+04  0.17083694417E+04  0.50400001928E-02 0.  1.
</event>
<event>
 5   0  0.1350863E-05  0.2783605E+04  0.7818609E-02  0.8308376E-01
        2   -1    0    0  501    0  0.00000000000E+00  0.00000000000E+00  0.12811707332E+04  0.12811707332E+04  0.25500000920E-02 0. -1.
       -2   -1    0    0    0  501  0.00000000000E+00  0.00000000000E+00 -0.15119877364E+04  0.15119877364E+04  0.25500000920E-02 0.  1.
    10030    2    1    2    0    0  0.00000000000E+00  0.00000000000E+00 -0.23081700314E+03  0.27931584696E+04  0.27836051709E+04 0.  0.
        3    1    3    3  502    0  0.11110559049E+03 -0.43661034624E+03  0.12059789925E+04  0.12873843199E+04  0.10100000352E+00 0. -1.
       -3    1    3    3    0  502 -0.11110559049E+03  0.43661034624E+03 -0.14367959956E+04  0.15057741497E+04  0.10100000352E+00 0.  1.
</event>
<event>
 5   0  0.5281919E-06  0.2827186E+04  0.7818609E-02  0.8294878E-01
        1   -1    0    0  501    0  0.00000000000E+00  0.00000000000E+00  0.13079706927E+04  0.13079706927E+04  0.50400001928E-02 0.  1.
       -1   -1    0    0    0  501  0.00000000000E+00  0.00000000000E+00 -0.15277441398E+04  0.15277441398E+04  0.50400001928E-02 0. -1.
    10030    2    1    2    0    0  0.00000000000E+00  0.00000000000E+00 -0.21977344703E+03  0.28357148325E+04  0.28271855693E+04 0.  0.
        4    1    3    3  502    0 -0.98663376356E+03 -0.68034777414E+03 -0.86176390176E+03  0.14761293685E+04  0.12699999809E+01 0. -1.
       -4    1    3    3    0  502  0.98663376356E+03  0.68034777414E+03  0.64199045473E+03  0.13595854640E+04  0.12699999809E+01 0.  1.
</event>
<event>
 5   0  0.5217999E-06  0.2797270E+04  0.7818609E-02  0.8304116E-01
       -1   -1    0    0    0  501  0.00000000000E+00  0.00000000000E+00  0.15307765645E+04  0.15307765645E+04  0.50400001928E-02 0. -1.
        1   -1    0    0  501    0  0.00000000000E+00  0.00000000000E+00 -0.12779002326E+04  0.12779002326E+04  0.50400001928E-02 0.  1.
    10030    2    1    2    0    0  0.00000000000E+00  0.00000000000E+00  0.25287633194E+03  0.28086767971E+04  0.27972699032E+04 0.  0.
        1    1    3    3  502    0  0.27771296686E+03 -0.27271559431E+03 -0.12224242997E+04  0.12828949512E+04  0.50400001928E-02 0.  1.
       -1    1    3    3    0  502 -0.27771296686E+03  0.27271559431E+03  0.14753006317E+04  0.15257818459E+04  0.50400001928E-02 0. -1.
</event>
<event>
 5   0  0.5217999E-06  0.2710874E+04  0.7818609E-02  0.8331486E-01
        1   -1    0    0  501    0  0.00000000000E+00  0.00000000000E+00  0.22398170369E+04  0.22398170369E+04  0.50400001928E-02 0.  1.
       -1   -1    0    0    0  501  0.00000000000E+00  0.00000000000E+00 -0.82024951692E+03  0.82024951693E+03  0.50400001928E-02 0. -1.
    10030    2    1    2    0    0  0.00000000000E+00  0.00000000000E+00  0.14195675200E+04  0.30600665538E+04  0.27108735437E+04 0.  0.
        1    1    3    3  502    0  0.10602669294E+04  0.75922041546E+03  0.11270279165E+04  0.17235932018E+04  0.50400001928E-02 0. -1.
       -1    1    3    3    0  502 -0.10602669294E+04 -0.75922041546E+03  0.29253960348E+03  0.13364733520E+04  0.50400001928E-02 0.  1.
</event>
<event>
 5   0  0.1302063E-05  0.2561085E+04  0.7818609E-02  0.8381541E-01
       -2   -1    0    0    0  501  0.00000000000E+00  0.00000000000E+00  0.86878888071E+03  0.86878888071E+03  0.25500000920E-02 0. -1.
        2   -1    0    0  501    0  0.00000000000E+00  0.00000000000E+00 -0.18874422617E+04  0.18874422617E+04  0.25500000920E-02 0.  1.
    10030    2    1    2    0    0  0.00000000000E+00  0.00000000000E+00 -0.10186533809E+04  0.27562311424E+04  0.25610848092E+04 0.  0.
        2    1    3    3  502    0 -0.65375447802E+03  0.30423247678E+03 -0.16481831541E+04  0.17990164054E+04  0.25500000920E-02 0.  1.
       -2    1    3    3    0  502  0.65375447802E+03 -0.30423247678E+03  0.62952977312E+03  0.95721473699E+03  0.25500000920E-02 0. -1.
</event>
<event>
 5   0  0.1330962E-05  0.2802571E+04  0.7818609E-02  0.8302471E-01
       -2   -1    0    0    0  501  0.00000000000E+00  0.00000000000E+00  0.11089115878E+04  0.11089115879E+04  0.25500000920E-02 0. -1.
        2   -1    0    0  501    0  0.00000000000E+00  0.00000000000E+00 -0.17707461982E+04  0.17707461982E+04  0.25500000920E-02 0.  1.
    10030    2    1    2    0    0  0.00000000000E+00  0.00000000000E+00 -0.66183461033E+03  0.28796577860E+04  0.28025709470E+04 0.  0.
        4    1    3    3  502    0 -0.11738142643E+04 -0.42333233370E+02 -0.11161141434E+04  0.16202914625E+04  0.12699999809E+01 0.  1.
       -4    1    3    3    0  502  0.11738142643E+04  0.42333233370E+02  0.45427953302E+03  0.12593663235E+04  0.12699999809E+01 0. -1.
</event>
<event>
 5   0  0.1350863E-05  0.2863319E+04  0.7818609E-02  0.8283876E-01
        2   -1    0    0  501    0  0.00000000000E+00  0.00000000000E+00  0.20266232644E+04  0.20266232644E+04  0.25500000920E-02 0.  1.
       -2   -1    0    0    0  501  0.00000000000E+00  0.00000000000E+00 -0.10113613072E+04  0.10113613072E+04  0.25500000920E-02 0. -1.
    10030    2    1    2    0    0  0.00000000000E+00  0.00000000000E+00  0.10152619572E+04  0.30379845716E+04  0.28633186018E+04 0.  0.
        3    1    3    3  502    0 -0.85211066724E+03  0.40921564615E+03 -0.63317889767E+03  0.11377458244E+04  0.10100000352E+00 0.  1.
       -3    1    3    3    0  502  0.85211066724E+03 -0.40921564615E+03  0.16484408548E+04  0.19002387472E+04  0.10100000352E+00 0. -1.
</event>
<event>
 5   0  0.4764214E-06  0.3051374E+04  0.7818609E-02  0.8229211E-01
        1   -1    0    0  501    0  0.00000000000E+00  0.00000000000E+00  0.21004722754E+04  0.21004722754E+04  0.50400001928E-02 0.  1.
       -1   -1    0    0    0  501  0.00000000000E+00  0.00000000000E+00 -0.11081891632E+04  0.11081891632E+04  0.50400001928E-02 0. -1.
    10030    2    1    2    0    0  0.00000000000E+00  0.00000000000E+00  0.99228311221E+03  0.32086614386E+04  0.30513738632E+04 0.  0.
        3    1    3    3  502    0 -0.50044435791E+03  0.12510434363E+04  0.12486892019E+04  0.18370571488E+04  0.10100000352E+00 0.  1.
       -3    1    3    3    0  502  0.50044435791E+03 -0.12510434363E+04 -0.25640608970E+03  0.13716042898E+04  0.10100000352E+00 0. -1.
</event>
<event>
 5   0  0.1283052E-05  0.2810856E+04  0.7818609E-02  0.8299906E-01
       -2   -1    0    0    0  501  0.00000000000E+00  0.00000000000E+00  0.92508593490E+03  0.92508593490E+03  0.25500000920E-02 0. -1.
        2   -1    0    0  501    0  0.00000000000E+00  0.00000000000E+00 -0.21351827056E+04  0.21351827056E+04  0.25500000920E-02 0.  1.
    10030    2    1    2    0    0  0.00000000000E+00  0.00000000000E+00 -0.12100967707E+04  0.30602686406E+04  0.28108557341E+04 0.  0.
        5    1    3    3  502    0 -0.95075749404E+03 -0.79468837355E+03 -0.13270147995E+04  0.18156155407E+04  0.46999998093E+01 0.  1.
       -5    1    3    3    0  502  0.95075749404E+03  0.79468837355E+03  0.11691802875E+03  0.12446530999E+04  0.46999998093E+01 0. -1.
</event>
<event>
 5   0  0.1302063E-05  0.2943279E+04  0.7818609E-02  0.8260116E-01
       -2   -1    0    0    0  501  0.00000000000E+00  0.00000000000E+00  0.17720663372E+04  0.17720663372E+04  0.25500000920E-02 0. -1.
        2   -1    0    0  501    0  0.00000000000E+00  0.00000000000E+00 -0.12221451274E+04  0.12221451274E+04  0.25500000920E-02 0.  1.
    10030    2    1    2    0    0  0.00000000000E+00  0.00000000000E+00  0.54992120985E+03  0.29942114646E+04  0.29432786068E+04 0.  0.
        2    1    3    3  502    0  0.12829113604E+04 -0.45014790163E+03 -0.29801554112E+03  0.13918721043E+04  0.25500000920E-02 0. -1.
       -2    1    3    3    0  502 -0.12829113604E+04  0.45014790163E+03  0.84793675097E+03  0.16023393603E+04  0.25500000920E-02 0.  1.
</event>
<event>
 5   0  0.4764214E-06  0.2656150E+04  0.7818609E-02  0.8349375E-01
       -1   -1    0    0    0  501  0.00000000000E+00  0.00000000000E+00  0.67653833075E+03  0.67653833077E+03  0.50400001928E-02 0. -1.
        1   -1    0    0  501    0  0.00000000000E+00  0.00000000000E+00 -0.26070709048E+04  0.26070709049E+04  0.50400001928E-02 0.  1.
    10030    2    1    2    0    0  0.00000000000E+00  0.00000000000E+00 -0.19305325741E+04  0.32836092356E+04  0.26561501450E+04 0.  0.
        3    1    3    3  502    0  0.69417912285E+03 -0.43086844137E+03 -0.22596226786E+04  0.24027956484E+04  0.10100000352E+00 0.  1.
       -3    1    3    3    0  502 -0.69417912285E+03  0.43086844137E+03  0.32909010446E+03  0.88081358722E+03  0.10100000352E+00 0. -1.
</event>
<event>
 5   0  0.1283052E-05  0.2791305E+04  0.7818609E-02  0.8305973E-01
        2   -1    0    0  501    0  0.00000000000E+00  0.00000000000E+00  0.18895164823E+04  0.18895164823E+04  0.25500000920E-02 0. -1.
       -2   -1    0    0    0  501  0.00000000000E+00  0.00000000000E+00 -0.10308700553E+04  0.10308700553E+04  0.25500000920E-02 0.  1.
    10030    2    1    2    0    0  0.00000000000E+00  0.00000000000E+00  0.85864642703E+03  0.29203865376E+04  0.27913050429E+04 0.  0.
        5    1    3    3  502    0 -0.63071290157E+03  0.11326676381E+04 -0.11138272907E+03  0.13012159486E+04  0.46999998093E+01 0.  1.
       -5    1    3    3    0  502  0.63071290157E+03 -0.11326676381E+04  0.97002915609E+03  0.16191705890E+04  0.46999998093E+01 0. -1.
</event>
<event>
 5   0  0.4447500E-06  0.2848066E+04  0.7818609E-02  0.8288499E-01
       -3   -1    0    0    0  501  0.00000000000E+00  0.00000000000E+00  0.12106656442E+04  0.12106656484E+04  0.10100000352E+00 0.  1.
        3   -1    0    0  501    0  0.00000000000E+00  0.00000000000E+00 -0.16750045397E+04  0.16750045428E+04  0.10100000352E+00 0. -1.
    10030    2    1    2    0    0  0.00000000000E+00  0.00000000000E+00 -0.46433889557E+03  0.28856701912E+04  0.28480663339E+04 0.  0.
        2    1    3    3  502    0  0.13190946960E+04 -0.30205207919E+03 -0.68144735271E+03  0.15151292915E+04  0.25500000920E-02 0. -1.
       -2    1    3    3    0  502 -0.13190946960E+04  0.30205207919E+03  0.21710845715E+03  0.13705408996E+04  0.25500000920E-02 0.  1.
</event>
<event>
 5   0  0.1283052E-05  0.2653685E+04  0.7818609E-02  0.8350191E-01
       -2   -1    0    0    0  501  0.00000000000E+00  0.00000000000E+00  0.11583512676E+04  0.11583512676E+04  0.25500000920E-02 0. -1.
        2   -1    0    0  501    0  0.00000000000E+00  0.00000000000E+00 -0.15198419357E+04  0.15198419357E+04  0.25500000920E-02 0.  1.
    10030    2    1    2    0    0  0.00000000000E+00  0.00000000000E+00 -0.36149066812E+03  0.26781932032E+04  0.26536848590E+04 0.  0.
        5    1    3    3  502    0  0.98001986422E+03  0.72475534181E+03  0.34829005417E+03  0.12676897458E+04  0.46999998093E+01 0. -1.
       -5    1    3    3    0  502 -0.98001986422E+03 -0.72475534181E+03 -0.70978072229E+03  0.14105034575E+04  0.46999998093E+01 0.  1.
</event>
<event>
 5   0  0.1388269E-05  0.2800632E+04  0.7818609E-02  0.8303072E-01
        2   -1    0    0  501    0  0.00000000000E+00  0.00000000000E+00  0.14475657175E+04  0.14475657175E+04  0.25500000920E-02 0. -1.
       -2   -1    0    0    0  501  0.00000000000E+00  0.00000000000E+00 -0.13546084585E+04  0.13546084585E+04  0.25500000920E-02 0.  1.
    10030    2    1    2    0    0  0.00000000000E+00  0.00000000000E+00  0.92957258974E+02  0.28021741761E+04  0.28006319039E+04 0.  0.
        1    1    3    3  502    0  0.58086820467E+03  0.12675712119E+04 -0.82976223987E+02  0.13967926482E+04  0.50400001928E-02 0. -1.
       -1    1    3    3    0  502 -0.58086820467E+03 -0.12675712119E+04  0.17593348296E+03  0.14053815278E+04  0.50400001928E-02 0.  1.
</event>
<event>
 5   0  0.1330962E-05  0.2452900E+04  0.7818609E-02  0.8419960E-01
        2   -1    0    0  501    0  0.00000000000E+00  0.00000000000E+00  0.20915640088E+04  0.20915640088E+04  0.25500000920E-02 0. -1.
       -2   -1    0    0    0  501  0.00000000000E+00  0.00000000000E+00 -0.71916472037E+03  0.71916472038E+03  0.25500000920E-02 0.  1.
    10030    2    1    2    0    0  0.00000000000E+00  0.00000000000E+00  0.13723992884E+04  0.28107287292E+04  0.24528995459E+04 0.  0.
        4    1    3    3  502    0 -0.14012805794E+03  0.21341018092E+03  0.20607770878E+04  0.20765316266E+04  0.12699999809E+01 0. -1.
       -4    1    3    3    0  502  0.14012805794E+03 -0.21341018092E+03 -0.68837779932E+03  0.73419710258E+03  0.12699999809E+01 0.  1.
</event>
<event>
 5   0  0.4764214E-06  0.2610460E+04  0.7818609E-02  0.8364657E-01
        1   -1    0    0  501    0  0.00000000000E+00  0.00000000000E+00  0.95840570306E+03  0.95840570307E+03  0.50400001928E-02 0. -1.
       -1   -1    0    0    0  501  0.00000000000E+00  0.00000000000E+00 -0.17775612162E+04  0.17775612162E+04  0.50400001928E-02 0.  1.
    10030    2    1    2    0    0  0.00000000000E+00  0.00000000000E+00 -0.81915551312E+03  0.27359669192E+04  0.26104595819E+04 0.  0.
        3    1    3    3  502    0 -0.13463055988E+03  0.28295282260E+02  0.95078583523E+03  0.96068711104E+03  0.10100000352E+00 0. -1.
       -3    1    3    3    0  502  0.13463055988E+03 -0.28295282260E+02 -0.17699413483E+04  0.17752798082E+04  0.10100000352E+00 0.  1.
</event>
<event>
 5   0  0.5281919E-06  0.2802285E+04  0.7818609E-02  0.8302559E-01
        1   -1    0    0  501    0  0.00000000000E+00  0.00000000000E+00  0.26478587126E+04  0.26478587126E+04  0.50400001928E-02 0.  1.
       -1   -1    0    0    0  501  0.00000000000E+00  0.00000000000E+00 -0.74142943364E+03  0.74142943366E+03  0.50400001928E-02 0. -1.
    10030    2    1    2    0    0  0.00000000000E+00  0.00000000000E+00  0.19064292790E+04  0.33892881463E+04  0.28022850574E+04 0.  0.
        4    1    3    3  502    0  0.12800471101E+04 -0.83833100883E+02  0.27155004941E+03  0.13112168528E+04  0.12699999809E+01 0. -1.
       -4    1    3    3    0  502 -0.12800471101E+04  0.83833100883E+02  0.16348792296E+04  0.20780712935E+04  0.12699999809E+01 0.  1.
</event>
<event>
 5   0  0.1388269E-05  0.2823150E+04  0.7818609E-02  0.8296117E-01
        2   -1    0    0  501    0  0.00000000000E+00  0.00000000000E+00  0.14321422652E+04  0.14321422652E+04  0.25500000920E-02 0.  1.
       -2   -1    0    0    0  501  0.00000000000E+00  0.00000000000E+00 -0.13913035012E+04  0.13913035012E+04  0.25500000920E-02 0. -1.
    10030    2    1    2    0    0  0.00000000000E+00  0.00000000000E+00  0.40838764040E+02  0.28234457664E+04  0.28231504018E+04 0.  0.
        1    1    3    3  502    0 -0.40124030329E+03  0.11338947065E+04  0.75930217385E+03  0.14224102002E+04  0.50400001928E-02 0.  1.
       -1    1    3    3    0  502  0.40124030329E+03 -0.11338947065E+04 -0.71846340981E+03  0.14010355662E+04  0.50400001928E-02 0. -1.
</event>
<event>
 5   0  0.5217999E-06  0.2790825E+04  0.7818609E-02  0.8306122E-01
       -1   -1    0    0    0  501  0.00000000000E+00  0.00000000000E+00  0.99858120951E+03  0.99858120952E+03  0.50400001928E-02 0.  1.
        1   -1    0    0  501    0  0.00000000000E+00  0.00000000000E+00 -0.19499432278E+04  0.19499432278E+04  0.50400001928E-02 0. -1.
    10030    2    1    2    0    0  0.00000000000E+00  0.00000000000E+00 -0.95136201831E+03  0.29485244373E+04  0.27908254456E+04 0.  0.
        1    1    3    3  502    0 -0.93232809775E+03 -0.65374883982E+03  0.37646408127E+03  0.11993116492E+04  0.50400001928E-02 0.  1.
       -1    1    3    3    0  502  0.93232809775E+03  0.65374883982E+03 -0.13278260996E+04  0.17492127881E+04  0.50400001928E-02 0. -1.
</event>
<event>
 5   0  0.1330962E-05  0.2699416E+04  0.7818609E-02  0.8335195E-01
        2   -1    0    0  501    0  0.00000000000E+00  0.00000000000E+00  0.14822590879E+04  0.14822590879E+04  0.25500000920E-02 0.  1.
       -2   -1    0    0    0  501  0.00000000000E+00  0.00000000000E+00 -0.12290102266E+04  0.12290102266E+04  0.25500000920E-02 0. -1.
    10030    2    1    2    0    0  0.00000000000E+00  0.00000000000E+00  0.25324886124E+03  0.27112693145E+04  0.26994159202E+04 0.  0.
        4    1    3    3  502    0  0.78020220210E+03 -0.69747013338E+03 -0.72948562965E+03  0.12756688284E+04  0.12699999809E+01 0. -1.
       -4    1    3    3    0  502 -0.78020220210E+03  0.69747013338E+03  0.98273449089E+03  0.14356004861E+04  0.12699999809E+01 0.  1.
</event>
<event>
 5   0  0.1283052E-05  0.2743813E+04  0.7818609E-02  0.8320927E-01
        2   -1    0    0  501    0  0.00000000000E+00  0.00000000000E+00  0.11665475147E+04  0.11665475147E+04  0.25500000920E-02 0. -1.
       -2   -1    0    0    0  501  0.00000000000E+00  0.00000000000E+00 -0.16134173282E+04  0.16134173282E+04  0.25500000920E-02 0.  1.
    10030    2    1    2    0    0  0.00000000000E+00  0.00000000000E+00 -0.44686981344E+03  0.27799648429E+04  0.27438133861E+04 0.  0.
        5    1    3    3  502    0 -0.30454390880E+03  0.12849982560E+04  0.15313178503E+03  0.13294506173E+04  0.46999998093E+01 0. -1.
       -5    1    3    3    0  502  0.30454390880E+03 -0.12849982560E+04 -0.60000159847E+03  0.14505142256E+04  0.46999998093E+01 0.  1.
</event>
<event>
 5   0  0.1283052E-05  0.2741960E+04  0.7818609E-02  0.8321518E-01
       -2   -1    0    0    0  501  0.00000000000E+00  0.00000000000E+00  0.10770021005E+04  0.10770021005E+04  0.25500000920E-02 0.  1.
        2   -1    0    0  501    0  0.00000000000E+00  0.00000000000E+00 -0.17452013448E+04  0.17452013448E+04  0.25500000920E-02 0. -1.
    10030    2    1    2    0    0  0.00000000000E+00  0.00000000000E+00 -0.66819924435E+03  0.28222034453E+04  0.27419595286E+04 0.  0.
        5    1    3    3  502    0 -0.84207936517E+03 -0.71192115949E+03  0.50437824088E+03  0.12125794384E+04  0.46999998093E+01 0.  1.
       -5    1    3    3    0  502  0.84207936517E+03  0.71192115949E+03 -0.11725774852E+04  0.16096240069E+04  0.46999998093E+01 0. -1.
</event>
<event>
 5   0  0.5281919E-06  0.2741119E+04  0.7818609E-02  0.8321785E-01
        1   -1    0    0  501    0  0.00000000000E+00  0.00000000000E+00  0.14498732838E+04  0.14498732838E+04  0.50400001928E-02 0.  1.
       -1   -1    0    0    0  501  0.00000000000E+00  0.00000000000E+00 -0.12955847266E+04  0.12955847266E+04  0.50400001928E-02 0. -1.
    10030    2    1    2    0    0  0.00000000000E+00  0.00000000000E+00  0.15428855721E+03  0.27454580104E+04  0.27411192473E+04 0.  0.
        4    1    3    3  502    0  0.95877610982E+03 -0.42999161640E+03  0.95847324251E+03  0.14222577082E+04  0.12699999809E+01 0.  1.
       -4    1    3    3    0  502 -0.95877610982E+03  0.42999161640E+03 -0.80418468530E+03  0.13232003023E+04  0.12699999809E+01 0. -1.
</event>
<event>
 5   0  0.5281919E-06  0.2768279E+04  0.7818609E-02  0.8313185E-01
       -1   -1    0    0    0  501  0.00000000000E+00  0.00000000000E+00  0.17703021863E+04  0.17703021864E+04  0.50400001928E-02 0.  1.
        1   -1    0    0  501    0  0.00000000000E+00  0.00000000000E+00 -0.10822120639E+04  0.10822120639E+04  0.50400001928E-02 0. -1.
    10030    2    1    2    0    0  0.00000000000E+00  0.00000000000E+00  0.68809012249E+03  0.28525142502E+04  0.27682791642E+04 0.  0.
        4    1    3    3  502    0  0.12592973283E+04  0.39947665205E+03 -0.81347815354E+02  0.13236428659E+04  0.12699999809E+01 0. -1.
       -4    1    3    3    0  502 -0.12592973283E+04 -0.39947665205E+03  0.76943793785E+03  0.15288713843E+04  0.12699999809E+01 0.  1.
</event>
<event>
 5   0  0.5217999E-06  0.2758251E+04  0.7818609E-02  0.8316348E-01
       -1   -1    0    0    0  501  0.00000000000E+00  0.00000000000E+00  0.17459274351E+04  0.17459274351E+04  0.50400001928E-02 0.  1.
        1   -1    0    0  501    0  0.00000000000E+00  0.00000000000E+00 -0.10893848653E+04  0.10893848653E+04  0.50400001928E-02 0. -1.
    10030    2    1    2    0    0  0.00000000000E+00  0.00000000000E+00  0.65654256982E+03  0.28353123005E+04  0.27582508398E+04 0.  0.
        1    1    3    3  502    0 -0.39601333424E+03 -0.97244192411E+03 -0.59086733066E+03  0.12048211731E+04  0.50400001928E-02 0. -1.
       -1    1    3    3    0  502  0.39601333424E+03  0.97244192411E+03  0.12474099005E+04  0.16304911274E+04  0.50400001928E-02 0.  1.
</event>
<event>
 5   0  0.1283052E-05  0.2776722E+04  0.7818609E-02  0.8310532E-01
       -2   -1    0    0    0  501  0.00000000000E+00  0.00000000000E+00  0.21649304577E+04  0.21649304577E+04  0.25500000920E-02 0. -1.
        2   -1    0    0  501    0  0.00000000000E+00  0.00000000000E+00 -0.89035037736E+03  0.89035037736E+03  0.25500000920E-02 0.  1.
    10030    2    1    2    0    0  0.00000000000E+00  0.00000000000E+00  0.12745800803E+04  0.30552808350E+04  0.27767222763E+04 0.  0.
        5    1    3    3  502    0  0.12941787229E+04 -0.48953905548E+03  0.76263714791E+03  0.15799318222E+04  0.46999998093E+01 0. -1.
       -5    1    3    3    0  502 -0.12941787229E+04  0.48953905548E+03  0.51194293241E+03  0.14753490128E+04  0.46999998093E+01 0.  1.
</event>
<event>
 5   0  0.1330962E-05  0.2794532E+04  0.7818609E-02  0.8304968E-01
       -2   -1    0    0    0  501  0.00000000000E+00  0.00000000000E+00  0.21674613927E+04  0.21674613927E+04  0.25500000920E-02 0.  1.
        2   -1    0    0  501    0  0.00000000000E+00  0.00000000000E+00 -0.90075540180E+03  0.90075540180E+03  0.25500000920E-02 0. -1.
    10030    2    1    2    0    0  0.00000000000E+00  0.00000000000E+00  0.12667059909E+04  0.30682167945E+04  0.27945322025E+04 0.  0.
        4    1    3    3  502    0 -0.64474254867E+03 -0.75161441153E+02 -0.72516614122E+03  0.97324700954E+03  0.12699999809E+01 0. -1.
       -4    1    3    3    0  502  0.64474254867E+03  0.75161441153E+02  0.19918721322E+04  0.20949697850E+04  0.12699999809E+01 0.  1.
</event>
<event>
 5   0  0.1388269E-05  0.2821348E+04  0.7818609E-02  0.8296671E-01
        2   -1    0    0  501    0  0.00000000000E+00  0.00000000000E+00  0.28493001008E+04  0.28493001008E+04  0.25500000920E-02 0.  1.
       -2   -1    0    0    0  501  0.00000000000E+00  0.00000000000E+00 -0.69841751442E+03  0.69841751443E+03  0.25500000920E-02 0. -1.
    10030    2    1    2    0    0  0.00000000000E+00  0.00000000000E+00  0.21508825864E+04  0.35477176153E+04  0.28213479717E+04 0.  0.
        1    1    3    3  502    0 -0.13801279829E+04  0.25416621407E+03  0.89475513970E+03  0.16643138147E+04  0.50400001928E-02 0. -1.
       -1    1    3    3    0  502  0.13801279829E+04 -0.25416621407E+03  0.12561274467E+04  0.18834038006E+04  0.50400001928E-02 0.  1.
</event>
<event>
 5   0  0.1388269E-05  0.2812292E+04  0.7818609E-02  0.8299462E-01
       -2   -1    0    0    0  501  0.00000000000E+00  0.00000000000E+00  0.10072743104E+04  0.10072743104E+04  0.25500000920E-02 0.  1.
        2   -1    0    0  501    0  0.00000000000E+00  0.00000000000E+00 -0.19629666864E+04  0.19629666864E+04  0.25500000920E-02 0. -1.
    10030    2    1    2    0    0  0.00000000000E+00  0.00000000000E+00 -0.95569237600E+03  0.29702409969E+04  0.28122915322E+04 0.  0.
        1    1    3    3  502    0  0.11179073962E+04 -0.82381792271E+03 -0.24440527953E+03  0.14100095237E+04  0.50400001928E-02 0.  1.
       -1    1    3    3    0  502 -0.11179073962E+04  0.82381792271E+03 -0.71128709648E+03  0.15602314732E+04  0.50400001928E-02 0. -1.
</event>
<event>
 5   0  0.5107453E-06  0.2846268E+04  0.7818609E-02  0.8289046E-01
        1   -1    0    0  501    0  0.00000000000E+00  0.00000000000E+00  0.21195385419E+04  0.21195385419E+04  0.50400001928E-02 0.  1.
       -1   -1    0    0    0  501  0.00000000000E+00  0.00000000000E+00 -0.95554328043E+03  0.95554328045E+03  0.50400001928E-02 0. -1.
    10030    2    1    2    0    0  0.00000000000E+00  0.00000000000E+00  0.11639952615E+04  0.30750818224E+04  0.28462683017E+04 0.  0.
        2    1    3    3  502    0 -0.83080753814E+03  0.98593262775E+03 -0.68937993807E+02  0.12911455220E+04  0.25500000920E-02 0. -1.
       -2    1    3    3    0  502  0.83080753814E+03 -0.98593262775E+03  0.12329332553E+04  0.17839363004E+04  0.25500000920E-02 0.  1.
</event>
<event>
 5   0  0.5023691E-06  0.2803349E+04  0.7818609E-02  0.8302229E-01
       -1   -1    0    0    0  501  0.00000000000E+00  0.00000000000E+00  0.11079910145E+04  0.11079910145E+04  0.50400001928E-02 0. -1.
        1   -1    0    0  501    0  0.00000000000E+00  0.00000000000E+00 -0.17732020576E+04  0.17732020576E+04  0.50400001928E-02 0.  1.
    10030    2    1    2    0    0  0.00000000000E+00  0.00000000000E+00 -0.66521104317E+03  0.28811930721E+04  0.28033493872E+04 0.  0.
        5    1    3    3  502    0  0.11325272697E+04  0.81340243515E+03 -0.47950202016E+03  0.14745120601E+04  0.46999998093E+01 0.  1.
       -5    1    3    3    0  502 -0.11325272697E+04 -0.81340243515E+03 -0.18570902301E+03  0.14066810120E+04  0.46999998093E+01 0. -1.
</event>
<event>
 5   0  0.1283052E-05  0.2826233E+04  0.7818609E-02  0.8295170E-01
        2   -1    0    0  501    0  0.00000000000E+00  0.00000000000E+00  0.18760103736E+04  0.18760103736E+04  0.25500000920E-02 0.  1.
       -2   -1    0    0    0  501  0.00000000000E+00  0.00000000000E+00 -0.10644387373E+04  0.10644387373E+04  0.25500000920E-02 0. -1.
    10030    2    1    2    0    0  0.00000000000E+00  0.00000000000E+00  0.81157163638E+03  0.29404491109E+04  0.28262329085E+04 0.  0.
        5    1    3    3  502    0 -0.10087221335E+04 -0.98744202190E+03  0.47412070270E+03  0.14890851621E+04  0.46999998093E+01 0. -1.
       -5    1    3    3    0  502  0.10087221335E+04  0.98744202190E+03  0.33745093368E+03  0.14513639488E+04  0.46999998093E+01 0.  1.
</event>
<event>
 5   0  0.5281919E-06  0.2806954E+04  0.7818609E-02  0.8301113E-01
       -1   -1    0    0    0  501  0.00000000000E+00  0.00000000000E+00  0.13340916505E+04  0.13340916505E+04  0.50400001928E-02 0.  1.
        1   -1    0    0  501    0  0.00000000000E+00  0.00000000000E+00 -0.14764713712E+04  0.14764713712E+04  0.50400001928E-02 0. -1.
    10030    2    1    2    0    0  0.00000000000E+00  0.00000000000E+00 -0.14237972069E+03  0.28105630218E+04  0.28069543129E+04 0.  0.
        4    1    3    3  502    0  0.59530817116E+03  0.22515873950E+03 -0.13236610070E+04  0.14687301831E+04  0.12699999809E+01 0. -1.
       -4    1    3    3    0  502 -0.59530817116E+03 -0.22515873950E+03  0.11812812863E+04  0.13418328386E+04  0.12699999809E+01 0.  1.
</event>
<event>
 5   0  0.1302063E-05  0.2773694E+04  0.7818609E-02  0.8311482E-01
       -2   -1    0    0    0  501  0.00000000000E+00  0.00000000000E+00  0.15674601218E+04  0.15674601218E+04  0.25500000920E-02 0. -1.
        2   -1    0    0  501    0  0.00000000000E+00  0.00000000000E+00 -0.12270452430E+04  0.12270452430E+04  0.25500000920E-02 0.  1.
    10030    2    1    2    0    0  0.00000000000E+00  0.00000000000E+00  0.34041487876E+03  0.27945053648E+04  0.27736939169E+04 0.  0.
        2    1    3    3  502    0 -0.82340218380E+03  0.96988589903E+03  0.72632241490E+03  0.14649962675E+04  0.25500000920E-02 0. -1.
       -2    1    3    3    0  502  0.82340218380E+03 -0.96988589903E+03 -0.38590753614E+03  0.13295090973E+04  0.25500000920E-02 0.  1.
</event>
<event>
 5   0  0.5217999E-06  0.2905114E+04  0.7818609E-02  0.8271358E-01
       -1   -1    0    0    0  501  0.00000000000E+00  0.00000000000E+00  0.96122773710E+03  0.96122773711E+03  0.50400001928E-02 0.  1.
        1   -1    0    0  501    0  0.00000000000E+00  0.00000000000E+00 -0.21950275914E+04  0.21950275914E+04  0.50400001928E-02 0. -1.
    10030    2    1    2    0    0  0.00000000000E+00  0.00000000000E+00 -0.12337998543E+04  0.31562553285E+04  0.29051137014E+04 0.  0.
        1    1    3    3  502    0  0.84012903210E+03  0.62811963777E+03 -0.17085345069E+04  0.20048544164E+04  0.50400001928E-02 0. -1.
       -1    1    3    3    0  502 -0.84012903210E+03 -0.62811963777E+03  0.47473465257E+03  0.11514009121E+04  0.50400001928E-02 0.  1.
</event>
<event>
 5   0  0.1350863E-05  0.2826483E+04  0.7818609E-02  0.8295093E-01
        2   -1    0    0  501    0  0.00000000000E+00  0.00000000000E+00  0.15602903728E+04  0.15602903728E+04  0.25500000920E-02 0. -1.
       -2   -1    0    0    0  501  0.00000000000E+00  0.00000000000E+00 -0.12800515164E+04  0.12800515164E+04  0.25500000920E-02 0.  1.
    10030    2    1    2    0    0  0.00000000000E+00  0.00000000000E+00  0.28023885640E+03  0.28403418892E+04  0.28264833682E+04 0.  0.
        3    1    3    3  502    0  0.30917651979E+03 -0.12946717956E+04  0.61730226263E+03  0.14672516050E+04  0.10100000352E+00 0. -1.
       -3    1    3    3    0  502 -0.30917651979E+03  0.12946717956E+04 -0.33706340623E+03  0.13730902842E+04  0.10100000352E+00 0.  1.
</event>
<event>
 5   0  0.1283052E-05  0.2787232E+04  0.7818609E-02  0.8307243E-01
        2   -1    0    0  501    0  0.00000000000E+00  0.00000000000E+00  0.17480025692E+04  0.17480025692E+04  0.25500000920E-02 0.  1.
       -2   -1    0    0    0  501  0.00000000000E+00  0.00000000000E+00 -0.11110770597E+04  0.11110770597E+04  0.25500000920E-02 0. -1.
    10030    2    1    2    0    0  0.00000000000E+00  0.00000000000E+00  0.63692550952E+03  0.28590796289E+04  0.27872319997E+04 0.  0.
        5    1    3    3  502    0 -0.12685680640E+04 -0.52882365421E+03  0.81812382529E+02  0.13768205207E+04  0.46999998093E+01 0. -1.
       -5    1    3    3    0  502  0.12685680640E+04  0.52882365421E+03  0.55511312699E+03  0.14822591083E+04  0.46999998093E+01 0.  1.
</event>
<event>
 5   0  0.5217999E-06  0.2782114E+04  0.7818609E-02  0.8308843E-01
       -1   -1    0    0    0  501  0.00000000000E+00  0.00000000000E+00  0.15144305080E+04  0.15144305080E+04  0.50400001928E-02 0.  1.
        1   -1    0    0  501    0  0.00000000000E+00  0.00000000000E+00 -0.12777345117E+04  0.12777345117E+04  0.50400001928E-02 0. -1.
    10030    2    1    2    0    0  0.00000000000E+00  0.00000000000E+00  0.23669599635E+03  0.27921650197E+04  0.27821143942E+04 0.  0.
        1    1    3    3  502    0 -0.25008080207E+03  0.84229793234E+03  0.12006844561E+04  0.14878337869E+04  0.50400001928E-02 0.  1.
       -1    1    3    3    0  502  0.25008080207E+03 -0.84229793234E+03 -0.96398845973E+03  0.13043312328E+04  0.50400001928E-02 0. -1.
</event>
<event>
 5   0  0.5281919E-06  0.2808930E+04  0.7818609E-02  0.8300501E-01
       -1   -1    0    0    0  501  0.00000000000E+00  0.00000000000E+00  0.13198868455E+04  0.13198868455E+04  0.50400001928E-02 0. -1.
        1   -1    0    0  501    0  0.00000000000E+00  0.00000000000E+00 -0.14944630769E+04  0.14944630769E+04  0.50400001928E-02 0.  1.
    10030    2    1    2    0    0  0.00000000000E+00  0.00000000000E+00 -0.17457623141E+03  0.28143499224E+04  0.28089301566E+04 0.  0.
        4    1    3    3  502    0  0.98638032357E+03  0.74424737437E+03  0.58158535991E+03  0.13656842390E+04  0.12699999809E+01 0.  1.
       -4    1    3    3    0  502 -0.98638032357E+03 -0.74424737437E+03 -0.75616159133E+03  0.14486656833E+04  0.12699999809E+01 0. -1.
</event>
<event>
 5   0  0.5023691E-06  0.2873394E+04  0.7818609E-02  0.8280838E-01
        1   -1    0    0  501    0  0.00000000000E+00  0.00000000000E+00  0.16301279866E+04  0.16301279866E+04  0.50400001928E-02 0. -1.
       -1   -1    0    0    0  501  0.00000000000E+00  0.00000000000E+00 -0.12662183539E+04  0.12662183539E+04  0.50400001928E-02 0.  1.
    10030    2    1    2    0    0  0.00000000000E+00  0.00000000000E+00  0.36390963266E+03  0.28963463405E+04  0.28733937954E+04 0.  0.
        5    1    3    3  502    0 -0.73680485618E+02  0.40342512616E+03  0.15698686716E+04  0.16225567425E+04  0.46999998093E+01 0. -1.
       -5    1    3    3    0  502  0.73680485618E+02 -0.40342512616E+03 -0.12059590390E+04  0.12737895980E+04  0.46999998093E+01 0.  1.
</event>
<event>
 5   0  0.5023691E-06  0.2862599E+04  0.7818609E-02  0.8284093E-01
       -1   -1    0    0    0  501  0.00000000000E+00  0.00000000000E+00  0.98926286614E+03  0.98926286616E+03  0.50400001928E-02 0.  1.
        1   -1    0    0  501    0  0.00000000000E+00  0.00000000000E+00 -0.20708534554E+04  0.20708534554E+04  0.50400001928E-02 0. -1.
    10030    2    1    2    0    0  0.00000000000E+00  0.00000000000E+00 -0.10815905892E+04  0.30601163215E+04  0.28625991160E+04 0.  0.
        5    1    3    3  502    0 -0.73017233489E+03 -0.44712538196E+03 -0.17668976377E+04  0.19634210190E+04  0.46999998093E+01 0. -1.
       -5    1    3    3    0  502  0.73017233489E+03  0.44712538196E+03  0.68530704848E+03  0.10966953025E+04  0.46999998093E+01 0.  1.
</event>
<event>
 5   0  0.1283052E-05  0.2840703E+04  0.7818609E-02  0.8290742E-01
       -2   -1    0    0    0  501  0.00000000000E+00  0.00000000000E+00  0.13076612875E+04  0.13076612875E+04  0.25500000920E-02 0. -1.
        2   -1    0    0  501    0  0.00000000000E+00  0.00000000000E+00 -0.15427525895E+04  0.15427525895E+04  0.25500000920E-02 0.  1.
    10030    2    1    2    0    0  0.00000000000E+00  0.00000000000E+00 -0.23509130199E+03  0.28504138770E+04  0.28407026155E+04 0.  0.
        5    1    3    3  502    0  0.33122451482E+03  0.15158738410E+03 -0.14950780066E+04  0.15388205711E+04  0.46999998093E+01 0.  1.
       -5    1    3    3    0  502 -0.33122451482E+03 -0.15158738410E+03  0.12599867046E+04  0.13115933059E+04  0.46999998093E+01 0. -1.
</event>
<event>
 5   0  0.1283052E-05  0.2724233E+04  0.7818609E-02  0.8327185E-01
       -2   -1    0    0    0  501  0.00000000000E+00  0.00000000000E+00  0.82172465204E+03  0.82172465204E+03  0.25500000920E-02 0. -1.
        2   -1    0    0  501    0  0.00000000000E+00  0.00000000000E+00 -0.22578869291E+04  0.22578869292E+04  0.25500000920E-02 0.  1.
    10030    2    1    2    0    0  0.00000000000E+00  0.00000000000E+00 -0.14361622771E+04  0.30796115812E+04  0.27242329939E+04 0.  0.
        5    1    3    3  502    0  0.82047892314E+03 -0.46621893454E+03  0.39229183058E+03  0.10219886147E+04  0.46999998093E+01 0. -1.
       -5    1    3    3    0  502 -0.82047892314E+03  0.46621893454E+03 -0.18284541077E+04  0.20576229665E+04  0.46999998093E+01 0.  1.
</event>
<event>
 5   0  0.1350863E-05  0.2802199E+04  0.7818609E-02  0.8302586E-01
       -2   -1    0    0    0  501  0.00000000000E+00  0.00000000000E+00  0.83241451873E+03  0.83241451873E+03  0.25500000920E-02 0.  1.
        2   -1    0    0  501    0  0.00000000000E+00  0.00000000000E+00 -0.23582952052E+04  0.23582952052E+04  0.25500000920E-02 0. -1.
    10030    2    1    2    0    0  0.00000000000E+00  0.00000000000E+00 -0.15258806865E+04  0.31907097239E+04  0.28021985427E+04 0.  0.
        3    1    3    3  502    0  0.11298373117E+04  0.15663257427E+03 -0.16893896619E+04  0.20384071120E+04  0.10100000352E+00 0. -1.
       -3    1    3    3    0  502 -0.11298373117E+04 -0.15663257427E+03  0.16350897541E+03  0.11523026120E+04  0.10100000352E+00 0.  1.
</event>
<event>
 5   0  0.1283052E-05  0.2721098E+04  0.7818609E-02  0.8328192E-01
        2   -1    0    0  501    0  0.00000000000E+00  0.00000000000E+00  0.19222098860E+04  0.19222098860E+04  0.25500000920E-02 0. -1.
       -2   -1    0    0    0  501  0.00000000000E+00  0.00000000000E+00 -0.96300298968E+03  0.96300298968E+03  0.25500000920E-02 0.  1.
    10030    2    1    2    0    0  0.00000000000E+00  0.00000000000E+00  0.95920689631E+03  0.28852128757E+04  0.27210982099E+04 0.  0.
        5    1    3    3  502    0 -0.21615283322E+02  0.36315301274E+03 -0.91046687639E+03  0.98046894604E+03  0.46999998093E+01 0.  1.
       -5    1    3    3    0  502  0.21615283322E+02 -0.36315301274E+03  0.18696737727E+04  0.19047439296E+04  0.46999998093E+01 0. -1.
</event>
<event>
 5   0  0.5107453E-06  0.2793463E+04  0.7818609E-02  0.8305301E-01
        1   -1    0    0  501    0  0.00000000000E+00  0.00000000000E+00  0.99937852551E+03  0.99937852552E+03  0.50400001928E-02 0.  1.
       -1   -1    0    0    0  501  0.00000000000E+00  0.00000000000E+00 -0.19520715811E+04  0.19520715811E+04  0.50400001928E-02 0. -1.
    10030    2    1    2    0    0  0.00000000000E+00  0.00000000000E+00 -0.95269305559E+03  0.29514501066E+04  0.27934626673E+04 0.  0.
        2    1    3    3  502    0  0.10101309661E+04  0.93409293624E+03 -0.73072047747E+03  0.15578339444E+04  0.25500000920E-02 0.  1.
       -2    1    3    3    0  502 -0.10101309661E+04 -0.93409293624E+03 -0.22197257812E+03  0.13936161622E+04  0.25500000920E-02 0. -1.
</event>
<event>
 5   0  0.1350863E-05  0.2003866E+04  0.7818609E-02  0.8604815E-01
       -2   -1    0    0    0  501  0.00000000000E+00  0.00000000000E+00  0.18196540517E+04  0.18196540517E+04  0.25500000920E-02 0.  1.
        2   -1    0    0  501    0  0.00000000000E+00  0.00000000000E+00 -0.55168163532E+03  0.55168163532E+03  0.25500000920E-02 0. -1.
    10030    2    1    2    0    0  0.00000000000E+00  0.00000000000E+00  0.12679724164E+04  0.23713356870E+04  0.20038659865E+04 0.  0.
        3    1    3    3  502    0 -0.84094312873E+03 -0.11922386312E+03  0.12629281502E+04  0.15219681988E+04  0.10100000352E+00 0.  1.
       -3    1    3    3    0  502  0.84094312873E+03  0.11922386312E+03  0.50442661914E+01  0.84936748826E+03  0.10100000352E+00 0. -1.
</event>
<event>
 5   0  0.1302063E-05  0.2817607E+04  0.7818609E-02  0.8297823E-01
       -2   -1    0    0    0  501  0.00000000000E+00  0.00000000000E+00  0.71703922234E+03  0.71703922235E+03  0.25500000920E-02 0.  1.
        2   -1    0    0  501    0  0.00000000000E+00  0.00000000000E+00 -0.27679483008E+04  0.27679483009E+04  0.25500000920E-02 0. -1.
    10030    2    1    2    0    0  0.00000000000E+00  0.00000000000E+00 -0.20509090785E+04  0.34849875232E+04  0.28176071388E+04 0.  0.
        2    1    3    3  502    0 -0.13010248042E+04  0.52648395064E+03 -0.87459502175E+03  0.16537131987E+04  0.25500000920E-02 0. -1.
       -2    1    3    3    0  502  0.13010248042E+04 -0.52648395064E+03 -0.11763140568E+04  0.18312743245E+04  0.25500000920E-02 0.  1.
</event>
<event>
 5   0  0.1350863E-05  0.2762204E+04  0.7818609E-02  0.8315099E-01
        2   -1    0    0  501    0  0.00000000000E+00  0.00000000000E+00  0.64661612317E+03  0.64661612317E+03  0.25500000920E-02 0. -1.
       -2   -1    0    0    0  501  0.00000000000E+00  0.00000000000E+00 -0.29498847018E+04  0.29498847018E+04  0.25500000920E-02 0.  1.
    10030    2    1    2    0    0  0.00000000000E+00  0.00000000000E+00 -0.23032685786E+04  0.35965008250E+04  0.27622041993E+04 0.  0.
        3    1    3    3  502    0 -0.55279525225E+03  0.11338499074E+04 -0.41942357938E+03  0.13293285345E+04  0.10100000352E+00 0. -1.
       -3    1    3    3    0  502  0.55279525225E+03 -0.11338499074E+04 -0.18838449992E+04  0.22671722905E+04  0.10100000352E+00 0.  1.
</event>
<event>
 5   0  0.5107453E-06  0.2748668E+04  0.7818609E-02  0.8319385E-01
        1   -1    0    0  501    0  0.00000000000E+00  0.00000000000E+00  0.21084083012E+04  0.21084083012E+04  0.50400001928E-02 0. -1.
       -1   -1    0    0    0  501  0.00000000000E+00  0.00000000000E+00 -0.89583847691E+03  0.89583847692E+03  0.50400001928E-02 0.  1.
    10030    2    1    2    0    0  0.00000000000E+00  0.00000000000E+00  0.12125698243E+04  0.30042467782E+04  0.27486675181E+04 0.  0.
        2    1    3    3  502    0  0.74085274812E+03 -0.83436592886E+03  0.14832387473E+04  0.18560782524E+04  0.25500000920E-02 0. -1.
       -2    1    3    3    0  502 -0.74085274812E+03  0.83436592886E+03 -0.27066892296E+03  0.11481685257E+04  0.25500000920E-02 0.  1.
</event>
<event>
 5   0  0.1302063E-05  0.1998961E+04  0.7818609E-02  0.8607107E-01
       -2   -1    0    0    0  501  0.00000000000E+00  0.00000000000E+00  0.72251588476E+03  0.72251588477E+03  0.25500000920E-02 0.  1.
        2   -1    0    0  501    0  0.00000000000E+00  0.00000000000E+00 -0.13826145458E+04  0.13826145458E+04  0.25500000920E-02 0. -1.
    10030    2    1    2    0    0  0.00000000000E+00  0.00000000000E+00 -0.66009866103E+03  0.21051304306E+04  0.19989607018E+04 0.  0.
        2    1    3    3  502    0 -0.19883727474E+03 -0.22806950277E+03 -0.13332233982E+04  0.13671271299E+04  0.25500000920E-02 0. -1.
       -2    1    3    3    0  502  0.19883727474E+03  0.22806950277E+03  0.67312473717E+03  0.73800330062E+03  0.25500000920E-02 0.  1.
</event>
<event>
 5   0  0.5281919E-06  0.2793910E+04  0.7818609E-02  0.8305162E-01
       -1   -1    0    0    0  501  0.00000000000E+00  0.00000000000E+00  0.77809641277E+03  0.77809641278E+03  0.50400001928E-02 0. -1.
        1   -1    0    0  501    0  0.00000000000E+00  0.00000000000E+00 -0.25080217936E+04  0.25080217936E+04  0.50400001928E-02 0.  1.
    10030    2    1    2    0    0  0.00000000000E+00  0.00000000000E+00 -0.17299253809E+04  0.32861182064E+04  0.27939096341E+04 0.  0.
        4    1    3    3  502    0 -0.30360658598E+03 -0.56061834368E+03 -0.23269265979E+04  0.24126870687E+04  0.12699999809E+01 0.  1.
       -4    1    3    3    0  502  0.30360658598E+03  0.56061834368E+03  0.59700121706E+03  0.87343113775E+03  0.12699999809E+01 0. -1.
</event>
<event>
 5   0  0.5281919E-06  0.2660009E+04  0.7818609E-02  0.8348098E-01
       -1   -1    0    0    0  501  0.00000000000E+00  0.00000000000E+00  0.72255634947E+03  0.72255634949E+03  0.50400001928E-02 0. -1.
        1   -1    0    0  501    0  0.00000000000E+00  0.00000000000E+00 -0.24481301496E+04  0.24481301496E+04  0.50400001928E-02 0.  1.
    10030    2    1    2    0    0  0.00000000000E+00  0.00000000000E+00 -0.17255738002E+04  0.31706864991E+04  0.26600090105E+04 0.  0.
        4    1    3    3  502    0 -0.11459209064E+03 -0.77659519403E+03 -0.21425346442E+04  0.22818167668E+04  0.12699999809E+01 0.  1.
       -4    1    3    3    0  502  0.11459209064E+03  0.77659519403E+03  0.41696084409E+03  0.88886973231E+03  0.12699999809E+01 0. -1.
</event>
<event>
 5   0  0.1330962E-05  0.2808902E+04  0.7818609E-02  0.8300510E-01
       -2   -1    0    0    0  501  0.00000000000E+00  0.00000000000E+00  0.94261072100E+03  0.94261072100E+03  0.25500000920E-02 0.  1.
        2   -1    0    0  501    0  0.00000000000E+00  0.00000000000E+00 -0.20925746177E+04  0.20925746177E+04  0.25500000920E-02 0. -1.
    10030    2    1    2    0    0  0.00000000000E+00  0.00000000000E+00 -0.11499638967E+04  0.30351853387E+04  0.28089024683E+04 0.  0.
        4    1    3    3  502    0  0.65549434049E+03 -0.36244036528E+03 -0.18587325496E+04  0.20039770838E+04  0.12699999809E+01 0. -1.
       -4    1    3    3    0  502 -0.65549434049E+03  0.36244036528E+03  0.70876865285E+03  0.10312082549E+04  0.12699999809E+01 0.  1.
</event>
<event>
 5   0  0.4764214E-06  0.2794482E+04  0.7818609E-02  0.8304984E-01
       -1   -1    0    0    0  501  0.00000000000E+00  0.00000000000E+00  0.18664885610E+04  0.18664885611E+04  0.50400001928E-02 0. -1.
        1   -1    0    0  501    0  0.00000000000E+00  0.00000000000E+00 -0.10459652722E+04  0.10459652722E+04  0.50400001928E-02 0.  1.
    10030    2    1    2    0    0  0.00000000000E+00  0.00000000000E+00  0.82052328889E+03  0.29124538332E+04  0.27944818595E+04 0.  0.
        3    1    3    3  502    0  0.72348512448E+02  0.78232584925E+03 -0.79394409236E+03  0.11169669976E+04  0.10100000352E+00 0.  1.
       -3    1    3    3    0  502 -0.72348512448E+02 -0.78232584925E+03  0.16144673813E+04  0.17954868356E+04  0.10100000352E+00 0. -1.
</event>
<event>
 5   0  0.5107453E-06  0.2906895E+04  0.7818609E-02  0.8270829E-01
       -1   -1    0    0    0  501  0.00000000000E+00  0.00000000000E+00  0.93806172818E+03  0.93806172819E+03  0.50400001928E-02 0. -1.
        1   -1    0    0  501    0  0.00000000000E+00  0.00000000000E+00 -0.22519945997E+04  0.22519945997E+04  0.50400001928E-02 0.  1.
    10030    2    1    2    0    0  0.00000000000E+00  0.00000000000E+00 -0.13139328715E+04  0.31900563279E+04  0.29068952138E+04 0.  0.
        2    1    3    3  502    0 -0.11786038521E+04  0.84536487182E+03 -0.55424779429E+03  0.15527200083E+04  0.25500000920E-02 0.  1.
       -2    1    3    3    0  502  0.11786038521E+04 -0.84536487182E+03 -0.75968507721E+03  0.16373363196E+04  0.25500000920E-02 0. -1.
</event>
<event>
 5   0  0.1350863E-05  0.2789804E+04  0.7818609E-02  0.8306441E-01
       -2   -1    0    0    0  501  0.00000000000E+00  0.00000000000E+00  0.14539335268E+04  0.14539335268E+04  0.25500000920E-02 0. -1.
        2   -1    0    0  501    0  0.00000000000E+00  0.00000000000E+00 -0.13382676203E+04  0.13382676203E+04  0.25500000920E-02 0.  1.
    10030    2    1    2    0    0  0.00000000000E+00  0.00000000000E+00  0.11566590652E+03  0.27922011471E+04  0.27898044096E+04 0.  0.
        3    1    3    3  502    0 -0.93356058505E+03 -0.42290899341E+03 -0.88921712738E+03  0.13568693719E+04  0.10100000352E+00 0.  1.
       -3    1    3    3    0  502  0.93356058505E+03  0.42290899341E+03  0.10048830339E+04  0.14353317751E+04  0.10100000352E+00 0. -1.
</event>
<event>
 5   0  0.1350863E-05  0.2123294E+04  0.7818609E-02  0.8551051E-01
       -2   -1    0    0    0  501  0.00000000000E+00  0.00000000000E+00  0.90679813530E+03  0.90679813530E+03  0.25500000920E-02 0.  1.
        2   -1    0    0  501    0  0.00000000000E+00  0.00000000000E+00 -0.12429386500E+04  0.12429386500E+04  0.25500000920E-02 0. -1.
    10030    2    1    2    0    0  0.00000000000E+00  0.00000000000E+00 -0.33614051475E+03  0.21497367853E+04  0.21232940919E+04 0.  0.
        3    1    3    3  502    0  0.50335139041E+03 -0.25434007199E+03 -0.10787400360E+04  0.12172639688E+04  0.10100000352E+00 0. -1.
       -3    1    3    3    0  502 -0.50335139041E+03  0.25434007199E+03  0.74259952121E+03  0.93247281651E+03  0.10100000352E+00 0.  1.
</event>
<event>
 5   0  0.1302063E-05  0.2580558E+04  0.7818609E-02  0.8374835E-01
        2   -1    0    0  501    0  0.00000000000E+00  0.00000000000E+00  0.18083800327E+04  0.18083800327E+04  0.25500000920E-02 0.  1.
       -2   -1    0    0    0  501  0.00000000000E+00  0.00000000000E+00 -0.92061410314E+03  0.92061410314E+03  0.25500000920E-02 0. -1.
    10030    2    1    2    0    0  0.00000000000E+00  0.00000000000E+00  0.88776592953E+03  0.27289941358E+04  0.25805582047E+04 0.  0.
        2    1    3    3  502    0  0.46046069683E+03 -0.12050740547E+04  0.46962727482E+03  0.13728719197E+04  0.25500000920E-02 0.  1.
       -2    1    3    3    0  502 -0.46046069683E+03  0.12050740547E+04  0.41813865471E+03  0.13561222161E+04  0.25500000920E-02 0. -1.
</event>
<event>
 5   0  0.5217999E-06  0.2068321E+04  0.7818609E-02  0.8575328E-01
       -1   -1    0    0    0  501  0.00000000000E+00  0.00000000000E+00  0.97791799093E+03  0.97791799094E+03  0.50400001928E-02 0.  1.
        1   -1    0    0  501    0  0.00000000000E+00  0.00000000000E+00 -0.10936380196E+04  0.10936380196E+04  0.50400001928E-02 0. -1.
    10030    2    1    2    0    0  0.00000000000E+00  0.00000000000E+00 -0.11572002864E+03  0.20715560105E+04  0.20683213434E+04 0.  0.
        1    1    3    3  502    0 -0.40764668820E+03  0.26443800711E+03 -0.97218694076E+03  0.10868535917E+04  0.50400001928E-02 0. -1.
       -1    1    3    3    0  502  0.40764668820E+03 -0.26443800711E+03  0.85646691213E+03  0.98470241881E+03  0.50400001928E-02 0.  1.
</event>
<event>
 5   0  0.1330962E-05  0.2779493E+04  0.7818609E-02  0.8309663E-01
       -2   -1    0    0    0  501  0.00000000000E+00  0.00000000000E+00  0.76054180598E+03  0.76054180598E+03  0.25500000920E-02 0. -1.
        2   -1    0    0  501    0  0.00000000000E+00  0.00000000000E+00 -0.25394990944E+04  0.25394990944E+04  0.25500000920E-02 0.  1.
    10030    2    1    2    0    0  0.00000000000E+00  0.00000000000E+00 -0.17789572884E+04  0.33000409004E+04  0.27794929232E+04 0.  0.
        4    1    3    3  502    0  0.19721752887E+03  0.11542507636E+04 -0.17781207075E+04  0.21290618691E+04  0.12699999809E+01 0.  1.
       -4    1    3    3    0  502 -0.19721752887E+03 -0.11542507636E+04 -0.83658090185E+00  0.11709790313E+04  0.12699999809E+01 0. -1.
</event>
<event>
 5   0  0.4764214E-06  0.2783982E+04  0.7818609E-02  0.8308258E-01
       -1   -1    0    0    0  501  0.00000000000E+00  0.00000000000E+00  0.10221747314E+04  0.10221747314E+04  0.50400001928E-02 0.  1.
        1   -1    0    0  501    0  0.00000000000E+00  0.00000000000E+00 -0.18956050144E+04  0.18956050144E+04  0.50400001928E-02 0. -1.
    10030    2    1    2    0    0  0.00000000000E+00  0.00000000000E+00 -0.87343028297E+03  0.29177797458E+04  0.27839824327E+04 0.  0.
        3    1    3    3  502    0  0.31030983792E+03  0.70604918635E+03 -0.16512177575E+04  0.18224482824E+04  0.10100000352E+00 0. -1.
       -3    1    3    3    0  502 -0.31030983792E+03 -0.70604918635E+03  0.77778747453E+03  0.10953314634E+04  0.10100000352E+00 0.  1.
</event>
<event>
 5   0  0.1350863E-05  0.2805705E+04  0.7818609E-02  0.8301499E-01
       -2   -1    0    0    0  501  0.00000000000E+00  0.00000000000E+00  0.13551013670E+04  0.13551013670E+04  0.25500000920E-02 0. -1.
        2   -1    0    0  501    0  0.00000000000E+00  0.00000000000E+00 -0.14522859022E+04  0.14522859022E+04  0.25500000920E-02 0.  1.
    10030    2    1    2    0    0  0.00000000000E+00  0.00000000000E+00 -0.97184535263E+02  0.28073872692E+04  0.28057046255E+04 0.  0.
        3    1    3    3  502    0  0.63801535199E+03 -0.55529277201E+03  0.10712665633E+04  0.13649269987E+04  0.10100000352E+00 0. -1.
       -3    1    3    3    0  502 -0.63801535199E+03  0.55529277201E+03 -0.11684510986E+04  0.14424602705E+04  0.10100000352E+00 0.  1.
</event>
<event>
 5   0  0.1350863E-05  0.2294597E+04  0.7818609E-02  0.8480055E-01
        2   -1    0    0  501    0  0.00000000000E+00  0.00000000000E+00  0.85448330164E+03  0.85448330164E+03  0.25500000920E-02 0. -1.
       -2   -1    0    0    0  501  0.00000000000E+00  0.00000000000E+00 -0.15404558015E+04  0.15404558015E+04  0.25500000920E-02 0.  1.
    10030    2    1    2    0    0  0.00000000000E+00  0.00000000000E+00 -0.68597249981E+03  0.23949391031E+04  0.22945969226E+04 0.  0.
        3    1    3    3  502    0 -0.75746903404E+03 -0.79227137341E+03 -0.69668666722E+03  0.12987784989E+04  0.10100000352E+00 0.  1.
       -3    1    3    3    0  502  0.75746903404E+03  0.79227137341E+03  0.10714167411E+02  0.10961606042E+04  0.10100000352E+00 0. -1.
</event>
<event>
 5   0  0.5217999E-06  0.2639785E+04  0.7818609E-02  0.8354811E-01
        1   -1    0    0  501    0  0.00000000000E+00  0.00000000000E+00  0.12807667789E+04  0.12807667789E+04  0.50400001928E-02 0.  1.
       -1   -1    0    0    0  501  0.00000000000E+00  0.00000000000E+00 -0.13602134542E+04  0.13602134542E+04  0.50400001928E-02 0. -1.
    10030    2    1    2    0    0  0.00000000000E+00  0.00000000000E+00 -0.79446675275E+02  0.26409802331E+04  0.26397849946E+04 0.  0.
        1    1    3    3  502    0 -0.60969231549E+02 -0.12677554864E+04 -0.40209581922E+03  0.13313911027E+04  0.50400001928E-02 0. -1.
       -1    1    3    3    0  502  0.60969231549E+02  0.12677554864E+04  0.32264914394E+03  0.13095891304E+04  0.50400001928E-02 0.  1.
</event>
<event>
 5   0  0.5217999E-06  0.2830559E+04  0.7818609E-02  0.8293843E-01
       -1   -1    0    0    0  501  0.00000000000E+00  0.00000000000E+00  0.11556238714E+04  0.11556238714E+04  0.50400001928E-02 0.  1.
        1   -1    0    0  501    0  0.00000000000E+00  0.00000000000E+00 -0.17332772303E+04  0.17332772304E+04  0.50400001928E-02 0. -1.
    10030    2    1    2    0    0  0.00000000000E+00  0.00000000000E+00 -0.57765335892E+03  0.28889011018E+04  0.28305593392E+04 0.  0.
        1    1    3    3  502    0  0.69021165848E+02  0.14107787756E+04 -0.37986079906E+03  0.14626533772E+04  0.50400001928E-02 0. -1.
       -1    1    3    3    0  502 -0.69021165848E+02 -0.14107787756E+04 -0.19779255986E+03  0.14262477246E+04  0.50400001928E-02 0.  1.
</event>
<event>
 5   0  0.1388269E-05  0.2682320E+04  0.7818609E-02  0.8340764E-01
       -2   -1    0    0    0  501  0.00000000000E+00  0.00000000000E+00  0.84786595374E+03  0.84786595374E+03  0.25500000920E-02 0.  1.
        2   -1    0    0  501    0  0.00000000000E+00  0.00000000000E+00 -0.21214560974E+04  0.21214560974E+04  0.25500000920E-02 0. -1.
    10030    2    1    2    0    0  0.00000000000E+00  0.00000000000E+00 -0.12735901437E+04  0.29693220512E+04  0.26823201877E+04 0.  0.
        1    1    3    3  502    0  0.98378898715E+03  0.11625833778E+03 -0.16376051772E+04  0.19139246298E+04  0.50400001928E-02 0. -1.
       -1    1    3    3    0  502 -0.98378898715E+03 -0.11625833778E+03  0.36401503349E+03  0.10553974213E+04  0.50400001928E-02 0.  1.
</event>
<event>
 5   0  0.5281919E-06  0.2790711E+04  0.7818609E-02  0.8306158E-01
       -1   -1    0    0    0  501  0.00000000000E+00  0.00000000000E+00  0.85878579776E+03  0.85878579778E+03  0.50400001928E-02 0.  1.
        1   -1    0    0  501    0  0.00000000000E+00  0.00000000000E+00 -0.22671738040E+04  0.22671738040E+04  0.50400001928E-02 0. -1.
    10030    2    1    2    0    0  0.00000000000E+00  0.00000000000E+00 -0.14083880062E+04  0.31259596018E+04  0.27907107797E+04 0.  0.
        4    1    3    3  502    0 -0.54276579435E+03 -0.10288211860E+04  0.15906773310E+03  0.11740408412E+04  0.12699999809E+01 0. -1.
       -4    1    3    3    0  502  0.54276579435E+03  0.10288211860E+04 -0.15674557393E+04  0.19519187606E+04  0.12699999809E+01 0.  1.
</event>
<event>
 5   0  0.1283052E-05  0.2766595E+04  0.7818609E-02  0.8313715E-01
       -2   -1    0    0    0  501  0.00000000000E+00  0.00000000000E+00  0.10403616584E+04  0.10403616584E+04  0.25500000920E-02 0.  1.
        2   -1    0    0  501    0  0.00000000000E+00  0.00000000000E+00 -0.18392752718E+04  0.18392752718E+04  0.25500000920E-02 0. -1.
    10030    2    1    2    0    0  0.00000000000E+00  0.00000000000E+00 -0.79891361335E+03  0.28796369302E+04  0.27665946374E+04 0.  0.
        5    1    3    3  502    0  0.49139936422E+03  0.87258187780E+03 -0.13927102058E+04  0.17153822536E+04  0.46999998093E+01 0. -1.
       -5    1    3    3    0  502 -0.49139936422E+03 -0.87258187780E+03  0.59379659247E+03  0.11642546765E+04  0.46999998093E+01 0.  1.
</event>
<event>
 5   0  0.5107453E-06  0.2504358E+04  0.7818609E-02  0.8401434E-01
        1   -1    0    0  501    0  0.00000000000E+00  0.00000000000E+00  0.16316931857E+04  0.16316931857E+04  0.50400001928E-02 0.  1.
       -1   -1    0    0    0  501  0.00000000000E+00  0.00000000000E+00 -0.96093607177E+03  0.96093607178E+03  0.50400001928E-02 0. -1.
    10030    2    1    2    0    0  0.00000000000E+00  0.00000000000E+00  0.67075711390E+03  0.25926292575E+04  0.25043584729E+04 0.  0.
        2    1    3    3  502    0  0.38719432731E+03 -0.96389500303E+03  0.10592669721E+04  0.14835968260E+04  0.25500000920E-02 0.  1.
       -2    1    3    3    0  502 -0.38719432731E+03  0.96389500303E+03 -0.38850985824E+03  0.11090324314E+04  0.25500000920E-02 0. -1.
</event>
<event>
 5   0  0.5023691E-06  0.2662877E+04  0.7818609E-02  0.8347151E-01
       -1   -1    0    0    0  501  0.00000000000E+00  0.00000000000E+00  0.10526737102E+04  0.10526737103E+04  0.50400001928E-02 0.  1.
        1   -1    0    0  501    0  0.00000000000E+00  0.00000000000E+00 -0.16840251595E+04  0.16840251595E+04  0.50400001928E-02 0. -1.
    10030    2    1    2    0    0  0.00000000000E+00  0.00000000000E+00 -0.63135144923E+03  0.27366988697E+04  0.26628774007E+04 0.  0.
        5    1    3    3  502    0  0.11931146833E+04 -0.44215221774E+03 -0.71857135644E+03  0.14612967240E+04  0.46999998093E+01 0.  1.
       -5    1    3    3    0  502 -0.11931146833E+04  0.44215221774E+03  0.87219907210E+02  0.12754021458E+04  0.46999998093E+01 0. -1.
</event>
<event>
 5   0  0.5217999E-06  0.2801193E+04  0.7818609E-02  0.8302898E-01
       -1   -1    0    0    0  501  0.00000000000E+00  0.00000000000E+00  0.80346007230E+03  0.80346007232E+03  0.50400001928E-02 0.  1.
        1   -1    0    0  501    0  0.00000000000E+00  0.00000000000E+00 -0.24415291388E+04  0.24415291389E+04  0.50400001928E-02 0. -1.
    10030    2    1    2    0    0  0.00000000000E+00  0.00000000000E+00 -0.16380690665E+04  0.32449892112E+04  0.28011934446E+04 0.  0.
        1    1    3    3  502    0 -0.72461803951E+03  0.90369951467E+03  0.93061262014E+02  0.11620690662E+04  0.50400001928E-02 0.  1.
       -1    1    3    3    0  502  0.72461803951E+03 -0.90369951467E+03 -0.17311303286E+04  0.20829201450E+04  0.50400001928E-02 0. -1.
</event>
<event>
 5   0  0.1283052E-05  0.2359804E+04  0.7818609E-02  0.8454708E-01
       -2   -1    0    0    0  501  0.00000000000E+00  0.00000000000E+00  0.98423957098E+03  0.98423957098E+03  0.25500000920E-02 0. -1.
        2   -1    0    0  501    0  0.00000000000E+00  0.00000000000E+00 -0.14144608278E+04  0.14144608278E+04  0.25500000920E-02 0.  1.
    10030    2    1    2    0    0  0.00000000000E+00  0.00000000000E+00 -0.43022125686E+03  0.23987003988E+04  0.23598036515E+04 0.  0.
        5    1    3    3  502    0  0.86485302814E+03 -0.73976087173E+03 -0.53157711330E+03  0.12561103554E+04  0.46999998093E+01 0.  1.
       -5    1    3    3    0  502 -0.86485302814E+03  0.73976087173E+03  0.10135585644E+03  0.11425900434E+04  0.46999998093E+01 0. -1.
</event>
<event>
 5   0  0.5107453E-06  0.2761393E+04  0.7818609E-02  0.8315355E-01
       -1   -1    0    0    0  501  0.00000000000E+00  0.00000000000E+00  0.11144912980E+04  0.11144912980E+04  0.50400001928E-02 0.  1.
        1   -1    0    0  501    0  0.00000000000E+00  0.00000000000E+00 -0.17104872790E+04  0.17104872790E+04  0.50400001928E-02 0. -1.
    10030    2    1    2    0    0  0.00000000000E+00  0.00000000000E+00 -0.59599598098E+03  0.28249785770E+04  0.27613932627E+04 0.  0.
        2    1    3    3  502    0 -0.85601537155E+03 -0.26272693046E+03  0.77717098400E+03  0.11856569886E+04  0.25500000920E-02 0.  1.
       -2    1    3    3    0  502  0.85601537155E+03  0.26272693046E+03 -0.13731669650E+04  0.16393215884E+04  0.25500000920E-02 0. -1.
</event>
<event>
 5   0  0.4764214E-06  0.2794047E+04  0.7818609E-02  0.8305119E-01
        1   -1    0    0  501    0  0.00000000000E+00  0.00000000000E+00  0.16466900109E+04  0.16466900109E+04  0.50400001928E-02 0.  1.
       -1   -1    0    0    0  501  0.00000000000E+00  0.00000000000E+00 -0.11852103629E+04  0.11852103629E+04  0.50400001928E-02 0. -1.
    10030    2    1    2    0    0  0.00000000000E+00  0.00000000000E+00  0.46147964808E+03  0.28319003738E+04  0.27940465747E+04 0.  0.
        3    1    3    3  502    0  0.56126277976E+03 -0.10909224253E+04  0.90803445097E+03  0.15263204842E+04  0.10100000352E+00 0.  1.
       -3    1    3    3    0  502 -0.56126277976E+03  0.10909224253E+04 -0.44655480289E+03  0.13055798896E+04  0.10100000352E+00 0. -1.
</event>
<event>
 5   0  0.1350863E-05  0.2794040E+04  0.7818609E-02  0.8305121E-01
       -2   -1    0    0    0  501  0.00000000000E+00  0.00000000000E+00  0.14362072275E+04  0.14362072275E+04  0.25500000920E-02 0. -1.
        2   -1    0    0  501    0  0.00000000000E+00  0.00000000000E+00 -0.13589017240E+04  0.13589017240E+04  0.25500000920E-02 0.  1.
    10030    2    1    2    0    0  0.00000000000E+00  0.00000000000E+00  0.77305503427E+02  0.27951089515E+04  0.27940397116E+04 0.  0.
        3    1    3    3  502    0  0.10266231234E+04 -0.66102298932E+03 -0.64039861312E+03  0.13787736666E+04  0.10100000352E+00 0.  1.
       -3    1    3    3    0  502 -0.10266231234E+04  0.66102298932E+03  0.71770411655E+03  0.14163352848E+04  0.10100000352E+00 0. -1.
</event>
<event>
 5   0  0.1283052E-05  0.2783202E+04  0.7818609E-02  0.8308503E-01
       -2   -1    0    0    0  501  0.00000000000E+00  0.00000000000E+00  0.98896059847E+03  0.98896059847E+03  0.25500000920E-02 0.  1.
        2   -1    0    0  501    0  0.00000000000E+00  0.00000000000E+00 -0.19581702455E+04  0.19581702455E+04  0.25500000920E-02 0. -1.
    10030    2    1    2    0    0  0.00000000000E+00  0.00000000000E+00 -0.96920964707E+03  0.29471308440E+04  0.27832019100E+04 0.  0.
        5    1    3    3  502    0 -0.25400092968E+03  0.42294225413E+03 -0.18624500444E+04  0.19266911741E+04  0.46999998093E+01 0. -1.
       -5    1    3    3    0  502  0.25400092968E+03 -0.42294225413E+03  0.89324039729E+03  0.10204396699E+04  0.46999998093E+01 0.  1.
</event>
<event>
 5   0  0.1388269E-05  0.2714157E+04  0.7818609E-02  0.8330426E-01
        2   -1    0    0  501    0  0.00000000000E+00  0.00000000000E+00  0.23850422710E+04  0.23850422710E+04  0.25500000920E-02 0.  1.
       -2   -1    0    0    0  501  0.00000000000E+00  0.00000000000E+00 -0.77217183462E+03  0.77217183463E+03  0.25500000920E-02 0. -1.
    10030    2    1    2    0    0  0.00000000000E+00  0.00000000000E+00  0.16128704364E+04  0.31572141057E+04  0.27141573028E+04 0.  0.
        1    1    3    3  502    0  0.79150718840E+02  0.12084648183E+04  0.94089720727E+02  0.12147036383E+04  0.50400001928E-02 0. -1.
       -1    1    3    3    0  502 -0.79150718840E+02 -0.12084648183E+04  0.15187807157E+04  0.19425104673E+04  0.50400001928E-02 0.  1.
</event>
<event>
 5   0  0.5281919E-06  0.2745969E+04  0.7818609E-02  0.8320242E-01
        1   -1    0    0  501    0  0.00000000000E+00  0.00000000000E+00  0.18439282371E+04  0.18439282371E+04  0.50400001928E-02 0. -1.
       -1   -1    0    0    0  501  0.00000000000E+00  0.00000000000E+00 -0.10223206017E+04  0.10223206017E+04  0.50400001928E-02 0.  1.
    10030    2    1    2    0    0  0.00000000000E+00  0.00000000000E+00  0.82160763544E+03  0.28662488388E+04  0.27459685539E+04 0.  0.
        4    1    3    3  502    0 -0.17269748016E+03 -0.32548806710E+03 -0.96974773626E+03  0.10373905660E+04  0.12699999809E+01 0.  1.
       -4    1    3    3    0  502  0.17269748016E+03  0.32548806710E+03  0.17913553717E+04  0.18288582728E+04  0.12699999809E+01 0. -1.
</event>
<event>
 5   0  0.4764214E-06  0.2761367E+04  0.7818609E-02  0.8315364E-01
        1   -1    0    0  501    0  0.00000000000E+00  0.00000000000E+00  0.16226528885E+04  0.16226528885E+04  0.50400001928E-02 0. -1.
       -1   -1    0    0    0  501  0.00000000000E+00  0.00000000000E+00 -0.11747966583E+04  0.11747966583E+04  0.50400001928E-02 0.  1.
    10030    2    1    2    0    0  0.00000000000E+00  0.00000000000E+00  0.44785623022E+03  0.27974495468E+04  0.27613671911E+04 0.  0.
        3    1    3    3  502    0  0.10538391005E+04  0.64572645038E+03  0.84739457354E+03  0.14985383118E+04  0.10100000352E+00 0. -1.
       -3    1    3    3    0  502 -0.10538391005E+04 -0.64572645038E+03 -0.39953834332E+03  0.12989112350E+04  0.10100000352E+00 0.  1.
</event>
<event>
 5   0  0.4764214E-06  0.2667523E+04  0.7818609E-02  0.8345620E-01
       -1   -1    0    0    0  501  0.00000000000E+00  0.00000000000E+00  0.16731704457E+04  0.16731704457E+04  0.50400001928E-02 0. -1.
        1   -1    0    0  501    0  0.00000000000E+00  0.00000000000E+00 -0.10632029196E+04  0.10632029196E+04  0.50400001928E-02 0.  1.
    10030    2    1    2    0    0  0.00000000000E+00  0.00000000000E+00  0.60996752616E+03  0.27363733653E+04  0.26675229730E+04 0.  0.
        3    1    3    3  502    0  0.49392782826E+03  0.51033143689E+03  0.14630675231E+04  0.16263362083E+04  0.10100000352E+00 0. -1.
       -3    1    3    3    0  502 -0.49392782826E+03 -0.51033143689E+03 -0.85309999694E+03  0.11100371570E+04  0.10100000352E+00 0.  1.
</event>
<event>
 5   0  0.1302063E-05  0.2543785E+04  0.7818609E-02  0.8387551E-01
        2   -1    0    0  501    0  0.00000000000E+00  0.00000000000E+00  0.25022114367E+04  0.25022114367E+04  0.25500000920E-02 0. -1.
       -2   -1    0    0    0  501  0.00000000000E+00  0.00000000000E+00 -0.64651242716E+03  0.64651242717E+03  0.25500000920E-02 0.  1.
    10030    2    1    2    0    0  0.00000000000E+00  0.00000000000E+00  0.18556990095E+04  0.31487238639E+04  0.25437852026E+04 0.  0.
        2    1    3    3  502    0 -0.66206760795E+03 -0.64696939151E+03  0.20075210098E+04  0.22106658535E+04  0.25500000920E-02 0. -1.
       -2    1    3    3    0  502  0.66206760795E+03  0.64696939151E+03 -0.15182200026E+03  0.93805801037E+03  0.25500000920E-02 0.  1.
</event>
<event>
 5   0  0.4764214E-06  0.2818265E+04  0.7818609E-02  0.8297620E-01
        1   -1    0    0  501    0  0.00000000000E+00  0.00000000000E+00  0.12455893748E+04  0.12455893748E+04  0.50400001928E-02 0. -1.
       -1   -1    0    0    0  501  0.00000000000E+00  0.00000000000E+00 -0.15941482042E+04  0.15941482042E+04  0.50400001928E-02 0.  1.
    10030    2    1    2    0    0  0.00000000000E+00  0.00000000000E+00 -0.34855882944E+03  0.28397375790E+04  0.28182647604E+04 0.  0.
        3    1    3    3  502    0  0.80032028489E+03 -0.36922987717E+03 -0.12821156935E+04  0.15558482967E+04  0.10100000352E+00 0.  1.
       -3    1    3    3    0  502 -0.80032028489E+03  0.36922987717E+03  0.93355686405E+03  0.12838892823E+04  0.10100000352E+00 0. -1.
</event>
<event>
 5   0  0.5107453E-06  0.2824236E+04  0.7818609E-02  0.8295783E-01
        1   -1    0    0  501    0  0.00000000000E+00  0.00000000000E+00  0.17457511189E+04  0.17457511189E+04  0.50400001928E-02 0. -1.
       -1   -1    0    0    0  501  0.00000000000E+00  0.00000000000E+00 -0.11422463153E+04  0.11422463153E+04  0.50400001928E-02 0.  1.
    10030    2    1    2    0    0  0.00000000000E+00  0.00000000000E+00  0.60350480357E+03  0.28879974342E+04  0.28242363803E+04 0.  0.
        2    1    3    3  502    0 -0.83791371841E+03 -0.96562356695E+03  0.91491423054E+03  0.15721311401E+04  0.25500000920E-02 0. -1.
       -2    1    3    3    0  502  0.83791371841E+03  0.96562356695E+03 -0.31140942696E+03  0.13158662940E+04  0.25500000920E-02 0.  1.
</event>
<event>
 5   0  0.5281919E-06  0.2803165E+04  0.7818609E-02  0.8302286E-01
       -1   -1    0    0    0  501  0.00000000000E+00  0.00000000000E+00  0.10783728369E+04  0.10783728369E+04  0.50400001928E-02 0. -1.
        1   -1    0    0  501    0  0.00000000000E+00  0.00000000000E+00 -0.18216650625E+04  0.18216650626E+04  0.50400001928E-02 0.  1.
    10030    2    1    2    0    0  0.00000000000E+00  0.00000000000E+00 -0.74329222561E+03  0.29000378995E+04  0.28031654403E+04 0.  0.
        4    1    3    3  502    0  0.63027102702E+03 -0.11709053154E+04 -0.82986512290E+03  0.15674624590E+04  0.12699999809E+01 0.  1.
       -4    1    3    3    0  502 -0.63027102702E+03  0.11709053154E+04  0.86572897290E+02  0.13325754405E+04  0.12699999809E+01 0. -1.
</event>
<event>
 5   0  0.1350863E-05  0.2807184E+04  0.7818609E-02  0.8301041E-01
        2   -1    0    0  501    0  0.00000000000E+00  0.00000000000E+00  0.24036233953E+04  0.24036233953E+04  0.25500000920E-02 0.  1.
       -2   -1    0    0    0  501  0.00000000000E+00  0.00000000000E+00 -0.81962526241E+03  0.81962526242E+03  0.25500000920E-02 0. -1.
    10030    2    1    2    0    0  0.00000000000E+00  0.00000000000E+00  0.15839981329E+04  0.32232486577E+04  0.28071839670E+04 0.  0.
        3    1    3    3  502    0  0.32725589220E+02  0.10697672637E+04 -0.25066387545E+03  0.10992294352E+04  0.10100000352E+00 0. -1.
       -3    1    3    3    0  502 -0.32725589220E+02 -0.10697672637E+04  0.18346620084E+04  0.21240192225E+04  0.10100000352E+00 0.  1.
</event>
<event>
 5   0  0.1350863E-05  0.2717936E+04  0.7818609E-02  0.8329209E-01
        2   -1    0    0  501    0  0.00000000000E+00  0.00000000000E+00  0.14873156962E+04  0.14873156962E+04  0.25500000920E-02 0.  1.
       -2   -1    0    0    0  501  0.00000000000E+00  0.00000000000E+00 -0.12416959665E+04  0.12416959665E+04  0.25500000920E-02 0. -1.
    10030    2    1    2    0    0  0.00000000000E+00  0.00000000000E+00  0.24561972963E+03  0.27290116627E+04  0.27179359086E+04 0.  0.
        3    1    3    3  502    0  0.59720938921E+03 -0.25752611374E+03  0.13209096300E+04  0.14723386209E+04  0.10100000352E+00 0.  1.
       -3    1    3    3    0  502 -0.59720938921E+03  0.25752611374E+03 -0.10752899004E+04  0.12566730418E+04  0.10100000352E+00 0. -1.
</event>
<event>
 5   0  0.5107453E-06  0.2801268E+04  0.7818609E-02  0.8302875E-01
        1   -1    0    0  501    0  0.00000000000E+00  0.00000000000E+00  0.12304058343E+04  0.12304058343E+04  0.50400001928E-02 0.  1.
       -1   -1    0    0    0  501  0.00000000000E+00  0.00000000000E+00 -0.15944138468E+04  0.15944138468E+04  0.50400001928E-02 0. -1.
    10030    2    1    2    0    0  0.00000000000E+00  0.00000000000E+00 -0.36400801249E+03  0.28248196811E+04  0.28012683552E+04 0.  0.
        2    1    3    3  502    0  0.83821721030E+03 -0.96068566253E+03 -0.76675080078E+03  0.14877606744E+04  0.25500000920E-02 0. -1.
       -2    1    3    3    0  502 -0.83821721030E+03  0.96068566253E+03  0.40274278829E+03  0.13370590067E+04  0.25500000920E-02 0.  1.
</event>
<event>
 5   0  0.5023691E-06  0.2940320E+04  0.7818609E-02  0.8260981E-01
       -1   -1    0    0    0  501  0.00000000000E+00  0.00000000000E+00  0.24369767470E+04  0.24369767470E+04  0.50400001928E-02 0.  1.
        1   -1    0    0  501    0  0.00000000000E+00  0.00000000000E+00 -0.88690658159E+03  0.88690658161E+03  0.50400001928E-02 0. -1.
    10030    2    1    2    0    0  0.00000000000E+00  0.00000000000E+00  0.15500701654E+04  0.33238833286E+04  0.29403201976E+04 0.  0.
        5    1    3    3  502    0  0.42719215103E+03  0.27642754651E+03 -0.78418351242E+03  0.93481077952E+03  0.46999998093E+01 0. -1.
       -5    1    3    3    0  502 -0.42719215103E+03 -0.27642754651E+03  0.23342536778E+04  0.23890725491E+04  0.46999998093E+01 0.  1.
</event>
<event>
 5   0  0.1283052E-05  0.2768301E+04  0.7818609E-02  0.8313178E-01
       -2   -1    0    0    0  501  0.00000000000E+00  0.00000000000E+00  0.16030405514E+04  0.16030405514E+04  0.25500000920E-02 0.  1.
        2   -1    0    0  501    0  0.00000000000E+00  0.00000000000E+00 -0.11951488679E+04  0.11951488679E+04  0.25500000920E-02 0. -1.
    10030    2    1    2    0    0  0.00000000000E+00  0.00000000000E+00  0.40789168353E+03  0.27981894192E+04  0.27683006340E+04 0.  0.
        5    1    3    3  502    0  0.10022664327E+04  0.77310766887E+03 -0.36211529308E+03  0.13165800565E+04  0.46999998093E+01 0. -1.
       -5    1    3    3    0  502 -0.10022664327E+04 -0.77310766887E+03  0.77000697661E+03  0.14816093627E+04  0.46999998093E+01 0.  1.
</event>
<event>
 5   0  0.1388269E-05  0.2775364E+04  0.7818609E-02  0.8310958E-01
       -2   -1    0    0    0  501  0.00000000000E+00  0.00000000000E+00  0.11704676098E+04  0.11704676098E+04  0.25500000920E-02 0. -1.
        2   -1    0    0  501    0  0.00000000000E+00  0.00000000000E+00 -0.16452067760E+04  0.16452067760E+04  0.25500000920E-02 0.  1.
    10030    2    1    2    0    0  0.00000000000E+00  0.00000000000E+00 -0.47473916620E+03  0.28156743858E+04  0.27753639349E+04 0.  0.
        1    1    3    3  502    0 -0.21662578577E+03  0.13574070900E+04 -0.44395141013E+02  0.13753005735E+04  0.50400001928E-02 0. -1.
       -1    1    3    3    0  502  0.21662578577E+03 -0.13574070900E+04 -0.43034402519E+03  0.14403738123E+04  0.50400001928E-02 0.  1.
</event>
<event>
 5   0  0.5023691E-06  0.2766591E+04  0.7818609E-02  0.8313716E-01
        1   -1    0    0  501    0  0.00000000000E+00  0.00000000000E+00  0.19091467362E+04  0.19091467363E+04  0.50400001928E-02 0. -1.
       -1   -1    0    0    0  501  0.00000000000E+00  0.00000000000E+00 -0.10022834984E+04  0.10022834984E+04  0.50400001928E-02 0.  1.
    10030    2    1    2    0    0  0.00000000000E+00  0.00000000000E+00  0.90686323787E+03  0.29114302346E+04  0.27665908767E+04 0.  0.
        5    1    3    3  502    0  0.91767049728E+03  0.38660245640E+03  0.14638568859E+04  0.17704461792E+04  0.46999998093E+01 0. -1.
       -5    1    3    3    0  502 -0.91767049728E+03 -0.38660245640E+03 -0.55699364805E+03  0.11409840555E+04  0.46999998093E+01 0.  1.
</event>
<event>
 5   0  0.5281919E-06  0.2639005E+04  0.7818609E-02  0.8355071E-01
       -1   -1    0    0    0  501  0.00000000000E+00  0.00000000000E+00  0.15089258625E+04  0.15089258625E+04  0.50400001928E-02 0.  1.
        1   -1    0    0  501    0  0.00000000000E+00  0.00000000000E+00 -0.11538587281E+04  0.11538587281E+04  0.50400001928E-02 0. -1.
    10030    2    1    2    0    0  0.00000000000E+00  0.00000000000E+00  0.35506713433E+03  0.26627845906E+04  0.26390053251E+04 0.  0.
        4    1    3    3  502    0 -0.68683346347E+03  0.10824438769E+04 -0.13778947532E+03  0.12893457665E+04  0.12699999809E+01 0. -1.
       -4    1    3    3    0  502  0.68683346347E+03 -0.10824438769E+04  0.49285660965E+03  0.13734388241E+04  0.12699999809E+01 0.  1.
</event>
<event>
 5   0  0.1330962E-05  0.2787273E+04  0.7818609E-02  0.8307230E-01
        2   -1    0    0  501    0  0.00000000000E+00  0.00000000000E+00  0.19786177298E+04  0.19786177298E+04  0.25500000920E-02 0. -1.
       -2   -1    0    0    0  501  0.00000000000E+00  0.00000000000E+00 -0.98160594693E+03  0.98160594693E+03  0.25500000920E-02 0.  1.
    10030    2    1    2    0    0  0.00000000000E+00  0.00000000000E+00  0.99701178286E+03  0.29602236767E+04  0.27872731694E+04 0.  0.
        4    1    3    3  502    0  0.32918989728E+03  0.64046818268E+03 -0.76870092400E+03  0.10533129663E+04  0.12699999809E+01 0.  1.
       -4    1    3    3    0  502 -0.32918989728E+03 -0.64046818268E+03  0.17657127069E+04  0.19069107104E+04  0.12699999809E+01 0. -1.
</event>
<event>
 5   0  0.1350863E-05  0.2767780E+04  0.7818609E-02  0.8313342E-01
        2   -1    0    0  501    0  0.00000000000E+00  0.00000000000E+00  0.17331767622E+04  0.17331767622E+04  0.25500000920E-02 0.  1.
       -2   -1    0    0    0  501  0.00000000000E+00  0.00000000000E+00 -0.11049949621E+04  0.11049949621E+04  0.25500000920E-02 0. -1.
    10030    2    1    2    0    0  0.00000000000E+00  0.00000000000E+00  0.62818180009E+03  0.28381717243E+04  0.27677800423E+04 0.  0.
        3    1    3    3  502    0 -0.82224794441E+02 -0.13748266057E+04  0.17559118145E+03  0.13884312679E+04  0.10100000352E+00 0. -1.
       -3    1    3    3    0  502  0.82224794441E+02  0.13748266057E+04  0.45259061864E+03  0.14497404564E+04  0.10100000352E+00 0.  1.
</event>
<event>
 5   0  0.1283052E-05  0.2839884E+04  0.7818609E-02  0.8290992E-01
        2   -1    0    0  501    0  0.00000000000E+00  0.00000000000E+00  0.10577465100E+04  0.10577465100E+04  0.25500000920E-02 0.  1.
       -2   -1    0    0    0  501  0.00000000000E+00  0.00000000000E+00 -0.19061608486E+04  0.19061608486E+04  0.25500000920E-02 0. -1.
    10030    2    1    2    0    0  0.00000000000E+00  0.00000000000E+00 -0.84841433862E+03  0.29639073587E+04  0.28398837900E+04 0.  0.
        5    1    3    3  502    0 -0.21495769070E+03  0.12032715158E+04 -0.11783595327E+04  0.16978287392E+04  0.46999998093E+01 0. -1.
       -5    1    3    3    0  502  0.21495769070E+03 -0.12032715158E+04  0.32994519405E+03  0.12660786194E+04  0.46999998093E+01 0.  1.
</event>
<event>
 5   0  0.1283052E-05  0.2735486E+04  0.7818609E-02  0.8323582E-01
        2   -1    0    0  501    0  0.00000000000E+00  0.00000000000E+00  0.11085725135E+04  0.11085725135E+04  0.25500000920E-02 0.  1.
       -2   -1    0    0    0  501  0.00000000000E+00  0.00000000000E+00 -0.16875041787E+04  0.16875041787E+04  0.25500000920E-02 0. -1.
    10030    2    1    2    0    0  0.00000000000E+00  0.00000000000E+00 -0.57893166526E+03  0.27960766922E+04  0.27354858792E+04 0.  0.
        5    1    3    3  502    0  0.78817579134E+03  0.42299292912E+03  0.76812823345E+03  0.11790619870E+04  0.46999998093E+01 0.  1.
       -5    1    3    3    0  502 -0.78817579134E+03 -0.42299292912E+03 -0.13470598987E+04  0.16170147052E+04  0.46999998093E+01 0. -1.
</event>
<event>
 5   0  0.1283052E-05  0.2839200E+04  0.7818609E-02  0.8291201E-01
        2   -1    0    0  501    0  0.00000000000E+00  0.00000000000E+00  0.17622584928E+04  0.17622584928E+04  0.25500000920E-02 0. -1.
       -2   -1    0    0    0  501  0.00000000000E+00  0.00000000000E+00 -0.11435686209E+04  0.11435686210E+04  0.25500000920E-02 0.  1.
    10030    2    1    2    0    0  0.00000000000E+00  0.00000000000E+00  0.61868987181E+03  0.29058271137E+04  0.28391995452E+04 0.  0.
        5    1    3    3  502    0  0.16362997589E+02  0.80947804412E+03 -0.88408913925E+03  0.11988153101E+04  0.46999998093E+01 0.  1.
       -5    1    3    3    0  502 -0.16362997589E+02 -0.80947804412E+03  0.15027790111E+04  0.17070118036E+04  0.46999998093E+01 0. -1.
</event>
<event>
 5   0  0.5023691E-06  0.2599879E+04  0.7818609E-02  0.8368242E-01
        1   -1    0    0  501    0  0.00000000000E+00  0.00000000000E+00  0.18984275554E+04  0.18984275554E+04  0.50400001928E-02 0.  1.
       -1   -1    0    0    0  501  0.00000000000E+00  0.00000000000E+00 -0.89012762539E+03  0.89012762540E+03  0.50400001928E-02 0. -1.
    10030    2    1    2    0    0  0.00000000000E+00  0.00000000000E+00  0.10082999300E+04  0.27885551808E+04  0.25998790832E+04 0.  0.
        5    1    3    3  502    0  0.96092641153E+03  0.19491932497E+03 -0.41128027425E+03  0.10632716801E+04  0.46999998093E+01 0. -1.
       -5    1    3    3    0  502 -0.96092641153E+03 -0.19491932497E+03  0.14195802042E+04  0.17252835007E+04  0.46999998093E+01 0.  1.
</event>
<event>
 5   0  0.1388269E-05  0.2833770E+04  0.7818609E-02  0.8292860E-01
        2   -1    0    0  501    0  0.00000000000E+00  0.00000000000E+00  0.13924829853E+04  0.13924829853E+04  0.25500000920E-02 0. -1.
       -2   -1    0    0    0  501  0.00000000000E+00  0.00000000000E+00 -0.14417142484E+04  0.14417142484E+04  0.25500000920E-02 0.  1.
    10030    2    1    2    0    0  0.00000000000E+00  0.00000000000E+00 -0.49231263038E+02  0.28341972337E+04  0.28337696170E+04 0.  0.
        1    1    3    3  502    0  0.52294516673E+03 -0.11599230522E+04 -0.64814328583E+03  0.14279295688E+04  0.50400001928E-02 0.  1.
       -1    1    3    3    0  502 -0.52294516673E+03  0.11599230522E+04  0.59891202280E+03  0.14062676649E+04  0.50400001928E-02 0. -1.
</event>
<event>
 5   0  0.5107453E-06  0.2833638E+04  0.7818609E-02  0.8292901E-01
       -1   -1    0    0    0  501  0.00000000000E+00  0.00000000000E+00  0.10989308313E+04  0.10989308313E+04  0.50400001928E-02 0. -1.
        1   -1    0    0  501    0  0.00000000000E+00  0.00000000000E+00 -0.18266621930E+04  0.18266621930E+04  0.50400001928E-02 0.  1.
    10030    2    1    2    0    0  0.00000000000E+00  0.00000000000E+00 -0.72773136169E+03  0.29255930243E+04  0.28336375226E+04 0.  0.
        2    1    3    3  502    0 -0.40662714359E+03  0.99427874075E+03 -0.13176627874E+04  0.17000503138E+04  0.25500000920E-02 0.  1.
       -2    1    3    3    0  502  0.40662714359E+03 -0.99427874075E+03  0.58993142572E+03  0.12255427105E+04  0.25500000920E-02 0. -1.
</event>
<event>
 5   0  0.5107453E-06  0.2333122E+04  0.7818609E-02  0.8464975E-01
        1   -1    0    0  501    0  0.00000000000E+00  0.00000000000E+00  0.17687053982E+04  0.17687053982E+04  0.50400001928E-02 0.  1.
       -1   -1    0    0    0  501  0.00000000000E+00  0.00000000000E+00 -0.76941253224E+03  0.76941253225E+03  0.50400001928E-02 0. -1.
    10030    2    1    2    0    0  0.00000000000E+00  0.00000000000E+00  0.99929286600E+03  0.25381179305E+04  0.23331215993E+04 0.  0.
        2    1    3    3  502    0 -0.74952377010E+02 -0.97839728458E+03  0.11859365923E+04  0.15392610910E+04  0.25500000920E-02 0.  1.
       -2    1    3    3    0  502  0.74952377010E+02  0.97839728458E+03 -0.18664372627E+03  0.99885683952E+03  0.25500000920E-02 0. -1.
</event>
<event>
 5   0  0.4764214E-06  0.2811929E+04  0.7818609E-02  0.8299574E-01
       -1   -1    0    0    0  501  0.00000000000E+00  0.00000000000E+00  0.12921525003E+04  0.12921525003E+04  0.50400001928E-02 0. -1.
        1   -1    0    0  501    0  0.00000000000E+00  0.00000000000E+00 -0.15298008647E+04  0.15298008647E+04  0.50400001928E-02 0.  1.
    10030    2    1    2    0    0  0.00000000000E+00  0.00000000000E+00 -0.23764836447E+03  0.28219533650E+04  0.28119288841E+04 0.  0.
        3    1    3    3  502    0 -0.78513196900E+02  0.28618260036E+02  0.12896579730E+04  0.12923625747E+04  0.10100000352E+00 0. -1.
       -3    1    3    3    0  502  0.78513196900E+02 -0.28618260036E+02 -0.15273063375E+04  0.15295907903E+04  0.10100000352E+00 0.  1.
</event>
<event>
 5   0  0.1388269E-05  0.2769254E+04  0.7818609E-02  0.8312878E-01
        2   -1    0    0  501    0  0.00000000000E+00  0.00000000000E+00  0.23416990653E+04  0.23416990653E+04  0.25500000920E-02 0. -1.
       -2   -1    0    0    0  501  0.00000000000E+00  0.00000000000E+00 -0.81871840671E+03  0.81871840672E+03  0.25500000920E-02 0.  1.
    10030    2    1    2    0    0  0.00000000000E+00  0.00000000000E+00  0.15229806586E+04  0.31604174720E+04  0.27692541434E+04 0.  0.
        1    1    3    3  502    0  0.37388877640E+03 -0.51395739049E+03 -0.64241093994E+03  0.90367960702E+03  0.50400001928E-02 0.  1.
       -1    1    3    3    0  502 -0.37388877640E+03  0.51395739049E+03  0.21653915985E+04  0.22567378650E+04  0.50400001928E-02 0. -1.
</event>
<event>
 5   0  0.5281919E-06  0.2790697E+04  0.7818609E-02  0.8306162E-01
       -1   -1    0    0    0  501  0.00000000000E+00  0.00000000000E+00  0.26749150529E+04  0.26749150529E+04  0.50400001928E-02 0. -1.
        1   -1    0    0  501    0  0.00000000000E+00  0.00000000000E+00 -0.72787245119E+03  0.72787245121E+03  0.50400001928E-02 0.  1.
    10030    2    1    2    0    0  0.00000000000E+00  0.00000000000E+00  0.19470426017E+04  0.34027875041E+04  0.27906966702E+04 0.  0.
        4    1    3    3  502    0 -0.13804018509E+03 -0.12924511398E+04  0.15922774328E+04  0.20554401177E+04  0.12699999809E+01 0. -1.
       -4    1    3    3    0  502  0.13804018509E+03  0.12924511398E+04  0.35476516883E+03  0.13473473863E+04  0.12699999809E+01 0.  1.
</event>
<event>
 5   0  0.5281919E-06  0.2763060E+04  0.7818609E-02  0.8314829E-01
       -1   -1    0    0    0  501  0.00000000000E+00  0.00000000000E+00  0.16320182670E+04  0.16320182670E+04  0.50400001928E-02 0. -1.
        1   -1    0    0  501    0  0.00000000000E+00  0.00000000000E+00 -0.11694873912E+04  0.11694873912E+04  0.50400001928E-02 0.  1.
    10030    2    1    2    0    0  0.00000000000E+00  0.00000000000E+00  0.46253087573E+03  0.28015056582E+04  0.27630597428E+04 0.  0.
        4    1    3    3  502    0 -0.10185371765E+04 -0.91093012874E+03  0.43759510333E+03  0.14348180256E+04  0.12699999809E+01 0. -1.
       -4    1    3    3    0  502  0.10185371765E+04  0.91093012874E+03  0.24935772398E+02  0.13666876326E+04  0.12699999809E+01 0.  1.
</event>
<event>
 5   0  0.5023691E-06  0.2807802E+04  0.7818609E-02  0.8300850E-01
        1   -1    0    0  501    0  0.00000000000E+00  0.00000000000E+00  0.16085213865E+04  0.16085213865E+04  0.50400001928E-02 0.  1.
       -1   -1    0    0    0  501  0.00000000000E+00  0.00000000000E+00 -0.12253102319E+04  0.12253102320E+04  0.50400001928E-02 0. -1.
    10030    2    1    2    0    0  0.00000000000E+00  0.00000000000E+00  0.38321115454E+03  0.28338316185E+04  0.28078017830E+04 0.  0.
        5    1    3    3  502    0 -0.11178085361E+04  0.11107476108E+03  0.10414821471E+04  0.15318422500E+04  0.46999998093E+01 0.  1.
       -5    1    3    3    0  502  0.11178085361E+04 -0.11107476108E+03 -0.65827099261E+03  0.13019893685E+04  0.46999998093E+01 0. -1.
</event>
<event>
 5   0  0.1302063E-05  0.2850307E+04  0.7818609E-02  0.8287818E-01
       -2   -1    0    0    0  501  0.00000000000E+00  0.00000000000E+00  0.10369977162E+04  0.10369977162E+04  0.25500000920E-02 0.  1.
        2   -1    0    0  501    0  0.00000000000E+00  0.00000000000E+00 -0.19585981707E+04  0.19585981707E+04  0.25500000920E-02 0. -1.
    10030    2    1    2    0    0  0.00000000000E+00  0.00000000000E+00 -0.92160045455E+03  0.29955958869E+04  0.28503065309E+04 0.  0.
        2    1    3    3  502    0  0.62103684654E+02  0.24636066752E+03 -0.19346047676E+04  0.19512165572E+04  0.25500000920E-02 0. -1.
       -2    1    3    3    0  502 -0.62103684654E+02 -0.24636066752E+03  0.10130043131E+04  0.10443793298E+04  0.25500000920E-02 0.  1.
</event>
<event>
 5   0  0.1330962E-05  0.2676721E+04  0.7818609E-02  0.8342598E-01
        2   -1    0    0  501    0  0.00000000000E+00  0.00000000000E+00  0.14855331151E+04  0.14855331151E+04  0.25500000920E-02 0.  1.
       -2   -1    0    0    0  501  0.00000000000E+00  0.00000000000E+00 -0.12057682264E+04  0.12057682264E+04  0.25500000920E-02 0. -1.
    10030    2    1    2    0    0  0.00000000000E+00  0.00000000000E+00  0.27976488873E+03  0.26913013415E+04  0.26767208516E+04 0.  0.
        4    1    3    3  502    0  0.40265871881E+03 -0.91616146163E+03  0.10333856811E+04  0.14385316981E+04  0.12699999809E+01 0.  1.
       -4    1    3    3    0  502 -0.40265871881E+03  0.91616146163E+03 -0.75362079241E+03  0.12527696433E+04  0.12699999809E+01 0. -1.
</event>
<event>
 5   0  0.1283052E-05  0.2793849E+04  0.7818609E-02  0.8305180E-01
       -2   -1    0    0    0  501  0.00000000000E+00  0.00000000000E+00  0.12800926967E+04  0.12800926967E+04  0.25500000920E-02 0. -1.
        2   -1    0    0  501    0  0.00000000000E+00  0.00000000000E+00 -0.15244196829E+04  0.15244196829E+04  0.25500000920E-02 0.  1.
    10030    2    1    2    0    0  0.00000000000E+00  0.00000000000E+00 -0.24432698612E+03  0.28045123796E+04  0.27938493179E+04 0.  0.
        5    1    3    3  502    0  0.10676405954E+04  0.88398755666E+03 -0.29627857898E+03  0.14174249637E+04  0.46999998093E+01 0.  1.
       -5    1    3    3    0  502 -0.10676405954E+04 -0.88398755666E+03  0.51951592863E+02  0.13870874159E+04  0.46999998093E+01 0. -1.
</event>
<event>
 5   0  0.1350863E-05  0.2788603E+04  0.7818609E-02  0.8306816E-01
       -2   -1    0    0    0  501  0.00000000000E+00  0.00000000000E+00  0.62687297029E+03  0.62687297030E+03  0.25500000920E-02 0. -1.
        2   -1    0    0  501    0  0.00000000000E+00  0.00000000000E+00 -0.31012282529E+04  0.31012282529E+04  0.25500000920E-02 0.  1.
    10030    2    1    2    0    0  0.00000000000E+00  0.00000000000E+00 -0.24743552826E+04  0.37281012232E+04  0.27886026368E+04 0.  0.
        3    1    3    3  502    0  0.45261604800E+03 -0.10688458675E+04 -0.20439382938E+03  0.11785879785E+04  0.10100000352E+00 0. -1.
       -3    1    3    3    0  502 -0.45261604800E+03  0.10688458675E+04 -0.22699614532E+04  0.25495132446E+04  0.10100000352E+00 0.  1.
</event>
<event>
 5   0  0.1283052E-05  0.2733670E+04  0.7818609E-02  0.8324162E-01
       -2   -1    0    0    0  501  0.00000000000E+00  0.00000000000E+00  0.82521240283E+03  0.82521240283E+03  0.25500000920E-02 0. -1.
        2   -1    0    0  501    0  0.00000000000E+00  0.00000000000E+00 -0.22639485400E+04  0.22639485400E+04  0.25500000920E-02 0.  1.
    10030    2    1    2    0    0  0.00000000000E+00  0.00000000000E+00 -0.14387361372E+04  0.30891609429E+04  0.27336703639E+04 0.  0.
        5    1    3    3  502    0  0.16111173908E+03 -0.32643329801E+03  0.76941630516E+03  0.85119870252E+03  0.46999998093E+01 0. -1.
       -5    1    3    3    0  502 -0.16111173908E+03  0.32643329801E+03 -0.22081524424E+04  0.22379622404E+04  0.46999998093E+01 0.  1.
</event>
<event>
 5   0  0.1302063E-05  0.2827607E+04  0.7818609E-02  0.8294748E-01
       -2   -1    0    0    0  501  0.00000000000E+00  0.00000000000E+00  0.93461910126E+03  0.93461910126E+03  0.25500000920E-02 0. -1.
        2   -1    0    0  501    0  0.00000000000E+00  0.00000000000E+00 -0.21386684725E+04  0.21386684725E+04  0.25500000920E-02 0.  1.
    10030    2    1    2    0    0  0.00000000000E+00  0.00000000000E+00 -0.12040493712E+04  0.30732875738E+04  0.28276070488E+04 0.  0.
        2    1    3    3  502    0 -0.29289889408E+03  0.52334543825E+03  0.78951258879E+03  0.99146877800E+03  0.25500000920E-02 0. -1.
       -2    1    3    3    0  502  0.29289889408E+03 -0.52334543825E+03 -0.19935619600E+04  0.20818187958E+04  0.25500000920E-02 0.  1.
</event>
<event>
 5   0  0.5217999E-06  0.2789526E+04  0.7818609E-02  0.8306527E-01
       -1   -1    0    0    0  501  0.00000000000E+00  0.00000000000E+00  0.15309678367E+04  0.15309678367E+04  0.50400001928E-02 0.  1.
        1   -1    0    0  501    0  0.00000000000E+00  0.00000000000E+00 -0.12706761736E+04  0.12706761736E+04  0.50400001928E-02 0. -1.
    10030    2    1    2    0    0  0.00000000000E+00  0.00000000000E+00  0.26029166312E+03  0.28016440103E+04  0.27895263774E+04 0.  0.
        1    1    3    3  502    0  0.81533747419E+03 -0.42464105942E+03  0.11836395296E+04  0.14986986896E+04  0.50400001928E-02 0.  1.
       -1    1    3    3    0  502 -0.81533747419E+03  0.42464105942E+03 -0.92334786646E+03  0.13029453207E+04  0.50400001928E-02 0. -1.
</event>
<event>
 5   0  0.5281919E-06  0.2765856E+04  0.7818609E-02  0.8313948E-01
       -1   -1    0    0    0  501  0.00000000000E+00  0.00000000000E+00  0.16462709899E+04  0.16462709899E+04  0.50400001928E-02 0.  1.
        1   -1    0    0  501    0  0.00000000000E+00  0.00000000000E+00 -0.11617099696E+04  0.11617099696E+04  0.50400001928E-02 0. -1.
    10030    2    1    2    0    0  0.00000000000E+00  0.00000000000E+00  0.48456102032E+03  0.28079809595E+04  0.27658556879E+04 0.  0.
        4    1    3    3  502    0  0.90816069959E+02 -0.94790453004E+03  0.12604090043E+04  0.15796844709E+04  0.12699999809E+01 0.  1.
       -4    1    3    3    0  502 -0.90816069959E+02  0.94790453004E+03 -0.77584798401E+03  0.12282964886E+04  0.12699999809E+01 0. -1.
</event>
<event>
 5   0  0.1330962E-05  0.2787548E+04  0.7818609E-02  0.8307145E-01
        2   -1    0    0  501    0  0.00000000000E+00  0.00000000000E+00  0.10264847419E+04  0.10264847419E+04  0.25500000920E-02 0. -1.
       -2   -1    0    0    0  501  0.00000000000E+00  0.00000000000E+00 -0.18924838909E+04  0.18924838909E+04  0.25500000920E-02 0.  1.
    10030    2    1    2    0    0  0.00000000000E+00  0.00000000000E+00 -0.86599914907E+03  0.29189686328E+04  0.27875479104E+04 0.  0.
        4    1    3    3  502    0  0.94030479511E+02  0.11456960429E+04 -0.12582825956E+04  0.17043291516E+04  0.12699999809E+01 0.  1.
       -4    1    3    3    0  502 -0.94030479511E+02 -0.11456960429E+04  0.39228344655E+03  0.12146394811E+04  0.12699999809E+01 0. -1.
</event>
<event>
 5   0  0.1330962E-05  0.2798413E+04  0.7818609E-02  0.8303761E-01
       -2   -1    0    0    0  501  0.00000000000E+00  0.00000000000E+00  0.14198181660E+04  0.14198181660E+04  0.25500000920E-02 0.  1.
        2   -1    0    0  501    0  0.00000000000E+00  0.00000000000E+00 -0.13788937707E+04  0.13788937707E+04  0.25500000920E-02 0. -1.
    10030    2    1    2    0    0  0.00000000000E+00  0.00000000000E+00  0.40924395337E+02  0.27987119367E+04  0.27984127105E+04 0.  0.
        4    1    3    3  502    0 -0.62079557308E+03  0.75978327384E+03 -0.97720100538E+03  0.13847675562E+04  0.12699999809E+01 0. -1.
       -4    1    3    3    0  502  0.62079557308E+03 -0.75978327384E+03  0.10181254007E+04  0.14139443805E+04  0.12699999809E+01 0.  1.
</event>
<event>
 5   0  0.5107453E-06  0.2780583E+04  0.7818609E-02  0.8309322E-01
       -1   -1    0    0    0  501  0.00000000000E+00  0.00000000000E+00  0.97187380451E+03  0.97187380452E+03  0.50400001928E-02 0.  1.
        1   -1    0    0  501    0  0.00000000000E+00  0.00000000000E+00 -0.19888496893E+04  0.19888496893E+04  0.50400001928E-02 0. -1.
    10030    2    1    2    0    0  0.00000000000E+00  0.00000000000E+00 -0.10169758847E+04  0.29607234938E+04  0.27805833303E+04 0.  0.
        2    1    3    3  502    0 -0.38405776381E+03  0.13274350088E+04 -0.67111392856E+03  0.15362219806E+04  0.25500000920E-02 0.  1.
       -2    1    3    3    0  502  0.38405776381E+03 -0.13274350088E+04 -0.34586195619E+03  0.14245015132E+04  0.25500000920E-02 0. -1.
</event>
<event>
 5   0  0.5107453E-06  0.2785492E+04  0.7818609E-02  0.8307787E-01
        1   -1    0    0  501    0  0.00000000000E+00  0.00000000000E+00  0.15793168783E+04  0.15793168783E+04  0.50400001928E-02 0. -1.
       -1   -1    0    0    0  501  0.00000000000E+00  0.00000000000E+00 -0.12282157526E+04  0.12282157526E+04  0.50400001928E-02 0.  1.
    10030    2    1    2    0    0  0.00000000000E+00  0.00000000000E+00  0.35110112568E+03  0.28075326309E+04  0.27854923215E+04 0.  0.
        2    1    3    3  502    0  0.13055376179E+04  0.41725522194E+03 -0.73816605781E+02  0.13725812483E+04  0.25500000920E-02 0.  1.
       -2    1    3    3    0  502 -0.13055376179E+04 -0.41725522194E+03  0.42491773146E+03  0.14349513826E+04  0.25500000920E-02 0. -1.
</event>
<event>
 5   0  0.1302063E-05  0.2935568E+04  0.7818609E-02  0.8262373E-01
       -2   -1    0    0    0  501  0.00000000000E+00  0.00000000000E+00  0.14381737118E+04  0.14381737118E+04  0.25500000920E-02 0.  1.
        2   -1    0    0  501    0  0.00000000000E+00  0.00000000000E+00 -0.14980036796E+04  0.14980036796E+04  0.25500000920E-02 0. -1.
    10030    2    1    2    0    0  0.00000000000E+00  0.00000000000E+00 -0.59829967765E+02  0.29361773914E+04  0.29355677557E+04 0.  0.
        2    1    3    3  502    0 -0.56442539151E+03  0.24514303479E+03  0.13029225880E+04  0.14409297000E+04  0.25500000920E-02 0.  1.
       -2    1    3    3    0  502  0.56442539151E+03 -0.24514303479E+03 -0.13627525558E+04  0.14952476913E+04  0.25500000920E-02 0. -1.
</event>
<event>
 5   0  0.1350863E-05  0.2816831E+04  0.7818609E-02  0.8298062E-01
        2   -1    0    0  501    0  0.00000000000E+00  0.00000000000E+00  0.29360952211E+04  0.29360952211E+04  0.25500000920E-02 0.  1.
       -2   -1    0    0    0  501  0.00000000000E+00  0.00000000000E+00 -0.67560295026E+03  0.67560295027E+03  0.25500000920E-02 0. -1.
    10030    2    1    2    0    0  0.00000000000E+00  0.00000000000E+00  0.22604922709E+04  0.36116981714E+04  0.28168312649E+04 0.  0.
        3    1    3    3  502    0 -0.14615115110E+03 -0.99831491101E+03 -0.12971931642E+03  0.10172609949E+04  0.10100000352E+00 0. -1.
       -3    1    3    3    0  502  0.14615115110E+03  0.99831491101E+03  0.23902115873E+04  0.25944371765E+04  0.10100000352E+00 0.  1.
</event>
<event>
 5   0  0.1302063E-05  0.2766421E+04  0.7818609E-02  0.8313770E-01
       -2   -1    0    0    0  501  0.00000000000E+00  0.00000000000E+00  0.12240803891E+04  0.12240803891E+04  0.25500000920E-02 0.  1.
        2   -1    0    0  501    0  0.00000000000E+00  0.00000000000E+00 -0.15630272158E+04  0.15630272158E+04  0.25500000920E-02 0. -1.
    10030    2    1    2    0    0  0.00000000000E+00  0.00000000000E+00 -0.33894682670E+03  0.27871076050E+04  0.27664207652E+04 0.  0.
        2    1    3    3  502    0 -0.57006914946E+03  0.54844801962E+03  0.97369073574E+03  0.12545308742E+04  0.25500000920E-02 0.  1.
       -2    1    3    3    0  502  0.57006914946E+03 -0.54844801962E+03 -0.13126375624E+04  0.15325767308E+04  0.25500000920E-02 0. -1.
</event>
<event>
 5   0  0.1388269E-05  0.2734975E+04  0.7818609E-02  0.8323745E-01
        2   -1    0    0  501    0  0.00000000000E+00  0.00000000000E+00  0.18879668966E+04  0.18879668966E+04  0.25500000920E-02 0.  1.
       -2   -1    0    0    0  501  0.00000000000E+00  0.00000000000E+00 -0.99049540508E+03  0.99049540508E+03  0.25500000920E-02 0. -1.
    10030    2    1    2    0    0  0.00000000000E+00  0.00000000000E+00  0.89747149156E+03  0.28784623017E+04  0.27349753462E+04 0.  0.
        1    1    3    3  502    0 -0.13226795665E+04  0.33893655997E+03  0.52793885816E+03  0.14639257718E+04  0.50400001928E-02 0.  1.
       -1    1    3    3    0  502  0.13226795665E+04 -0.33893655997E+03  0.36953263340E+03  0.14145365299E+04  0.50400001928E-02 0. -1.
</event>
<event>
 5   0  0.5023691E-06  0.2797196E+04  0.7818609E-02  0.8304139E-01
       -1   -1    0    0    0  501  0.00000000000E+00  0.00000000000E+00  0.13012377123E+04  0.13012377123E+04  0.50400001928E-02 0.  1.
        1   -1    0    0  501    0  0.00000000000E+00  0.00000000000E+00 -0.15032428104E+04  0.15032428104E+04  0.50400001928E-02 0. -1.
    10030    2    1    2    0    0  0.00000000000E+00  0.00000000000E+00 -0.20200509807E+03  0.28044805227E+04  0.27971959070E+04 0.  0.
        5    1    3    3  502    0 -0.91208725860E+03 -0.31585726205E+03 -0.11157575142E+04  0.14753324702E+04  0.46999998093E+01 0. -1.
       -5    1    3    3    0  502  0.91208725860E+03  0.31585726205E+03  0.91375241612E+03  0.13291480524E+04  0.46999998093E+01 0.  1.
</event>
<event>
 5   0  0.1283052E-05  0.2768771E+04  0.7818609E-02  0.8313030E-01
       -2   -1    0    0    0  501  0.00000000000E+00  0.00000000000E+00  0.10940978598E+04  0.10940978599E+04  0.25500000920E-02 0. -1.
        2   -1    0    0  501    0  0.00000000000E+00  0.00000000000E+00 -0.17516930931E+04  0.17516930931E+04  0.25500000920E-02 0.  1.
    10030    2    1    2    0    0  0.00000000000E+00  0.00000000000E+00 -0.65759523330E+03  0.28457909530E+04  0.27687713263E+04 0.  0.
        5    1    3    3  502    0 -0.50078167966E+03  0.10259721686E+04  0.47599077403E+03  0.12369278428E+04  0.46999998093E+01 0. -1.
       -5    1    3    3    0  502  0.50078167966E+03 -0.10259721686E+04 -0.11335860073E+04  0.16088631102E+04  0.46999998093E+01 0.  1.
</event>
<event>
 5   0  0.1330962E-05  0.2960961E+04  0.7818609E-02  0.8254967E-01
        2   -1    0    0  501    0  0.00000000000E+00  0.00000000000E+00  0.19951750097E+04  0.19951750097E+04  0.25500000920E-02 0.  1.
       -2   -1    0    0    0  501  0.00000000000E+00  0.00000000000E+00 -0.10985618209E+04  0.10985618209E+04  0.25500000920E-02 0. -1.
    10030    2    1    2    0    0  0.00000000000E+00  0.00000000000E+00  0.89661318880E+03  0.30937368307E+04  0.29609613924E+04 0.  0.
        4    1    3    3  502    0 -0.90204541949E+03  0.20368258657E+03  0.16562853671E+04  0.18969595054E+04  0.12699999809E+01 0.  1.
       -4    1    3    3    0  502  0.90204541949E+03 -0.20368258657E+03 -0.75967217832E+03  0.11967773253E+04  0.12699999809E+01 0. -1.
</event>
<event>
 5   0  0.1302063E-05  0.2809363E+04  0.7818609E-02  0.8300367E-01
       -2   -1    0    0    0  501  0.00000000000E+00  0.00000000000E+00  0.91932380600E+03  0.91932380601E+03  0.25500000920E-02 0.  1.
        2   -1    0    0  501    0  0.00000000000E+00  0.00000000000E+00 -0.21462837880E+04  0.21462837880E+04  0.25500000920E-02 0. -1.
    10030    2    1    2    0    0  0.00000000000E+00  0.00000000000E+00 -0.12269599820E+04  0.30656075940E+04  0.28093627610E+04 0.  0.
        2    1    3    3  502    0 -0.76258516632E+03  0.65214252550E+03 -0.16861486188E+04  0.19621221099E+04  0.25500000920E-02 0. -1.
       -2    1    3    3    0  502  0.76258516632E+03 -0.65214252550E+03  0.45918863680E+03  0.11034854841E+04  0.25500000920E-02 0.  1.
</event>
<event>
 5   0  0.4764214E-06  0.2186037E+04  0.7818609E-02  0.8524262E-01
       -1   -1    0    0    0  501  0.00000000000E+00  0.00000000000E+00  0.89818677442E+03  0.89818677444E+03  0.50400001928E-02 0.  1.
        1   -1    0    0  501    0  0.00000000000E+00  0.00000000000E+00 -0.13301124027E+04  0.13301124027E+04  0.50400001928E-02 0. -1.
    10030    2    1    2    0    0  0.00000000000E+00  0.00000000000E+00 -0.43192562829E+03  0.22282991772E+04  0.21860369335E+04 0.  0.
        3    1    3    3  502    0 -0.16170007760E+03 -0.22778587545E+03  0.86118601598E+03  0.90535887054E+03  0.10100000352E+00 0.  1.
       -3    1    3    3    0  502  0.16170007760E+03  0.22778587545E+03 -0.12931116443E+04  0.13229403066E+04  0.10100000352E+00 0. -1.
</event>
<event>
 5   0  0.5023691E-06  0.2849606E+04  0.7818609E-02  0.8288031E-01
        1   -1    0    0  501    0  0.00000000000E+00  0.00000000000E+00  0.20278103953E+04  0.20278103953E+04  0.50400001928E-02 0. -1.
       -1   -1    0    0    0  501  0.00000000000E+00  0.00000000000E+00 -0.10011108199E+04  0.10011108199E+04  0.50400001928E-02 0.  1.
    10030    2    1    2    0    0  0.00000000000E+00  0.00000000000E+00  0.10266995754E+04  0.30289212152E+04  0.28496055358E+04 0.  0.
        5    1    3    3  502    0  0.12247147459E+04  0.23603539229E+03 -0.21876040182E+03  0.12663005641E+04  0.46999998093E+01 0.  1.
       -5    1    3    3    0  502 -0.12247147459E+04 -0.23603539229E+03  0.12454599772E+04  0.17626206512E+04  0.46999998093E+01 0. -1.
</event>
<event>
 5   0  0.1388269E-05  0.2486680E+04  0.7818609E-02  0.8407746E-01
        2   -1    0    0  501    0  0.00000000000E+00  0.00000000000E+00  0.76201808302E+03  0.76201808302E+03  0.25500000920E-02 0. -1.
       -2   -1    0    0    0  501  0.00000000000E+00  0.00000000000E+00 -0.20286846667E+04  0.20286846667E+04  0.25500000920E-02 0.  1.
    10030    2    1    2    0    0  0.00000000000E+00  0.00000000000E+00 -0.12666665837E+04  0.27907027497E+04  0.24866800363E+04 0.  0.
        1    1    3    3  502    0 -0.49347523471E+03 -0.62202160394E+03  0.44044523625E+03  0.90797615013E+03  0.50400001928E-02 0. -1.
       -1    1    3    3    0  502  0.49347523471E+03  0.62202160394E+03 -0.17071118199E+04  0.18827265996E+04  0.50400001928E-02 0.  1.
</event>
<event>
 5   0  0.1283052E-05  0.2764599E+04  0.7818609E-02  0.8314344E-01
        2   -1    0    0  501    0  0.00000000000E+00  0.00000000000E+00  0.12629357681E+04  0.12629357681E+04  0.25500000920E-02 0.  1.
       -2   -1    0    0    0  501  0.00000000000E+00  0.00000000000E+00 -0.15129451876E+04  0.15129451876E+04  0.25500000920E-02 0. -1.
    10030    2    1    2    0    0  0.00000000000E+00  0.00000000000E+00 -0.25000941949E+03  0.27758809556E+04  0.27645994954E+04 0.  0.
        5    1    3    3  502    0 -0.16254909877E+03  0.45948779910E+03  0.11737880192E+04  0.12709648505E+04  0.46999998093E+01 0.  1.
       -5    1    3    3    0  502  0.16254909877E+03 -0.45948779910E+03 -0.14237974387E+04  0.15049161052E+04  0.46999998093E+01 0. -1.
</event>
<event>
 5   0  0.1283052E-05  0.2798188E+04  0.7818609E-02  0.8303831E-01
        2   -1    0    0  501    0  0.00000000000E+00  0.00000000000E+00  0.18440734700E+04  0.18440734700E+04  0.25500000920E-02 0. -1.
       -2   -1    0    0    0  501  0.00000000000E+00  0.00000000000E+00 -0.10614890272E+04  0.10614890272E+04  0.25500000920E-02 0.  1.
    10030    2    1    2    0    0  0.00000000000E+00  0.00000000000E+00  0.78258444281E+03  0.29055624972E+04  0.27981878091E+04 0.  0.
        5    1    3    3  502    0 -0.29553015489E+03  0.57104312188E+03 -0.89897268714E+03  0.11052611916E+04  0.46999998093E+01 0.  1.
       -5    1    3    3    0  502  0.29553015489E+03 -0.57104312188E+03  0.16815571300E+04  0.18003013056E+04  0.46999998093E+01 0. -1.
</event>
<event>
 5   0  0.5281919E-06  0.2804011E+04  0.7818609E-02  0.8302024E-01
        1   -1    0    0  501    0  0.00000000000E+00  0.00000000000E+00  0.20407237353E+04  0.20407237353E+04  0.50400001928E-02 0. -1.
       -1   -1    0    0    0  501  0.00000000000E+00  0.00000000000E+00 -0.96319693460E+03  0.96319693461E+03  0.50400001928E-02 0.  1.
    10030    2    1    2    0    0  0.00000000000E+00  0.00000000000E+00  0.10775268007E+04  0.30039206699E+04  0.28040105893E+04 0.  0.
        4    1    3    3  502    0  0.11221904803E+04 -0.81789904257E+02  0.14348267811E+04  0.18233843717E+04  0.12699999809E+01 0.  1.
       -4    1    3    3    0  502 -0.11221904803E+04  0.81789904257E+02 -0.35729998036E+03  0.11805362982E+04  0.12699999809E+01 0. -1.
</event>
<event>
 5   0  0.5281919E-06  0.2807038E+04  0.7818609E-02  0.8301087E-01
       -1   -1    0    0    0  501  0.00000000000E+00  0.00000000000E+00  0.26236708374E+04  0.26236708374E+04  0.50400001928E-02 0. -1.
        1   -1    0    0  501    0  0.00000000000E+00  0.00000000000E+00 -0.75080504648E+03  0.75080504650E+03  0.50400001928E-02 0.  1.
    10030    2    1    2    0    0  0.00000000000E+00  0.00000000000E+00  0.18728657909E+04  0.33744758839E+04  0.28070378017E+04 0.  0.
        4    1    3    3  502    0 -0.10401348904E+04 -0.28230126567E+02  0.20687431674E+04  0.23156807716E+04  0.12699999809E+01 0. -1.
       -4    1    3    3    0  502  0.10401348904E+04  0.28230126567E+02 -0.19587737650E+03  0.10587951123E+04  0.12699999809E+01 0.  1.
</event>
<event>
 5   0  0.5107453E-06  0.2498005E+04  0.7818609E-02  0.8403697E-01
       -1   -1    0    0    0  501  0.00000000000E+00  0.00000000000E+00  0.13015304579E+04  0.13015304579E+04  0.50400001928E-02 0. -1.
        1   -1    0    0  501    0  0.00000000000E+00  0.00000000000E+00 -0.11985944675E+04  0.11985944675E+04  0.50400001928E-02 0.  1.
    10030    2    1    2    0    0  0.00000000000E+00  0.00000000000E+00  0.10293599038E+03  0.25001249255E+04  0.24980049689E+04 0.  0.
        2    1    3    3  502    0  0.12016374752E+04  0.34069720302E+03  0.51485399017E+02  0.12500631793E+04  0.25500000920E-02 0. -1.
       -2    1    3    3    0  502 -0.12016374752E+04 -0.34069720302E+03  0.51450591362E+02  0.12500617462E+04  0.25500000920E-02 0.  1.
</event>
<event>
 5   0  0.1388269E-05  0.2764619E+04  0.7818609E-02  0.8314338E-01
        2   -1    0    0  501    0  0.00000000000E+00  0.00000000000E+00  0.12768972807E+04  0.12768972807E+04  0.25500000920E-02 0.  1.
       -2   -1    0    0    0  501  0.00000000000E+00  0.00000000000E+00 -0.14964233302E+04  0.14964233302E+04  0.25500000920E-02 0. -1.
    10030    2    1    2    0    0  0.00000000000E+00  0.00000000000E+00 -0.21952604949E+03  0.27733206110E+04  0.27646185134E+04 0.  0.
        1    1    3    3  502    0 -0.35371900364E+03  0.10146680814E+04  0.76252012354E+03  0.13176135199E+04  0.50400001928E-02 0.  1.
       -1    1    3    3    0  502  0.35371900364E+03 -0.10146680814E+04 -0.98204617302E+03  0.14557070911E+04  0.50400001928E-02 0. -1.
</event>
<event>
 5   0  0.1283052E-05  0.2759948E+04  0.7818609E-02  0.8315812E-01
       -2   -1    0    0    0  501  0.00000000000E+00  0.00000000000E+00  0.14344441813E+04  0.14344441813E+04  0.25500000920E-02 0. -1.
        2   -1    0    0  501    0  0.00000000000E+00  0.00000000000E+00 -0.13275721065E+04  0.13275721065E+04  0.25500000920E-02 0.  1.
    10030    2    1    2    0    0  0.00000000000E+00  0.00000000000E+00  0.10687207484E+03  0.27620162878E+04  0.27599478860E+04 0.  0.
        5    1    3    3  502    0  0.19924758488E+03 -0.84706055982E+03  0.11252638183E+04  0.14224809112E+04  0.46999998093E+01 0.  1.
       -5    1    3    3    0  502 -0.19924758488E+03  0.84706055982E+03 -0.10183917434E+04  0.13395353766E+04  0.46999998093E+01 0. -1.
</event>
<event>
 5   0  0.1350863E-05  0.2821319E+04  0.7818609E-02  0.8296680E-01
       -2   -1    0    0    0  501  0.00000000000E+00  0.00000000000E+00  0.79197346646E+03  0.79197346646E+03  0.25500000920E-02 0.  1.
        2   -1    0    0  501    0  0.00000000000E+00  0.00000000000E+00 -0.25126605193E+04  0.25126605193E+04  0.25500000920E-02 0. -1.
    10030    2    1    2    0    0  0.00000000000E+00  0.00000000000E+00 -0.17206870529E+04  0.33046339858E+04  0.28213191677E+04 0.  0.
        3    1    3    3  502    0  0.91480922668E+03  0.97866715687E+03 -0.13779704389E+04  0.19218397087E+04  0.10100000352E+00 0.  1.
       -3    1    3    3    0  502 -0.91480922668E+03 -0.97866715687E+03 -0.34271661397E+03  0.13827942771E+04  0.10100000352E+00 0. -1.
</event>
<event>
 5   0  0.5281919E-06  0.2810333E+04  0.7818609E-02  0.8300068E-01
       -1   -1    0    0    0  501  0.00000000000E+00  0.00000000000E+00  0.11214260215E+04  0.11214260215E+04  0.50400001928E-02 0. -1.
        1   -1    0    0  501    0  0.00000000000E+00  0.00000000000E+00 -0.17606980914E+04  0.17606980914E+04  0.50400001928E-02 0.  1.
    10030    2    1    2    0    0  0.00000000000E+00  0.00000000000E+00 -0.63927206990E+03  0.28821241129E+04  0.28103328314E+04 0.  0.
        4    1    3    3  502    0  0.10941079917E+04  0.87661327253E+03 -0.22251782188E+03  0.14195206659E+04  0.12699999809E+01 0.  1.
       -4    1    3    3    0  502 -0.10941079917E+04 -0.87661327253E+03 -0.41675424802E+03  0.14626034470E+04  0.12699999809E+01 0. -1.
</event>
<event>
 5   0  0.1388269E-05  0.2793350E+04  0.7818609E-02  0.8305336E-01
       -2   -1    0    0    0  501  0.00000000000E+00  0.00000000000E+00  0.11750084354E+04  0.11750084354E+04  0.25500000920E-02 0.  1.
        2   -1    0    0  501    0  0.00000000000E+00  0.00000000000E+00 -0.16601593069E+04  0.16601593069E+04  0.25500000920E-02 0. -1.
    10030    2    1    2    0    0  0.00000000000E+00  0.00000000000E+00 -0.48515087151E+03  0.28351677423E+04  0.27933500960E+04 0.  0.
        1    1    3    3  502    0  0.45350556177E+03 -0.85300095845E+03  0.78119885659E+03  0.12423967093E+04  0.50400001928E-02 0.  1.
       -1    1    3    3    0  502 -0.45350556177E+03  0.85300095845E+03 -0.12663497281E+04  0.15927710330E+04  0.50400001928E-02 0. -1.
</event>
<event>
 5   0  0.5281919E-06  0.2906562E+04  0.7818609E-02  0.8270928E-01
        1   -1    0    0  501    0  0.00000000000E+00  0.00000000000E+00  0.26379012177E+04  0.26379012177E+04  0.50400001928E-02 0.  1.
       -1   -1    0    0    0  501  0.00000000000E+00  0.00000000000E+00 -0.80064615854E+03  0.80064615855E+03  0.50400001928E-02 0. -1.
    10030    2    1    2    0    0  0.00000000000E+00  0.00000000000E+00  0.18372550591E+04  0.34385473762E+04  0.29065618704E+04 0.  0.
        4    1    3    3  502    0  0.89595821984E+02 -0.69309806537E+03  0.24260552698E+04  0.25247095129E+04  0.12699999809E+01 0.  1.
       -4    1    3    3    0  502 -0.89595821984E+02  0.69309806537E+03 -0.58880021064E+03  0.91383786335E+03  0.12699999809E+01 0. -1.
</event>
<event>
 5   0  0.1350863E-05  0.2790943E+04  0.7818609E-02  0.8306086E-01
       -2   -1    0    0    0  501  0.00000000000E+00  0.00000000000E+00  0.12258990708E+04  0.12258990708E+04  0.25500000920E-02 0.  1.
        2   -1    0    0  501    0  0.00000000000E+00  0.00000000000E+00 -0.15884998272E+04  0.15884998272E+04  0.25500000920E-02 0. -1.
    10030    2    1    2    0    0  0.00000000000E+00  0.00000000000E+00 -0.36260075637E+03  0.28143988981E+04  0.27909428244E+04 0.  0.
        3    1    3    3  502    0 -0.10409201316E+04  0.46250116070E+03 -0.99425093238E+03  0.15119381504E+04  0.10100000352E+00 0. -1.
       -3    1    3    3    0  502  0.10409201316E+04 -0.46250116070E+03  0.63165017601E+03  0.13024607476E+04  0.10100000352E+00 0.  1.
</event>
<event>
 5   0  0.1330962E-05  0.2744682E+04  0.7818609E-02  0.8320651E-01
       -2   -1    0    0    0  501  0.00000000000E+00  0.00000000000E+00  0.11613791673E+04  0.11613791673E+04  0.25500000920E-02 0.  1.
        2   -1    0    0  501    0  0.00000000000E+00  0.00000000000E+00 -0.16216237540E+04  0.16216237540E+04  0.25500000920E-02 0. -1.
    10030    2    1    2    0    0  0.00000000000E+00  0.00000000000E+00 -0.46024458664E+03  0.27830029213E+04  0.27446821638E+04 0.  0.
        4    1    3    3  502    0  0.35623237397E+03 -0.11340470158E+04 -0.92552144841E+03  0.15065044648E+04  0.12699999809E+01 0. -1.
       -4    1    3    3    0  502 -0.35623237397E+03  0.11340470158E+04  0.46527686177E+03  0.12764984564E+04  0.12699999809E+01 0.  1.
</event>
<event>
 5   0  0.5217999E-06  0.2769015E+04  0.7818609E-02  0.8312953E-01
       -1   -1    0    0    0  501  0.00000000000E+00  0.00000000000E+00  0.15224171516E+04  0.15224171516E+04  0.50400001928E-02 0.  1.
        1   -1    0    0  501    0  0.00000000000E+00  0.00000000000E+00 -0.12590908071E+04  0.12590908071E+04  0.50400001928E-02 0. -1.
    10030    2    1    2    0    0  0.00000000000E+00  0.00000000000E+00  0.26332634456E+03  0.27815079587E+04  0.27690153052E+04 0.  0.
        1    1    3    3  502    0 -0.53346510070E+03 -0.29213776395E+03 -0.11177053388E+04  0.12724758195E+04  0.50400001928E-02 0. -1.
       -1    1    3    3    0  502  0.53346510070E+03  0.29213776395E+03  0.13810316834E+04  0.15090321392E+04  0.50400001928E-02 0.  1.
</event>
<event>
 5   0  0.1388269E-05  0.2757655E+04  0.7818609E-02  0.8316537E-01
       -2   -1    0    0    0  501  0.00000000000E+00  0.00000000000E+00  0.11231889101E+04  0.11231889101E+04  0.25500000920E-02 0.  1.
        2   -1    0    0  501    0  0.00000000000E+00  0.00000000000E+00 -0.16926490122E+04  0.16926490122E+04  0.25500000920E-02 0. -1.
    10030    2    1    2    0    0  0.00000000000E+00  0.00000000000E+00 -0.56946010205E+03  0.28158379223E+04  0.27576545100E+04 0.  0.
        1    1    3    3  502    0  0.12458949355E+04  0.12136038379E+03  0.30555171546E+03  0.12885435126E+04  0.50400001928E-02 0.  1.
       -1    1    3    3    0  502 -0.12458949355E+04 -0.12136038379E+03 -0.87501181751E+03  0.15272944097E+04  0.50400001928E-02 0. -1.
</event>
<event>
 5   0  0.5023691E-06  0.2810752E+04  0.7818609E-02  0.8299938E-01
        1   -1    0    0  501    0  0.00000000000E+00  0.00000000000E+00  0.16329812151E+04  0.16329812151E+04  0.50400001928E-02 0.  1.
       -1   -1    0    0    0  501  0.00000000000E+00  0.00000000000E+00 -0.12094941165E+04  0.12094941165E+04  0.50400001928E-02 0. -1.
    10030    2    1    2    0    0  0.00000000000E+00  0.00000000000E+00  0.42348709859E+03  0.28424753316E+04  0.28107516233E+04 0.  0.
        5    1    3    3  502    0 -0.11362494550E+04 -0.12064301114E+03 -0.61568510582E+03  0.12979629423E+04  0.46999998093E+01 0. -1.
       -5    1    3    3    0  502  0.11362494550E+04  0.12064301114E+03  0.10391722044E+04  0.15445123893E+04  0.46999998093E+01 0.  1.
</event>
<event>
 5   0  0.5023691E-06  0.2714718E+04  0.7818609E-02  0.8330245E-01
       -1   -1    0    0    0  501  0.00000000000E+00  0.00000000000E+00  0.13087710541E+04  0.13087710541E+04  0.50400001928E-02 0. -1.
        1   -1    0    0  501    0  0.00000000000E+00  0.00000000000E+00 -0.14077509330E+04  0.14077509330E+04  0.50400001928E-02 0.  1.
    10030    2    1    2    0    0  0.00000000000E+00  0.00000000000E+00 -0.98979878904E+02  0.27165219871E+04  0.27147181604E+04 0.  0.
        5    1    3    3  502    0 -0.84977979300E+02 -0.83456741214E+03 -0.11172873353E+04  0.13971675283E+04  0.46999998093E+01 0.  1.
       -5    1    3    3    0  502  0.84977979300E+02  0.83456741214E+03  0.10183074564E+04  0.13193544589E+04  0.46999998093E+01 0. -1.
</event>
<event>
 5   0  0.5217999E-06  0.2819120E+04  0.7818609E-02  0.8297357E-01
       -1   -1    0    0    0  501  0.00000000000E+00  0.00000000000E+00  0.17051118160E+04  0.17051118160E+04  0.50400001928E-02 0.  1.
        1   -1    0    0  501    0  0.00000000000E+00  0.00000000000E+00 -0.11652370347E+04  0.11652370347E+04  0.50400001928E-02 0. -1.
    10030    2    1    2    0    0  0.00000000000E+00  0.00000000000E+00  0.53987478129E+03  0.28703488507E+04  0.28191200303E+04 0.  0.
        1    1    3    3  502    0 -0.61762581540E+03  0.11034356438E+04  0.90401213271E+03  0.15544355258E+04  0.50400001928E-02 0.  1.
       -1    1    3    3    0  502  0.61762581540E+03 -0.11034356438E+04 -0.36413735142E+03  0.13159133249E+04  0.50400001928E-02 0. -1.
</event>
<event>
 5   0  0.4764214E-06  0.2801523E+04  0.7818609E-02  0.8302796E-01
       -1   -1    0    0    0  501  0.00000000000E+00  0.00000000000E+00  0.93703077145E+03  0.93703077146E+03  0.50400001928E-02 0.  1.
        1   -1    0    0  501    0  0.00000000000E+00  0.00000000000E+00 -0.20939903464E+04  0.20939903464E+04  0.50400001928E-02 0. -1.
    10030    2    1    2    0    0  0.00000000000E+00  0.00000000000E+00 -0.11569595749E+04  0.30310211178E+04  0.28015234353E+04 0.  0.
        3    1    3    3  502    0 -0.76847636792E+02  0.10564782299E+04 -0.15701229711E+04  0.18940269175E+04  0.10100000352E+00 0. -1.
       -3    1    3    3    0  502  0.76847636792E+02 -0.10564782299E+04  0.41316339614E+03  0.11369942004E+04  0.10100000352E+00 0.  1.
</event>
<event>
 5   0  0.4764214E-06  0.2819833E+04  0.7818609E-02  0.8297137E-01
        1   -1    0    0  501    0  0.00000000000E+00  0.00000000000E+00  0.15532237769E+04  0.15532237769E+04  0.50400001928E-02 0.  1.
       -1   -1    0    0    0  501  0.00000000000E+00  0.00000000000E+00 -0.12798314642E+04  0.12798314642E+04  0.50400001928E-02 0. -1.
    10030    2    1    2    0    0  0.00000000000E+00  0.00000000000E+00  0.27339231272E+03  0.28330552411E+04  0.28198330877E+04 0.  0.
        3    1    3    3  502    0  0.79114116406E+03  0.92687179639E+03  0.84915382391E+03  0.14852804096E+04  0.10100000352E+00 0.  1.
       -3    1    3    3    0  502 -0.79114116406E+03 -0.92687179639E+03 -0.57576151120E+03  0.13477748315E+04  0.10100000352E+00 0. -1.
</event>
<event>
 5   0  0.5281919E-06  0.2673555E+04  0.7818609E-02  0.8343637E-01
       -1   -1    0    0    0  501  0.00000000000E+00  0.00000000000E+00  0.11793878028E+04  0.11793878028E+04  0.50400001928E-02 0. -1.
        1   -1    0    0  501    0  0.00000000000E+00  0.00000000000E+00 -0.15151704490E+04  0.15151704490E+04  0.50400001928E-02 0.  1.
    10030    2    1    2    0    0  0.00000000000E+00  0.00000000000E+00 -0.33578264625E+03  0.26945582518E+04  0.26735545977E+04 0.  0.
        4    1    3    3  502    0  0.26339712016E+03 -0.10413170641E+04 -0.96991470861E+03  0.14472233504E+04  0.12699999809E+01 0.  1.
       -4    1    3    3    0  502 -0.26339712016E+03  0.10413170641E+04  0.63413206236E+03  0.12473349015E+04  0.12699999809E+01 0. -1.
</event>
<event>
 5   0  0.4764214E-06  0.2762533E+04  0.7818609E-02  0.8314996E-01
        1   -1    0    0  501    0  0.00000000000E+00  0.00000000000E+00  0.12412296324E+04  0.12412296324E+04  0.50400001928E-02 0.  1.
       -1   -1    0    0    0  501  0.00000000000E+00  0.00000000000E+00 -0.15371029212E+04  0.15371029213E+04  0.50400001928E-02 0. -1.
    10030    2    1    2    0    0  0.00000000000E+00  0.00000000000E+00 -0.29587328883E+03  0.27783325537E+04  0.27625333981E+04 0.  0.
        3    1    3    3  502    0 -0.10432487064E+04 -0.64383319458E+03 -0.78797917445E+03  0.14573263998E+04  0.10100000352E+00 0. -1.
       -3    1    3    3    0  502  0.10432487064E+04  0.64383319458E+03  0.49210588562E+03  0.13210061539E+04  0.10100000352E+00 0.  1.
</event>
<event>
 5   0  0.5217999E-06  0.2563404E+04  0.7818609E-02  0.8380739E-01
       -1   -1    0    0    0  501  0.00000000000E+00  0.00000000000E+00  0.12668093035E+04  0.12668093035E+04  0.50400001928E-02 0. -1.
        1   -1    0    0  501    0  0.00000000000E+00  0.00000000000E+00 -0.12967701971E+04  0.12967701971E+04  0.50400001928E-02 0.  1.
    10030    2    1    2    0    0  0.00000000000E+00  0.00000000000E+00 -0.29960893598E+02  0.25635795006E+04  0.25634044162E+04 0.  0.
        1    1    3    3  502    0 -0.34794338537E+03 -0.59732949129E+03  0.10643955595E+04  0.12691749398E+04  0.50400001928E-02 0. -1.
       -1    1    3    3    0  502  0.34794338537E+03  0.59732949129E+03 -0.10943564531E+04  0.12944045608E+04  0.50400001928E-02 0.  1.
</event>
<event>
 5   0  0.5023691E-06  0.2826014E+04  0.7818609E-02  0.8295237E-01
        1   -1    0    0  501    0  0.00000000000E+00  0.00000000000E+00  0.11244920887E+04  0.11244920887E+04  0.50400001928E-02 0. -1.
       -1   -1    0    0    0  501  0.00000000000E+00  0.00000000000E+00 -0.17755466374E+04  0.17755466374E+04  0.50400001928E-02 0.  1.
    10030    2    1    2    0    0  0.00000000000E+00  0.00000000000E+00 -0.65105454872E+03  0.29000387262E+04  0.28260135505E+04 0.  0.
        5    1    3    3  502    0 -0.96486949060E+02 -0.13229724589E+04 -0.82510597303E+03  0.15621740668E+04  0.46999998093E+01 0.  1.
       -5    1    3    3    0  502  0.96486949060E+02  0.13229724589E+04  0.17405142431E+03  0.13378646593E+04  0.46999998093E+01 0. -1.
</event>
<event>
 5   0  0.1350863E-05  0.2548771E+04  0.7818609E-02  0.8385814E-01
       -2   -1    0    0    0  501  0.00000000000E+00  0.00000000000E+00  0.16369726435E+04  0.16369726435E+04  0.25500000920E-02 0. -1.
        2   -1    0    0  501    0  0.00000000000E+00  0.00000000000E+00 -0.99211092690E+03  0.99211092690E+03  0.25500000920E-02 0.  1.
    10030    2    1    2    0    0  0.00000000000E+00  0.00000000000E+00  0.64486171663E+03  0.26290835704E+04  0.25487710346E+04 0.  0.
        3    1    3    3  502    0 -0.65951867070E+03 -0.14148526325E+03 -0.79287721032E+03  0.10409789804E+04  0.10100000352E+00 0.  1.
       -3    1    3    3    0  502  0.65951867070E+03  0.14148526325E+03  0.14377389269E+04  0.15881045901E+04  0.10100000352E+00 0. -1.
</event>
<event>
 5   0  0.1302063E-05  0.2798969E+04  0.7818609E-02  0.8303589E-01
        2   -1    0    0  501    0  0.00000000000E+00  0.00000000000E+00  0.17459628033E+04  0.17459628033E+04  0.25500000920E-02 0. -1.
       -2   -1    0    0    0  501  0.00000000000E+00  0.00000000000E+00 -0.11217630363E+04  0.11217630363E+04  0.25500000920E-02 0.  1.
    10030    2    1    2    0    0  0.00000000000E+00  0.00000000000E+00  0.62419976699E+03  0.28677258395E+04  0.27989687639E+04 0.  0.
        2    1    3    3  502    0 -0.12042241447E+04 -0.68225877196E+03  0.99830079788E+02  0.13876594926E+04  0.25500000920E-02 0.  1.
       -2    1    3    3    0  502  0.12042241447E+04  0.68225877196E+03  0.52436968720E+03  0.14800663469E+04  0.25500000920E-02 0. -1.
</event>
<event>
 5   0  0.5023691E-06  0.2678715E+04  0.7818609E-02  0.8341944E-01
        1   -1    0    0  501    0  0.00000000000E+00  0.00000000000E+00  0.16594486468E+04  0.16594486468E+04  0.50400001928E-02 0.  1.
       -1   -1    0    0    0  501  0.00000000000E+00  0.00000000000E+00 -0.10810089251E+04  0.10810089251E+04  0.50400001928E-02 0. -1.
    10030    2    1    2    0    0  0.00000000000E+00  0.00000000000E+00  0.57843972175E+03  0.27404575719E+04  0.26787152129E+04 0.  0.
        5    1    3    3  502    0 -0.55636235335E+03  0.98214633220E+03 -0.44830301703E+03  0.12145567797E+04  0.46999998093E+01 0. -1.
       -5    1    3    3    0  502  0.55636235335E+03 -0.98214633220E+03  0.10267427388E+04  0.15259007922E+04  0.46999998093E+01 0.  1.
</event>
<event>
 5   0  0.1350863E-05  0.2798231E+04  0.7818609E-02  0.8303818E-01
        2   -1    0    0  501    0  0.00000000000E+00  0.00000000000E+00  0.17350565469E+04  0.17350565469E+04  0.25500000920E-02 0. -1.
       -2   -1    0    0    0  501  0.00000000000E+00  0.00000000000E+00 -0.11282190392E+04  0.11282190392E+04  0.25500000920E-02 0.  1.
    10030    2    1    2    0    0  0.00000000000E+00  0.00000000000E+00  0.60683750771E+03  0.28632755862E+04  0.27982307485E+04 0.  0.
        3    1    3    3  502    0  0.93261467930E+03  0.97903996663E+03  0.67126703525E+03  0.15095989001E+04  0.10100000352E+00 0. -1.
       -3    1    3    3    0  502 -0.93261467930E+03 -0.97903996663E+03 -0.64429527543E+02  0.13536766861E+04  0.10100000352E+00 0.  1.
</event>
<event>
 5   0  0.1388269E-05  0.2888962E+04  0.7818609E-02  0.8276169E-01
        2   -1    0    0  501    0  0.00000000000E+00  0.00000000000E+00  0.23408213123E+04  0.23408213123E+04  0.25500000920E-02 0. -1.
       -2   -1    0    0    0  501  0.00000000000E+00  0.00000000000E+00 -0.89136456026E+03  0.89136456027E+03  0.25500000920E-02 0.  1.
    10030    2    1    2    0    0  0.00000000000E+00  0.00000000000E+00  0.14494567521E+04  0.32321858726E+04  0.28889618618E+04 0.  0.
        1    1    3    3  502    0 -0.41757011246E+03  0.84576315309E+03  0.19487060131E+04  0.21649792691E+04  0.50400001928E-02 0. -1.
       -1    1    3    3    0  502  0.41757011246E+03 -0.84576315309E+03 -0.49924926105E+03  0.10672066035E+04  0.50400001928E-02 0.  1.
</event>
<event>
 5   0  0.1330962E-05  0.2804331E+04  0.7818609E-02  0.8301925E-01
       -2   -1    0    0    0  501  0.00000000000E+00  0.00000000000E+00  0.21742199469E+04  0.21742199469E+04  0.25500000920E-02 0.  1.
        2   -1    0    0  501    0  0.00000000000E+00  0.00000000000E+00 -0.90426366687E+03  0.90426366688E+03  0.25500000920E-02 0. -1.
    10030    2    1    2    0    0  0.00000000000E+00  0.00000000000E+00  0.12699562800E+04  0.30784836138E+04  0.28043310088E+04 0.  0.
        4    1    3    3  502    0  0.46324620473E+03 -0.31517484847E+03  0.20459886230E+04  0.21213211189E+04  0.12699999809E+01 0.  1.
       -4    1    3    3    0  502 -0.46324620473E+03  0.31517484847E+03 -0.77603234296E+03  0.95716249484E+03  0.12699999809E+01 0. -1.
</event>
<event>
 5   0  0.1302063E-05  0.2822931E+04  0.7818609E-02  0.8296184E-01
        2   -1    0    0  501    0  0.00000000000E+00  0.00000000000E+00  0.15661889174E+04  0.15661889174E+04  0.25500000920E-02 0.  1.
       -2   -1    0    0    0  501  0.00000000000E+00  0.00000000000E+00 -0.12720272042E+04  0.12720272042E+04  0.25500000920E-02 0. -1.
    10030    2    1    2    0    0  0.00000000000E+00  0.00000000000E+00  0.29416171322E+03  0.28382161215E+04  0.28229310369E+04 0.  0.
        2    1    3    3  502    0 -0.56946456588E+03  0.12633091382E+04  0.41685261366E+03  0.14470680606E+04  0.25500000920E-02 0. -1.
       -2    1    3    3    0  502  0.56946456588E+03 -0.12633091382E+04 -0.12269090044E+03  0.13911480610E+04  0.25500000920E-02 0.  1.
</event>
<event>
 5   0  0.5023691E-06  0.2830905E+04  0.7818609E-02  0.8293737E-01
        1   -1    0    0  501    0  0.00000000000E+00  0.00000000000E+00  0.11592978719E+04  0.11592978719E+04  0.50400001928E-02 0. -1.
       -1   -1    0    0    0  501  0.00000000000E+00  0.00000000000E+00 -0.17282060851E+04  0.17282060851E+04  0.50400001928E-02 0.  1.
    10030    2    1    2    0    0  0.00000000000E+00  0.00000000000E+00 -0.56890821318E+03  0.28875039570E+04  0.28309048989E+04 0.  0.
        5    1    3    3  502    0 -0.15510091202E+03 -0.67607806438E+03  0.97404801255E+03  0.11957965809E+04  0.46999998093E+01 0. -1.
       -5    1    3    3    0  502  0.15510091202E+03  0.67607806438E+03 -0.15429562257E+04  0.16917073762E+04  0.46999998093E+01 0.  1.
</event>
<event>
 5   0  0.1302063E-05  0.2786321E+04  0.7818609E-02  0.8307528E-01
        2   -1    0    0  501    0  0.00000000000E+00  0.00000000000E+00  0.20570037131E+04  0.20570037131E+04  0.25500000920E-02 0. -1.
       -2   -1    0    0    0  501  0.00000000000E+00  0.00000000000E+00 -0.94355510138E+03  0.94355510138E+03  0.25500000920E-02 0.  1.
    10030    2    1    2    0    0  0.00000000000E+00  0.00000000000E+00  0.11134486117E+04  0.30005588145E+04  0.27863211208E+04 0.  0.
        2    1    3    3  502    0 -0.12039376553E+04  0.53848214812E+03  0.73361290996E+02  0.13209128588E+04  0.25500000920E-02 0. -1.
       -2    1    3    3    0  502  0.12039376553E+04 -0.53848214812E+03  0.10400873207E+04  0.16796459557E+04  0.25500000920E-02 0.  1.
</event>
<event>
 5   0  0.5023691E-06  0.2633409E+04  0.7818609E-02  0.8356941E-01
        1   -1    0    0  501    0  0.00000000000E+00  0.00000000000E+00  0.23156499397E+04  0.23156499397E+04  0.50400001928E-02 0.  1.
       -1   -1    0    0    0  501  0.00000000000E+00  0.00000000000E+00 -0.74869271779E+03  0.74869271781E+03  0.50400001928E-02 0. -1.
    10030    2    1    2    0    0  0.00000000000E+00  0.00000000000E+00  0.15669572219E+04  0.30643426575E+04  0.26334086252E+04 0.  0.
        5    1    3    3  502    0  0.86146287834E+03  0.67882678096E+02 -0.37255176785E+03  0.94103308043E+03  0.46999998093E+01 0. -1.
       -5    1    3    3    0  502 -0.86146287834E+03 -0.67882678096E+02  0.19395089897E+04  0.21233095771E+04  0.46999998093E+01 0.  1.
</event>
<event>
 5   0  0.5281919E-06  0.2799743E+04  0.7818609E-02  0.8303348E-01
        1   -1    0    0  501    0  0.00000000000E+00  0.00000000000E+00  0.12172163467E+04  0.12172163467E+04  0.50400001928E-02 0.  1.
       -1   -1    0    0    0  501  0.00000000000E+00  0.00000000000E+00 -0.16099357225E+04  0.16099357225E+04  0.50400001928E-02 0. -1.
    10030    2    1    2    0    0  0.00000000000E+00  0.00000000000E+00 -0.39271937586E+03  0.28271520692E+04  0.27997429015E+04 0.  0.
        4    1    3    3  502    0 -0.11212717853E+04 -0.66885745208E+03 -0.70629634057E+03  0.14844112777E+04  0.12699999809E+01 0.  1.
       -4    1    3    3    0  502  0.11212717853E+04  0.66885745208E+03  0.31357696471E+03  0.13427407916E+04  0.12699999809E+01 0. -1.
</event>
<event>
 5   0  0.5107453E-06  0.2791616E+04  0.7818609E-02  0.8305876E-01
       -1   -1    0    0    0  501  0.00000000000E+00  0.00000000000E+00  0.86514010883E+03  0.86514010885E+03  0.50400001928E-02 0.  1.
        1   -1    0    0  501    0  0.00000000000E+00  0.00000000000E+00 -0.22519826269E+04  0.22519826269E+04  0.50400001928E-02 0. -1.
    10030    2    1    2    0    0  0.00000000000E+00  0.00000000000E+00 -0.13868425180E+04  0.31171227357E+04  0.27916163740E+04 0.  0.
        2    1    3    3  502    0  0.10732975812E+03  0.42803313366E+03  0.78520035842E+03  0.90070619147E+03  0.25500000920E-02 0.  1.
       -2    1    3    3    0  502 -0.10732975812E+03 -0.42803313366E+03 -0.21720428764E+04  0.22164165442E+04  0.25500000920E-02 0. -1.
</event>
<event>
 5   0  0.5281919E-06  0.2767968E+04  0.7818609E-02  0.8313283E-01
        1   -1    0    0  501    0  0.00000000000E+00  0.00000000000E+00  0.16194153731E+04  0.16194153731E+04  0.50400001928E-02 0. -1.
       -1   -1    0    0    0  501  0.00000000000E+00  0.00000000000E+00 -0.11827797332E+04  0.11827797332E+04  0.50400001928E-02 0.  1.
    10030    2    1    2    0    0  0.00000000000E+00  0.00000000000E+00  0.43663563984E+03  0.28021951063E+04  0.27679679789E+04 0.  0.
        4    1    3    3  502    0 -0.24414566903E+03 -0.10821759930E+04  0.10560146353E+04  0.15316267530E+04  0.12699999809E+01 0. -1.
       -4    1    3    3    0  502  0.24414566903E+03  0.10821759930E+04 -0.61937899550E+03  0.12705683533E+04  0.12699999809E+01 0.  1.
</event>
<event>
 5   0  0.1388269E-05  0.2576879E+04  0.7818609E-02  0.8376098E-01
       -2   -1    0    0    0  501  0.00000000000E+00  0.00000000000E+00  0.12548461123E+04  0.12548461123E+04  0.25500000920E-02 0. -1.
        2   -1    0    0  501    0  0.00000000000E+00  0.00000000000E+00 -0.13229321804E+04  0.13229321804E+04  0.25500000920E-02 0.  1.
    10030    2    1    2    0    0  0.00000000000E+00  0.00000000000E+00 -0.68086068137E+02  0.25777782927E+04  0.25768789676E+04 0.  0.
        1    1    3    3  502    0  0.59578714012E+02  0.12360598856E+04  0.32480578520E+03  0.12794109824E+04  0.50400001928E-02 0. -1.
       -1    1    3    3    0  502 -0.59578714012E+02 -0.12360598856E+04 -0.39289185333E+03  0.12983673102E+04  0.50400001928E-02 0.  1.
</event>
<event>
 5   0  0.1330962E-05  0.2796201E+04  0.7818609E-02  0.8304449E-01
        2   -1    0    0  501    0  0.00000000000E+00  0.00000000000E+00  0.25576344215E+04  0.25576344215E+04  0.25500000920E-02 0.  1.
       -2   -1    0    0    0  501  0.00000000000E+00  0.00000000000E+00 -0.76425487983E+03  0.76425487984E+03  0.25500000920E-02 0. -1.
    10030    2    1    2    0    0  0.00000000000E+00  0.00000000000E+00  0.17933795416E+04  0.33218893013E+04  0.27962006991E+04 0.  0.
        4    1    3    3  502    0 -0.48097957149E+03 -0.31954209104E+03  0.24093442285E+04  0.24775773894E+04  0.12699999809E+01 0.  1.
       -4    1    3    3    0  502  0.48097957149E+03  0.31954209104E+03 -0.61596468690E+03  0.84431191188E+03  0.12699999809E+01 0. -1.
</event>
<event>
 5   0  0.4764214E-06  0.2814041E+04  0.7818609E-02  0.8298923E-01
       -1   -1    0    0    0  501  0.00000000000E+00  0.00000000000E+00  0.64568304924E+03  0.64568304926E+03  0.50400001928E-02 0.  1.
        1   -1    0    0  501    0  0.00000000000E+00  0.00000000000E+00 -0.30660649636E+04  0.30660649636E+04  0.50400001928E-02 0. -1.
    10030    2    1    2    0    0  0.00000000000E+00  0.00000000000E+00 -0.24203819143E+04  0.37117480128E+04  0.28140406357E+04 0.  0.
        3    1    3    3  502    0 -0.25585119242E+03 -0.85562895513E+03  0.22392270367E+03  0.92070740680E+03  0.10100000352E+00 0.  1.
       -3    1    3    3    0  502  0.25585119242E+03  0.85562895513E+03 -0.26443046180E+04  0.27910406060E+04  0.10100000352E+00 0. -1.
</event>
<event>
 5   0  0.1350863E-05  0.2679850E+04  0.7818609E-02  0.8341573E-01
        2   -1    0    0  501    0  0.00000000000E+00  0.00000000000E+00  0.14297369099E+04  0.14297369099E+04  0.25500000920E-02 0.  1.
       -2   -1    0    0    0  501  0.00000000000E+00  0.00000000000E+00 -0.12557548611E+04  0.12557548611E+04  0.25500000920E-02 0. -1.
    10030    2    1    2    0    0  0.00000000000E+00  0.00000000000E+00  0.17398204882E+03  0.26854917710E+04  0.26798500515E+04 0.  0.
        3    1    3    3  502    0 -0.62445173112E+03 -0.74388720717E+03  0.10120220542E+04  0.14026748696E+04  0.10100000352E+00 0.  1.
       -3    1    3    3    0  502  0.62445173112E+03  0.74388720717E+03 -0.83804000538E+03  0.12828169013E+04  0.10100000352E+00 0. -1.
</event>
<event>
 5   0  0.4764214E-06  0.2954551E+04  0.7818609E-02  0.8256830E-01
        1   -1    0    0  501    0  0.00000000000E+00  0.00000000000E+00  0.30000073814E+04  0.30000073814E+04  0.50400001928E-02 0. -1.
       -1   -1    0    0    0  501  0.00000000000E+00  0.00000000000E+00 -0.72744580753E+03  0.72744580755E+03  0.50400001928E-02 0.  1.
    10030    2    1    2    0    0  0.00000000000E+00  0.00000000000E+00  0.22725615738E+04  0.37274531889E+04  0.29545509250E+04 0.  0.
        3    1    3    3  502    0  0.11081589243E+04 -0.20369623043E+03  0.23416406429E+04  0.25986129505E+04  0.10100000352E+00 0. -1.
       -3    1    3    3    0  502 -0.11081589243E+04  0.20369623043E+03 -0.69079069096E+02  0.11288402384E+04  0.10100000352E+00 0.  1.
</event>
<event>
 5   0  0.5107453E-06  0.2144163E+04  0.7818609E-02  0.8542035E-01
        1   -1    0    0  501    0  0.00000000000E+00  0.00000000000E+00  0.86699340238E+03  0.86699340240E+03  0.50400001928E-02 0.  1.
       -1   -1    0    0    0  501  0.00000000000E+00  0.00000000000E+00 -0.13256835669E+04  0.13256835669E+04  0.50400001928E-02 0. -1.
    10030    2    1    2    0    0  0.00000000000E+00  0.00000000000E+00 -0.45869016450E+03  0.21926769693E+04  0.21441631525E+04 0.  0.
        2    1    3    3  502    0  0.54519152415E+03 -0.79510064952E+03 -0.70893384817E+03  0.11966645486E+04  0.25500000920E-02 0. -1.
       -2    1    3    3    0  502 -0.54519152415E+03  0.79510064952E+03  0.25024368367E+03  0.99601242065E+03  0.25500000920E-02 0.  1.
</event>
<event>
 5   0  0.1302063E-05  0.2777999E+04  0.7818609E-02  0.8310131E-01
        2   -1    0    0  501    0  0.00000000000E+00  0.00000000000E+00  0.13839926211E+04  0.13839926211E+04  0.25500000920E-02 0.  1.
       -2   -1    0    0    0  501  0.00000000000E+00  0.00000000000E+00 -0.13940248507E+04  0.13940248507E+04  0.25500000920E-02 0. -1.
    10030    2    1    2    0    0  0.00000000000E+00  0.00000000000E+00 -0.10032229548E+02  0.27780174718E+04  0.27779993571E+04 0.  0.
        2    1    3    3  502    0 -0.73968334001E+02 -0.16350898909E+03 -0.13823825673E+04  0.13939828070E+04  0.25500000920E-02 0. -1.
       -2    1    3    3    0  502  0.73968334001E+02  0.16350898909E+03  0.13723503377E+04  0.13840346648E+04  0.25500000920E-02 0.  1.
</event>
<event>
 5   0  0.5023691E-06  0.2736359E+04  0.7818609E-02  0.8323303E-01
       -1   -1    0    0    0  501  0.00000000000E+00  0.00000000000E+00  0.15476255368E+04  0.15476255368E+04  0.50400001928E-02 0.  1.
        1   -1    0    0  501    0  0.00000000000E+00  0.00000000000E+00 -0.12095400750E+04  0.12095400750E+04  0.50400001928E-02 0. -1.
    10030    2    1    2    0    0  0.00000000000E+00  0.00000000000E+00  0.33808546176E+03  0.27571656118E+04  0.27363589734E+04 0.  0.
        5    1    3    3  502    0 -0.10792768027E+04  0.78820935161E+03 -0.12606757126E+03  0.13423961864E+04  0.46999998093E+01 0. -1.
       -5    1    3    3    0  502  0.10792768027E+04 -0.78820935161E+03  0.46415303302E+03  0.14147694253E+04  0.46999998093E+01 0.  1.
</event>
<event>
 5   0  0.5217999E-06  0.2752609E+04  0.7818609E-02  0.8318134E-01
        1   -1    0    0  501    0  0.00000000000E+00  0.00000000000E+00  0.22105316083E+04  0.22105316083E+04  0.50400001928E-02 0.  1.
       -1   -1    0    0    0  501  0.00000000000E+00  0.00000000000E+00 -0.85690441921E+03  0.85690441922E+03  0.50400001928E-02 0. -1.
    10030    2    1    2    0    0  0.00000000000E+00  0.00000000000E+00  0.13536271891E+04  0.30674360275E+04  0.27526091651E+04 0.  0.
        1    1    3    3  502    0 -0.91152606981E+03 -0.69538758781E+03  0.15253277040E+04  0.19081583472E+04  0.50400001928E-02 0.  1.
       -1    1    3    3    0  502  0.91152606981E+03  0.69538758781E+03 -0.17170051496E+03  0.11592776803E+04  0.50400001928E-02 0. -1.
</event>
<event>
 5   0  0.1330962E-05  0.2090728E+04  0.7818609E-02  0.8565339E-01
       -2   -1    0    0    0  501  0.00000000000E+00  0.00000000000E+00  0.60237030425E+03  0.60237030426E+03  0.25500000920E-02 0. -1.
        2   -1    0    0  501    0  0.00000000000E+00  0.00000000000E+00 -0.18141431827E+04  0.18141431827E+04  0.25500000920E-02 0.  1.
    10030    2    1    2    0    0  0.00000000000E+00  0.00000000000E+00 -0.12117728784E+04  0.24165134869E+04  0.20907280846E+04 0.  0.
        4    1    3    3  502    0  0.98385785892E+03 -0.30188394792E+03 -0.81798615084E+03  0.13146152138E+04  0.12699999809E+01 0.  1.
       -4    1    3    3    0  502 -0.98385785892E+03  0.30188394792E+03 -0.39378672760E+03  0.11018982731E+04  0.12699999809E+01 0. -1.
</event>
<event>
 5   0  0.5217999E-06  0.2794643E+04  0.7818609E-02  0.8304933E-01
        1   -1    0    0  501    0  0.00000000000E+00  0.00000000000E+00  0.15998405038E+04  0.15998405038E+04  0.50400001928E-02 0. -1.
       -1   -1    0    0    0  501  0.00000000000E+00  0.00000000000E+00 -0.12204385781E+04  0.12204385781E+04  0.50400001928E-02 0.  1.
    10030    2    1    2    0    0  0.00000000000E+00  0.00000000000E+00  0.37940192568E+03  0.28202790819E+04  0.27946427819E+04 0.  0.
        1    1    3    3  502    0  0.10558944892E+04  0.76939659637E+03 -0.31044883735E+03  0.13428562006E+04  0.50400001928E-02 0.  1.
       -1    1    3    3    0  502 -0.10558944892E+04 -0.76939659637E+03  0.68985076303E+03  0.14774228813E+04  0.50400001928E-02 0. -1.
</event>
<event>
 5   0  0.1330962E-05  0.2755282E+04  0.7818609E-02  0.8317288E-01
        2   -1    0    0  501    0  0.00000000000E+00  0.00000000000E+00  0.17617861376E+04  0.17617861376E+04  0.25500000920E-02 0.  1.
       -2   -1    0    0    0  501  0.00000000000E+00  0.00000000000E+00 -0.10772558423E+04  0.10772558423E+04  0.25500000920E-02 0. -1.
    10030    2    1    2    0    0  0.00000000000E+00  0.00000000000E+00  0.68453029536E+03  0.28390419799E+04  0.27552817712E+04 0.  0.
        4    1    3    3  502    0 -0.92916464105E+03 -0.95879177286E+03 -0.75616068103E+01  0.13351731666E+04  0.12699999809E+01 0.  1.
       -4    1    3    3    0  502  0.92916464105E+03  0.95879177286E+03  0.69209190217E+03  0.15038688134E+04  0.12699999809E+01 0. -1.
</event>
<event>
 5   0  0.1283052E-05  0.2796712E+04  0.7818609E-02  0.8304290E-01
        2   -1    0    0  501    0  0.00000000000E+00  0.00000000000E+00  0.27596106727E+04  0.27596106727E+04  0.25500000920E-02 0. -1.
       -2   -1    0    0    0  501  0.00000000000E+00  0.00000000000E+00 -0.70857788041E+03  0.70857788042E+03  0.25500000920E-02 0.  1.
    10030    2    1    2    0    0  0.00000000000E+00  0.00000000000E+00  0.20510327923E+04  0.34681885531E+04  0.27967116986E+04 0.  0.
        5    1    3    3  502    0  0.26394891484E+03 -0.10756592007E+04 -0.33052257231E+02  0.11080732319E+04  0.46999998093E+01 0.  1.
       -5    1    3    3    0  502 -0.26394891484E+03  0.10756592007E+04  0.20840850495E+04  0.23601153211E+04  0.46999998093E+01 0. -1.
</event>
<event>
 5   0  0.5281919E-06  0.2721845E+04  0.7818609E-02  0.8327952E-01
        1   -1    0    0  501    0  0.00000000000E+00  0.00000000000E+00  0.12395304915E+04  0.12395304915E+04  0.50400001928E-02 0. -1.
       -1   -1    0    0    0  501  0.00000000000E+00  0.00000000000E+00 -0.14942033496E+04  0.14942033496E+04  0.50400001928E-02 0.  1.
    10030    2    1    2    0    0  0.00000000000E+00  0.00000000000E+00 -0.25467285813E+03  0.27337338412E+04  0.27218454125E+04 0.  0.
        4    1    3    3  502    0  0.12836519631E+04  0.42918636106E+03 -0.26989193768E+03  0.13801472986E+04  0.12699999809E+01 0. -1.
       -4    1    3    3    0  502 -0.12836519631E+04 -0.42918636106E+03  0.15219079549E+02  0.13535865426E+04  0.12699999809E+01 0.  1.
</event>
<event>
 5   0  0.1283052E-05  0.2777318E+04  0.7818609E-02  0.8310345E-01
        2   -1    0    0  501    0  0.00000000000E+00  0.00000000000E+00  0.21937343104E+04  0.21937343104E+04  0.25500000920E-02 0.  1.
       -2   -1    0    0    0  501  0.00000000000E+00  0.00000000000E+00 -0.87903688015E+03  0.87903688015E+03  0.25500000920E-02 0. -1.
    10030    2    1    2    0    0  0.00000000000E+00  0.00000000000E+00  0.13146974302E+04  0.30727711905E+04  0.27773176729E+04 0.  0.
        5    1    3    3  502    0  0.10575313146E+04  0.75542507912E+03  0.11985847069E+04  0.17679555767E+04  0.46999998093E+01 0.  1.
       -5    1    3    3    0  502 -0.10575313146E+04 -0.75542507912E+03  0.11611272329E+03  0.13048156138E+04  0.46999998093E+01 0. -1.
</event>
<event>
 5   0  0.5107453E-06  0.2775859E+04  0.7818609E-02  0.8310802E-01
        1   -1    0    0  501    0  0.00000000000E+00  0.00000000000E+00  0.19627502851E+04  0.19627502851E+04  0.50400001928E-02 0. -1.
       -1   -1    0    0    0  501  0.00000000000E+00  0.00000000000E+00 -0.98145377795E+03  0.98145377796E+03  0.50400001928E-02 0.  1.
    10030    2    1    2    0    0  0.00000000000E+00  0.00000000000E+00  0.98129650713E+03  0.29442040630E+04  0.27758592778E+04 0.  0.
        2    1    3    3  502    0  0.79832457849E+02 -0.13764538862E+04  0.65952148646E+03  0.15283870953E+04  0.25500000920E-02 0.  1.
       -2    1    3    3    0  502 -0.79832457849E+02  0.13764538862E+04  0.32177502067E+03  0.14158169677E+04  0.25500000920E-02 0. -1.
</event>
<event>
 5   0  0.1302063E-05  0.2890130E+04  0.7818609E-02  0.8275820E-01
        2   -1    0    0  501    0  0.00000000000E+00  0.00000000000E+00  0.18600911012E+04  0.18600911012E+04  0.25500000920E-02 0.  1.
       -2   -1    0    0    0  501  0.00000000000E+00  0.00000000000E+00 -0.11226399005E+04  0.11226399005E+04  0.25500000920E-02 0. -1.
    10030    2    1    2    0    0  0.00000000000E+00  0.00000000000E+00  0.73745120075E+03  0.29827310017E+04  0.28901297471E+04 0.  0.
        2    1    3    3  502    0 -0.64390171498E+03  0.89094722108E+03 -0.59931306762E+03  0.12520273649E+04  0.25500000920E-02 0. -1.
       -2    1    3    3    0  502  0.64390171498E+03 -0.89094722108E+03  0.13367642684E+04  0.17307036368E+04  0.25500000920E-02 0.  1.
</event>
<event>
 5   0  0.5023691E-06  0.2835380E+04  0.7818609E-02  0.8292368E-01
        1   -1    0    0  501    0  0.00000000000E+00  0.00000000000E+00  0.91967285009E+03  0.91967285010E+03  0.50400001928E-02 0. -1.
       -1   -1    0    0    0  501  0.00000000000E+00  0.00000000000E+00 -0.21853909016E+04  0.21853909016E+04  0.50400001928E-02 0.  1.
    10030    2    1    2    0    0  0.00000000000E+00  0.00000000000E+00 -0.12657180515E+04  0.31050637517E+04  0.28353798187E+04 0.  0.
        5    1    3    3  502    0  0.72577805168E+03 -0.98061273555E+03 -0.14236703669E+04  0.18748905357E+04  0.46999998093E+01 0.  1.
       -5    1    3    3    0  502 -0.72577805168E+03  0.98061273555E+03  0.15795231536E+03  0.12301732160E+04  0.46999998093E+01 0. -1.
</event>
</LesHouchesEvents>
