<LesHouchesEvents version="3.0">
<header>
<!--
#*********************************************************************
#                                                                    *
#                        MadGraph5_aMC@NLO                           *
#                                                                    *
#                           Going Beyond                             *
#                                                                    *
#                   http://madgraph.hep.uiuc.edu                     *
#                   http://madgraph.phys.ucl.ac.be                   *
#                   http://amcatnlo.cern.ch                          *
#                                                                    *
#                     The MadGraph5_aMC@NLO team                     *
#                                                                    *
#....................................................................*
#                                                                    *
# This file contains all the information necessary to reproduce      *
# the events generated:                                              *
#                                                                    *
# 1. software version                                                *
# 2. proc_card          : code generation info including model       *
# 3. param_card         : model primary parameters in the LH format  *
# 4. run_card           : running parameters (collider and cuts)     *
# 5. pythia_card        : present only if pythia has been run        *
# 6. pgs_card           : present only if pgs has been run           *
# 7. delphes_cards      : present only if delphes has been run       *
#                                                                    *
#                                                                    *
#*********************************************************************
-->
<MGVersion>
#5.2.2.3
</MGVersion>
<MG5ProcCard>
#************************************************************
#*                     MadGraph5_aMC@NLO                    *
#*                                                          *
#*                *                       *                 *
#*                  *        * *        *                   *
#*                    * * * * 5 * * * *                     *
#*                  *        * *        *                   *
#*                *                       *                 *
#*                                                          *
#*                                                          *
#*         VERSION 2.2.3                 2015-02-10         *
#*                                                          *
#*    The MadGraph5_aMC@NLO Development Team - Find us at   *
#*    https://server06.fynu.ucl.ac.be/projects/madgraph     *
#*                                                          *
#************************************************************
#*                                                          *
#*               Command File for MadGraph5_aMC@NLO         *
#*                                                          *
#*     run as ./bin/mg5_aMC  filename                       *
#*                                                          *
#************************************************************
set group_subprocesses Auto
set ignore_six_quark_processes False
set loop_optimized_output True
set gauge unitary
set complex_mass_scheme False
import model sm
define p = g u c d s u~ c~ d~ s~
define j = g u c d s u~ c~ d~ s~
define l+ = e+ mu+
define l- = e- mu-
define vl = ve vm vt
define vl~ = ve~ vm~ vt~
import model Zprime_UFO
generate p p > zph, zph > j j
add process p p > zph, zph > b b~
output Dijet_signal
</MG5ProcCard>
<MGProcCard>
#*********************************************************************
#                        MadGraph/MadEvent                           *
#                   http://madgraph.hep.uiuc.edu                     *
#                                                                    *
#                          proc_card.dat                             *
#*********************************************************************
#                                                                    *
#            This Files is generated by MADGRAPH 5                   *
#                                                                    *
# WARNING: This Files is generated for MADEVENT (compatibility issue)*
#          This files is NOT a valid MG4 proc_card.dat               *
#          Running this in MG4 will NEVER reproduce the result of MG5*
#                                                                    *
#*********************************************************************
#*********************************************************************
# Process(es) requested : mg2 input                                  *
#*********************************************************************
# Begin PROCESS # This is TAG. Do not modify this line
p p > zph , zph > j j           #Process
# Be carefull the coupling are here in MG5 convention
          
end_coup           # End the couplings input

done               # this tells MG there are no more procs
# End PROCESS  # This is TAG. Do not modify this line
#*********************************************************************
# Model information                                                  *
#*********************************************************************
# Begin MODEL  # This is TAG. Do not modify this line
Zprime_UFO
# End   MODEL  # This is TAG. Do not modify this line
#*********************************************************************
# Start multiparticle definitions                                    *
#*********************************************************************
# Begin MULTIPARTICLES # This is TAG. Do not modify this line

# End  MULTIPARTICLES # This is TAG. Do not modify this line
</MGProcCard>
<MGRunCard>
#*********************************************************************
#                       MadGraph5_aMC@NLO                            *
#                                                                    *
#                     run_card.dat MadEvent                          *
#                                                                    *
#  This file is used to set the parameters of the run.               *
#                                                                    *
#  Some notation/conventions:                                        *
#                                                                    *
#   Lines starting with a '# ' are info or comments                  *
#                                                                    *
#   mind the format:   value    = variable     ! comment             *
#*********************************************************************
#
#*******************                                                 
# Running parameters
#*******************                                                 
#                                                                    
#*********************************************************************
# Tag name for the run (one word)                                    *
#*********************************************************************
  tag_1     = run_tag ! name of the run 
#*********************************************************************
# Run to generate the grid pack                                      *
#*********************************************************************
  .false.     = gridpack  !True = setting up the grid pack
#*********************************************************************
# Number of events and rnd seed                                      *
# Warning: Do not generate more than 1M events in a single run       *
# If you want to run Pythia, avoid more than 50k events in a run.    *
#*********************************************************************
  2000 = nevents ! Number of unweighted events requested 
 1830 = iseed   ! rnd seed (0=assigned automatically=default))
#*********************************************************************
# Collider type and energy                                           *
# lpp: 0=No PDF, 1=proton, -1=antiproton, 2=photon from proton,      *
#                                         3=photon from electron     *
#*********************************************************************
        1     = lpp1    ! beam 1 type 
        1     = lpp2    ! beam 2 type
     4000     = ebeam1  ! beam 1 total energy in GeV
     4000     = ebeam2  ! beam 2 total energy in GeV
#*********************************************************************
# Beam polarization from -100 (left-handed) to 100 (right-handed)    *
#*********************************************************************
        0     = polbeam1 ! beam polarization for beam 1
        0     = polbeam2 ! beam polarization for beam 2
#*********************************************************************
# PDF CHOICE: this automatically fixes also alpha_s and its evol.    *
#*********************************************************************
 'nn23lo1'    = pdlabel     ! PDF set                                     
 230000    = lhaid     ! if pdlabel=lhapdf, this is the lhapdf number
#*********************************************************************
# Renormalization and factorization scales                           *
#*********************************************************************
 F        = fixed_ren_scale  ! if .true. use fixed ren scale
 F        = fixed_fac_scale  ! if .true. use fixed fac scale
 91.1880  = scale            ! fixed ren scale
 91.1880  = dsqrt_q2fact1    ! fixed fact scale for pdf1
 91.1880  = dsqrt_q2fact2    ! fixed fact scale for pdf2
 1        = scalefact        ! scale factor for event-by-event scales
#*********************************************************************
# Matching - Warning! ickkw > 1 is still beta
#*********************************************************************
 0        = ickkw            ! 0 no matching, 1 MLM, 2 CKKW matching
 1        = highestmult      ! for ickkw=2, highest mult group
 1        = ktscheme         ! for ickkw=1, 1 Durham kT, 2 Pythia pTE
 1        = alpsfact         ! scale factor for QCD emission vx
 F        = chcluster        ! cluster only according to channel diag
 T        = pdfwgt           ! for ickkw=1, perform pdf reweighting
 5        = asrwgtflavor     ! highest quark flavor for a_s reweight
 T        = clusinfo         ! include clustering tag in output
 3.0      = lhe_version       ! Change the way clustering information pass to shower.        
#*********************************************************************
#**********************************************************
#
#**********************************************************
# Automatic ptj and mjj cuts if xqcut > 0
# (turn off for VBF and single top processes)
#**********************************************************
   T  = auto_ptj_mjj  ! Automatic setting of ptj and mjj
#**********************************************************
#                                                                    
#**********************************
# BW cutoff (M+/-bwcutoff*Gamma)
#**********************************
  15  = bwcutoff      ! (M+/-bwcutoff*Gamma)
#**********************************************************
# Apply pt/E/eta/dr/mij cuts on decay products or not
# (note that etmiss/ptll/ptheavy/ht/sorted cuts always apply)
#**********************************************************
   T  = cut_decays    ! Cut decay products 
#*************************************************************
# Number of helicities to sum per event (0 = all helicities)
# 0 gives more stable result, but longer run time (needed for
# long decay chains e.g.).
# Use >=2 if most helicities contribute, e.g. pure QCD.
#*************************************************************
   0  = nhel          ! Number of helicities used per event
#*******************                                                 
# Standard Cuts
#*******************                                                 
#                                                                    
#*********************************************************************
# Minimum and maximum pt's (for max, -1 means no cut)                *
#*********************************************************************
 20  = ptj       ! minimum pt for the jets 
  0  = ptb       ! minimum pt for the b 
 10  = pta       ! minimum pt for the photons 
 10  = ptl       ! minimum pt for the charged leptons 
  0  = misset    ! minimum missing Et (sum of neutrino's momenta)
  0  = ptheavy   ! minimum pt for one heavy final state
 1.0 = ptonium   ! minimum pt for the quarkonium states
 -1  = ptjmax    ! maximum pt for the jets
 -1  = ptbmax    ! maximum pt for the b
 -1  = ptamax    ! maximum pt for the photons
 -1  = ptlmax    ! maximum pt for the charged leptons
 -1  = missetmax ! maximum missing Et (sum of neutrino's momenta)
#*********************************************************************
# Minimum and maximum E's (in the center of mass frame)              *
#*********************************************************************
  0  = ej     ! minimum E for the jets 
  0  = eb     ! minimum E for the b 
  0  = ea     ! minimum E for the photons 
  0  = el     ! minimum E for the charged leptons 
 -1   = ejmax ! maximum E for the jets
 -1   = ebmax ! maximum E for the b
 -1   = eamax ! maximum E for the photons
 -1   = elmax ! maximum E for the charged leptons
#*********************************************************************
# Maximum and minimum absolute rapidity (for max, -1 means no cut)   *
#*********************************************************************
   5  = etaj    ! max rap for the jets 
  -1  = etab    ! max rap for the b
 2.5  = etaa    ! max rap for the photons 
 2.5  = etal    ! max rap for the charged leptons 
 0.6  = etaonium ! max rap for the quarkonium states
   0  = etajmin ! min rap for the jets
   0  = etabmin ! min rap for the b
   0  = etaamin ! min rap for the photons
   0  = etalmin ! main rap for the charged leptons
#*********************************************************************
# Minimum and maximum DeltaR distance                                *
#*********************************************************************
 0.4 = drjj    ! min distance between jets 
 0   = drbb    ! min distance between b's 
 0.4 = drll    ! min distance between leptons 
 0.4 = draa    ! min distance between gammas 
 0   = drbj    ! min distance between b and jet 
 0.4 = draj    ! min distance between gamma and jet 
 0.4 = drjl    ! min distance between jet and lepton 
 0   = drab    ! min distance between gamma and b 
 0   = drbl    ! min distance between b and lepton 
 0.4 = dral    ! min distance between gamma and lepton 
 -1  = drjjmax ! max distance between jets
 -1  = drbbmax ! max distance between b's
 -1  = drllmax ! max distance between leptons
 -1  = draamax ! max distance between gammas
 -1  = drbjmax ! max distance between b and jet
 -1  = drajmax ! max distance between gamma and jet
 -1  = drjlmax ! max distance between jet and lepton
 -1  = drabmax ! max distance between gamma and b
 -1  = drblmax ! max distance between b and lepton
 -1  = dralmax ! maxdistance between gamma and lepton
#*********************************************************************
# Minimum and maximum invariant mass for pairs                       *
# WARNING: for four lepton final state mmll cut require to have      *
#          different lepton masses for each flavor!                  *           
#*********************************************************************
 0   = mmjj    ! min invariant mass of a jet pair 
 0   = mmbb    ! min invariant mass of a b pair 
 0   = mmaa    ! min invariant mass of gamma gamma pair
 0   = mmll    ! min invariant mass of l+l- (same flavour) lepton pair
 -1  = mmjjmax ! max invariant mass of a jet pair
 -1  = mmbbmax ! max invariant mass of a b pair
 -1  = mmaamax ! max invariant mass of gamma gamma pair
 -1  = mmllmax ! max invariant mass of l+l- (same flavour) lepton pair
#*********************************************************************
# Minimum and maximum invariant mass for all letpons                 *
#*********************************************************************
 0   = mmnl    ! min invariant mass for all letpons (l+- and vl) 
 -1  = mmnlmax ! max invariant mass for all letpons (l+- and vl) 
#*********************************************************************
# Minimum and maximum pt for 4-momenta sum of leptons                *
#*********************************************************************
 0   = ptllmin  ! Minimum pt for 4-momenta sum of leptons(l and vl)
 -1  = ptllmax  ! Maximum pt for 4-momenta sum of leptons(l and vl)
#*********************************************************************
# Inclusive cuts                                                     *
#*********************************************************************
 0  = xptj ! minimum pt for at least one jet  
 0  = xptb ! minimum pt for at least one b 
 0  = xpta ! minimum pt for at least one photon 
 0  = xptl ! minimum pt for at least one charged lepton 
#*********************************************************************
# Control the pt's of the jets sorted by pt                          *
#*********************************************************************
 0   = ptj1min ! minimum pt for the leading jet in pt
 0   = ptj2min ! minimum pt for the second jet in pt
 0   = ptj3min ! minimum pt for the third jet in pt
 0   = ptj4min ! minimum pt for the fourth jet in pt
 -1  = ptj1max ! maximum pt for the leading jet in pt 
 -1  = ptj2max ! maximum pt for the second jet in pt
 -1  = ptj3max ! maximum pt for the third jet in pt
 -1  = ptj4max ! maximum pt for the fourth jet in pt
 0   = cutuse  ! reject event if fails any (0) / all (1) jet pt cuts
#*********************************************************************
# Control the pt's of leptons sorted by pt                           *
#*********************************************************************
 0   = ptl1min ! minimum pt for the leading lepton in pt
 0   = ptl2min ! minimum pt for the second lepton in pt
 0   = ptl3min ! minimum pt for the third lepton in pt
 0   = ptl4min ! minimum pt for the fourth lepton in pt
 -1  = ptl1max ! maximum pt for the leading lepton in pt 
 -1  = ptl2max ! maximum pt for the second lepton in pt
 -1  = ptl3max ! maximum pt for the third lepton in pt
 -1  = ptl4max ! maximum pt for the fourth lepton in pt
#*********************************************************************
# Control the Ht(k)=Sum of k leading jets                            *
#*********************************************************************
 0   = htjmin ! minimum jet HT=Sum(jet pt)
 -1  = htjmax ! maximum jet HT=Sum(jet pt)
 0   = ihtmin  !inclusive Ht for all partons (including b)
 -1  = ihtmax  !inclusive Ht for all partons (including b)
 0   = ht2min ! minimum Ht for the two leading jets
 0   = ht3min ! minimum Ht for the three leading jets
 0   = ht4min ! minimum Ht for the four leading jets
 -1  = ht2max ! maximum Ht for the two leading jets
 -1  = ht3max ! maximum Ht for the three leading jets
 -1  = ht4max ! maximum Ht for the four leading jets
#***********************************************************************
# Photon-isolation cuts, according to hep-ph/9801442                   *
# When ptgmin=0, all the other parameters are ignored                  *
# When ptgmin>0, pta and draj are not going to be used                 *
#***********************************************************************
   0 = ptgmin ! Min photon transverse momentum
 0.4 = R0gamma ! Radius of isolation code
 1.0 = xn ! n parameter of eq.(3.4) in hep-ph/9801442
 1.0 = epsgamma ! epsilon_gamma parameter of eq.(3.4) in hep-ph/9801442
 .true. = isoEM ! isolate photons from EM energy (photons and leptons)
#*********************************************************************
# WBF cuts                                                           *
#*********************************************************************
 0   = xetamin ! minimum rapidity for two jets in the WBF case  
 0   = deltaeta ! minimum rapidity for two jets in the WBF case 
#*********************************************************************
# KT DURHAM CUT                                                      *
#*********************************************************************
 -1    =  ktdurham        
 0.4  =  dparameter 
#*********************************************************************
# maximal pdg code for quark to be considered as a light jet         *
# (otherwise b cuts are applied)                                     *
#*********************************************************************
 4 = maxjetflavor    ! Maximum jet pdg code
#*********************************************************************
# Jet measure cuts                                                   *
#*********************************************************************
 0   = xqcut   ! minimum kt jet measure between partons
#*********************************************************************
#
#*********************************************************************
# Store info for systematics studies                                 *
# WARNING: If use_syst is T, matched Pythia output is                *
#          meaningful ONLY if plotted taking matchscale              *
#          reweighting into account!                                 *
#*********************************************************************
   F  = use_syst      ! Enable systematics studies
#
#**************************************
# Parameter of the systematics study
#  will be used by SysCalc (if installed)
#**************************************                                  
#
0.5 1 2 = sys_scalefact  # factorization/renormalization scale factor
0.5 1 2 = sys_alpsfact  # \alpha_s emission scale factors
30 50 = sys_matchscale # variation of merging scale
# PDF sets and number of members (0 or none for all members).
CT10nlo.LHgrid = sys_pdf # matching scales
# MSTW2008nlo68cl.LHgrid 1  = sys_pdf
</MGRunCard>
<slha>
######################################################################
## PARAM_CARD AUTOMATICALY GENERATED BY MG5 FOLLOWING UFO MODEL   ####
######################################################################
##                                                                  ##
##  Width set on Auto will be computed following the information    ##
##        present in the decay.py files of the model.               ##
##        See  arXiv:1402.1178 for more details.                    ##
##                                                                  ##
######################################################################

###################################
## INFORMATION FOR CKMBLOCK
###################################
Block ckmblock 
    1 2.277360e-01 # cabi 

###################################
## INFORMATION FOR FRBLOCK
###################################
Block frblock 
    1 1.000000e+00 # gz 

###################################
## INFORMATION FOR MASS
###################################
Block mass 
    1 5.040000e-03 # MD 
    2 2.550000e-03 # MU 
    3 1.010000e-01 # MS 
    4 1.270000e+00 # MC 
    5 4.700000e+00 # MB 
    6 1.720000e+02 # MT 
   11 5.110000e-04 # Me 
   13 1.056600e-01 # MM 
   15 1.777000e+00 # MTA 
   23 9.118760e+01 # MZ 
   25 1.200000e+02 # MH 
  10030 9.000000e+02 # MZph 
  10031 3.000000e+02 # MZpl 
## Dependent parameters, given by model restrictions.
## Those values should be edited following the 
## analytical expression. MG5 ignores those values 
## but they are important for interfacing the output of MG5
## to external program such as Pythia.
  12 0.000000 # ve : 0.0 
  14 0.000000 # vm : 0.0 
  16 0.000000 # vt : 0.0 
  21 0.000000 # g : 0.0 
  22 0.000000 # a : 0.0 
  24 79.824360 # w+ : cmath.sqrt(MZ__exp__2/2. + cmath.sqrt(MZ__exp__4/4. - (aEW*cmath.pi*MZ__exp__2)/(Gf*sqrt__2))) 

###################################
## INFORMATION FOR SMINPUTS
###################################
Block sminputs 
    1 1.279000e+02 # aEWM1 
    2 1.166370e-05 # Gf 
    3 1.184000e-01 # aS 

###################################
## INFORMATION FOR YUKAWA
###################################
Block yukawa 
    1 5.040000e-03 # ymdo 
    2 2.550000e-03 # ymup 
    3 1.010000e-01 # yms 
    4 1.270000e+00 # ymc 
    5 4.700000e+00 # ymb 
    6 1.720000e+02 # ymt 
   11 5.110000e-04 # yme 
   13 1.056600e-01 # ymm 
   15 1.777000e+00 # ymtau 

###################################
## INFORMATION FOR DECAY
###################################
DECAY   6 1.508336e+00 # WT 
DECAY  23 2.495200e+00 # WZ 
DECAY  24 2.085000e+00 # WW 
DECAY  25 5.753088e-03 # WH 
## Dependent parameters, given by model restrictions.
## Those values should be edited following the 
## analytical expression. MG5 ignores those values 
## but they are important for interfacing the output of MG5
## to external program such as Pythia.
DECAY  1 0.000000 # d : 0.0 
DECAY  2 0.000000 # u : 0.0 
DECAY  3 0.000000 # s : 0.0 
DECAY  4 0.000000 # c : 0.0 
DECAY  5 0.000000 # b : 0.0 
DECAY  11 0.000000 # e- : 0.0 
DECAY  12 0.000000 # ve : 0.0 
DECAY  13 0.000000 # mu- : 0.0 
DECAY  14 0.000000 # vm : 0.0 
DECAY  15 0.000000 # ta- : 0.0 
DECAY  16 0.000000 # vt : 0.0 
DECAY  21 0.000000 # g : 0.0 
DECAY  22 0.000000 # a : 0.0 
DECAY  10030 0.308725 # zph : (gz__exp__2*MZph*(5 + cmath.sqrt(1 - (4*MT__exp__2)/MZph__exp__2)))/(144.*cmath.pi) 
DECAY  10031 0.132629 # zpl : (5*gz__exp__2*MZpl)/(144.*cmath.pi) 
#===========================================================
# QUANTUM NUMBERS OF NEW STATE(S) (NON SM PDG CODE)
#===========================================================

Block QNUMBERS 10030  # zph 
        1 0  # 3 times electric charge
        2 3  # number of spin states (2S+1)
        3 1  # colour rep (1: singlet, 3: triplet, 8: octet)
        4 0  # Particle/Antiparticle distinction (0=own anti)
Block QNUMBERS 10031  # zpl 
        1 0  # 3 times electric charge
        2 3  # number of spin states (2S+1)
        3 1  # colour rep (1: singlet, 3: triplet, 8: octet)
        4 0  # Particle/Antiparticle distinction (0=own anti)
</slha>
## END BANNER##
<MGGenerationInfo>
#  Number of Events        :         4027
#  Integrated weight (pb)  :  0.31971E+01
#  Max wgt                 :  0.10417E-02
#  Average wgt             :  0.79392E-03
</MGGenerationInfo>
</header>
<init>
     2212     2212  0.40000000000E+04  0.40000000000E+04 0 0  247000  247000 2   1
  0.31959935859E+01  0.61575683248E-02  0.10417270000E-02   0
</init>
<event>
 5   0  0.1017079E-02  0.9160373E+03  0.7818609E-02  0.9405753E-01
        2   -1    0    0  501    0  0.00000000000E+00  0.00000000000E+00  0.92827898556E+03  0.92827898556E+03  0.25500000920E-02 0. -1.
       -2   -1    0    0    0  501  0.00000000000E+00  0.00000000000E+00 -0.22598924020E+03  0.22598924021E+03  0.25500000920E-02 0.  1.
    10030    2    1    2    0    0  0.00000000000E+00  0.00000000000E+00  0.70228974536E+03  0.11542682258E+04  0.91603725393E+03 0.  0.
        1    1    3    3  502    0 -0.40026416805E+03 -0.17321053197E+03  0.52740913681E+03  0.68437832390E+03  0.50400001928E-02 0.  1.
       -1    1    3    3    0  502  0.40026416805E+03  0.17321053197E+03  0.17488060855E+03  0.46988990187E+03  0.50400001928E-02 0. -1.
</event>
<event>
 5   0  0.1017079E-02  0.8970232E+03  0.7818609E-02  0.9429310E-01
        2   -1    0    0  501    0  0.00000000000E+00  0.00000000000E+00  0.96878820329E+03  0.96878820329E+03  0.25500000920E-02 0.  1.
       -2   -1    0    0    0  501  0.00000000000E+00  0.00000000000E+00 -0.20764357885E+03  0.20764357887E+03  0.25500000920E-02 0. -1.
    10030    2    1    2    0    0  0.00000000000E+00  0.00000000000E+00  0.76114462443E+03  0.11764317822E+04  0.89702318742E+03 0.  0.
        1    1    3    3  502    0  0.66001716023E+02  0.36931444489E+03  0.70292346627E+03  0.79677524132E+03  0.50400001928E-02 0.  1.
       -1    1    3    3    0  502 -0.66001716023E+02 -0.36931444489E+03  0.58221158166E+02  0.37965654084E+03  0.50400001928E-02 0. -1.
</event>
<event>
 5   0  0.1028978E-02  0.8698109E+03  0.7818609E-02  0.9464127E-01
       -2   -1    0    0    0  501  0.00000000000E+00  0.00000000000E+00  0.13910196704E+03  0.13910196707E+03  0.25500000920E-02 0.  1.
        2   -1    0    0  501    0  0.00000000000E+00  0.00000000000E+00 -0.13597417771E+04  0.13597417771E+04  0.25500000920E-02 0. -1.
    10030    2    1    2    0    0  0.00000000000E+00  0.00000000000E+00 -0.12206398101E+04  0.14988437442E+04  0.86981091253E+03 0.  0.
        3    1    3    3  502    0 -0.19202084249E+03 -0.17717246923E+03 -0.12094345215E+04  0.12373334069E+04  0.10100000352E+00 0. -1.
       -3    1    3    3    0  502  0.19202084249E+03  0.17717246923E+03 -0.11205288535E+02  0.26151033726E+03  0.10100000352E+00 0.  1.
</event>
<event>
 5   0  0.1017079E-02  0.8997819E+03  0.7818609E-02  0.9425854E-01
        2   -1    0    0  501    0  0.00000000000E+00  0.00000000000E+00  0.29341016773E+03  0.29341016774E+03  0.25500000920E-02 0.  1.
       -2   -1    0    0    0  501  0.00000000000E+00  0.00000000000E+00 -0.68982564428E+03  0.68982564428E+03  0.25500000920E-02 0. -1.
    10030    2    1    2    0    0  0.00000000000E+00  0.00000000000E+00 -0.39641547655E+03  0.98323581202E+03  0.89978188024E+03 0.  0.
        1    1    3    3  502    0 -0.42701496919E+03  0.10129760633E+03 -0.30637813469E+03  0.53522943716E+03  0.50400001928E-02 0. -1.
       -1    1    3    3    0  502  0.42701496919E+03 -0.10129760633E+03 -0.90037341859E+02  0.44800637486E+03  0.50400001928E-02 0.  1.
</event>
<event>
 5   0  0.1028978E-02  0.8315643E+03  0.7818609E-02  0.9515420E-01
        2   -1    0    0  501    0  0.00000000000E+00  0.00000000000E+00  0.66330269102E+03  0.66330269103E+03  0.25500000920E-02 0. -1.
       -2   -1    0    0    0  501  0.00000000000E+00  0.00000000000E+00 -0.26062730744E+03  0.26062730745E+03  0.25500000920E-02 0.  1.
    10030    2    1    2    0    0  0.00000000000E+00  0.00000000000E+00  0.40267538358E+03  0.92392999848E+03  0.83156429550E+03 0.  0.
        3    1    3    3  502    0  0.11781150776E+03  0.34319902897E+03 -0.24212264061E+02  0.36366381285E+03  0.10100000352E+00 0. -1.
       -3    1    3    3    0  502 -0.11781150776E+03 -0.34319902897E+03  0.42688764765E+03  0.56026618563E+03  0.10100000352E+00 0.  1.
</event>
<event>
 5   0  0.6288003E-03  0.9103389E+03  0.7818609E-02  0.9412749E-01
       -1   -1    0    0    0  501  0.00000000000E+00  0.00000000000E+00  0.82383568214E+03  0.82383568215E+03  0.50400001928E-02 0. -1.
        1   -1    0    0  501    0  0.00000000000E+00  0.00000000000E+00 -0.25148127736E+03  0.25148127741E+03  0.50400001928E-02 0.  1.
    10030    2    1    2    0    0  0.00000000000E+00  0.00000000000E+00  0.57235440478E+03  0.10753169596E+04  0.91033894724E+03 0.  0.
        1    1    3    3  502    0  0.37654571066E+03 -0.24353962370E+03  0.37829041187E+03  0.58668718775E+03  0.50400001928E-02 0. -1.
       -1    1    3    3    0  502 -0.37654571066E+03  0.24353962370E+03  0.19406399291E+03  0.48862977181E+03  0.50400001928E-02 0.  1.
</event>
<event>
 5   0  0.6015709E-03  0.9031200E+03  0.7818609E-02  0.9421690E-01
        1   -1    0    0  501    0  0.00000000000E+00  0.00000000000E+00  0.79353649755E+03  0.79353649757E+03  0.50400001928E-02 0. -1.
       -1   -1    0    0    0  501  0.00000000000E+00  0.00000000000E+00 -0.25695910135E+03  0.25695910140E+03  0.50400001928E-02 0.  1.
    10030    2    1    2    0    0  0.00000000000E+00  0.00000000000E+00  0.53657739620E+03  0.10504955990E+04  0.90311998169E+03 0.  0.
        3    1    3    3  502    0 -0.39689762910E+03  0.13246980280E+03  0.46579202242E+03  0.62612953531E+03  0.10100000352E+00 0. -1.
       -3    1    3    3    0  502  0.39689762910E+03 -0.13246980280E+03  0.70785373781E+02  0.42436606365E+03  0.10100000352E+00 0.  1.
</event>
<event>
 5   0  0.1017079E-02  0.9120246E+03  0.7818609E-02  0.9410674E-01
        2   -1    0    0  501    0  0.00000000000E+00  0.00000000000E+00  0.95433857435E+03  0.95433857435E+03  0.25500000920E-02 0. -1.
       -2   -1    0    0    0  501  0.00000000000E+00  0.00000000000E+00 -0.21789666901E+03  0.21789666903E+03  0.25500000920E-02 0.  1.
    10030    2    1    2    0    0  0.00000000000E+00  0.00000000000E+00  0.73644190533E+03  0.11722352434E+04  0.91202455334E+03 0.  0.
        1    1    3    3  502    0 -0.26835861083E+02  0.15736973279E+03  0.91724860866E+03  0.93103727442E+03  0.50400001928E-02 0. -1.
       -1    1    3    3    0  502  0.26835861083E+02 -0.15736973279E+03 -0.18080670333E+03  0.24119796896E+03  0.50400001928E-02 0.  1.
</event>
<event>
 5   0  0.6092779E-03  0.8983512E+03  0.7818609E-02  0.9427645E-01
       -1   -1    0    0    0  501  0.00000000000E+00  0.00000000000E+00  0.32766938515E+03  0.32766938519E+03  0.50400001928E-02 0. -1.
        1   -1    0    0  501    0  0.00000000000E+00  0.00000000000E+00 -0.61573864662E+03  0.61573864664E+03  0.50400001928E-02 0.  1.
    10030    2    1    2    0    0  0.00000000000E+00  0.00000000000E+00 -0.28806926147E+03  0.94340803182E+03  0.89835116469E+03 0.  0.
        2    1    3    3  502    0  0.16482330648E+03  0.11907703589E+03  0.27656872039E+03  0.34327295253E+03  0.25500000920E-02 0. -1.
       -2    1    3    3    0  502 -0.16482330648E+03 -0.11907703589E+03 -0.56463798186E+03  0.60013507929E+03  0.25500000920E-02 0.  1.
</event>
<event>
 5   0  0.1017079E-02  0.8948124E+03  0.7818609E-02  0.9432089E-01
       -2   -1    0    0    0  501  0.00000000000E+00  0.00000000000E+00  0.27749128580E+03  0.27749128581E+03  0.25500000920E-02 0. -1.
        2   -1    0    0  501    0  0.00000000000E+00  0.00000000000E+00 -0.72136438016E+03  0.72136438016E+03  0.25500000920E-02 0.  1.
    10030    2    1    2    0    0  0.00000000000E+00  0.00000000000E+00 -0.44387309436E+03  0.99885566597E+03  0.89481244825E+03 0.  0.
        1    1    3    3  502    0  0.10610629121E+03 -0.39099113857E+03 -0.43385139545E+03  0.59359889558E+03  0.50400001928E-02 0.  1.
       -1    1    3    3    0  502 -0.10610629121E+03  0.39099113857E+03 -0.10021698913E+02  0.40525677039E+03  0.50400001928E-02 0. -1.
</event>
<event>
 5   0  0.3996375E-03  0.9000909E+03  0.7818609E-02  0.9425468E-01
       -4   -1    0    0    0  501  0.00000000000E+00  0.00000000000E+00  0.74413428247E+03  0.74413536621E+03  0.12699999809E+01 0.  1.
        4   -1    0    0  501    0  0.00000000000E+00  0.00000000000E+00 -0.27218052031E+03  0.27218348322E+03  0.12699999809E+01 0. -1.
    10030    2    1    2    0    0  0.00000000000E+00  0.00000000000E+00  0.47195376215E+03  0.10163188494E+04  0.90009091213E+03 0.  0.
        4    1    3    3  502    0  0.10535249014E+03 -0.11981648822E+03 -0.23917610555E+03  0.28750993095E+03  0.12699999809E+01 0. -1.
       -4    1    3    3    0  502 -0.10535249014E+03  0.11981648822E+03  0.71112986770E+03  0.72880891848E+03  0.12699999809E+01 0.  1.
</event>
<event>
 5   0  0.1033749E-02  0.8986006E+03  0.7818609E-02  0.9427332E-01
       -2   -1    0    0    0  501  0.00000000000E+00  0.00000000000E+00  0.12687289421E+03  0.12687289424E+03  0.25500000920E-02 0. -1.
        2   -1    0    0  501    0  0.00000000000E+00  0.00000000000E+00 -0.15911260164E+04  0.15911260164E+04  0.25500000920E-02 0.  1.
    10030    2    1    2    0    0  0.00000000000E+00  0.00000000000E+00 -0.14642531222E+04  0.17179989106E+04  0.89860060713E+03 0.  0.
        5    1    3    3  502    0 -0.43305884430E+03 -0.25034346586E+02 -0.50849616296E+03  0.66839892196E+03  0.46999998093E+01 0.  1.
       -5    1    3    3    0  502  0.43305884430E+03  0.25034346586E+02 -0.95575695921E+03  0.10495999887E+04  0.46999998093E+01 0. -1.
</event>
<event>
 5   0  0.6211218E-03  0.8818753E+03  0.7818609E-02  0.9448526E-01
        1   -1    0    0  501    0  0.00000000000E+00  0.00000000000E+00  0.28757749093E+03  0.28757749097E+03  0.50400001928E-02 0.  1.
       -1   -1    0    0    0  501  0.00000000000E+00  0.00000000000E+00 -0.67608213619E+03  0.67608213621E+03  0.50400001928E-02 0. -1.
    10030    2    1    2    0    0  0.00000000000E+00  0.00000000000E+00 -0.38850464526E+03  0.96365962718E+03  0.88187528465E+03 0.  0.
        5    1    3    3  502    0 -0.76897533859E+02  0.19268137116E+03 -0.61938903827E+03  0.65322600394E+03  0.46999998093E+01 0. -1.
       -5    1    3    3    0  502  0.76897533859E+02 -0.19268137116E+03  0.23088439300E+03  0.31043362324E+03  0.46999998093E+01 0.  1.
</event>
<event>
 5   0  0.3996375E-03  0.9117975E+03  0.7818609E-02  0.9410953E-01
        3   -1    0    0  501    0  0.00000000000E+00  0.00000000000E+00  0.10122675467E+04  0.10122675518E+04  0.10100000352E+00 0. -1.
       -3   -1    0    0    0  501  0.00000000000E+00  0.00000000000E+00 -0.20532480985E+03  0.20532483469E+03  0.10100000352E+00 0.  1.
    10030    2    1    2    0    0  0.00000000000E+00  0.00000000000E+00  0.80694273689E+03  0.12175923865E+04  0.91179747694E+03 0.  0.
        3    1    3    3  502    0 -0.29580412616E+03 -0.94629356210E+02  0.84915266049E+03  0.90416538704E+03  0.10100000352E+00 0. -1.
       -3    1    3    3    0  502  0.29580412616E+03  0.94629356210E+02 -0.42209923600E+02  0.31342699942E+03  0.10100000352E+00 0.  1.
</event>
<event>
 5   0  0.6288003E-03  0.8671226E+03  0.7818609E-02  0.9467639E-01
        1   -1    0    0  501    0  0.00000000000E+00  0.00000000000E+00  0.46848287958E+03  0.46848287961E+03  0.50400001928E-02 0. -1.
       -1   -1    0    0    0  501  0.00000000000E+00  0.00000000000E+00 -0.40124281730E+03  0.40124281733E+03  0.50400001928E-02 0.  1.
    10030    2    1    2    0    0  0.00000000000E+00  0.00000000000E+00  0.67240062282E+02  0.86972569693E+03  0.86712257607E+03 0.  0.
        1    1    3    3  502    0  0.30589533669E+03 -0.20272580134E+03  0.26519337364E+03  0.45276620124E+03  0.50400001928E-02 0. -1.
       -1    1    3    3    0  502 -0.30589533669E+03  0.20272580134E+03 -0.19795331136E+03  0.41695949569E+03  0.50400001928E-02 0.  1.
</event>
<event>
 5   0  0.6015709E-03  0.9052417E+03  0.7818609E-02  0.9419053E-01
        1   -1    0    0  501    0  0.00000000000E+00  0.00000000000E+00  0.28531016424E+03  0.28531016429E+03  0.50400001928E-02 0.  1.
       -1   -1    0    0    0  501  0.00000000000E+00  0.00000000000E+00 -0.71804534995E+03  0.71804534997E+03  0.50400001928E-02 0. -1.
    10030    2    1    2    0    0  0.00000000000E+00  0.00000000000E+00 -0.43273518571E+03  0.10033555143E+04  0.90524170642E+03 0.  0.
        3    1    3    3  502    0 -0.13312846818E+03 -0.37744988242E+03  0.17903024875E+02  0.40063965266E+03  0.10100000352E+00 0.  1.
       -3    1    3    3    0  502  0.13312846818E+03  0.37744988242E+03 -0.45063821058E+03  0.60271586160E+03  0.10100000352E+00 0. -1.
</event>
<event>
 5   0  0.6015709E-03  0.8878135E+03  0.7818609E-02  0.9440945E-01
        1   -1    0    0  501    0  0.00000000000E+00  0.00000000000E+00  0.28333720174E+03  0.28333720179E+03  0.50400001928E-02 0.  1.
       -1   -1    0    0    0  501  0.00000000000E+00  0.00000000000E+00 -0.69547237599E+03  0.69547237600E+03  0.50400001928E-02 0. -1.
    10030    2    1    2    0    0  0.00000000000E+00  0.00000000000E+00 -0.41213517424E+03  0.97880957779E+03  0.88781348701E+03 0.  0.
        3    1    3    3  502    0  0.40822794290E+03 -0.13854245124E+02 -0.14438949663E+02  0.40871810204E+03  0.10100000352E+00 0.  1.
       -3    1    3    3    0  502 -0.40822794290E+03  0.13854245124E+02 -0.39769622458E+03  0.57009147575E+03  0.10100000352E+00 0. -1.
</event>
<event>
 5   0  0.1017079E-02  0.8973964E+03  0.7818609E-02  0.9428842E-01
       -2   -1    0    0    0  501  0.00000000000E+00  0.00000000000E+00  0.16432229888E+03  0.16432229890E+03  0.25500000920E-02 0.  1.
        2   -1    0    0  501    0  0.00000000000E+00  0.00000000000E+00 -0.12252145726E+04  0.12252145726E+04  0.25500000920E-02 0. -1.
    10030    2    1    2    0    0  0.00000000000E+00  0.00000000000E+00 -0.10608922737E+04  0.13895368715E+04  0.89739640118E+03 0.  0.
        1    1    3    3  502    0  0.10578260403E+03  0.21414178452E+03 -0.11186040626E+04  0.11438189157E+04  0.50400001928E-02 0. -1.
       -1    1    3    3    0  502 -0.10578260403E+03 -0.21414178452E+03  0.57711788838E+02  0.24571795578E+03  0.50400001928E-02 0.  1.
</event>
<event>
 5   0  0.6137243E-03  0.9160057E+03  0.7818609E-02  0.9405792E-01
        1   -1    0    0  501    0  0.00000000000E+00  0.00000000000E+00  0.15805549369E+04  0.15805549369E+04  0.50400001928E-02 0.  1.
       -1   -1    0    0    0  501  0.00000000000E+00  0.00000000000E+00 -0.13271706999E+03  0.13271707009E+03  0.50400001928E-02 0. -1.
    10030    2    1    2    0    0  0.00000000000E+00  0.00000000000E+00  0.14478378669E+04  0.17132720070E+04  0.91600572111E+03 0.  0.
        4    1    3    3  502    0  0.20024706086E+03  0.24051514571E+03  0.98479683531E+02  0.32809492783E+03  0.12699999809E+01 0. -1.
       -4    1    3    3    0  502 -0.20024706086E+03 -0.24051514571E+03  0.13493581834E+04  0.13851770792E+04  0.12699999809E+01 0.  1.
</event>
<event>
 5   0  0.6288003E-03  0.9014143E+03  0.7818609E-02  0.9423815E-01
       -1   -1    0    0    0  501  0.00000000000E+00  0.00000000000E+00  0.31866311004E+03  0.31866311008E+03  0.50400001928E-02 0.  1.
        1   -1    0    0  501    0  0.00000000000E+00  0.00000000000E+00 -0.63746610793E+03  0.63746610795E+03  0.50400001928E-02 0. -1.
    10030    2    1    2    0    0  0.00000000000E+00  0.00000000000E+00 -0.31880299789E+03  0.95612921803E+03  0.90141429438E+03 0.  0.
        1    1    3    3  502    0 -0.46370934006E+02  0.83905760853E+02  0.30772350423E+03  0.32231071237E+03  0.50400001928E-02 0.  1.
       -1    1    3    3    0  502  0.46370934006E+02 -0.83905760853E+02 -0.62652650213E+03  0.63381850566E+03  0.50400001928E-02 0. -1.
</event>
<event>
 5   0  0.1003252E-02  0.8981051E+03  0.7818609E-02  0.9427953E-01
       -2   -1    0    0    0  501  0.00000000000E+00  0.00000000000E+00  0.10498993661E+03  0.10498993664E+03  0.25500000920E-02 0. -1.
        2   -1    0    0  501    0  0.00000000000E+00  0.00000000000E+00 -0.19206429616E+04  0.19206429616E+04  0.25500000920E-02 0.  1.
    10030    2    1    2    0    0  0.00000000000E+00  0.00000000000E+00 -0.18156530250E+04  0.20256328983E+04  0.89810507808E+03 0.  0.
        2    1    3    3  502    0 -0.11710093626E+03 -0.35452950158E+03 -0.14705352822E+04  0.15171940591E+04  0.25500000920E-02 0. -1.
       -2    1    3    3    0  502  0.11710093626E+03  0.35452950158E+03 -0.34511774284E+03  0.50843883918E+03  0.25500000920E-02 0.  1.
</event>
<event>
 5   0  0.6015709E-03  0.9085193E+03  0.7818609E-02  0.9414994E-01
        1   -1    0    0  501    0  0.00000000000E+00  0.00000000000E+00  0.11249782230E+04  0.11249782231E+04  0.50400001928E-02 0.  1.
       -1   -1    0    0    0  501  0.00000000000E+00  0.00000000000E+00 -0.18342738998E+03  0.18342739005E+03  0.50400001928E-02 0. -1.
    10030    2    1    2    0    0  0.00000000000E+00  0.00000000000E+00  0.94155083306E+03  0.13084056131E+04  0.90851927726E+03 0.  0.
        3    1    3    3  502    0 -0.21012343667E+03 -0.39297978449E+03  0.34385531368E+03  0.56286895153E+03  0.10100000352E+00 0.  1.
       -3    1    3    3    0  502  0.21012343667E+03  0.39297978449E+03  0.59769551938E+03  0.74553666157E+03  0.10100000352E+00 0. -1.
</event>
<event>
 5   0  0.3996375E-03  0.9077380E+03  0.7818609E-02  0.9415960E-01
        3   -1    0    0  501    0  0.00000000000E+00  0.00000000000E+00  0.22744392615E+03  0.22744394857E+03  0.10100000352E+00 0. -1.
       -3   -1    0    0    0  501  0.00000000000E+00  0.00000000000E+00 -0.90570477731E+03  0.90570478294E+03  0.10100000352E+00 0.  1.
    10030    2    1    2    0    0  0.00000000000E+00  0.00000000000E+00 -0.67826085116E+03  0.11331487315E+04  0.90773799387E+03 0.  0.
        3    1    3    3  502    0 -0.32269004471E+03 -0.18382731094E+03 -0.13426872429E+02  0.37162028511E+03  0.10100000352E+00 0. -1.
       -3    1    3    3    0  502  0.32269004471E+03  0.18382731094E+03 -0.66483397873E+03  0.76152844640E+03  0.10100000352E+00 0.  1.
</event>
<event>
 5   0  0.1028978E-02  0.9522709E+03  0.7818609E-02  0.9362500E-01
       -2   -1    0    0    0  501  0.00000000000E+00  0.00000000000E+00  0.37558084909E+03  0.37558084910E+03  0.25500000920E-02 0.  1.
        2   -1    0    0  501    0  0.00000000000E+00  0.00000000000E+00 -0.60361158863E+03  0.60361158864E+03  0.25500000920E-02 0. -1.
    10030    2    1    2    0    0  0.00000000000E+00  0.00000000000E+00 -0.22803073954E+03  0.97919243774E+03  0.95227087110E+03 0.  0.
        3    1    3    3  502    0 -0.46288402245E+03 -0.88525439150E+02 -0.44224848256E+02  0.47334365847E+03  0.10100000352E+00 0.  1.
       -3    1    3    3    0  502  0.46288402245E+03  0.88525439150E+02 -0.18380589129E+03  0.50584877927E+03  0.10100000352E+00 0. -1.
</event>
<event>
 5   0  0.6288003E-03  0.9020319E+03  0.7818609E-02  0.9423045E-01
        1   -1    0    0  501    0  0.00000000000E+00  0.00000000000E+00  0.11524102416E+04  0.11524102416E+04  0.50400001928E-02 0.  1.
       -1   -1    0    0    0  501  0.00000000000E+00  0.00000000000E+00 -0.17651300386E+03  0.17651300394E+03  0.50400001928E-02 0. -1.
    10030    2    1    2    0    0  0.00000000000E+00  0.00000000000E+00  0.97589723777E+03  0.13289232456E+04  0.90203191404E+03 0.  0.
        1    1    3    3  502    0  0.38678493420E+03 -0.23197587663E+03  0.48799028034E+03  0.66449221696E+03  0.50400001928E-02 0.  1.
       -1    1    3    3    0  502 -0.38678493420E+03  0.23197587663E+03  0.48790695742E+03  0.66443102862E+03  0.50400001928E-02 0. -1.
</event>
<event>
 5   0  0.1003252E-02  0.8948683E+03  0.7818609E-02  0.9432019E-01
        2   -1    0    0  501    0  0.00000000000E+00  0.00000000000E+00  0.13889763974E+04  0.13889763974E+04  0.25500000920E-02 0. -1.
       -2   -1    0    0    0  501  0.00000000000E+00  0.00000000000E+00 -0.14413297231E+03  0.14413297233E+03  0.25500000920E-02 0.  1.
    10030    2    1    2    0    0  0.00000000000E+00  0.00000000000E+00  0.12448434251E+04  0.15331093697E+04  0.89486825095E+03 0.  0.
        2    1    3    3  502    0  0.30675242377E+03 -0.73842630881E+02  0.11659417530E+04  0.12078782865E+04  0.25500000920E-02 0. -1.
       -2    1    3    3    0  502 -0.30675242377E+03  0.73842630881E+02  0.78901672088E+02  0.32523108322E+03  0.25500000920E-02 0.  1.
</event>
<event>
 5   0  0.6092779E-03  0.8923060E+03  0.7818609E-02  0.9435251E-01
        1   -1    0    0  501    0  0.00000000000E+00  0.00000000000E+00  0.70386927547E+03  0.70386927549E+03  0.50400001928E-02 0. -1.
       -1   -1    0    0    0  501  0.00000000000E+00  0.00000000000E+00 -0.28279751295E+03  0.28279751300E+03  0.50400001928E-02 0.  1.
    10030    2    1    2    0    0  0.00000000000E+00  0.00000000000E+00  0.42107176252E+03  0.98666678849E+03  0.89230595779E+03 0.  0.
        2    1    3    3  502    0  0.25813665832E+03  0.31653733699E+03  0.40902347716E+03  0.57804033160E+03  0.25500000920E-02 0. -1.
       -2    1    3    3    0  502 -0.25813665832E+03 -0.31653733699E+03  0.12048285359E+02  0.40862645689E+03  0.25500000920E-02 0.  1.
</event>
<event>
 5   0  0.1028978E-02  0.8911085E+03  0.7818609E-02  0.9436765E-01
       -2   -1    0    0    0  501  0.00000000000E+00  0.00000000000E+00  0.55634659623E+03  0.55634659623E+03  0.25500000920E-02 0.  1.
        2   -1    0    0  501    0  0.00000000000E+00  0.00000000000E+00 -0.35682535395E+03  0.35682535396E+03  0.25500000920E-02 0. -1.
    10030    2    1    2    0    0  0.00000000000E+00  0.00000000000E+00  0.19952124227E+03  0.91317195019E+03  0.89110845832E+03 0.  0.
        3    1    3    3  502    0  0.34992458654E+03  0.11524610113E+02 -0.18263183073E+03  0.39488533614E+03  0.10100000352E+00 0. -1.
       -3    1    3    3    0  502 -0.34992458654E+03 -0.11524610113E+02  0.38215307300E+03  0.51828661405E+03  0.10100000352E+00 0.  1.
</event>
<event>
 5   0  0.1033749E-02  0.8970537E+03  0.7818609E-02  0.9429272E-01
       -2   -1    0    0    0  501  0.00000000000E+00  0.00000000000E+00  0.65100568769E+03  0.65100568770E+03  0.25500000920E-02 0.  1.
        2   -1    0    0  501    0  0.00000000000E+00  0.00000000000E+00 -0.30902393841E+03  0.30902393842E+03  0.25500000920E-02 0. -1.
    10030    2    1    2    0    0  0.00000000000E+00  0.00000000000E+00  0.34198174928E+03  0.96002962612E+03  0.89705371422E+03 0.  0.
        5    1    3    3  502    0 -0.24107501648E+03  0.17359565298E+03 -0.18860632965E+03  0.35191909850E+03  0.46999998093E+01 0. -1.
       -5    1    3    3    0  502  0.24107501648E+03 -0.17359565298E+03  0.53058807893E+03  0.60811052762E+03  0.46999998093E+01 0.  1.
</event>
<event>
 5   0  0.6092779E-03  0.8993370E+03  0.7818609E-02  0.9426411E-01
        1   -1    0    0  501    0  0.00000000000E+00  0.00000000000E+00  0.99950184430E+03  0.99950184431E+03  0.50400001928E-02 0.  1.
       -1   -1    0    0    0  501  0.00000000000E+00  0.00000000000E+00 -0.20230254174E+03  0.20230254181E+03  0.50400001928E-02 0. -1.
    10030    2    1    2    0    0  0.00000000000E+00  0.00000000000E+00  0.79719930256E+03  0.12018043861E+04  0.89933700830E+03 0.  0.
        2    1    3    3  502    0 -0.36560879372E+03  0.19885262785E+03  0.17107289487E+03  0.44997565825E+03  0.25500000920E-02 0. -1.
       -2    1    3    3    0  502  0.36560879372E+03 -0.19885262785E+03  0.62612640768E+03  0.75182872787E+03  0.25500000920E-02 0.  1.
</event>
<event>
 5   0  0.1028978E-02  0.9011700E+03  0.7818609E-02  0.9424120E-01
       -2   -1    0    0    0  501  0.00000000000E+00  0.00000000000E+00  0.20373089596E+03  0.20373089598E+03  0.25500000920E-02 0.  1.
        2   -1    0    0  501    0  0.00000000000E+00  0.00000000000E+00 -0.99654418208E+03  0.99654418208E+03  0.25500000920E-02 0. -1.
    10030    2    1    2    0    0  0.00000000000E+00  0.00000000000E+00 -0.79281328612E+03  0.12002750781E+04  0.90116999305E+03 0.  0.
        3    1    3    3  502    0 -0.13938453262E+03  0.15979895676E+03  0.13312178310E+03  0.25037007380E+03  0.10100000352E+00 0.  1.
       -3    1    3    3    0  502  0.13938453262E+03 -0.15979895676E+03 -0.92593506922E+03  0.94990500427E+03  0.10100000352E+00 0. -1.
</event>
<event>
 5   0  0.1017079E-02  0.8988787E+03  0.7818609E-02  0.9426984E-01
       -2   -1    0    0    0  501  0.00000000000E+00  0.00000000000E+00  0.18995530729E+03  0.18995530731E+03  0.25500000920E-02 0. -1.
        2   -1    0    0  501    0  0.00000000000E+00  0.00000000000E+00 -0.10633856661E+04  0.10633856661E+04  0.25500000920E-02 0.  1.
    10030    2    1    2    0    0  0.00000000000E+00  0.00000000000E+00 -0.87343035880E+03  0.12533409734E+04  0.89887874819E+03 0.  0.
        1    1    3    3  502    0 -0.13670517699E+02  0.26702749021E+03  0.66996489937E+02  0.27564305409E+03  0.50400001928E-02 0. -1.
       -1    1    3    3    0  502  0.13670517699E+02 -0.26702749021E+03 -0.94042684874E+03  0.97769791932E+03  0.50400001928E-02 0.  1.
</event>
<event>
 5   0  0.6211218E-03  0.9060074E+03  0.7818609E-02  0.9418103E-01
        1   -1    0    0  501    0  0.00000000000E+00  0.00000000000E+00  0.13057866025E+03  0.13057866035E+03  0.50400001928E-02 0.  1.
       -1   -1    0    0    0  501  0.00000000000E+00  0.00000000000E+00 -0.15715613379E+04  0.15715613379E+04  0.50400001928E-02 0. -1.
    10030    2    1    2    0    0  0.00000000000E+00  0.00000000000E+00 -0.14409826776E+04  0.17021399982E+04  0.90600744830E+03 0.  0.
        5    1    3    3  502    0  0.73374298851E+02 -0.43384021762E+03 -0.92274180202E+03  0.10222894137E+04  0.46999998093E+01 0. -1.
       -5    1    3    3    0  502 -0.73374298851E+02  0.43384021762E+03 -0.51824087558E+03  0.67985058452E+03  0.46999998093E+01 0.  1.
</event>
<event>
 5   0  0.1028978E-02  0.9194927E+03  0.7818609E-02  0.9401537E-01
        2   -1    0    0  501    0  0.00000000000E+00  0.00000000000E+00  0.15456802407E+04  0.15456802407E+04  0.25500000920E-02 0. -1.
       -2   -1    0    0    0  501  0.00000000000E+00  0.00000000000E+00 -0.13674673176E+03  0.13674673178E+03  0.25500000920E-02 0.  1.
    10030    2    1    2    0    0  0.00000000000E+00  0.00000000000E+00  0.14089335089E+04  0.16824269725E+04  0.91949273250E+03 0.  0.
        3    1    3    3  502    0 -0.42195488190E+03 -0.13697625684E+03  0.92523833195E+03  0.10260966808E+04  0.10100000352E+00 0. -1.
       -3    1    3    3    0  502  0.42195488190E+03  0.13697625684E+03  0.48369517699E+03  0.65633029165E+03  0.10100000352E+00 0.  1.
</event>
<event>
 5   0  0.6137243E-03  0.9022061E+03  0.7818609E-02  0.9422828E-01
       -1   -1    0    0    0  501  0.00000000000E+00  0.00000000000E+00  0.10597020427E+04  0.10597020427E+04  0.50400001928E-02 0. -1.
        1   -1    0    0  501    0  0.00000000000E+00  0.00000000000E+00 -0.19202942001E+03  0.19202942008E+03  0.50400001928E-02 0.  1.
    10030    2    1    2    0    0  0.00000000000E+00  0.00000000000E+00  0.86767262271E+03  0.12517314628E+04  0.90220611547E+03 0.  0.
        4    1    3    3  502    0 -0.14357943243E+03  0.15097434827E+03 -0.12127417508E+03  0.24107539421E+03  0.12699999809E+01 0.  1.
       -4    1    3    3    0  502  0.14357943243E+03 -0.15097434827E+03  0.98894679779E+03  0.10106560686E+04  0.12699999809E+01 0. -1.
</event>
<event>
 5   0  0.6288003E-03  0.8961252E+03  0.7818609E-02  0.9430438E-01
        1   -1    0    0  501    0  0.00000000000E+00  0.00000000000E+00  0.64599619719E+03  0.64599619721E+03  0.50400001928E-02 0.  1.
       -1   -1    0    0    0  501  0.00000000000E+00  0.00000000000E+00 -0.31077594322E+03  0.31077594326E+03  0.50400001928E-02 0. -1.
    10030    2    1    2    0    0  0.00000000000E+00  0.00000000000E+00  0.33522025397E+03  0.95677214047E+03  0.89612516431E+03 0.  0.
        1    1    3    3  502    0 -0.22922434701E+03  0.38222786858E+03  0.11847224505E+03  0.46116983602E+03  0.50400001928E-02 0. -1.
       -1    1    3    3    0  502  0.22922434701E+03 -0.38222786858E+03  0.21674800892E+03  0.49560230445E+03  0.50400001928E-02 0.  1.
</event>
<event>
 5   0  0.6015709E-03  0.9145343E+03  0.7818609E-02  0.9407593E-01
        1   -1    0    0  501    0  0.00000000000E+00  0.00000000000E+00  0.43394894444E+03  0.43394894447E+03  0.50400001928E-02 0. -1.
       -1   -1    0    0    0  501  0.00000000000E+00  0.00000000000E+00 -0.48183831927E+03  0.48183831929E+03  0.50400001928E-02 0.  1.
    10030    2    1    2    0    0  0.00000000000E+00  0.00000000000E+00 -0.47889374822E+02  0.91578726377E+03  0.91453426412E+03 0.  0.
        3    1    3    3  502    0  0.32795898674E+03 -0.73650475036E+02  0.28649898767E+03  0.44165956301E+03  0.10100000352E+00 0. -1.
       -3    1    3    3    0  502 -0.32795898674E+03  0.73650475036E+02 -0.33438836249E+03  0.47412770076E+03  0.10100000352E+00 0.  1.
</event>
<event>
 5   0  0.1041727E-02  0.9342998E+03  0.7818609E-02  0.9383692E-01
        2   -1    0    0  501    0  0.00000000000E+00  0.00000000000E+00  0.74747911689E+03  0.74747911690E+03  0.25500000920E-02 0. -1.
       -2   -1    0    0    0  501  0.00000000000E+00  0.00000000000E+00 -0.29195333984E+03  0.29195333985E+03  0.25500000920E-02 0.  1.
    10030    2    1    2    0    0  0.00000000000E+00  0.00000000000E+00  0.45552577706E+03  0.10394324567E+04  0.93429979052E+03 0.  0.
        4    1    3    3  502    0 -0.31138575913E+03  0.29892370262E+02  0.61375119157E+03  0.68887356086E+03  0.12699999809E+01 0. -1.
       -4    1    3    3    0  502  0.31138575913E+03 -0.29892370262E+02 -0.15822541452E+03  0.35055889589E+03  0.12699999809E+01 0.  1.
</event>
<event>
 5   0  0.1041727E-02  0.8909200E+03  0.7818609E-02  0.9437004E-01
        2   -1    0    0  501    0  0.00000000000E+00  0.00000000000E+00  0.19287185596E+04  0.19287185596E+04  0.25500000920E-02 0.  1.
       -2   -1    0    0    0  501  0.00000000000E+00  0.00000000000E+00 -0.10288417842E+03  0.10288417845E+03  0.25500000920E-02 0. -1.
    10030    2    1    2    0    0  0.00000000000E+00  0.00000000000E+00  0.18258343812E+04  0.20316027381E+04  0.89092002883E+03 0.  0.
        4    1    3    3  502    0  0.26752101165E+02 -0.31489779702E+03  0.16288020456E+04  0.16591787167E+04  0.12699999809E+01 0.  1.
       -4    1    3    3    0  502 -0.26752101165E+02  0.31489779702E+03  0.19703233561E+03  0.37242402133E+03  0.12699999809E+01 0. -1.
</event>
<event>
 5   0  0.3996375E-03  0.9504695E+03  0.7818609E-02  0.9364602E-01
        4   -1    0    0  501    0  0.00000000000E+00  0.00000000000E+00  0.24202111130E+03  0.24202444343E+03  0.12699999809E+01 0. -1.
       -4   -1    0    0    0  501  0.00000000000E+00  0.00000000000E+00 -0.93316482099E+03  0.93316568520E+03  0.12699999809E+01 0.  1.
    10030    2    1    2    0    0  0.00000000000E+00  0.00000000000E+00 -0.69114370969E+03  0.11751901286E+04  0.95046946872E+03 0.  0.
        1    1    3    3  502    0 -0.16229757912E+03  0.16155618310E+03 -0.86044881930E+03  0.89040051390E+03  0.50400001928E-02 0.  1.
       -1    1    3    3    0  502  0.16229757912E+03 -0.16155618310E+03  0.16930510962E+03  0.28478961472E+03  0.50400001928E-02 0. -1.
</event>
<event>
 5   0  0.6015709E-03  0.8928951E+03  0.7818609E-02  0.9434507E-01
        1   -1    0    0  501    0  0.00000000000E+00  0.00000000000E+00  0.31359276009E+03  0.31359276013E+03  0.50400001928E-02 0.  1.
       -1   -1    0    0    0  501  0.00000000000E+00  0.00000000000E+00 -0.63558681328E+03  0.63558681330E+03  0.50400001928E-02 0. -1.
    10030    2    1    2    0    0  0.00000000000E+00  0.00000000000E+00 -0.32199405319E+03  0.94917957343E+03  0.89289511833E+03 0.  0.
        3    1    3    3  502    0  0.24028651291E+03 -0.37505654469E+03 -0.12892234439E+03  0.46370896161E+03  0.10100000352E+00 0. -1.
       -3    1    3    3    0  502 -0.24028651291E+03  0.37505654469E+03 -0.19307170881E+03  0.48547061182E+03  0.10100000352E+00 0.  1.
</event>
<event>
 5   0  0.6211218E-03  0.8930203E+03  0.7818609E-02  0.9434349E-01
       -1   -1    0    0    0  501  0.00000000000E+00  0.00000000000E+00  0.11061368438E+03  0.11061368450E+03  0.50400001928E-02 0. -1.
        1   -1    0    0  501    0  0.00000000000E+00  0.00000000000E+00 -0.18024109307E+04  0.18024109308E+04  0.50400001928E-02 0.  1.
    10030    2    1    2    0    0  0.00000000000E+00  0.00000000000E+00 -0.16917972464E+04  0.19130246153E+04  0.89302029974E+03 0.  0.
        5    1    3    3  502    0  0.41047500582E+03  0.14144701007E+03 -0.62273733516E+03  0.75915799782E+03  0.46999998093E+01 0.  1.
       -5    1    3    3    0  502 -0.41047500582E+03 -0.14144701007E+03 -0.10690599112E+04  0.11538666174E+04  0.46999998093E+01 0. -1.
</event>
<event>
 5   0  0.1003252E-02  0.9157531E+03  0.7818609E-02  0.9406101E-01
        2   -1    0    0  501    0  0.00000000000E+00  0.00000000000E+00  0.23326173017E+04  0.23326173017E+04  0.25500000920E-02 0.  1.
       -2   -1    0    0    0  501  0.00000000000E+00  0.00000000000E+00 -0.89877985458E+02  0.89877985495E+02  0.25500000920E-02 0. -1.
    10030    2    1    2    0    0  0.00000000000E+00  0.00000000000E+00  0.22427393162E+04  0.24224952872E+04  0.91575311950E+03 0.  0.
        2    1    3    3  502    0 -0.30123284375E+03 -0.34483287895E+03  0.11215238901E+04  0.12113904311E+04  0.25500000920E-02 0. -1.
       -2    1    3    3    0  502  0.30123284375E+03  0.34483287895E+03  0.11212154262E+04  0.12111048561E+04  0.25500000920E-02 0.  1.
</event>
<event>
 5   0  0.1028978E-02  0.8938729E+03  0.7818609E-02  0.9433273E-01
        2   -1    0    0  501    0  0.00000000000E+00  0.00000000000E+00  0.50485445485E+03  0.50485445486E+03  0.25500000920E-02 0. -1.
       -2   -1    0    0    0  501  0.00000000000E+00  0.00000000000E+00 -0.39566293897E+03  0.39566293898E+03  0.25500000920E-02 0.  1.
    10030    2    1    2    0    0  0.00000000000E+00  0.00000000000E+00  0.10919151588E+03  0.90051739384E+03  0.89387291573E+03 0.  0.
        3    1    3    3  502    0 -0.21340278342E+03  0.35663170486E+03 -0.11101987104E+03  0.43017710638E+03  0.10100000352E+00 0.  1.
       -3    1    3    3    0  502  0.21340278342E+03 -0.35663170486E+03  0.22021138692E+03  0.47034028747E+03  0.10100000352E+00 0. -1.
</event>
<event>
 5   0  0.1017079E-02  0.9031196E+03  0.7818609E-02  0.9421690E-01
        2   -1    0    0  501    0  0.00000000000E+00  0.00000000000E+00  0.18111342455E+04  0.18111342455E+04  0.25500000920E-02 0. -1.
       -2   -1    0    0    0  501  0.00000000000E+00  0.00000000000E+00 -0.11258483486E+03  0.11258483489E+03  0.25500000920E-02 0.  1.
    10030    2    1    2    0    0  0.00000000000E+00  0.00000000000E+00  0.16985494106E+04  0.19237190804E+04  0.90311959334E+03 0.  0.
        1    1    3    3  502    0  0.35857890928E+02  0.31421792117E+03  0.16271523782E+03  0.35566126999E+03  0.50400001928E-02 0.  1.
       -1    1    3    3    0  502 -0.35857890928E+02 -0.31421792117E+03  0.15358341728E+04  0.15680578104E+04  0.50400001928E-02 0. -1.
</event>
<event>
 5   0  0.1003252E-02  0.8490988E+03  0.7818609E-02  0.9491547E-01
       -2   -1    0    0    0  501  0.00000000000E+00  0.00000000000E+00  0.12878403918E+03  0.12878403921E+03  0.25500000920E-02 0.  1.
        2   -1    0    0  501    0  0.00000000000E+00  0.00000000000E+00 -0.13995692041E+04  0.13995692041E+04  0.25500000920E-02 0. -1.
    10030    2    1    2    0    0  0.00000000000E+00  0.00000000000E+00 -0.12707851649E+04  0.15283532433E+04  0.84909875806E+03 0.  0.
        2    1    3    3  502    0  0.32592630308E+02 -0.14758862286E+03 -0.13495014797E+04  0.13579392199E+04  0.25500000920E-02 0. -1.
       -2    1    3    3    0  502 -0.32592630308E+02  0.14758862286E+03  0.78716314815E+02  0.17041402340E+03  0.25500000920E-02 0.  1.
</event>
<event>
 5   0  0.1028978E-02  0.8907318E+03  0.7818609E-02  0.9437242E-01
        2   -1    0    0  501    0  0.00000000000E+00  0.00000000000E+00  0.60157800834E+03  0.60157800834E+03  0.25500000920E-02 0.  1.
       -2   -1    0    0    0  501  0.00000000000E+00  0.00000000000E+00 -0.32971745299E+03  0.32971745300E+03  0.25500000920E-02 0. -1.
    10030    2    1    2    0    0  0.00000000000E+00  0.00000000000E+00  0.27186055535E+03  0.93129546134E+03  0.89073176364E+03 0.  0.
        3    1    3    3  502    0  0.74587346429E+02 -0.13261783754E+03  0.57356078792E+03  0.59339931810E+03  0.10100000352E+00 0.  1.
       -3    1    3    3    0  502 -0.74587346429E+02  0.13261783754E+03 -0.30170023257E+03  0.33789614324E+03  0.10100000352E+00 0. -1.
</event>
<event>
 5   0  0.6015709E-03  0.9156180E+03  0.7818609E-02  0.9406266E-01
        1   -1    0    0  501    0  0.00000000000E+00  0.00000000000E+00  0.11824263801E+04  0.11824263801E+04  0.50400001928E-02 0. -1.
       -1   -1    0    0    0  501  0.00000000000E+00  0.00000000000E+00 -0.17725337713E+03  0.17725337720E+03  0.50400001928E-02 0.  1.
    10030    2    1    2    0    0  0.00000000000E+00  0.00000000000E+00  0.10051730030E+04  0.13596797573E+04  0.91561797522E+03 0.  0.
        3    1    3    3  502    0  0.93992055772E+02  0.39196086382E+03  0.82493870824E+03  0.91814579881E+03  0.10100000352E+00 0. -1.
       -3    1    3    3    0  502 -0.93992055772E+02 -0.39196086382E+03  0.18023429475E+03  0.44153395851E+03  0.10100000352E+00 0.  1.
</event>
<event>
 5   0  0.1033749E-02  0.9016375E+03  0.7818609E-02  0.9423537E-01
        2   -1    0    0  501    0  0.00000000000E+00  0.00000000000E+00  0.18024717196E+04  0.18024717196E+04  0.25500000920E-02 0.  1.
       -2   -1    0    0    0  501  0.00000000000E+00  0.00000000000E+00 -0.11275491314E+03  0.11275491317E+03  0.25500000920E-02 0. -1.
    10030    2    1    2    0    0  0.00000000000E+00  0.00000000000E+00  0.16897168064E+04  0.19152266327E+04  0.90163749302E+03 0.  0.
        5    1    3    3  502    0 -0.11748374199E+03 -0.38890738891E+03  0.12598272801E+04  0.13237213651E+04  0.46999998093E+01 0.  1.
       -5    1    3    3    0  502  0.11748374199E+03  0.38890738891E+03  0.42988952634E+03  0.59150526763E+03  0.46999998093E+01 0. -1.
</event>
<event>
 5   0  0.6211218E-03  0.9044192E+03  0.7818609E-02  0.9420074E-01
       -1   -1    0    0    0  501  0.00000000000E+00  0.00000000000E+00  0.41517066263E+03  0.41517066267E+03  0.50400001928E-02 0. -1.
        1   -1    0    0  501    0  0.00000000000E+00  0.00000000000E+00 -0.49255288640E+03  0.49255288643E+03  0.50400001928E-02 0.  1.
    10030    2    1    2    0    0  0.00000000000E+00  0.00000000000E+00 -0.77382223770E+02  0.90772354910E+03  0.90441916887E+03 0.  0.
        5    1    3    3  502    0 -0.69641845866E+02 -0.34569339081E+03  0.24539340768E+03  0.42964394756E+03  0.46999998093E+01 0. -1.
       -5    1    3    3    0  502  0.69641845866E+02  0.34569339081E+03 -0.32277563145E+03  0.47807960153E+03  0.46999998093E+01 0.  1.
</event>
<event>
 5   0  0.6015709E-03  0.9078012E+03  0.7818609E-02  0.9415882E-01
       -1   -1    0    0    0  501  0.00000000000E+00  0.00000000000E+00  0.27238384236E+03  0.27238384240E+03  0.50400001928E-02 0.  1.
        1   -1    0    0  501    0  0.00000000000E+00  0.00000000000E+00 -0.75638020703E+03  0.75638020704E+03  0.50400001928E-02 0. -1.
    10030    2    1    2    0    0  0.00000000000E+00  0.00000000000E+00 -0.48399636467E+03  0.10287640494E+04  0.90780118331E+03 0.  0.
        3    1    3    3  502    0 -0.14432207573E+03  0.42818010810E+03 -0.29085511810E+03  0.53736745011E+03  0.10100000352E+00 0. -1.
       -3    1    3    3    0  502  0.14432207573E+03 -0.42818010810E+03 -0.19314124657E+03  0.49139659934E+03  0.10100000352E+00 0.  1.
</event>
<event>
 5   0  0.1028978E-02  0.8993278E+03  0.7818609E-02  0.9426422E-01
        2   -1    0    0  501    0  0.00000000000E+00  0.00000000000E+00  0.24838271776E+03  0.24838271777E+03  0.25500000920E-02 0. -1.
       -2   -1    0    0    0  501  0.00000000000E+00  0.00000000000E+00 -0.81405677382E+03  0.81405677383E+03  0.25500000920E-02 0.  1.
    10030    2    1    2    0    0  0.00000000000E+00  0.00000000000E+00 -0.56567405606E+03  0.10624394916E+04  0.89932782433E+03 0.  0.
        3    1    3    3  502    0 -0.17186424692E+03 -0.28030158335E+03 -0.64521431664E+03  0.72416008009E+03  0.10100000352E+00 0.  1.
       -3    1    3    3    0  502  0.17186424692E+03  0.28030158335E+03  0.79540260580E+02  0.33827941151E+03  0.10100000352E+00 0. -1.
</event>
<event>
 5   0  0.6288003E-03  0.8949620E+03  0.7818609E-02  0.9431901E-01
        1   -1    0    0  501    0  0.00000000000E+00  0.00000000000E+00  0.68182208745E+03  0.68182208747E+03  0.50400001928E-02 0. -1.
       -1   -1    0    0    0  501  0.00000000000E+00  0.00000000000E+00 -0.29368252487E+03  0.29368252492E+03  0.50400001928E-02 0.  1.
    10030    2    1    2    0    0  0.00000000000E+00  0.00000000000E+00  0.38813956257E+03  0.97550461238E+03  0.89496197056E+03 0.  0.
        1    1    3    3  502    0  0.11923917962E+02  0.20288742496E+03 -0.24047326491E+03  0.31485374095E+03  0.50400001928E-02 0.  1.
       -1    1    3    3    0  502 -0.11923917962E+02 -0.20288742496E+03  0.62861282748E+03  0.66065087144E+03  0.50400001928E-02 0. -1.
</event>
<event>
 5   0  0.6015709E-03  0.8730803E+03  0.7818609E-02  0.9459872E-01
        1   -1    0    0  501    0  0.00000000000E+00  0.00000000000E+00  0.81558300276E+03  0.81558300278E+03  0.50400001928E-02 0.  1.
       -1   -1    0    0    0  501  0.00000000000E+00  0.00000000000E+00 -0.23365777737E+03  0.23365777742E+03  0.50400001928E-02 0. -1.
    10030    2    1    2    0    0  0.00000000000E+00  0.00000000000E+00  0.58192522539E+03  0.10492407802E+04  0.87308032098E+03 0.  0.
        3    1    3    3  502    0  0.22655761248E+02  0.42437077332E+03  0.41091976757E+03  0.59115049044E+03  0.10100000352E+00 0. -1.
       -3    1    3    3    0  502 -0.22655761248E+02 -0.42437077332E+03  0.17100545782E+03  0.45809028976E+03  0.10100000352E+00 0.  1.
</event>
<event>
 5   0  0.6092779E-03  0.8964313E+03  0.7818609E-02  0.9430053E-01
       -1   -1    0    0    0  501  0.00000000000E+00  0.00000000000E+00  0.17841181353E+03  0.17841181361E+03  0.50400001928E-02 0.  1.
        1   -1    0    0  501    0  0.00000000000E+00  0.00000000000E+00 -0.11260312783E+04  0.11260312783E+04  0.50400001928E-02 0. -1.
    10030    2    1    2    0    0  0.00000000000E+00  0.00000000000E+00 -0.94761946478E+03  0.13044430919E+04  0.89643133037E+03 0.  0.
        2    1    3    3  502    0  0.14091507207E+03 -0.42470023649E+03 -0.51147353379E+03  0.67958261027E+03  0.25500000920E-02 0. -1.
       -2    1    3    3    0  502 -0.14091507207E+03  0.42470023649E+03 -0.43614593099E+03  0.62486048166E+03  0.25500000920E-02 0.  1.
</event>
<event>
 5   0  0.6211218E-03  0.8934383E+03  0.7818609E-02  0.9433821E-01
        1   -1    0    0  501    0  0.00000000000E+00  0.00000000000E+00  0.76677040985E+03  0.76677040987E+03  0.50400001928E-02 0. -1.
       -1   -1    0    0    0  501  0.00000000000E+00  0.00000000000E+00 -0.26025783621E+03  0.26025783626E+03  0.50400001928E-02 0.  1.
    10030    2    1    2    0    0  0.00000000000E+00  0.00000000000E+00  0.50651257364E+03  0.10270282461E+04  0.89343831968E+03 0.  0.
        5    1    3    3  502    0  0.34633447058E+03  0.27845849999E+03  0.30529321917E+03  0.53917783838E+03  0.46999998093E+01 0. -1.
       -5    1    3    3    0  502 -0.34633447058E+03 -0.27845849999E+03  0.20121935447E+03  0.48785040775E+03  0.46999998093E+01 0.  1.
</event>
<event>
 5   0  0.1041727E-02  0.8940173E+03  0.7818609E-02  0.9433091E-01
       -2   -1    0    0    0  501  0.00000000000E+00  0.00000000000E+00  0.28187491732E+03  0.28187491734E+03  0.25500000920E-02 0. -1.
        2   -1    0    0  501    0  0.00000000000E+00  0.00000000000E+00 -0.70888435830E+03  0.70888435830E+03  0.25500000920E-02 0.  1.
    10030    2    1    2    0    0  0.00000000000E+00  0.00000000000E+00 -0.42700944097E+03  0.99075927564E+03  0.89401727029E+03 0.  0.
        4    1    3    3  502    0  0.13308952375E+02  0.43763042523E+03 -0.11365754439E+03  0.45234629168E+03  0.12699999809E+01 0. -1.
       -4    1    3    3    0  502 -0.13308952375E+02 -0.43763042523E+03 -0.31335189659E+03  0.53841298396E+03  0.12699999809E+01 0.  1.
</event>
<event>
 5   0  0.1017079E-02  0.9042971E+03  0.7818609E-02  0.9420226E-01
        2   -1    0    0  501    0  0.00000000000E+00  0.00000000000E+00  0.92560573698E+03  0.92560573698E+03  0.25500000920E-02 0.  1.
       -2   -1    0    0    0  501  0.00000000000E+00  0.00000000000E+00 -0.22086977103E+03  0.22086977105E+03  0.25500000920E-02 0. -1.
    10030    2    1    2    0    0  0.00000000000E+00  0.00000000000E+00  0.70473596595E+03  0.11464755080E+04  0.90429713524E+03 0.  0.
        1    1    3    3  502    0 -0.15871040842E+03  0.31326941152E+02  0.88765938670E+03  0.90228019917E+03  0.50400001928E-02 0.  1.
       -1    1    3    3    0  502  0.15871040842E+03 -0.31326941152E+02 -0.18292342076E+03  0.24419530886E+03  0.50400001928E-02 0. -1.
</event>
<event>
 5   0  0.6137243E-03  0.8955676E+03  0.7818609E-02  0.9431139E-01
        1   -1    0    0  501    0  0.00000000000E+00  0.00000000000E+00  0.42275194019E+03  0.42275194022E+03  0.50400001928E-02 0.  1.
       -1   -1    0    0    0  501  0.00000000000E+00  0.00000000000E+00 -0.47429781741E+03  0.47429781744E+03  0.50400001928E-02 0. -1.
    10030    2    1    2    0    0  0.00000000000E+00  0.00000000000E+00 -0.51545877226E+02  0.89704975765E+03  0.89556757994E+03 0.  0.
        4    1    3    3  502    0 -0.34462274744E+03 -0.71200166733E+02 -0.30313265534E+03  0.46446240045E+03  0.12699999809E+01 0. -1.
       -4    1    3    3    0  502  0.34462274744E+03  0.71200166733E+02  0.25158677811E+03  0.43258735721E+03  0.12699999809E+01 0.  1.
</event>
<event>
 5   0  0.1003252E-02  0.8969047E+03  0.7818609E-02  0.9429459E-01
       -2   -1    0    0    0  501  0.00000000000E+00  0.00000000000E+00  0.18871869523E+03  0.18871869525E+03  0.25500000920E-02 0. -1.
        2   -1    0    0  501    0  0.00000000000E+00  0.00000000000E+00 -0.10656575206E+04  0.10656575206E+04  0.25500000920E-02 0.  1.
    10030    2    1    2    0    0  0.00000000000E+00  0.00000000000E+00 -0.87693882537E+03  0.12543762159E+04  0.89690467022E+03 0.  0.
        2    1    3    3  502    0  0.13876496976E+03 -0.87872373212E+02  0.14513840570E+03  0.21918582898E+03  0.25500000920E-02 0. -1.
       -2    1    3    3    0  502 -0.13876496976E+03  0.87872373212E+02 -0.10220772311E+04  0.10351903869E+04  0.25500000920E-02 0.  1.
</event>
<event>
 5   0  0.6211218E-03  0.9038452E+03  0.7818609E-02  0.9420787E-01
       -1   -1    0    0    0  501  0.00000000000E+00  0.00000000000E+00  0.54514075901E+03  0.54514075903E+03  0.50400001928E-02 0. -1.
        1   -1    0    0  501    0  0.00000000000E+00  0.00000000000E+00 -0.37464460597E+03  0.37464460601E+03  0.50400001928E-02 0.  1.
    10030    2    1    2    0    0  0.00000000000E+00  0.00000000000E+00  0.17049615304E+03  0.91978536504E+03  0.90384521880E+03 0.  0.
        5    1    3    3  502    0  0.21228840025E+03  0.15226251157E+03  0.46048083951E+03  0.52944776028E+03  0.46999998093E+01 0. -1.
       -5    1    3    3    0  502 -0.21228840025E+03 -0.15226251157E+03 -0.28998468647E+03  0.39033760477E+03  0.46999998093E+01 0.  1.
</event>
<event>
 5   0  0.1003252E-02  0.8994034E+03  0.7818609E-02  0.9426327E-01
        2   -1    0    0  501    0  0.00000000000E+00  0.00000000000E+00  0.86492827934E+03  0.86492827934E+03  0.25500000920E-02 0. -1.
       -2   -1    0    0    0  501  0.00000000000E+00  0.00000000000E+00 -0.23381317406E+03  0.23381317408E+03  0.25500000920E-02 0.  1.
    10030    2    1    2    0    0  0.00000000000E+00  0.00000000000E+00  0.63111510527E+03  0.10987414534E+04  0.89940341636E+03 0.  0.
        2    1    3    3  502    0  0.16065640217E+03  0.23821881970E+03 -0.10705165842E+03  0.30662475959E+03  0.25500000920E-02 0.  1.
       -2    1    3    3    0  502 -0.16065640217E+03 -0.23821881970E+03  0.73816676369E+03  0.79211669383E+03  0.25500000920E-02 0. -1.
</event>
<event>
 5   0  0.6092779E-03  0.9234099E+03  0.7818609E-02  0.9396782E-01
       -1   -1    0    0    0  501  0.00000000000E+00  0.00000000000E+00  0.38652409169E+03  0.38652409173E+03  0.50400001928E-02 0.  1.
        1   -1    0    0  501    0  0.00000000000E+00  0.00000000000E+00 -0.55150881873E+03  0.55150881876E+03  0.50400001928E-02 0. -1.
    10030    2    1    2    0    0  0.00000000000E+00  0.00000000000E+00 -0.16498472704E+03  0.93803291048E+03  0.92340986620E+03 0.  0.
        2    1    3    3  502    0  0.38502046201E+03  0.33231021984E+02 -0.33913198145E+03  0.51415518848E+03  0.25500000920E-02 0. -1.
       -2    1    3    3    0  502 -0.38502046201E+03 -0.33231021984E+02  0.17414725441E+03  0.42387772201E+03  0.25500000920E-02 0.  1.
</event>
<event>
 5   0  0.6092779E-03  0.8430098E+03  0.7818609E-02  0.9499767E-01
       -1   -1    0    0    0  501  0.00000000000E+00  0.00000000000E+00  0.38367906758E+03  0.38367906761E+03  0.50400001928E-02 0.  1.
        1   -1    0    0  501    0  0.00000000000E+00  0.00000000000E+00 -0.46305992826E+03  0.46305992829E+03  0.50400001928E-02 0. -1.
    10030    2    1    2    0    0  0.00000000000E+00  0.00000000000E+00 -0.79380860685E+02  0.84673899590E+03  0.84300984937E+03 0.  0.
        2    1    3    3  502    0 -0.25176154439E+03  0.12213802461E+03 -0.35630672190E+03  0.45305193121E+03  0.25500000920E-02 0. -1.
       -2    1    3    3    0  502  0.25176154439E+03 -0.12213802461E+03  0.27692586122E+03  0.39368706469E+03  0.25500000920E-02 0.  1.
</event>
<event>
 5   0  0.6092779E-03  0.8965550E+03  0.7818609E-02  0.9429898E-01
       -1   -1    0    0    0  501  0.00000000000E+00  0.00000000000E+00  0.19620126530E+03  0.19620126537E+03  0.50400001928E-02 0.  1.
        1   -1    0    0  501    0  0.00000000000E+00  0.00000000000E+00 -0.10242171799E+04  0.10242171799E+04  0.50400001928E-02 0. -1.
    10030    2    1    2    0    0  0.00000000000E+00  0.00000000000E+00 -0.82801591457E+03  0.12204184453E+04  0.89655497698E+03 0.  0.
        2    1    3    3  502    0 -0.26549309076E+03  0.22226156840E+03 -0.80157871032E+03  0.87316391066E+03  0.25500000920E-02 0. -1.
       -2    1    3    3    0  502  0.26549309076E+03 -0.22226156840E+03 -0.26437204251E+02  0.34725453460E+03  0.25500000920E-02 0.  1.
</event>
<event>
 5   0  0.1003252E-02  0.8974404E+03  0.7818609E-02  0.9428787E-01
       -2   -1    0    0    0  501  0.00000000000E+00  0.00000000000E+00  0.33092572255E+03  0.33092572256E+03  0.25500000920E-02 0.  1.
        2   -1    0    0  501    0  0.00000000000E+00  0.00000000000E+00 -0.60844412086E+03  0.60844412086E+03  0.25500000920E-02 0. -1.
    10030    2    1    2    0    0  0.00000000000E+00  0.00000000000E+00 -0.27751839831E+03  0.93936984342E+03  0.89744038316E+03 0.  0.
        2    1    3    3  502    0 -0.42143855233E+03 -0.15291269956E+03 -0.11898023332E+03  0.46384161414E+03  0.25500000920E-02 0. -1.
       -2    1    3    3    0  502  0.42143855233E+03  0.15291269956E+03 -0.15853816499E+03  0.47552822928E+03  0.25500000920E-02 0.  1.
</event>
<event>
 5   0  0.6211218E-03  0.8576844E+03  0.7818609E-02  0.9480081E-01
       -1   -1    0    0    0  501  0.00000000000E+00  0.00000000000E+00  0.22501491000E+03  0.22501491005E+03  0.50400001928E-02 0.  1.
        1   -1    0    0  501    0  0.00000000000E+00  0.00000000000E+00 -0.81730429355E+03  0.81730429356E+03  0.50400001928E-02 0. -1.
    10030    2    1    2    0    0  0.00000000000E+00  0.00000000000E+00 -0.59228938355E+03  0.10423192036E+04  0.85768444568E+03 0.  0.
        5    1    3    3  502    0  0.23772463217E+03 -0.30889611513E+03 -0.51338185915E+03  0.64460284981E+03  0.46999998093E+01 0. -1.
       -5    1    3    3    0  502 -0.23772463217E+03  0.30889611513E+03 -0.78907524399E+02  0.39771635381E+03  0.46999998093E+01 0.  1.
</event>
<event>
 5   0  0.1033749E-02  0.9044451E+03  0.7818609E-02  0.9420042E-01
       -2   -1    0    0    0  501  0.00000000000E+00  0.00000000000E+00  0.19160755834E+03  0.19160755835E+03  0.25500000920E-02 0.  1.
        2   -1    0    0  501    0  0.00000000000E+00  0.00000000000E+00 -0.10673130583E+04  0.10673130583E+04  0.25500000920E-02 0. -1.
    10030    2    1    2    0    0  0.00000000000E+00  0.00000000000E+00 -0.87570549992E+03  0.12589206166E+04  0.90444513174E+03 0.  0.
        5    1    3    3  502    0  0.35952677800E+03 -0.59501192222E+02 -0.65182260592E+02  0.37023062147E+03  0.46999998093E+01 0.  1.
       -5    1    3    3    0  502 -0.35952677800E+03  0.59501192222E+02 -0.81052323933E+03  0.88868999514E+03  0.46999998093E+01 0. -1.
</event>
<event>
 5   0  0.1033749E-02  0.9109771E+03  0.7818609E-02  0.9411963E-01
        2   -1    0    0  501    0  0.00000000000E+00  0.00000000000E+00  0.20073374682E+03  0.20073374684E+03  0.25500000920E-02 0.  1.
       -2   -1    0    0    0  501  0.00000000000E+00  0.00000000000E+00 -0.10335573508E+04  0.10335573508E+04  0.25500000920E-02 0. -1.
    10030    2    1    2    0    0  0.00000000000E+00  0.00000000000E+00 -0.83282360399E+03  0.12342910977E+04  0.91097714482E+03 0.  0.
        5    1    3    3  502    0  0.29321584865E+03 -0.29141859442E+03 -0.67543488527E+03  0.79191837036E+03  0.46999998093E+01 0. -1.
       -5    1    3    3    0  502 -0.29321584865E+03  0.29141859442E+03 -0.15738871872E+03  0.44237272730E+03  0.46999998093E+01 0.  1.
</event>
<event>
 5   0  0.1041727E-02  0.8938601E+03  0.7818609E-02  0.9433289E-01
       -2   -1    0    0    0  501  0.00000000000E+00  0.00000000000E+00  0.81539832604E+03  0.81539832605E+03  0.25500000920E-02 0.  1.
        2   -1    0    0  501    0  0.00000000000E+00  0.00000000000E+00 -0.24496797325E+03  0.24496797326E+03  0.25500000920E-02 0. -1.
    10030    2    1    2    0    0  0.00000000000E+00  0.00000000000E+00  0.57043035279E+03  0.10603662993E+04  0.89386011283E+03 0.  0.
        4    1    3    3  502    0  0.33386659189E+01  0.77798629596E+02  0.80728665478E+03  0.81103460428E+03  0.12699999809E+01 0.  1.
       -4    1    3    3    0  502 -0.33386659189E+01 -0.77798629596E+02 -0.23685630198E+03  0.24933169503E+03  0.12699999809E+01 0. -1.
</event>
<event>
 5   0  0.6137243E-03  0.8996032E+03  0.7818609E-02  0.9426078E-01
        1   -1    0    0  501    0  0.00000000000E+00  0.00000000000E+00  0.55966265319E+03  0.55966265321E+03  0.50400001928E-02 0. -1.
       -1   -1    0    0    0  501  0.00000000000E+00  0.00000000000E+00 -0.36150610206E+03  0.36150610210E+03  0.50400001928E-02 0.  1.
    10030    2    1    2    0    0  0.00000000000E+00  0.00000000000E+00  0.19815655112E+03  0.92116875531E+03  0.89960316640E+03 0.  0.
        4    1    3    3  502    0  0.41479227740E+03  0.16506166134E+03  0.15536757180E+03  0.47269300894E+03  0.12699999809E+01 0.  1.
       -4    1    3    3    0  502 -0.41479227740E+03 -0.16506166134E+03  0.42788979320E+02  0.44847574637E+03  0.12699999809E+01 0. -1.
</event>
<event>
 5   0  0.6092779E-03  0.8933215E+03  0.7818609E-02  0.9433969E-01
       -1   -1    0    0    0  501  0.00000000000E+00  0.00000000000E+00  0.33072184461E+03  0.33072184464E+03  0.50400001928E-02 0. -1.
        1   -1    0    0  501    0  0.00000000000E+00  0.00000000000E+00 -0.60324350264E+03  0.60324350266E+03  0.50400001928E-02 0.  1.
    10030    2    1    2    0    0  0.00000000000E+00  0.00000000000E+00 -0.27252165803E+03  0.93396534731E+03  0.89332145159E+03 0.  0.
        2    1    3    3  502    0  0.20796154467E+01  0.14652318373E+03 -0.57739689609E+03  0.59570172384E+03  0.25500000920E-02 0.  1.
       -2    1    3    3    0  502 -0.20796154467E+01 -0.14652318373E+03  0.30487523806E+03  0.33826362346E+03  0.25500000920E-02 0. -1.
</event>
<event>
 5   0  0.3996375E-03  0.8885022E+03  0.7818609E-02  0.9440069E-01
       -3   -1    0    0    0  501  0.00000000000E+00  0.00000000000E+00  0.45163867040E+03  0.45163868169E+03  0.10100000352E+00 0. -1.
        3   -1    0    0  501    0  0.00000000000E+00  0.00000000000E+00 -0.43698437229E+03  0.43698438396E+03  0.10100000352E+00 0.  1.
    10030    2    1    2    0    0  0.00000000000E+00  0.00000000000E+00  0.14654298111E+02  0.88862306565E+03  0.88850222530E+03 0.  0.
        5    1    3    3  502    0  0.28851378660E+03 -0.15986619783E+03  0.30492358725E+03  0.44921920076E+03  0.46999998093E+01 0. -1.
       -5    1    3    3    0  502 -0.28851378660E+03  0.15986619783E+03 -0.29026928914E+03  0.43940386490E+03  0.46999998093E+01 0.  1.
</event>
<event>
 5   0  0.1003252E-02  0.8959111E+03  0.7818609E-02  0.9430707E-01
       -2   -1    0    0    0  501  0.00000000000E+00  0.00000000000E+00  0.24004206055E+03  0.24004206057E+03  0.25500000920E-02 0. -1.
        2   -1    0    0  501    0  0.00000000000E+00  0.00000000000E+00 -0.83595425332E+03  0.83595425333E+03  0.25500000920E-02 0.  1.
    10030    2    1    2    0    0  0.00000000000E+00  0.00000000000E+00 -0.59591219277E+03  0.10759963139E+04  0.89591111502E+03 0.  0.
        2    1    3    3  502    0  0.20865749437E+03  0.36420341726E+03 -0.11003730356E+03  0.43392428750E+03  0.25500000920E-02 0. -1.
       -2    1    3    3    0  502 -0.20865749437E+03 -0.36420341726E+03 -0.48587488921E+03  0.64207202639E+03  0.25500000920E-02 0.  1.
</event>
<event>
 5   0  0.6092779E-03  0.9062596E+03  0.7818609E-02  0.9417790E-01
       -1   -1    0    0    0  501  0.00000000000E+00  0.00000000000E+00  0.90897996063E+03  0.90897996065E+03  0.50400001928E-02 0. -1.
        1   -1    0    0  501    0  0.00000000000E+00  0.00000000000E+00 -0.22588684999E+03  0.22588685004E+03  0.50400001928E-02 0.  1.
    10030    2    1    2    0    0  0.00000000000E+00  0.00000000000E+00  0.68309311065E+03  0.11348668107E+04  0.90625960971E+03 0.  0.
        2    1    3    3  502    0 -0.13043564825E+03 -0.42040798528E+03  0.20684756264E+03  0.48635609033E+03  0.25500000920E-02 0. -1.
       -2    1    3    3    0  502  0.13043564825E+03  0.42040798528E+03  0.47624554801E+03  0.64851072036E+03  0.25500000920E-02 0.  1.
</event>
<event>
 5   0  0.1028978E-02  0.9209337E+03  0.7818609E-02  0.9399785E-01
        2   -1    0    0  501    0  0.00000000000E+00  0.00000000000E+00  0.14194425463E+04  0.14194425463E+04  0.25500000920E-02 0. -1.
       -2   -1    0    0    0  501  0.00000000000E+00  0.00000000000E+00 -0.14937532951E+03  0.14937532953E+03  0.25500000920E-02 0.  1.
    10030    2    1    2    0    0  0.00000000000E+00  0.00000000000E+00  0.12700672168E+04  0.15688178758E+04  0.92093365253E+03 0.  0.
        3    1    3    3  502    0 -0.81162733531E+02  0.36620944170E+03  0.18005680157E+03  0.41607355900E+03  0.10100000352E+00 0.  1.
       -3    1    3    3    0  502  0.81162733531E+02 -0.36620944170E+03  0.10900104152E+04  0.11527443168E+04  0.10100000352E+00 0. -1.
</event>
<event>
 5   0  0.1033749E-02  0.8941276E+03  0.7818609E-02  0.9432952E-01
       -2   -1    0    0    0  501  0.00000000000E+00  0.00000000000E+00  0.33364142994E+03  0.33364142995E+03  0.25500000920E-02 0.  1.
        2   -1    0    0  501    0  0.00000000000E+00  0.00000000000E+00 -0.59904446805E+03  0.59904446806E+03  0.25500000920E-02 0. -1.
    10030    2    1    2    0    0  0.00000000000E+00  0.00000000000E+00 -0.26540303811E+03  0.93268589801E+03  0.89412762607E+03 0.  0.
        5    1    3    3  502    0 -0.29236426201E+03  0.27189971827E+03  0.77061449920E+02  0.40665326208E+03  0.46999998093E+01 0.  1.
       -5    1    3    3    0  502  0.29236426201E+03 -0.27189971827E+03 -0.34246448803E+03  0.52603263593E+03  0.46999998093E+01 0. -1.
</event>
<event>
 5   0  0.6211218E-03  0.8910008E+03  0.7818609E-02  0.9436901E-01
        1   -1    0    0  501    0  0.00000000000E+00  0.00000000000E+00  0.30885294476E+03  0.30885294481E+03  0.50400001928E-02 0.  1.
       -1   -1    0    0    0  501  0.00000000000E+00  0.00000000000E+00 -0.64260550783E+03  0.64260550785E+03  0.50400001928E-02 0. -1.
    10030    2    1    2    0    0  0.00000000000E+00  0.00000000000E+00 -0.33375256306E+03  0.95145845265E+03  0.89100079336E+03 0.  0.
        5    1    3    3  502    0 -0.15311098393E+03 -0.39583135876E+03 -0.31142389414E+03  0.52643363287E+03  0.46999998093E+01 0. -1.
       -5    1    3    3    0  502  0.15311098393E+03  0.39583135876E+03 -0.22328668921E+02  0.42502481978E+03  0.46999998093E+01 0.  1.
</event>
<event>
 5   0  0.6015709E-03  0.8969396E+03  0.7818609E-02  0.9429415E-01
       -1   -1    0    0    0  501  0.00000000000E+00  0.00000000000E+00  0.25363506898E+03  0.25363506903E+03  0.50400001928E-02 0.  1.
        1   -1    0    0  501    0  0.00000000000E+00  0.00000000000E+00 -0.79297063218E+03  0.79297063220E+03  0.50400001928E-02 0. -1.
    10030    2    1    2    0    0  0.00000000000E+00  0.00000000000E+00 -0.53933556320E+03  0.10466057012E+04  0.89693959892E+03 0.  0.
        3    1    3    3  502    0  0.43595335990E+03 -0.10494320756E+03 -0.26087811840E+03  0.51877337218E+03  0.10100000352E+00 0.  1.
       -3    1    3    3    0  502 -0.43595335990E+03  0.10494320756E+03 -0.27845744480E+03  0.52783232905E+03  0.10100000352E+00 0. -1.
</event>
<event>
 5   0  0.1028978E-02  0.8875678E+03  0.7818609E-02  0.9441257E-01
        2   -1    0    0  501    0  0.00000000000E+00  0.00000000000E+00  0.43652612097E+03  0.43652612098E+03  0.25500000920E-02 0. -1.
       -2   -1    0    0    0  501  0.00000000000E+00  0.00000000000E+00 -0.45116236210E+03  0.45116236211E+03  0.25500000920E-02 0.  1.
    10030    2    1    2    0    0  0.00000000000E+00  0.00000000000E+00 -0.14636241133E+02  0.88768848309E+03  0.88756781344E+03 0.  0.
        3    1    3    3  502    0  0.22490876775E+03  0.25429877754E+03 -0.29317566923E+03  0.44855747157E+03  0.10100000352E+00 0.  1.
       -3    1    3    3    0  502 -0.22490876775E+03 -0.25429877754E+03  0.27853942810E+03  0.43913101152E+03  0.10100000352E+00 0. -1.
</event>
<event>
 5   0  0.1017079E-02  0.9091623E+03  0.7818609E-02  0.9414200E-01
        2   -1    0    0  501    0  0.00000000000E+00  0.00000000000E+00  0.86362217429E+03  0.86362217430E+03  0.25500000920E-02 0. -1.
       -2   -1    0    0    0  501  0.00000000000E+00  0.00000000000E+00 -0.23927594853E+03  0.23927594855E+03  0.25500000920E-02 0.  1.
    10030    2    1    2    0    0  0.00000000000E+00  0.00000000000E+00  0.62434622576E+03  0.11028981228E+04  0.90916228461E+03 0.  0.
        1    1    3    3  502    0 -0.53051114262E+02 -0.33862513760E+03  0.67440391167E+03  0.75650647098E+03  0.50400001928E-02 0. -1.
       -1    1    3    3    0  502  0.53051114262E+02  0.33862513760E+03 -0.50057685907E+02  0.34639165186E+03  0.50400001928E-02 0.  1.
</event>
<event>
 5   0  0.1017079E-02  0.8906529E+03  0.7818609E-02  0.9437342E-01
       -2   -1    0    0    0  501  0.00000000000E+00  0.00000000000E+00  0.52765176866E+03  0.52765176867E+03  0.25500000920E-02 0.  1.
        2   -1    0    0  501    0  0.00000000000E+00  0.00000000000E+00 -0.37584569351E+03  0.37584569352E+03  0.25500000920E-02 0. -1.
    10030    2    1    2    0    0  0.00000000000E+00  0.00000000000E+00  0.15180607515E+03  0.90349746219E+03  0.89065289520E+03 0.  0.
        1    1    3    3  502    0  0.25570177942E+03  0.13304398011E+03 -0.26845017902E+03  0.39389033916E+03  0.50400001928E-02 0. -1.
       -1    1    3    3    0  502 -0.25570177942E+03 -0.13304398011E+03  0.42025625417E+03  0.50960712303E+03  0.50400001928E-02 0.  1.
</event>
<event>
 5   0  0.1003252E-02  0.9002859E+03  0.7818609E-02  0.9425224E-01
        2   -1    0    0  501    0  0.00000000000E+00  0.00000000000E+00  0.32471264230E+03  0.32471264231E+03  0.25500000920E-02 0.  1.
       -2   -1    0    0    0  501  0.00000000000E+00  0.00000000000E+00 -0.62402463847E+03  0.62402463848E+03  0.25500000920E-02 0. -1.
    10030    2    1    2    0    0  0.00000000000E+00  0.00000000000E+00 -0.29931199617E+03  0.94873728079E+03  0.90028593064E+03 0.  0.
        2    1    3    3  502    0 -0.30175963405E+03 -0.33229838036E+03 -0.11395662717E+03  0.46310603884E+03  0.25500000920E-02 0.  1.
       -2    1    3    3    0  502  0.30175963405E+03  0.33229838036E+03 -0.18535536900E+03  0.48563124195E+03  0.25500000920E-02 0. -1.
</event>
<event>
 5   0  0.6288003E-03  0.8983317E+03  0.7818609E-02  0.9427669E-01
       -1   -1    0    0    0  501  0.00000000000E+00  0.00000000000E+00  0.84701779476E+02  0.84701779626E+02  0.50400001928E-02 0.  1.
        1   -1    0    0  501    0  0.00000000000E+00  0.00000000000E+00 -0.23818857643E+04  0.23818857643E+04  0.50400001928E-02 0. -1.
    10030    2    1    2    0    0  0.00000000000E+00  0.00000000000E+00 -0.22971839848E+04  0.24665875439E+04  0.89833170474E+03 0.  0.
        1    1    3    3  502    0 -0.69191380657E+02  0.23952476313E+03 -0.21744507918E+04  0.21886972850E+04  0.50400001928E-02 0. -1.
       -1    1    3    3    0  502  0.69191380657E+02 -0.23952476313E+03 -0.12273319299E+03  0.27789025891E+03  0.50400001928E-02 0.  1.
</event>
<event>
 5   0  0.1017079E-02  0.8997434E+03  0.7818609E-02  0.9425902E-01
       -2   -1    0    0    0  501  0.00000000000E+00  0.00000000000E+00  0.60199708197E+03  0.60199708197E+03  0.25500000920E-02 0. -1.
        2   -1    0    0  501    0  0.00000000000E+00  0.00000000000E+00 -0.33618857652E+03  0.33618857652E+03  0.25500000920E-02 0.  1.
    10030    2    1    2    0    0  0.00000000000E+00  0.00000000000E+00  0.26580850545E+03  0.93818565850E+03  0.89974339022E+03 0.  0.
        1    1    3    3  502    0  0.59834389239E+02  0.13603421806E+03  0.57566272434E+03  0.59453598280E+03  0.50400001928E-02 0. -1.
       -1    1    3    3    0  502 -0.59834389239E+02 -0.13603421806E+03 -0.30985421889E+03  0.34364967570E+03  0.50400001928E-02 0.  1.
</event>
<event>
 5   0  0.1041727E-02  0.8964738E+03  0.7818609E-02  0.9430000E-01
        2   -1    0    0  501    0  0.00000000000E+00  0.00000000000E+00  0.13269060716E+04  0.13269060716E+04  0.25500000920E-02 0.  1.
       -2   -1    0    0    0  501  0.00000000000E+00  0.00000000000E+00 -0.15141713113E+03  0.15141713116E+03  0.25500000920E-02 0. -1.
    10030    2    1    2    0    0  0.00000000000E+00  0.00000000000E+00  0.11754889404E+04  0.14783232027E+04  0.89647378245E+03 0.  0.
        4    1    3    3  502    0  0.24890520907E+03  0.20126799347E+03  0.70323210339E+02  0.32773400054E+03  0.12699999809E+01 0. -1.
       -4    1    3    3    0  502 -0.24890520907E+03 -0.20126799347E+03  0.11051657301E+04  0.11505892022E+04  0.12699999809E+01 0.  1.
</event>
<event>
 5   0  0.1028978E-02  0.8994021E+03  0.7818609E-02  0.9426329E-01
       -2   -1    0    0    0  501  0.00000000000E+00  0.00000000000E+00  0.32024099932E+03  0.32024099933E+03  0.25500000920E-02 0. -1.
        2   -1    0    0  501    0  0.00000000000E+00  0.00000000000E+00 -0.63149640025E+03  0.63149640026E+03  0.25500000920E-02 0.  1.
    10030    2    1    2    0    0  0.00000000000E+00  0.00000000000E+00 -0.31125540093E+03  0.95173739958E+03  0.89940210871E+03 0.  0.
        3    1    3    3  502    0  0.24547963787E+03  0.29024133314E+03  0.98625724316E+02  0.39271787299E+03  0.10100000352E+00 0. -1.
       -3    1    3    3    0  502 -0.24547963787E+03 -0.29024133314E+03 -0.40988112525E+03  0.55901952659E+03  0.10100000352E+00 0.  1.
</event>
<event>
 5   0  0.6211218E-03  0.8974163E+03  0.7818609E-02  0.9428817E-01
        1   -1    0    0  501    0  0.00000000000E+00  0.00000000000E+00  0.32997890771E+03  0.32997890775E+03  0.50400001928E-02 0. -1.
       -1   -1    0    0    0  501  0.00000000000E+00  0.00000000000E+00 -0.61015723290E+03  0.61015723292E+03  0.50400001928E-02 0.  1.
    10030    2    1    2    0    0  0.00000000000E+00  0.00000000000E+00 -0.28017832519E+03  0.94013614067E+03  0.89741632985E+03 0.  0.
        5    1    3    3  502    0  0.11354858182E+03 -0.43407272447E+03 -0.13786273822E+03  0.46940455382E+03  0.46999998093E+01 0. -1.
       -5    1    3    3    0  502 -0.11354858182E+03  0.43407272447E+03 -0.14231558698E+03  0.47073158685E+03  0.46999998093E+01 0.  1.
</event>
<event>
 5   0  0.3996375E-03  0.8938210E+03  0.7818609E-02  0.9433339E-01
        4   -1    0    0  501    0  0.00000000000E+00  0.00000000000E+00  0.33546963364E+03  0.33547203758E+03  0.12699999809E+01 0.  1.
       -4   -1    0    0    0  501  0.00000000000E+00  0.00000000000E+00 -0.59536613314E+03  0.59536748768E+03  0.12699999809E+01 0. -1.
    10030    2    1    2    0    0  0.00000000000E+00  0.00000000000E+00 -0.25989649949E+03  0.93083952526E+03  0.89382102869E+03 0.  0.
        3    1    3    3  502    0  0.14063199828E+03 -0.25436703402E+03 -0.48349180624E+03  0.56413144199E+03  0.10100000352E+00 0. -1.
       -3    1    3    3    0  502 -0.14063199828E+03  0.25436703402E+03  0.22359530675E+03  0.36670808327E+03  0.10100000352E+00 0.  1.
</event>
<event>
 5   0  0.1017079E-02  0.9060512E+03  0.7818609E-02  0.9418049E-01
       -2   -1    0    0    0  501  0.00000000000E+00  0.00000000000E+00  0.55746344326E+03  0.55746344327E+03  0.25500000920E-02 0.  1.
        2   -1    0    0  501    0  0.00000000000E+00  0.00000000000E+00 -0.36815361924E+03  0.36815361925E+03  0.25500000920E-02 0. -1.
    10030    2    1    2    0    0  0.00000000000E+00  0.00000000000E+00  0.18930982402E+03  0.92561706252E+03  0.90605117789E+03 0.  0.
        1    1    3    3  502    0  0.58467142974E+02  0.35329770431E+01  0.55357872926E+03  0.55666893055E+03  0.50400001928E-02 0.  1.
       -1    1    3    3    0  502 -0.58467142974E+02 -0.35329770431E+01 -0.36426890523E+03  0.36894813196E+03  0.50400001928E-02 0. -1.
</event>
<event>
 5   0  0.1041727E-02  0.9005753E+03  0.7818609E-02  0.9424863E-01
       -2   -1    0    0    0  501  0.00000000000E+00  0.00000000000E+00  0.44532763229E+03  0.44532763230E+03  0.25500000920E-02 0.  1.
        2   -1    0    0  501    0  0.00000000000E+00  0.00000000000E+00 -0.45530291593E+03  0.45530291593E+03  0.25500000920E-02 0. -1.
    10030    2    1    2    0    0  0.00000000000E+00  0.00000000000E+00 -0.99752836382E+01  0.90063054823E+03  0.90057530397E+03 0.  0.
        4    1    3    3  502    0 -0.40619266753E+02 -0.23252324713E+03 -0.38846959938E+03  0.45456267756E+03  0.12699999809E+01 0. -1.
       -4    1    3    3    0  502  0.40619266753E+02  0.23252324713E+03  0.37849431575E+03  0.44606787067E+03  0.12699999809E+01 0.  1.
</event>
<event>
 5   0  0.1028978E-02  0.8959659E+03  0.7818609E-02  0.9430638E-01
       -2   -1    0    0    0  501  0.00000000000E+00  0.00000000000E+00  0.41571223802E+03  0.41571223803E+03  0.25500000920E-02 0. -1.
        2   -1    0    0  501    0  0.00000000000E+00  0.00000000000E+00 -0.48275872226E+03  0.48275872227E+03  0.25500000920E-02 0.  1.
    10030    2    1    2    0    0  0.00000000000E+00  0.00000000000E+00 -0.67046484237E+02  0.89847096030E+03  0.89596586735E+03 0.  0.
        3    1    3    3  502    0  0.11456749862E+02  0.30640365212E+03  0.29400018181E+03  0.42479474133E+03  0.10100000352E+00 0. -1.
       -3    1    3    3    0  502 -0.11456749862E+02 -0.30640365212E+03 -0.36104666605E+03  0.47367621897E+03  0.10100000352E+00 0.  1.
</event>
<event>
 5   0  0.6288003E-03  0.8831871E+03  0.7818609E-02  0.9446846E-01
        1   -1    0    0  501    0  0.00000000000E+00  0.00000000000E+00  0.27159592142E+03  0.27159592147E+03  0.50400001928E-02 0. -1.
       -1   -1    0    0    0  501  0.00000000000E+00  0.00000000000E+00 -0.71799627622E+03  0.71799627624E+03  0.50400001928E-02 0.  1.
    10030    2    1    2    0    0  0.00000000000E+00  0.00000000000E+00 -0.44640035480E+03  0.98959219770E+03  0.88318709285E+03 0.  0.
        1    1    3    3  502    0  0.41391461553E+03 -0.13916537204E+01 -0.39561417530E+03  0.57257123695E+03  0.50400001928E-02 0.  1.
       -1    1    3    3    0  502 -0.41391461553E+03  0.13916537204E+01 -0.50786179495E+02  0.41702096075E+03  0.50400001928E-02 0. -1.
</event>
<event>
 5   0  0.1003252E-02  0.9066845E+03  0.7818609E-02  0.9417264E-01
        2   -1    0    0  501    0  0.00000000000E+00  0.00000000000E+00  0.57693951253E+03  0.57693951254E+03  0.25500000920E-02 0.  1.
       -2   -1    0    0    0  501  0.00000000000E+00  0.00000000000E+00 -0.35622309504E+03  0.35622309505E+03  0.25500000920E-02 0. -1.
    10030    2    1    2    0    0  0.00000000000E+00  0.00000000000E+00  0.22071641749E+03  0.93316260758E+03  0.90668446289E+03 0.  0.
        2    1    3    3  502    0  0.25603658694E+02 -0.28328556725E+03 -0.25295625588E+03  0.38064829876E+03  0.25500000920E-02 0. -1.
       -2    1    3    3    0  502 -0.25603658694E+02  0.28328556725E+03  0.47367267337E+03  0.55251430883E+03  0.25500000920E-02 0.  1.
</event>
<event>
 5   0  0.6288003E-03  0.8950869E+03  0.7818609E-02  0.9431744E-01
       -1   -1    0    0    0  501  0.00000000000E+00  0.00000000000E+00  0.58037977065E+03  0.58037977067E+03  0.50400001928E-02 0.  1.
        1   -1    0    0  501    0  0.00000000000E+00  0.00000000000E+00 -0.34511050352E+03  0.34511050355E+03  0.50400001928E-02 0. -1.
    10030    2    1    2    0    0  0.00000000000E+00  0.00000000000E+00  0.23526926713E+03  0.92549027422E+03  0.89508693412E+03 0.  0.
        1    1    3    3  502    0  0.98144278514E+02  0.17919822811E+03  0.52934417277E+03  0.56740599013E+03  0.50400001928E-02 0.  1.
       -1    1    3    3    0  502 -0.98144278514E+02 -0.17919822811E+03 -0.29407490564E+03  0.35808428409E+03  0.50400001928E-02 0. -1.
</event>
<event>
 5   0  0.6092779E-03  0.9047893E+03  0.7818609E-02  0.9419614E-01
       -1   -1    0    0    0  501  0.00000000000E+00  0.00000000000E+00  0.14072945898E+03  0.14072945907E+03  0.50400001928E-02 0.  1.
        1   -1    0    0  501    0  0.00000000000E+00  0.00000000000E+00 -0.14542861850E+04  0.14542861850E+04  0.50400001928E-02 0. -1.
    10030    2    1    2    0    0  0.00000000000E+00  0.00000000000E+00 -0.13135567260E+04  0.15950156441E+04  0.90478927513E+03 0.  0.
        2    1    3    3  502    0 -0.17019762433E+02  0.22286480759E+03  0.36593457855E+02  0.22648946099E+03  0.25500000920E-02 0.  1.
       -2    1    3    3    0  502  0.17019762433E+02 -0.22286480759E+03 -0.13501501839E+04  0.13685261831E+04  0.25500000920E-02 0. -1.
</event>
<event>
 5   0  0.1033749E-02  0.8948602E+03  0.7818609E-02  0.9432029E-01
        2   -1    0    0  501    0  0.00000000000E+00  0.00000000000E+00  0.15311761888E+04  0.15311761888E+04  0.25500000920E-02 0.  1.
       -2   -1    0    0    0  501  0.00000000000E+00  0.00000000000E+00 -0.13074505409E+03  0.13074505412E+03  0.25500000920E-02 0. -1.
    10030    2    1    2    0    0  0.00000000000E+00  0.00000000000E+00  0.14004311347E+04  0.16619212429E+04  0.89486024306E+03 0.  0.
        5    1    3    3  502    0 -0.98424900677E+02  0.36874004525E+03  0.11338392576E+04  0.11963570680E+04  0.46999998093E+01 0.  1.
       -5    1    3    3    0  502  0.98424900677E+02 -0.36874004525E+03  0.26659187709E+03  0.46556417492E+03  0.46999998093E+01 0. -1.
</event>
<event>
 5   0  0.6288003E-03  0.9103865E+03  0.7818609E-02  0.9412690E-01
        1   -1    0    0  501    0  0.00000000000E+00  0.00000000000E+00  0.73489348032E+03  0.73489348033E+03  0.50400001928E-02 0.  1.
       -1   -1    0    0    0  501  0.00000000000E+00  0.00000000000E+00 -0.28194684463E+03  0.28194684467E+03  0.50400001928E-02 0. -1.
    10030    2    1    2    0    0  0.00000000000E+00  0.00000000000E+00  0.45294663569E+03  0.10168403250E+04  0.91038650681E+03 0.  0.
        1    1    3    3  502    0 -0.81871164983E+02 -0.13388171039E+03 -0.25077681120E+03  0.29583138626E+03  0.50400001928E-02 0. -1.
       -1    1    3    3    0  502  0.81871164983E+02  0.13388171039E+03  0.70372344689E+03  0.72100893875E+03  0.50400001928E-02 0.  1.
</event>
<event>
 5   0  0.1041727E-02  0.9234221E+03  0.7818609E-02  0.9396767E-01
       -2   -1    0    0    0  501  0.00000000000E+00  0.00000000000E+00  0.14125979179E+03  0.14125979181E+03  0.25500000920E-02 0.  1.
        2   -1    0    0  501    0  0.00000000000E+00  0.00000000000E+00 -0.15091138785E+04  0.15091138785E+04  0.25500000920E-02 0. -1.
    10030    2    1    2    0    0  0.00000000000E+00  0.00000000000E+00 -0.13678540867E+04  0.16503736703E+04  0.92342214027E+03 0.  0.
        4    1    3    3  502    0  0.18334157689E+03 -0.40564021801E+03 -0.90294467350E+03  0.10067118836E+04  0.12699999809E+01 0. -1.
       -4    1    3    3    0  502 -0.18334157689E+03  0.40564021801E+03 -0.46490941319E+03  0.64366178669E+03  0.12699999809E+01 0.  1.
</event>
<event>
 5   0  0.3996375E-03  0.9306926E+03  0.7818609E-02  0.9388007E-01
        3   -1    0    0  501    0  0.00000000000E+00  0.00000000000E+00  0.25701990148E+04  0.25701990168E+04  0.10100000352E+00 0. -1.
       -3   -1    0    0    0  501  0.00000000000E+00  0.00000000000E+00 -0.84253044862E+02  0.84253105400E+02  0.10100000352E+00 0.  1.
    10030    2    1    2    0    0  0.00000000000E+00  0.00000000000E+00  0.24859459699E+04  0.26544521222E+04  0.93069259345E+03 0.  0.
        2    1    3    3  502    0  0.32140775996E+03 -0.92352502756E+02  0.21659132451E+04  0.21915775410E+04  0.25500000920E-02 0. -1.
       -2    1    3    3    0  502 -0.32140775996E+03  0.92352502756E+02  0.32003272485E+03  0.46287458119E+03  0.25500000920E-02 0.  1.
</event>
<event>
 5   0  0.1028978E-02  0.8941062E+03  0.7818609E-02  0.9432979E-01
       -2   -1    0    0    0  501  0.00000000000E+00  0.00000000000E+00  0.46135346003E+03  0.46135346003E+03  0.25500000920E-02 0. -1.
        2   -1    0    0  501    0  0.00000000000E+00  0.00000000000E+00 -0.43319605003E+03  0.43319605004E+03  0.25500000920E-02 0.  1.
    10030    2    1    2    0    0  0.00000000000E+00  0.00000000000E+00  0.28157409991E+02  0.89454951007E+03  0.89410624997E+03 0.  0.
        3    1    3    3  502    0 -0.14398218615E+03  0.34619487054E+03 -0.22950601214E+03  0.43960752738E+03  0.10100000352E+00 0.  1.
       -3    1    3    3    0  502  0.14398218615E+03 -0.34619487054E+03  0.25766342214E+03  0.45494198270E+03  0.10100000352E+00 0. -1.
</event>
<event>
 5   0  0.1028978E-02  0.8978898E+03  0.7818609E-02  0.9428223E-01
       -2   -1    0    0    0  501  0.00000000000E+00  0.00000000000E+00  0.22379896929E+03  0.22379896931E+03  0.25500000920E-02 0.  1.
        2   -1    0    0  501    0  0.00000000000E+00  0.00000000000E+00 -0.90059180798E+03  0.90059180798E+03  0.25500000920E-02 0. -1.
    10030    2    1    2    0    0  0.00000000000E+00  0.00000000000E+00 -0.67679283869E+03  0.11243907773E+04  0.89788978920E+03 0.  0.
        3    1    3    3  502    0 -0.35032625695E+02 -0.20372853551E+03  0.16065505565E+03  0.26180652809E+03  0.10100000352E+00 0.  1.
       -3    1    3    3    0  502  0.35032625695E+02  0.20372853551E+03 -0.83744789433E+03  0.86258424920E+03  0.10100000352E+00 0. -1.
</event>
<event>
 5   0  0.6015709E-03  0.9587976E+03  0.7818609E-02  0.9354926E-01
        1   -1    0    0  501    0  0.00000000000E+00  0.00000000000E+00  0.13827144709E+03  0.13827144718E+03  0.50400001928E-02 0.  1.
       -1   -1    0    0    0  501  0.00000000000E+00  0.00000000000E+00 -0.16621160483E+04  0.16621160483E+04  0.50400001928E-02 0. -1.
    10030    2    1    2    0    0  0.00000000000E+00  0.00000000000E+00 -0.15238446012E+04  0.18003874955E+04  0.95879756222E+03 0.  0.
        3    1    3    3  502    0  0.85848546415E+02  0.19080245073E+03  0.48014516961E+02  0.21466474365E+03  0.10100000352E+00 0.  1.
       -3    1    3    3    0  502 -0.85848546415E+02 -0.19080245073E+03 -0.15718591182E+04  0.15857227519E+04  0.10100000352E+00 0. -1.
</event>
<event>
 5   0  0.1003252E-02  0.9019811E+03  0.7818609E-02  0.9423108E-01
       -2   -1    0    0    0  501  0.00000000000E+00  0.00000000000E+00  0.90279835906E+02  0.90279835942E+02  0.25500000920E-02 0. -1.
        2   -1    0    0  501    0  0.00000000000E+00  0.00000000000E+00 -0.22529113821E+04  0.22529113822E+04  0.25500000920E-02 0.  1.
    10030    2    1    2    0    0  0.00000000000E+00  0.00000000000E+00 -0.21626315462E+04  0.23431912181E+04  0.90198108613E+03 0.  0.
        2    1    3    3  502    0  0.21552048394E+03  0.32174448112E+03 -0.16817673815E+04  0.17257781189E+04  0.25500000920E-02 0.  1.
       -2    1    3    3    0  502 -0.21552048394E+03 -0.32174448112E+03 -0.48086416472E+03  0.61741309919E+03  0.25500000920E-02 0. -1.
</event>
<event>
 5   0  0.1041727E-02  0.8413396E+03  0.7818609E-02  0.9502035E-01
        2   -1    0    0  501    0  0.00000000000E+00  0.00000000000E+00  0.46905340423E+03  0.46905340424E+03  0.25500000920E-02 0. -1.
       -2   -1    0    0    0  501  0.00000000000E+00  0.00000000000E+00 -0.37727707396E+03  0.37727707397E+03  0.25500000920E-02 0.  1.
    10030    2    1    2    0    0  0.00000000000E+00  0.00000000000E+00  0.91776330273E+02  0.84633047820E+03  0.84133963626E+03 0.  0.
        4    1    3    3  502    0  0.32183862867E+03 -0.30770554121E+02  0.31662136983E+03  0.45252362882E+03  0.12699999809E+01 0. -1.
       -4    1    3    3    0  502 -0.32183862867E+03  0.30770554121E+02 -0.22484503956E+03  0.39380684938E+03  0.12699999809E+01 0.  1.
</event>
<event>
 5   0  0.1041727E-02  0.9034417E+03  0.7818609E-02  0.9421289E-01
       -2   -1    0    0    0  501  0.00000000000E+00  0.00000000000E+00  0.12061834203E+03  0.12061834205E+03  0.25500000920E-02 0.  1.
        2   -1    0    0  501    0  0.00000000000E+00  0.00000000000E+00 -0.16917139516E+04  0.16917139516E+04  0.25500000920E-02 0. -1.
    10030    2    1    2    0    0  0.00000000000E+00  0.00000000000E+00 -0.15710956095E+04  0.18123322936E+04  0.90344171266E+03 0.  0.
        4    1    3    3  502    0 -0.16680571883E+02 -0.18784956405E+02  0.11921231935E+03  0.12183721127E+03  0.12699999809E+01 0.  1.
       -4    1    3    3    0  502  0.16680571883E+02  0.18784956405E+02 -0.16903079289E+04  0.16904950823E+04  0.12699999809E+01 0. -1.
</event>
<event>
 5   0  0.6137243E-03  0.9002263E+03  0.7818609E-02  0.9425299E-01
       -1   -1    0    0    0  501  0.00000000000E+00  0.00000000000E+00  0.78304728323E+03  0.78304728325E+03  0.50400001928E-02 0.  1.
        1   -1    0    0  501    0  0.00000000000E+00  0.00000000000E+00 -0.25873513562E+03  0.25873513567E+03  0.50400001928E-02 0. -1.
    10030    2    1    2    0    0  0.00000000000E+00  0.00000000000E+00  0.52431214762E+03  0.10417824189E+04  0.90022629390E+03 0.  0.
        4    1    3    3  502    0  0.23410568023E+03 -0.36038201846E+03  0.10724265359E+03  0.44292580462E+03  0.12699999809E+01 0. -1.
       -4    1    3    3    0  502 -0.23410568023E+03  0.36038201846E+03  0.41706949402E+03  0.59885661430E+03  0.12699999809E+01 0.  1.
</event>
<event>
 5   0  0.6015709E-03  0.8937564E+03  0.7818609E-02  0.9433420E-01
        1   -1    0    0  501    0  0.00000000000E+00  0.00000000000E+00  0.50789300950E+03  0.50789300953E+03  0.50400001928E-02 0.  1.
       -1   -1    0    0    0  501  0.00000000000E+00  0.00000000000E+00 -0.39319328486E+03  0.39319328489E+03  0.50400001928E-02 0. -1.
    10030    2    1    2    0    0  0.00000000000E+00  0.00000000000E+00  0.11469972465E+03  0.90108629442E+03  0.89375638915E+03 0.  0.
        3    1    3    3  502    0 -0.67189759968E+02  0.33628227115E+03  0.34623053592E+03  0.48731491249E+03  0.10100000352E+00 0.  1.
       -3    1    3    3    0  502  0.67189759968E+02 -0.33628227115E+03 -0.23153081127E+03  0.41377138193E+03  0.10100000352E+00 0. -1.
</event>
<event>
 5   0  0.6288003E-03  0.8942772E+03  0.7818609E-02  0.9432764E-01
       -1   -1    0    0    0  501  0.00000000000E+00  0.00000000000E+00  0.51676081250E+03  0.51676081252E+03  0.50400001928E-02 0.  1.
        1   -1    0    0  501    0  0.00000000000E+00  0.00000000000E+00 -0.38689646455E+03  0.38689646458E+03  0.50400001928E-02 0. -1.
    10030    2    1    2    0    0  0.00000000000E+00  0.00000000000E+00  0.12986434795E+03  0.90365727710E+03  0.89427720847E+03 0.  0.
        1    1    3    3  502    0 -0.77209146207E+02 -0.40689411236E+03  0.23524936838E+03  0.47630487745E+03  0.50400001928E-02 0.  1.
       -1    1    3    3    0  502  0.77209146207E+02  0.40689411236E+03 -0.10538502043E+03  0.42735239965E+03  0.50400001928E-02 0. -1.
</event>
<event>
 5   0  0.6092779E-03  0.9371777E+03  0.7818609E-02  0.9380265E-01
       -1   -1    0    0    0  501  0.00000000000E+00  0.00000000000E+00  0.49668706201E+03  0.49668706203E+03  0.50400001928E-02 0. -1.
        1   -1    0    0  501    0  0.00000000000E+00  0.00000000000E+00 -0.44208022892E+03  0.44208022895E+03  0.50400001928E-02 0.  1.
    10030    2    1    2    0    0  0.00000000000E+00  0.00000000000E+00  0.54606833083E+02  0.93876729098E+03  0.93717774216E+03 0.  0.
        2    1    3    3  502    0  0.13982552304E+03 -0.25461962041E+03 -0.34100649899E+03  0.44795955214E+03  0.25500000920E-02 0.  1.
       -2    1    3    3    0  502 -0.13982552304E+03  0.25461962041E+03  0.39561333207E+03  0.49080773885E+03  0.25500000920E-02 0. -1.
</event>
<event>
 5   0  0.6288003E-03  0.9019450E+03  0.7818609E-02  0.9423153E-01
       -1   -1    0    0    0  501  0.00000000000E+00  0.00000000000E+00  0.50774048016E+03  0.50774048019E+03  0.50400001928E-02 0. -1.
        1   -1    0    0  501    0  0.00000000000E+00  0.00000000000E+00 -0.40055149425E+03  0.40055149428E+03  0.50400001928E-02 0.  1.
    10030    2    1    2    0    0  0.00000000000E+00  0.00000000000E+00  0.10718898592E+03  0.90829197447E+03  0.90194502725E+03 0.  0.
        1    1    3    3  502    0 -0.22414018077E+03 -0.25586448850E+03 -0.24458156684E+03  0.41895775440E+03  0.50400001928E-02 0.  1.
       -1    1    3    3    0  502  0.22414018077E+03  0.25586448850E+03  0.35177055276E+03  0.48933422006E+03  0.50400001928E-02 0. -1.
</event>
<event>
 5   0  0.1003252E-02  0.9000993E+03  0.7818609E-02  0.9425457E-01
        2   -1    0    0  501    0  0.00000000000E+00  0.00000000000E+00  0.73830805554E+03  0.73830805554E+03  0.25500000920E-02 0. -1.
       -2   -1    0    0    0  501  0.00000000000E+00  0.00000000000E+00 -0.27433630396E+03  0.27433630398E+03  0.25500000920E-02 0.  1.
    10030    2    1    2    0    0  0.00000000000E+00  0.00000000000E+00  0.46397175157E+03  0.10126443595E+04  0.90009933486E+03 0.  0.
        2    1    3    3  502    0  0.30938220599E+03 -0.39993254340E+01  0.59967029594E+03  0.67478723152E+03  0.25500000920E-02 0. -1.
       -2    1    3    3    0  502 -0.30938220599E+03  0.39993254340E+01 -0.13569854436E+03  0.33785712800E+03  0.25500000920E-02 0.  1.
</event>
<event>
 5   0  0.6137243E-03  0.8851636E+03  0.7818609E-02  0.9444320E-01
        1   -1    0    0  501    0  0.00000000000E+00  0.00000000000E+00  0.30695032919E+03  0.30695032923E+03  0.50400001928E-02 0. -1.
       -1   -1    0    0    0  501  0.00000000000E+00  0.00000000000E+00 -0.63814443804E+03  0.63814443806E+03  0.50400001928E-02 0.  1.
    10030    2    1    2    0    0  0.00000000000E+00  0.00000000000E+00 -0.33119410885E+03  0.94509476729E+03  0.88516359020E+03 0.  0.
        4    1    3    3  502    0 -0.76751157169E+02  0.33147799577E+03 -0.46779497460E+03  0.57844805555E+03  0.12699999809E+01 0.  1.
       -4    1    3    3    0  502  0.76751157169E+02 -0.33147799577E+03  0.13660086574E+03  0.36664671174E+03  0.12699999809E+01 0. -1.
</event>
<event>
 5   0  0.1003252E-02  0.9036005E+03  0.7818609E-02  0.9421092E-01
       -2   -1    0    0    0  501  0.00000000000E+00  0.00000000000E+00  0.18484190493E+03  0.18484190495E+03  0.25500000920E-02 0. -1.
        2   -1    0    0  501    0  0.00000000000E+00  0.00000000000E+00 -0.11043137170E+04  0.11043137170E+04  0.25500000920E-02 0.  1.
    10030    2    1    2    0    0  0.00000000000E+00  0.00000000000E+00 -0.91947181208E+03  0.12891556220E+04  0.90360046726E+03 0.  0.
        2    1    3    3  502    0 -0.22957045774E+03 -0.86597478815E+02 -0.10009786530E+04  0.10306114603E+04  0.25500000920E-02 0.  1.
       -2    1    3    3    0  502  0.22957045774E+03  0.86597478815E+02  0.81506840897E+02  0.25854416165E+03  0.25500000920E-02 0. -1.
</event>
<event>
 5   0  0.6288003E-03  0.8932182E+03  0.7818609E-02  0.9434099E-01
       -1   -1    0    0    0  501  0.00000000000E+00  0.00000000000E+00  0.74822736658E+03  0.74822736660E+03  0.50400001928E-02 0.  1.
        1   -1    0    0  501    0  0.00000000000E+00  0.00000000000E+00 -0.26657632671E+03  0.26657632675E+03  0.50400001928E-02 0. -1.
    10030    2    1    2    0    0  0.00000000000E+00  0.00000000000E+00  0.48165103988E+03  0.10148036934E+04  0.89321823304E+03 0.  0.
        1    1    3    3  502    0  0.39433036046E+03 -0.17401391828E+03  0.37371971575E+03  0.57047673301E+03  0.50400001928E-02 0.  1.
       -1    1    3    3    0  502 -0.39433036046E+03  0.17401391828E+03  0.10793132413E+03  0.44432696035E+03  0.50400001928E-02 0. -1.
</event>
<event>
 5   0  0.6015709E-03  0.8967285E+03  0.7818609E-02  0.9429680E-01
        1   -1    0    0  501    0  0.00000000000E+00  0.00000000000E+00  0.14510937795E+04  0.14510937796E+04  0.50400001928E-02 0. -1.
       -1   -1    0    0    0  501  0.00000000000E+00  0.00000000000E+00 -0.13853721007E+03  0.13853721016E+03  0.50400001928E-02 0.  1.
    10030    2    1    2    0    0  0.00000000000E+00  0.00000000000E+00  0.13125565695E+04  0.15896309897E+04  0.89672846245E+03 0.  0.
        3    1    3    3  502    0  0.33223077278E+03 -0.27952920937E+03  0.45795272071E+03  0.63105829357E+03  0.10100000352E+00 0.  1.
       -3    1    3    3    0  502 -0.33223077278E+03  0.27952920937E+03  0.85460384877E+03  0.95857269615E+03  0.10100000352E+00 0. -1.
</event>
<event>
 5   0  0.1003252E-02  0.9017326E+03  0.7818609E-02  0.9423418E-01
        2   -1    0    0  501    0  0.00000000000E+00  0.00000000000E+00  0.11388153540E+04  0.11388153540E+04  0.25500000920E-02 0. -1.
       -2   -1    0    0    0  501  0.00000000000E+00  0.00000000000E+00 -0.17850166327E+03  0.17850166329E+03  0.25500000920E-02 0.  1.
    10030    2    1    2    0    0  0.00000000000E+00  0.00000000000E+00  0.96031369068E+03  0.13173170172E+04  0.90173263189E+03 0.  0.
        2    1    3    3  502    0 -0.21819709964E+01 -0.26696907590E+03  0.10109248354E+04  0.10455841770E+04  0.25500000920E-02 0. -1.
       -2    1    3    3    0  502  0.21819709964E+01  0.26696907590E+03 -0.50611144682E+02  0.27173284022E+03  0.25500000920E-02 0.  1.
</event>
<event>
 5   0  0.1017079E-02  0.8874424E+03  0.7818609E-02  0.9441417E-01
       -2   -1    0    0    0  501  0.00000000000E+00  0.00000000000E+00  0.12562423809E+03  0.12562423811E+03  0.25500000920E-02 0. -1.
        2   -1    0    0  501    0  0.00000000000E+00  0.00000000000E+00 -0.15672811551E+04  0.15672811551E+04  0.25500000920E-02 0.  1.
    10030    2    1    2    0    0  0.00000000000E+00  0.00000000000E+00 -0.14416569170E+04  0.16929053932E+04  0.88744239476E+03 0.  0.
        1    1    3    3  502    0 -0.13467625143E+02 -0.26946652244E+02  0.12367124902E+03  0.12728737901E+03  0.50400001928E-02 0. -1.
       -1    1    3    3    0  502  0.13467625143E+02  0.26946652244E+02 -0.15653281661E+04  0.15656180142E+04  0.50400001928E-02 0.  1.
</event>
<event>
 5   0  0.1033749E-02  0.8741082E+03  0.7818609E-02  0.9458539E-01
       -2   -1    0    0    0  501  0.00000000000E+00  0.00000000000E+00  0.38393774796E+03  0.38393774797E+03  0.25500000920E-02 0.  1.
        2   -1    0    0  501    0  0.00000000000E+00  0.00000000000E+00 -0.49751889003E+03  0.49751889004E+03  0.25500000920E-02 0. -1.
    10030    2    1    2    0    0  0.00000000000E+00  0.00000000000E+00 -0.11358114207E+03  0.88145663801E+03  0.87410819059E+03 0.  0.
        5    1    3    3  502    0  0.23681967441E+03 -0.28228781791E+03 -0.29376449813E+03  0.47126387585E+03  0.46999998093E+01 0. -1.
       -5    1    3    3    0  502 -0.23681967441E+03  0.28228781791E+03  0.18018335606E+03  0.41019276216E+03  0.46999998093E+01 0.  1.
</event>
<event>
 5   0  0.6137243E-03  0.8981524E+03  0.7818609E-02  0.9427894E-01
       -1   -1    0    0    0  501  0.00000000000E+00  0.00000000000E+00  0.11399254872E+03  0.11399254883E+03  0.50400001928E-02 0.  1.
        1   -1    0    0  501    0  0.00000000000E+00  0.00000000000E+00 -0.17691456731E+04  0.17691456731E+04  0.50400001928E-02 0. -1.
    10030    2    1    2    0    0  0.00000000000E+00  0.00000000000E+00 -0.16551531244E+04  0.18831382219E+04  0.89815238006E+03 0.  0.
        4    1    3    3  502    0 -0.25682078482E+03 -0.35540368765E+03 -0.62430545576E+03  0.76290734150E+03  0.12699999809E+01 0.  1.
       -4    1    3    3    0  502  0.25682078482E+03  0.35540368765E+03 -0.10308476686E+04  0.11202308804E+04  0.12699999809E+01 0. -1.
</event>
<event>
 5   0  0.6288003E-03  0.9022094E+03  0.7818609E-02  0.9422824E-01
        1   -1    0    0  501    0  0.00000000000E+00  0.00000000000E+00  0.31397987454E+03  0.31397987458E+03  0.50400001928E-02 0. -1.
       -1   -1    0    0    0  501  0.00000000000E+00  0.00000000000E+00 -0.64811627744E+03  0.64811627746E+03  0.50400001928E-02 0.  1.
    10030    2    1    2    0    0  0.00000000000E+00  0.00000000000E+00 -0.33413640289E+03  0.96209615204E+03  0.90220943801E+03 0.  0.
        1    1    3    3  502    0 -0.24845060175E+03 -0.23079020904E+03 -0.48431094084E+03  0.59122661437E+03  0.50400001928E-02 0.  1.
       -1    1    3    3    0  502  0.24845060175E+03  0.23079020904E+03  0.15017453795E+03  0.37086953767E+03  0.50400001928E-02 0. -1.
</event>
<event>
 5   0  0.6015709E-03  0.8888596E+03  0.7818609E-02  0.9439616E-01
       -1   -1    0    0    0  501  0.00000000000E+00  0.00000000000E+00  0.17492157438E+03  0.17492157445E+03  0.50400001928E-02 0. -1.
        1   -1    0    0  501    0  0.00000000000E+00  0.00000000000E+00 -0.11291795568E+04  0.11291795568E+04  0.50400001928E-02 0.  1.
    10030    2    1    2    0    0  0.00000000000E+00  0.00000000000E+00 -0.95425798239E+03  0.13041011312E+04  0.88885964221E+03 0.  0.
        3    1    3    3  502    0  0.29846278819E+03  0.16639830353E+03 -0.89404426042E+03  0.95712255284E+03  0.10100000352E+00 0.  1.
       -3    1    3    3    0  502 -0.29846278819E+03 -0.16639830353E+03 -0.60213721966E+02  0.34697857840E+03  0.10100000352E+00 0. -1.
</event>
<event>
 5   0  0.1028978E-02  0.9163327E+03  0.7818609E-02  0.9405392E-01
       -2   -1    0    0    0  501  0.00000000000E+00  0.00000000000E+00  0.16349777054E+03  0.16349777056E+03  0.25500000920E-02 0.  1.
        2   -1    0    0  501    0  0.00000000000E+00  0.00000000000E+00 -0.12839098024E+04  0.12839098024E+04  0.25500000920E-02 0. -1.
    10030    2    1    2    0    0  0.00000000000E+00  0.00000000000E+00 -0.11204120318E+04  0.14474075729E+04  0.91633266945E+03 0.  0.
        3    1    3    3  502    0  0.18309119776E+03  0.22961697892E+03 -0.47241133426E+01  0.29371528928E+03  0.10100000352E+00 0.  1.
       -3    1    3    3    0  502 -0.18309119776E+03 -0.22961697892E+03 -0.11156879185E+04  0.11536922837E+04  0.10100000352E+00 0. -1.
</event>
<event>
 5   0  0.1003252E-02  0.8865656E+03  0.7818609E-02  0.9442533E-01
        2   -1    0    0  501    0  0.00000000000E+00  0.00000000000E+00  0.41552114430E+03  0.41552114431E+03  0.25500000920E-02 0. -1.
       -2   -1    0    0    0  501  0.00000000000E+00  0.00000000000E+00 -0.47289930942E+03  0.47289930942E+03  0.25500000920E-02 0.  1.
    10030    2    1    2    0    0  0.00000000000E+00  0.00000000000E+00 -0.57378165112E+02  0.88842045374E+03  0.88656564832E+03 0.  0.
        2    1    3    3  502    0 -0.10844963191E+03  0.41615979610E+03 -0.13638188452E+03  0.45116550952E+03  0.25500000920E-02 0.  1.
       -2    1    3    3    0  502  0.10844963191E+03 -0.41615979610E+03  0.79003719408E+02  0.43725494421E+03  0.25500000920E-02 0. -1.
</event>
<event>
 5   0  0.3996375E-03  0.8999697E+03  0.7818609E-02  0.9425619E-01
       -4   -1    0    0    0  501  0.00000000000E+00  0.00000000000E+00  0.77222336086E+03  0.77222440518E+03  0.12699999809E+01 0. -1.
        4   -1    0    0  501    0  0.00000000000E+00  0.00000000000E+00 -0.26220943962E+03  0.26221251520E+03  0.12699999809E+01 0.  1.
    10030    2    1    2    0    0  0.00000000000E+00  0.00000000000E+00  0.51001392124E+03  0.10344369204E+04  0.89996974526E+03 0.  0.
        3    1    3    3  502    0 -0.66815702914E+02  0.15787189012E+03  0.73322148187E+03  0.75299510193E+03  0.10100000352E+00 0. -1.
       -3    1    3    3    0  502  0.66815702914E+02 -0.15787189012E+03 -0.22320756064E+03  0.28144181845E+03  0.10100000352E+00 0.  1.
</event>
<event>
 5   0  0.6092779E-03  0.8971649E+03  0.7818609E-02  0.9429132E-01
       -1   -1    0    0    0  501  0.00000000000E+00  0.00000000000E+00  0.22735368864E+03  0.22735368870E+03  0.50400001928E-02 0.  1.
        1   -1    0    0  501    0  0.00000000000E+00  0.00000000000E+00 -0.88508002436E+03  0.88508002438E+03  0.50400001928E-02 0. -1.
    10030    2    1    2    0    0  0.00000000000E+00  0.00000000000E+00 -0.65772633572E+03  0.11124337131E+04  0.89716488635E+03 0.  0.
        2    1    3    3  502    0  0.20485381019E+03  0.18292959437E+03  0.11091994581E+03  0.29619512898E+03  0.25500000920E-02 0.  1.
       -2    1    3    3    0  502 -0.20485381019E+03 -0.18292959437E+03 -0.76864628153E+03  0.81623858410E+03  0.25500000920E-02 0. -1.
</event>
<event>
 5   0  0.1017079E-02  0.9050628E+03  0.7818609E-02  0.9419275E-01
        2   -1    0    0  501    0  0.00000000000E+00  0.00000000000E+00  0.83168351144E+03  0.83168351145E+03  0.25500000920E-02 0. -1.
       -2   -1    0    0    0  501  0.00000000000E+00  0.00000000000E+00 -0.24622908688E+03  0.24622908689E+03  0.25500000920E-02 0.  1.
    10030    2    1    2    0    0  0.00000000000E+00  0.00000000000E+00  0.58545442457E+03  0.10779125983E+04  0.90506280800E+03 0.  0.
        1    1    3    3  502    0  0.43218548786E+03 -0.13337606025E+03  0.27541892644E+03  0.52955552535E+03  0.50400001928E-02 0.  1.
       -1    1    3    3    0  502 -0.43218548786E+03  0.13337606025E+03  0.31003549813E+03  0.54835707299E+03  0.50400001928E-02 0. -1.
</event>
<event>
 5   0  0.6015709E-03  0.9013911E+03  0.7818609E-02  0.9423844E-01
       -1   -1    0    0    0  501  0.00000000000E+00  0.00000000000E+00  0.22422751250E+03  0.22422751256E+03  0.50400001928E-02 0. -1.
        1   -1    0    0  501    0  0.00000000000E+00  0.00000000000E+00 -0.90589459200E+03  0.90589459202E+03  0.50400001928E-02 0.  1.
    10030    2    1    2    0    0  0.00000000000E+00  0.00000000000E+00 -0.68166707950E+03  0.11301221046E+04  0.90139112708E+03 0.  0.
        3    1    3    3  502    0  0.28974708939E+03 -0.34520341245E+03 -0.33735247917E+03  0.56296134608E+03  0.10100000352E+00 0.  1.
       -3    1    3    3    0  502 -0.28974708939E+03  0.34520341245E+03 -0.34431460033E+03  0.56716075850E+03  0.10100000352E+00 0. -1.
</event>
<event>
 5   0  0.1017079E-02  0.8987185E+03  0.7818609E-02  0.9427185E-01
        2   -1    0    0  501    0  0.00000000000E+00  0.00000000000E+00  0.72703236592E+03  0.72703236592E+03  0.25500000920E-02 0.  1.
       -2   -1    0    0    0  501  0.00000000000E+00  0.00000000000E+00 -0.27773690439E+03  0.27773690440E+03  0.25500000920E-02 0. -1.
    10030    2    1    2    0    0  0.00000000000E+00  0.00000000000E+00  0.44929546153E+03  0.10047692703E+04  0.89871846250E+03 0.  0.
        1    1    3    3  502    0  0.91854441275E+02  0.23158489764E+03  0.64274905996E+03  0.68934400505E+03  0.50400001928E-02 0.  1.
       -1    1    3    3    0  502 -0.91854441275E+02 -0.23158489764E+03 -0.19345359844E+03  0.31542526527E+03  0.50400001928E-02 0. -1.
</event>
<event>
 5   0  0.3996375E-03  0.9023050E+03  0.7818609E-02  0.9422705E-01
       -4   -1    0    0    0  501  0.00000000000E+00  0.00000000000E+00  0.73728443392E+03  0.73728552773E+03  0.12699999809E+01 0.  1.
        4   -1    0    0  501    0  0.00000000000E+00  0.00000000000E+00 -0.27606242684E+03  0.27606534808E+03  0.12699999809E+01 0. -1.
    10030    2    1    2    0    0  0.00000000000E+00  0.00000000000E+00  0.46122200708E+03  0.10133508758E+04  0.90230496933E+03 0.  0.
        5    1    3    3  502    0 -0.92489138072E+01  0.28214997771E+03 -0.16457901791E+03  0.32680651074E+03  0.46999998093E+01 0. -1.
       -5    1    3    3    0  502  0.92489138072E+01 -0.28214997771E+03  0.62580102499E+03  0.68654436507E+03  0.46999998093E+01 0.  1.
</event>
<event>
 5   0  0.6137243E-03  0.8848839E+03  0.7818609E-02  0.9444677E-01
        1   -1    0    0  501    0  0.00000000000E+00  0.00000000000E+00  0.12254339325E+04  0.12254339325E+04  0.50400001928E-02 0. -1.
       -1   -1    0    0    0  501  0.00000000000E+00  0.00000000000E+00 -0.15974330434E+03  0.15974330441E+03  0.50400001928E-02 0.  1.
    10030    2    1    2    0    0  0.00000000000E+00  0.00000000000E+00  0.10656906282E+04  0.13851772369E+04  0.88488386964E+03 0.  0.
        4    1    3    3  502    0  0.38611483573E+03  0.21465247140E+03  0.57096162570E+03  0.72191352721E+03  0.12699999809E+01 0. -1.
       -4    1    3    3    0  502 -0.38611483573E+03 -0.21465247140E+03  0.49472900247E+03  0.66326370972E+03  0.12699999809E+01 0.  1.
</event>
<event>
 5   0  0.1041727E-02  0.8856324E+03  0.7818609E-02  0.9443722E-01
        2   -1    0    0  501    0  0.00000000000E+00  0.00000000000E+00  0.17401420903E+04  0.17401420903E+04  0.25500000920E-02 0. -1.
       -2   -1    0    0    0  501  0.00000000000E+00  0.00000000000E+00 -0.11268399984E+03  0.11268399987E+03  0.25500000920E-02 0.  1.
    10030    2    1    2    0    0  0.00000000000E+00  0.00000000000E+00  0.16274580905E+04  0.18528260902E+04  0.88563236404E+03 0.  0.
        4    1    3    3  502    0  0.27031786777E+03 -0.56394412957E+02  0.89512487094E+02  0.29028637188E+03  0.12699999809E+01 0.  1.
       -4    1    3    3    0  502 -0.27031786777E+03  0.56394412957E+02  0.15379456034E+04  0.15625397183E+04  0.12699999809E+01 0. -1.
</event>
<event>
 5   0  0.1003252E-02  0.9438204E+03  0.7818609E-02  0.9372403E-01
       -2   -1    0    0    0  501  0.00000000000E+00  0.00000000000E+00  0.33061203993E+03  0.33061203994E+03  0.25500000920E-02 0. -1.
        2   -1    0    0  501    0  0.00000000000E+00  0.00000000000E+00 -0.67359682626E+03  0.67359682627E+03  0.25500000920E-02 0.  1.
    10030    2    1    2    0    0  0.00000000000E+00  0.00000000000E+00 -0.34298478633E+03  0.10042088662E+04  0.94382036602E+03 0.  0.
        2    1    3    3  502    0  0.34888721586E+03  0.24915864411E+03 -0.38133429350E+03  0.57377535911E+03  0.25500000920E-02 0.  1.
       -2    1    3    3    0  502 -0.34888721586E+03 -0.24915864411E+03  0.38349507168E+02  0.43043350709E+03  0.25500000920E-02 0. -1.
</event>
<event>
 5   0  0.6211218E-03  0.9053563E+03  0.7818609E-02  0.9418910E-01
        1   -1    0    0  501    0  0.00000000000E+00  0.00000000000E+00  0.48505882942E+03  0.48505882945E+03  0.50400001928E-02 0. -1.
       -1   -1    0    0    0  501  0.00000000000E+00  0.00000000000E+00 -0.42245907658E+03  0.42245907661E+03  0.50400001928E-02 0.  1.
    10030    2    1    2    0    0  0.00000000000E+00  0.00000000000E+00  0.62599752844E+02  0.90751790605E+03  0.90535629492E+03 0.  0.
        5    1    3    3  502    0  0.36622658338E+03 -0.14020351653E+03  0.25792922047E+03  0.46939163733E+03  0.46999998093E+01 0. -1.
       -5    1    3    3    0  502 -0.36622658338E+03  0.14020351653E+03 -0.19532946762E+03  0.43812626872E+03  0.46999998093E+01 0.  1.
</event>
<event>
 5   0  0.1033749E-02  0.8941544E+03  0.7818609E-02  0.9432918E-01
        2   -1    0    0  501    0  0.00000000000E+00  0.00000000000E+00  0.23247093204E+03  0.23247093205E+03  0.25500000920E-02 0. -1.
       -2   -1    0    0    0  501  0.00000000000E+00  0.00000000000E+00 -0.85979782823E+03  0.85979782823E+03  0.25500000920E-02 0.  1.
    10030    2    1    2    0    0  0.00000000000E+00  0.00000000000E+00 -0.62732689619E+03  0.10922687603E+04  0.89415435469E+03 0.  0.
        5    1    3    3  502    0  0.51115026299E+01  0.55649825712E+02  0.22815712798E+03  0.23494849565E+03  0.46999998093E+01 0. -1.
       -5    1    3    3    0  502 -0.51115026299E+01 -0.55649825712E+02 -0.85548402416E+03  0.85732026464E+03  0.46999998093E+01 0.  1.
</event>
<event>
 5   0  0.1003252E-02  0.9023567E+03  0.7818609E-02  0.9422640E-01
       -2   -1    0    0    0  501  0.00000000000E+00  0.00000000000E+00  0.10405535889E+03  0.10405535892E+03  0.25500000920E-02 0.  1.
        2   -1    0    0  501    0  0.00000000000E+00  0.00000000000E+00 -0.19562848628E+04  0.19562848628E+04  0.25500000920E-02 0. -1.
    10030    2    1    2    0    0  0.00000000000E+00  0.00000000000E+00 -0.18522295040E+04  0.20603402218E+04  0.90235674435E+03 0.  0.
        2    1    3    3  502    0 -0.47798072672E+01  0.44973725082E+03 -0.84456965183E+03  0.95686171317E+03  0.25500000920E-02 0. -1.
       -2    1    3    3    0  502  0.47798072672E+01 -0.44973725082E+03 -0.10076598521E+04  0.11034785086E+04  0.25500000920E-02 0.  1.
</event>
<event>
 5   0  0.3996375E-03  0.8736337E+03  0.7818609E-02  0.9459154E-01
        4   -1    0    0  501    0  0.00000000000E+00  0.00000000000E+00  0.13091666890E+04  0.13091673050E+04  0.12699999809E+01 0. -1.
       -4   -1    0    0    0  501  0.00000000000E+00  0.00000000000E+00 -0.14574498748E+03  0.14575052067E+03  0.12699999809E+01 0.  1.
    10030    2    1    2    0    0  0.00000000000E+00  0.00000000000E+00  0.11634217015E+04  0.14549178257E+04  0.87363368976E+03 0.  0.
        4    1    3    3  502    0 -0.35964293202E+03 -0.23138130056E+03  0.43343737326E+03  0.60889236671E+03  0.12699999809E+01 0.  1.
       -4    1    3    3    0  502  0.35964293202E+03  0.23138130056E+03  0.72998432825E+03  0.84602545895E+03  0.12699999809E+01 0. -1.
</event>
<event>
 5   0  0.6015709E-03  0.9030610E+03  0.7818609E-02  0.9421763E-01
       -1   -1    0    0    0  501  0.00000000000E+00  0.00000000000E+00  0.50760255070E+03  0.50760255072E+03  0.50400001928E-02 0. -1.
        1   -1    0    0  501    0  0.00000000000E+00  0.00000000000E+00 -0.40165240238E+03  0.40165240242E+03  0.50400001928E-02 0.  1.
    10030    2    1    2    0    0  0.00000000000E+00  0.00000000000E+00  0.10595014831E+03  0.90925495314E+03  0.90306098126E+03 0.  0.
        3    1    3    3  502    0  0.13882490062E+03 -0.22301013636E+03 -0.31679567661E+03  0.41154025912E+03  0.10100000352E+00 0.  1.
       -3    1    3    3    0  502 -0.13882490062E+03  0.22301013636E+03  0.42274582493E+03  0.49771469402E+03  0.10100000352E+00 0. -1.
</event>
<event>
 5   0  0.1017079E-02  0.8679024E+03  0.7818609E-02  0.9466619E-01
       -2   -1    0    0    0  501  0.00000000000E+00  0.00000000000E+00  0.21977175043E+03  0.21977175044E+03  0.25500000920E-02 0.  1.
        2   -1    0    0  501    0  0.00000000000E+00  0.00000000000E+00 -0.85686001157E+03  0.85686001157E+03  0.25500000920E-02 0. -1.
    10030    2    1    2    0    0  0.00000000000E+00  0.00000000000E+00 -0.63708826114E+03  0.10766317620E+04  0.86790235539E+03 0.  0.
        1    1    3    3  502    0 -0.24011208662E+03  0.33701065202E+03 -0.48068272749E+03  0.63426010300E+03  0.50400001928E-02 0. -1.
       -1    1    3    3    0  502  0.24011208662E+03 -0.33701065202E+03 -0.15640553364E+03  0.44237165901E+03  0.50400001928E-02 0.  1.
</event>
<event>
 5   0  0.6015709E-03  0.9002563E+03  0.7818609E-02  0.9425261E-01
        1   -1    0    0  501    0  0.00000000000E+00  0.00000000000E+00  0.86401094567E+03  0.86401094568E+03  0.50400001928E-02 0.  1.
       -1   -1    0    0    0  501  0.00000000000E+00  0.00000000000E+00 -0.23450551729E+03  0.23450551735E+03  0.50400001928E-02 0. -1.
    10030    2    1    2    0    0  0.00000000000E+00  0.00000000000E+00  0.62950542837E+03  0.10985164630E+04  0.90025626085E+03 0.  0.
        3    1    3    3  502    0  0.27288009541E+03  0.27889065741E+03  0.40889272731E+02  0.39232064448E+03  0.10100000352E+00 0. -1.
       -3    1    3    3    0  502 -0.27288009541E+03 -0.27889065741E+03  0.58861615564E+03  0.70619581855E+03  0.10100000352E+00 0.  1.
</event>
<event>
 5   0  0.1003252E-02  0.8881331E+03  0.7818609E-02  0.9440538E-01
        2   -1    0    0  501    0  0.00000000000E+00  0.00000000000E+00  0.75218225812E+03  0.75218225813E+03  0.25500000920E-02 0. -1.
       -2   -1    0    0    0  501  0.00000000000E+00  0.00000000000E+00 -0.26216397627E+03  0.26216397628E+03  0.25500000920E-02 0.  1.
    10030    2    1    2    0    0  0.00000000000E+00  0.00000000000E+00  0.49001828186E+03  0.10143462344E+04  0.88813307939E+03 0.  0.
        2    1    3    3  502    0  0.30390979612E+03 -0.10047381693E+03 -0.10652898644E+03  0.33734933974E+03  0.25500000920E-02 0.  1.
       -2    1    3    3    0  502 -0.30390979612E+03  0.10047381693E+03  0.59654726830E+03  0.67699689466E+03  0.25500000920E-02 0. -1.
</event>
<event>
 5   0  0.1028978E-02  0.9049915E+03  0.7818609E-02  0.9419363E-01
       -2   -1    0    0    0  501  0.00000000000E+00  0.00000000000E+00  0.22588882470E+03  0.22588882471E+03  0.25500000920E-02 0. -1.
        2   -1    0    0  501    0  0.00000000000E+00  0.00000000000E+00 -0.90643005446E+03  0.90643005446E+03  0.25500000920E-02 0.  1.
    10030    2    1    2    0    0  0.00000000000E+00  0.00000000000E+00 -0.68054122976E+03  0.11323188792E+04  0.90499153517E+03 0.  0.
        3    1    3    3  502    0  0.51598409053E+01  0.18544552370E+03 -0.85665978589E+03  0.87651735019E+03  0.10100000352E+00 0.  1.
       -3    1    3    3    0  502 -0.51598409053E+01 -0.18544552370E+03  0.17611855612E+03  0.25580152899E+03  0.10100000352E+00 0. -1.
</event>
<event>
 5   0  0.1017079E-02  0.9103262E+03  0.7818609E-02  0.9412764E-01
       -2   -1    0    0    0  501  0.00000000000E+00  0.00000000000E+00  0.24192729122E+03  0.24192729124E+03  0.25500000920E-02 0.  1.
        2   -1    0    0  501    0  0.00000000000E+00  0.00000000000E+00 -0.85634593013E+03  0.85634593013E+03  0.25500000920E-02 0. -1.
    10030    2    1    2    0    0  0.00000000000E+00  0.00000000000E+00 -0.61441863890E+03  0.10982732214E+04  0.91032620798E+03 0.  0.
        1    1    3    3  502    0 -0.41106979083E+03 -0.16078585527E+03 -0.44124594466E+03  0.62412214181E+03  0.50400001928E-02 0.  1.
       -1    1    3    3    0  502  0.41106979083E+03  0.16078585527E+03 -0.17317269425E+03  0.47415107956E+03  0.50400001928E-02 0. -1.
</event>
<event>
 5   0  0.1033749E-02  0.8982312E+03  0.7818609E-02  0.9427795E-01
        2   -1    0    0  501    0  0.00000000000E+00  0.00000000000E+00  0.89865925055E+03  0.89865925056E+03  0.25500000920E-02 0. -1.
       -2   -1    0    0    0  501  0.00000000000E+00  0.00000000000E+00 -0.22445084256E+03  0.22445084258E+03  0.25500000920E-02 0.  1.
    10030    2    1    2    0    0  0.00000000000E+00  0.00000000000E+00  0.67420840799E+03  0.11231100931E+04  0.89823120849E+03 0.  0.
        5    1    3    3  502    0 -0.27570135708E+03  0.27873667171E+03  0.61097920257E+03  0.72596352968E+03  0.46999998093E+01 0.  1.
       -5    1    3    3    0  502  0.27570135708E+03 -0.27873667171E+03  0.63229205423E+02  0.39714656346E+03  0.46999998093E+01 0. -1.
</event>
<event>
 5   0  0.6137243E-03  0.8795551E+03  0.7818609E-02  0.9451506E-01
        1   -1    0    0  501    0  0.00000000000E+00  0.00000000000E+00  0.85325791590E+03  0.85325791592E+03  0.50400001928E-02 0.  1.
       -1   -1    0    0    0  501  0.00000000000E+00  0.00000000000E+00 -0.22666568134E+03  0.22666568140E+03  0.50400001928E-02 0. -1.
    10030    2    1    2    0    0  0.00000000000E+00  0.00000000000E+00  0.62659223456E+03  0.10799235973E+04  0.87955508505E+03 0.  0.
        4    1    3    3  502    0 -0.23172055537E+03 -0.33418890275E+03  0.10774926936E+03  0.42069960357E+03  0.12699999809E+01 0. -1.
       -4    1    3    3    0  502  0.23172055537E+03  0.33418890275E+03  0.51884296519E+03  0.65922399375E+03  0.12699999809E+01 0.  1.
</event>
<event>
 5   0  0.6211218E-03  0.8989713E+03  0.7818609E-02  0.9426868E-01
        1   -1    0    0  501    0  0.00000000000E+00  0.00000000000E+00  0.33023564140E+03  0.33023564144E+03  0.50400001928E-02 0. -1.
       -1   -1    0    0    0  501  0.00000000000E+00  0.00000000000E+00 -0.61179758349E+03  0.61179758351E+03  0.50400001928E-02 0.  1.
    10030    2    1    2    0    0  0.00000000000E+00  0.00000000000E+00 -0.28156194209E+03  0.94203322495E+03  0.89897133975E+03 0.  0.
        5    1    3    3  502    0 -0.28174657322E+03  0.15434647680E+03  0.18861911247E+03  0.37256304971E+03  0.46999998093E+01 0. -1.
       -5    1    3    3    0  502  0.28174657322E+03 -0.15434647680E+03 -0.47018105456E+03  0.56947017524E+03  0.46999998093E+01 0.  1.
</event>
<event>
 5   0  0.3996375E-03  0.8724822E+03  0.7818609E-02  0.9460649E-01
       -3   -1    0    0    0  501  0.00000000000E+00  0.00000000000E+00  0.73608396917E+03  0.73608397610E+03  0.10100000352E+00 0. -1.
        3   -1    0    0  501    0  0.00000000000E+00  0.00000000000E+00 -0.25853881946E+03  0.25853883919E+03  0.10100000352E+00 0.  1.
    10030    2    1    2    0    0  0.00000000000E+00  0.00000000000E+00  0.47754514970E+03  0.99462281529E+03  0.87248219161E+03 0.  0.
        5    1    3    3  502    0  0.98162143191E+02  0.42487413464E+03  0.22575632918E+03  0.49106195821E+03  0.46999998093E+01 0.  1.
       -5    1    3    3    0  502 -0.98162143191E+02 -0.42487413464E+03  0.25178882052E+03  0.50356085707E+03  0.46999998093E+01 0. -1.
</event>
<event>
 5   0  0.1041727E-02  0.9019215E+03  0.7818609E-02  0.9423183E-01
       -2   -1    0    0    0  501  0.00000000000E+00  0.00000000000E+00  0.12832665556E+03  0.12832665559E+03  0.25500000920E-02 0.  1.
        2   -1    0    0  501    0  0.00000000000E+00  0.00000000000E+00 -0.15847494575E+04  0.15847494575E+04  0.25500000920E-02 0. -1.
    10030    2    1    2    0    0  0.00000000000E+00  0.00000000000E+00 -0.14564228019E+04  0.17130761131E+04  0.90192149947E+03 0.  0.
        4    1    3    3  502    0 -0.95199657025E+01 -0.26488667008E+02 -0.15830759597E+04  0.15833266834E+04  0.12699999809E+01 0. -1.
       -4    1    3    3    0  502  0.95199657025E+01  0.26488667008E+02  0.12665315778E+03  0.12974942968E+03  0.12699999809E+01 0.  1.
</event>
<event>
 5   0  0.6137243E-03  0.8976427E+03  0.7818609E-02  0.9428533E-01
        1   -1    0    0  501    0  0.00000000000E+00  0.00000000000E+00  0.91232331246E+03  0.91232331247E+03  0.50400001928E-02 0.  1.
       -1   -1    0    0    0  501  0.00000000000E+00  0.00000000000E+00 -0.22079958678E+03  0.22079958684E+03  0.50400001928E-02 0. -1.
    10030    2    1    2    0    0  0.00000000000E+00  0.00000000000E+00  0.69152372568E+03  0.11331228993E+04  0.89764271387E+03 0.  0.
        4    1    3    3  502    0  0.24169488181E+03 -0.35776142218E+03  0.50051645822E+03  0.66100528662E+03  0.12699999809E+01 0. -1.
       -4    1    3    3    0  502 -0.24169488181E+03  0.35776142218E+03  0.19100726746E+03  0.47211761269E+03  0.12699999809E+01 0.  1.
</event>
<event>
 5   0  0.3996375E-03  0.8748619E+03  0.7818609E-02  0.9457563E-01
       -3   -1    0    0    0  501  0.00000000000E+00  0.00000000000E+00  0.32764823319E+03  0.32764824875E+03  0.10100000352E+00 0.  1.
        3   -1    0    0  501    0  0.00000000000E+00  0.00000000000E+00 -0.58399769746E+03  0.58399770619E+03  0.10100000352E+00 0. -1.
    10030    2    1    2    0    0  0.00000000000E+00  0.00000000000E+00 -0.25634946427E+03  0.91164595495E+03  0.87486187443E+03 0.  0.
        5    1    3    3  502    0 -0.16875577552E+03  0.10844564562E+03 -0.53321393082E+03  0.56971761061E+03  0.46999998093E+01 0. -1.
       -5    1    3    3    0  502  0.16875577552E+03 -0.10844564562E+03  0.27686446655E+03  0.34192834434E+03  0.46999998093E+01 0.  1.
</event>
<event>
 5   0  0.6288003E-03  0.9077036E+03  0.7818609E-02  0.9416002E-01
        1   -1    0    0  501    0  0.00000000000E+00  0.00000000000E+00  0.20893655133E+03  0.20893655139E+03  0.50400001928E-02 0.  1.
       -1   -1    0    0    0  501  0.00000000000E+00  0.00000000000E+00 -0.98585648668E+03  0.98585648670E+03  0.50400001928E-02 0. -1.
    10030    2    1    2    0    0  0.00000000000E+00  0.00000000000E+00 -0.77691993535E+03  0.11947930381E+04  0.90770359585E+03 0.  0.
        1    1    3    3  502    0  0.18706041560E+03 -0.29987528042E+03 -0.13690293468E+02  0.35370073092E+03  0.50400001928E-02 0.  1.
       -1    1    3    3    0  502 -0.18706041560E+03  0.29987528042E+03 -0.76322964189E+03  0.84109230717E+03  0.50400001928E-02 0. -1.
</event>
<event>
 5   0  0.1017079E-02  0.8954685E+03  0.7818609E-02  0.9431264E-01
       -2   -1    0    0    0  501  0.00000000000E+00  0.00000000000E+00  0.29142750451E+03  0.29142750452E+03  0.25500000920E-02 0. -1.
        2   -1    0    0  501    0  0.00000000000E+00  0.00000000000E+00 -0.68787597260E+03  0.68787597260E+03  0.25500000920E-02 0.  1.
    10030    2    1    2    0    0  0.00000000000E+00  0.00000000000E+00 -0.39644846809E+03  0.97930347713E+03  0.89546854354E+03 0.  0.
        1    1    3    3  502    0 -0.34107456060E+03  0.17591983639E+03 -0.45043695523E+03  0.59175425252E+03  0.50400001928E-02 0.  1.
       -1    1    3    3    0  502  0.34107456060E+03 -0.17591983639E+03  0.53988487139E+02  0.38754922460E+03  0.50400001928E-02 0. -1.
</event>
<event>
 5   0  0.6211218E-03  0.9108939E+03  0.7818609E-02  0.9412065E-01
       -1   -1    0    0    0  501  0.00000000000E+00  0.00000000000E+00  0.34176671570E+03  0.34176671574E+03  0.50400001928E-02 0.  1.
        1   -1    0    0  501    0  0.00000000000E+00  0.00000000000E+00 -0.60694010342E+03  0.60694010344E+03  0.50400001928E-02 0. -1.
    10030    2    1    2    0    0  0.00000000000E+00  0.00000000000E+00 -0.26517338772E+03  0.94870681918E+03  0.91089390337E+03 0.  0.
        5    1    3    3  502    0  0.27735429073E+03  0.23243263448E+03  0.15540500125E+03  0.39385674626E+03  0.46999998093E+01 0.  1.
       -5    1    3    3    0  502 -0.27735429073E+03 -0.23243263448E+03 -0.42057838896E+03  0.55485007292E+03  0.46999998093E+01 0. -1.
</event>
<event>
 5   0  0.1041727E-02  0.8622529E+03  0.7818609E-02  0.9474038E-01
        2   -1    0    0  501    0  0.00000000000E+00  0.00000000000E+00  0.50313524993E+03  0.50313524994E+03  0.25500000920E-02 0.  1.
       -2   -1    0    0    0  501  0.00000000000E+00  0.00000000000E+00 -0.36942356098E+03  0.36942356098E+03  0.25500000920E-02 0. -1.
    10030    2    1    2    0    0  0.00000000000E+00  0.00000000000E+00  0.13371168896E+03  0.87255881092E+03  0.86225289954E+03 0.  0.
        4    1    3    3  502    0 -0.23819513002E+03  0.14972025216E+03 -0.26372177540E+03  0.38562139670E+03  0.12699999809E+01 0. -1.
       -4    1    3    3    0  502  0.23819513002E+03 -0.14972025216E+03  0.39743346436E+03  0.48693741422E+03  0.12699999809E+01 0.  1.
</event>
<event>
 5   0  0.1017079E-02  0.8876054E+03  0.7818609E-02  0.9441209E-01
        2   -1    0    0  501    0  0.00000000000E+00  0.00000000000E+00  0.43042842377E+03  0.43042842378E+03  0.25500000920E-02 0.  1.
       -2   -1    0    0    0  501  0.00000000000E+00  0.00000000000E+00 -0.45759256510E+03  0.45759256511E+03  0.25500000920E-02 0. -1.
    10030    2    1    2    0    0  0.00000000000E+00  0.00000000000E+00 -0.27164141325E+02  0.88802098889E+03  0.88760542255E+03 0.  0.
        1    1    3    3  502    0  0.34329174058E+02 -0.33057919934E+03  0.28066402116E+03  0.43500964590E+03  0.50400001928E-02 0.  1.
       -1    1    3    3    0  502 -0.34329174058E+02  0.33057919934E+03 -0.30782816249E+03  0.45301134299E+03  0.50400001928E-02 0. -1.
</event>
<event>
 5   0  0.1028978E-02  0.8983087E+03  0.7818609E-02  0.9427698E-01
       -2   -1    0    0    0  501  0.00000000000E+00  0.00000000000E+00  0.24842623152E+03  0.24842623154E+03  0.25500000920E-02 0.  1.
        2   -1    0    0  501    0  0.00000000000E+00  0.00000000000E+00 -0.81207049140E+03  0.81207049140E+03  0.25500000920E-02 0. -1.
    10030    2    1    2    0    0  0.00000000000E+00  0.00000000000E+00 -0.56364425988E+03  0.10604967229E+04  0.89830865947E+03 0.  0.
        3    1    3    3  502    0 -0.30364373248E+03 -0.21895908355E+03  0.11175119498E+02  0.37452301670E+03  0.10100000352E+00 0.  1.
       -3    1    3    3    0  502  0.30364373248E+03  0.21895908355E+03 -0.57481937937E+03  0.68597370624E+03  0.10100000352E+00 0. -1.
</event>
<event>
 5   0  0.1003252E-02  0.8741138E+03  0.7818609E-02  0.9458532E-01
        2   -1    0    0  501    0  0.00000000000E+00  0.00000000000E+00  0.48915721852E+03  0.48915721853E+03  0.25500000920E-02 0. -1.
       -2   -1    0    0    0  501  0.00000000000E+00  0.00000000000E+00 -0.39050578753E+03  0.39050578754E+03  0.25500000920E-02 0.  1.
    10030    2    1    2    0    0  0.00000000000E+00  0.00000000000E+00  0.98651430997E+02  0.87966300607E+03  0.87411377944E+03 0.  0.
        2    1    3    3  502    0  0.32255459339E+02 -0.42636355040E+03  0.14041238294E+03  0.45004658543E+03  0.25500000920E-02 0.  1.
       -2    1    3    3    0  502 -0.32255459339E+02  0.42636355040E+03 -0.41760951945E+02  0.42961642064E+03  0.25500000920E-02 0. -1.
</event>
<event>
 5   0  0.1017079E-02  0.8954353E+03  0.7818609E-02  0.9431306E-01
       -2   -1    0    0    0  501  0.00000000000E+00  0.00000000000E+00  0.17812578508E+03  0.17812578510E+03  0.25500000920E-02 0.  1.
        2   -1    0    0  501    0  0.00000000000E+00  0.00000000000E+00 -0.11253345180E+04  0.11253345180E+04  0.25500000920E-02 0. -1.
    10030    2    1    2    0    0  0.00000000000E+00  0.00000000000E+00 -0.94720873293E+03  0.13034603031E+04  0.89543530088E+03 0.  0.
        1    1    3    3  502    0 -0.25036312729E+03  0.19339279832E+03 -0.12432735325E+02  0.31660234187E+03  0.50400001928E-02 0.  1.
       -1    1    3    3    0  502  0.25036312729E+03 -0.19339279832E+03 -0.93477599760E+03  0.98685796124E+03  0.50400001928E-02 0. -1.
</event>
<event>
 5   0  0.1033749E-02  0.9007933E+03  0.7818609E-02  0.9424590E-01
        2   -1    0    0  501    0  0.00000000000E+00  0.00000000000E+00  0.20125616968E+04  0.20125616968E+04  0.25500000920E-02 0. -1.
       -2   -1    0    0    0  501  0.00000000000E+00  0.00000000000E+00 -0.10079548216E+03  0.10079548219E+03  0.25500000920E-02 0.  1.
    10030    2    1    2    0    0  0.00000000000E+00  0.00000000000E+00  0.19117662146E+04  0.21133571790E+04  0.90079326516E+03 0.  0.
        5    1    3    3  502    0  0.29231833643E+03 -0.97518814943E+02  0.17264465369E+04  0.17537387673E+04  0.46999998093E+01 0.  1.
       -5    1    3    3    0  502 -0.29231833643E+03  0.97518814943E+02  0.18531967773E+03  0.35961841170E+03  0.46999998093E+01 0. -1.
</event>
<event>
 5   0  0.1003252E-02  0.9133262E+03  0.7818609E-02  0.9409075E-01
       -2   -1    0    0    0  501  0.00000000000E+00  0.00000000000E+00  0.28320988901E+03  0.28320988902E+03  0.25500000920E-02 0. -1.
        2   -1    0    0  501    0  0.00000000000E+00  0.00000000000E+00 -0.73634850966E+03  0.73634850966E+03  0.25500000920E-02 0.  1.
    10030    2    1    2    0    0  0.00000000000E+00  0.00000000000E+00 -0.45313862065E+03  0.10195583987E+04  0.91332618422E+03 0.  0.
        2    1    3    3  502    0 -0.10600591497E+03  0.41949762142E+03 -0.38958805834E+03  0.58223222480E+03  0.25500000920E-02 0.  1.
       -2    1    3    3    0  502  0.10600591497E+03 -0.41949762142E+03 -0.63550562316E+02  0.43732617388E+03  0.25500000920E-02 0. -1.
</event>
<event>
 5   0  0.6015709E-03  0.8938386E+03  0.7818609E-02  0.9433316E-01
       -1   -1    0    0    0  501  0.00000000000E+00  0.00000000000E+00  0.21342168150E+03  0.21342168156E+03  0.50400001928E-02 0. -1.
        1   -1    0    0  501    0  0.00000000000E+00  0.00000000000E+00 -0.93587899825E+03  0.93587899826E+03  0.50400001928E-02 0.  1.
    10030    2    1    2    0    0  0.00000000000E+00  0.00000000000E+00 -0.72245731675E+03  0.11493006798E+04  0.89383861973E+03 0.  0.
        3    1    3    3  502    0 -0.41475411482E+03 -0.20391248922E+02 -0.14877876740E+03  0.44110306123E+03  0.10100000352E+00 0. -1.
       -3    1    3    3    0  502  0.41475411482E+03  0.20391248922E+02 -0.57367854935E+03  0.70819761860E+03  0.10100000352E+00 0.  1.
</event>
<event>
 5   0  0.6288003E-03  0.8991400E+03  0.7818609E-02  0.9426657E-01
       -1   -1    0    0    0  501  0.00000000000E+00  0.00000000000E+00  0.25788562283E+03  0.25788562288E+03  0.50400001928E-02 0.  1.
        1   -1    0    0  501    0  0.00000000000E+00  0.00000000000E+00 -0.78373190377E+03  0.78373190379E+03  0.50400001928E-02 0. -1.
    10030    2    1    2    0    0  0.00000000000E+00  0.00000000000E+00 -0.52584628094E+03  0.10416175267E+04  0.89914001173E+03 0.  0.
        1    1    3    3  502    0  0.22709342519E+03 -0.29361694409E+03 -0.55674941022E+03  0.66914291405E+03  0.50400001928E-02 0.  1.
       -1    1    3    3    0  502 -0.22709342519E+03  0.29361694409E+03  0.30903129279E+02  0.37247461262E+03  0.50400001928E-02 0. -1.
</event>
<event>
 5   0  0.1003252E-02  0.8956127E+03  0.7818609E-02  0.9431082E-01
       -2   -1    0    0    0  501  0.00000000000E+00  0.00000000000E+00  0.80914952947E+03  0.80914952947E+03  0.25500000920E-02 0. -1.
        2   -1    0    0  501    0  0.00000000000E+00  0.00000000000E+00 -0.24782874775E+03  0.24782874777E+03  0.25500000920E-02 0.  1.
    10030    2    1    2    0    0  0.00000000000E+00  0.00000000000E+00  0.56132078171E+03  0.10569782772E+04  0.89561267218E+03 0.  0.
        2    1    3    3  502    0 -0.43809574450E+03  0.41888552254E+02  0.37832273680E+03  0.58035387941E+03  0.25500000920E-02 0. -1.
       -2    1    3    3    0  502  0.43809574450E+03 -0.41888552254E+02  0.18299804491E+03  0.47662439783E+03  0.25500000920E-02 0.  1.
</event>
<event>
 5   0  0.1033749E-02  0.9054094E+03  0.7818609E-02  0.9418845E-01
       -2   -1    0    0    0  501  0.00000000000E+00  0.00000000000E+00  0.19501922924E+03  0.19501922925E+03  0.25500000920E-02 0.  1.
        2   -1    0    0  501    0  0.00000000000E+00  0.00000000000E+00 -0.10508785659E+04  0.10508785659E+04  0.25500000920E-02 0. -1.
    10030    2    1    2    0    0  0.00000000000E+00  0.00000000000E+00 -0.85585933667E+03  0.12458977952E+04  0.90540936146E+03 0.  0.
        5    1    3    3  502    0  0.25877678607E+03 -0.31612493029E+03 -0.15961895250E+03  0.43863503799E+03  0.46999998093E+01 0.  1.
       -5    1    3    3    0  502 -0.25877678607E+03  0.31612493029E+03 -0.69624038417E+03  0.80726275717E+03  0.46999998093E+01 0. -1.
</event>
<event>
 5   0  0.1033749E-02  0.9066864E+03  0.7818609E-02  0.9417262E-01
       -2   -1    0    0    0  501  0.00000000000E+00  0.00000000000E+00  0.71687180756E+03  0.71687180757E+03  0.25500000920E-02 0. -1.
        2   -1    0    0  501    0  0.00000000000E+00  0.00000000000E+00 -0.28669009485E+03  0.28669009486E+03  0.25500000920E-02 0.  1.
    10030    2    1    2    0    0  0.00000000000E+00  0.00000000000E+00  0.43018171271E+03  0.10035619024E+04  0.90668637689E+03 0.  0.
        5    1    3    3  502    0  0.28731636742E+03  0.30264330116E+03  0.19100100708E+02  0.41776855622E+03  0.46999998093E+01 0.  1.
       -5    1    3    3    0  502 -0.28731636742E+03 -0.30264330116E+03  0.41108161201E+03  0.58579334620E+03  0.46999998093E+01 0. -1.
</event>
<event>
 5   0  0.6137243E-03  0.9032168E+03  0.7818609E-02  0.9421569E-01
        1   -1    0    0  501    0  0.00000000000E+00  0.00000000000E+00  0.58271635079E+03  0.58271635081E+03  0.50400001928E-02 0. -1.
       -1   -1    0    0    0  501  0.00000000000E+00  0.00000000000E+00 -0.34999903377E+03  0.34999903381E+03  0.50400001928E-02 0.  1.
    10030    2    1    2    0    0  0.00000000000E+00  0.00000000000E+00  0.23271731702E+03  0.93271538462E+03  0.90321682837E+03 0.  0.
        4    1    3    3  502    0  0.18618284185E+03  0.38205692182E+03 -0.41327473530E+02  0.42701418604E+03  0.12699999809E+01 0.  1.
       -4    1    3    3    0  502 -0.18618284185E+03 -0.38205692182E+03  0.27404479055E+03  0.50570119857E+03  0.12699999809E+01 0. -1.
</event>
<event>
 5   0  0.6211218E-03  0.8031478E+03  0.7818609E-02  0.9555472E-01
       -1   -1    0    0    0  501  0.00000000000E+00  0.00000000000E+00  0.13278347838E+03  0.13278347848E+03  0.50400001928E-02 0. -1.
        1   -1    0    0  501    0  0.00000000000E+00  0.00000000000E+00 -0.12144702039E+04  0.12144702040E+04  0.50400001928E-02 0.  1.
    10030    2    1    2    0    0  0.00000000000E+00  0.00000000000E+00 -0.10816867256E+04  0.13472536824E+04  0.80314775264E+03 0.  0.
        5    1    3    3  502    0  0.22321411664E+03 -0.22336656964E+02 -0.10995078555E+04  0.11221689189E+04  0.46999998093E+01 0.  1.
       -5    1    3    3    0  502 -0.22321411664E+03  0.22336656964E+02  0.17821129974E+02  0.22508476355E+03  0.46999998093E+01 0. -1.
</event>
<event>
 5   0  0.1017079E-02  0.9011555E+03  0.7818609E-02  0.9424138E-01
       -2   -1    0    0    0  501  0.00000000000E+00  0.00000000000E+00  0.11310486403E+03  0.11310486406E+03  0.25500000920E-02 0. -1.
        2   -1    0    0  501    0  0.00000000000E+00  0.00000000000E+00 -0.17949742382E+04  0.17949742382E+04  0.25500000920E-02 0.  1.
    10030    2    1    2    0    0  0.00000000000E+00  0.00000000000E+00 -0.16818693742E+04  0.19080791023E+04  0.90115551860E+03 0.  0.
        1    1    3    3  502    0 -0.45703344309E+02  0.34717687750E+03 -0.24055782999E+03  0.42483955742E+03  0.50400001928E-02 0.  1.
       -1    1    3    3    0  502  0.45703344309E+02 -0.34717687750E+03 -0.14413115442E+04  0.14832395449E+04  0.50400001928E-02 0. -1.
</event>
<event>
 5   0  0.1041727E-02  0.8911964E+03  0.7818609E-02  0.9436654E-01
        2   -1    0    0  501    0  0.00000000000E+00  0.00000000000E+00  0.14607181781E+04  0.14607181781E+04  0.25500000920E-02 0.  1.
       -2   -1    0    0    0  501  0.00000000000E+00  0.00000000000E+00 -0.13593158497E+03  0.13593158500E+03  0.25500000920E-02 0. -1.
    10030    2    1    2    0    0  0.00000000000E+00  0.00000000000E+00  0.13247865932E+04  0.15966497631E+04  0.89119635811E+03 0.  0.
        4    1    3    3  502    0 -0.20631913900E+03  0.14259420041E+03  0.25286652463E+01  0.25081606838E+03  0.12699999809E+01 0. -1.
       -4    1    3    3    0  502  0.20631913900E+03 -0.14259420041E+03  0.13222579279E+04  0.13458336948E+04  0.12699999809E+01 0.  1.
</event>
<event>
 5   0  0.1003252E-02  0.8983587E+03  0.7818609E-02  0.9427635E-01
       -2   -1    0    0    0  501  0.00000000000E+00  0.00000000000E+00  0.21750415810E+03  0.21750415812E+03  0.25500000920E-02 0. -1.
        2   -1    0    0  501    0  0.00000000000E+00  0.00000000000E+00 -0.92762406743E+03  0.92762406743E+03  0.25500000920E-02 0.  1.
    10030    2    1    2    0    0  0.00000000000E+00  0.00000000000E+00 -0.71011990933E+03  0.11451282255E+04  0.89835870749E+03 0.  0.
        2    1    3    3  502    0 -0.33322831364E+02 -0.20357432923E+03  0.15355412852E+03  0.25716101766E+03  0.25500000920E-02 0. -1.
       -2    1    3    3    0  502  0.33322831364E+02  0.20357432923E+03 -0.86367403785E+03  0.88796720788E+03  0.25500000920E-02 0.  1.
</event>
<event>
 5   0  0.1003252E-02  0.8962726E+03  0.7818609E-02  0.9430253E-01
        2   -1    0    0  501    0  0.00000000000E+00  0.00000000000E+00  0.52391725078E+03  0.52391725079E+03  0.25500000920E-02 0.  1.
       -2   -1    0    0    0  501  0.00000000000E+00  0.00000000000E+00 -0.38331649969E+03  0.38331649970E+03  0.25500000920E-02 0. -1.
    10030    2    1    2    0    0  0.00000000000E+00  0.00000000000E+00  0.14060075109E+03  0.90723375048E+03  0.89627256279E+03 0.  0.
        2    1    3    3  502    0  0.18870790243E+03  0.11634022027E+03  0.46452508317E+03  0.51471280555E+03  0.25500000920E-02 0.  1.
       -2    1    3    3    0  502 -0.18870790243E+03 -0.11634022027E+03 -0.32392433208E+03  0.39252094493E+03  0.25500000920E-02 0. -1.
</event>
<event>
 5   0  0.3996375E-03  0.9006525E+03  0.7818609E-02  0.9424766E-01
       -4   -1    0    0    0  501  0.00000000000E+00  0.00000000000E+00  0.36710716927E+03  0.36710936603E+03  0.12699999809E+01 0.  1.
        4   -1    0    0  501    0  0.00000000000E+00  0.00000000000E+00 -0.55240559308E+03  0.55240705297E+03  0.12699999809E+01 0. -1.
    10030    2    1    2    0    0  0.00000000000E+00  0.00000000000E+00 -0.18529842381E+03  0.91951641900E+03  0.90065250732E+03 0.  0.
        1    1    3    3  502    0 -0.45434631060E+02 -0.41989965082E+02 -0.54804809094E+03  0.55152894110E+03  0.50400001928E-02 0. -1.
       -1    1    3    3    0  502  0.45434631060E+02  0.41989965082E+02  0.36274966713E+03  0.36798747790E+03  0.50400001928E-02 0.  1.
</event>
<event>
 5   0  0.6015709E-03  0.8948573E+03  0.7818609E-02  0.9432033E-01
       -1   -1    0    0    0  501  0.00000000000E+00  0.00000000000E+00  0.33834962780E+03  0.33834962784E+03  0.50400001928E-02 0. -1.
        1   -1    0    0  501    0  0.00000000000E+00  0.00000000000E+00 -0.59167312161E+03  0.59167312164E+03  0.50400001928E-02 0.  1.
    10030    2    1    2    0    0  0.00000000000E+00  0.00000000000E+00 -0.25332349381E+03  0.93002274948E+03  0.89485726349E+03 0.  0.
        3    1    3    3  502    0 -0.16812674996E+03  0.39107440200E+03 -0.26986838765E+03  0.50401859966E+03  0.10100000352E+00 0.  1.
       -3    1    3    3    0  502  0.16812674996E+03 -0.39107440200E+03  0.16544893833E+02  0.42600414982E+03  0.10100000352E+00 0. -1.
</event>
<event>
 5   0  0.1033749E-02  0.9050769E+03  0.7818609E-02  0.9419257E-01
       -2   -1    0    0    0  501  0.00000000000E+00  0.00000000000E+00  0.11354825988E+03  0.11354825991E+03  0.25500000920E-02 0.  1.
        2   -1    0    0  501    0  0.00000000000E+00  0.00000000000E+00 -0.18035597087E+04  0.18035597087E+04  0.25500000920E-02 0. -1.
    10030    2    1    2    0    0  0.00000000000E+00  0.00000000000E+00 -0.16900114488E+04  0.19171079686E+04  0.90507693937E+03 0.  0.
        5    1    3    3  502    0  0.37177482930E+02  0.41210436439E+03 -0.12330232747E+04  0.13006078034E+04  0.46999998093E+01 0. -1.
       -5    1    3    3    0  502 -0.37177482930E+02 -0.41210436439E+03 -0.45698817412E+03  0.61650016518E+03  0.46999998093E+01 0.  1.
</event>
<event>
 5   0  0.1017079E-02  0.8754822E+03  0.7818609E-02  0.9456760E-01
        2   -1    0    0  501    0  0.00000000000E+00  0.00000000000E+00  0.17299371887E+04  0.17299371887E+04  0.25500000920E-02 0.  1.
       -2   -1    0    0    0  501  0.00000000000E+00  0.00000000000E+00 -0.11076545954E+03  0.11076545957E+03  0.25500000920E-02 0. -1.
    10030    2    1    2    0    0  0.00000000000E+00  0.00000000000E+00  0.16191717291E+04  0.18407026482E+04  0.87548223900E+03 0.  0.
        1    1    3    3  502    0 -0.20410129361E+03  0.33595088319E+03  0.12145396111E+04  0.12765683690E+04  0.50400001928E-02 0.  1.
       -1    1    3    3    0  502  0.20410129361E+03 -0.33595088319E+03  0.40463211807E+03  0.56413427920E+03  0.50400001928E-02 0. -1.
</event>
<event>
 5   0  0.6137243E-03  0.9039241E+03  0.7818609E-02  0.9420689E-01
       -1   -1    0    0    0  501  0.00000000000E+00  0.00000000000E+00  0.27416576550E+03  0.27416576555E+03  0.50400001928E-02 0.  1.
        1   -1    0    0  501    0  0.00000000000E+00  0.00000000000E+00 -0.74505903944E+03  0.74505903945E+03  0.50400001928E-02 0. -1.
    10030    2    1    2    0    0  0.00000000000E+00  0.00000000000E+00 -0.47089327393E+03  0.10192248050E+04  0.90392407186E+03 0.  0.
        4    1    3    3  502    0 -0.13418683171E+03 -0.42037620453E+03 -0.12528143803E+03  0.45871484688E+03  0.12699999809E+01 0. -1.
       -4    1    3    3    0  502  0.13418683171E+03  0.42037620453E+03 -0.34561183590E+03  0.56050995812E+03  0.12699999809E+01 0.  1.
</event>
<event>
 5   0  0.6015709E-03  0.8983375E+03  0.7818609E-02  0.9427662E-01
       -1   -1    0    0    0  501  0.00000000000E+00  0.00000000000E+00  0.12924007428E+03  0.12924007438E+03  0.50400001928E-02 0. -1.
        1   -1    0    0  501    0  0.00000000000E+00  0.00000000000E+00 -0.15610682831E+04  0.15610682832E+04  0.50400001928E-02 0.  1.
    10030    2    1    2    0    0  0.00000000000E+00  0.00000000000E+00 -0.14318282089E+04  0.16903083575E+04  0.89833753336E+03 0.  0.
        3    1    3    3  502    0 -0.16933243325E+03 -0.94711814030E+02 -0.14781550757E+04  0.14908340748E+04  0.10100000352E+00 0.  1.
       -3    1    3    3    0  502  0.16933243325E+03  0.94711814030E+02  0.46326866836E+02  0.19947428270E+03  0.10100000352E+00 0. -1.
</event>
<event>
 5   0  0.1033749E-02  0.9003981E+03  0.7818609E-02  0.9425084E-01
        2   -1    0    0  501    0  0.00000000000E+00  0.00000000000E+00  0.11116081444E+04  0.11116081444E+04  0.25500000920E-02 0.  1.
       -2   -1    0    0    0  501  0.00000000000E+00  0.00000000000E+00 -0.18232971577E+03  0.18232971579E+03  0.25500000920E-02 0. -1.
    10030    2    1    2    0    0  0.00000000000E+00  0.00000000000E+00  0.92927842863E+03  0.12939378602E+04  0.90039812758E+03 0.  0.
        5    1    3    3  502    0 -0.28777448878E+03  0.25511556043E+03  0.12835491025E+03  0.40545675300E+03  0.46999998093E+01 0. -1.
       -5    1    3    3    0  502  0.28777448878E+03 -0.25511556043E+03  0.80092351838E+03  0.88848110721E+03  0.46999998093E+01 0.  1.
</event>
<event>
 5   0  0.1033749E-02  0.9124299E+03  0.7818609E-02  0.9410175E-01
       -2   -1    0    0    0  501  0.00000000000E+00  0.00000000000E+00  0.94606642587E+02  0.94606642621E+02  0.25500000920E-02 0.  1.
        2   -1    0    0  501    0  0.00000000000E+00  0.00000000000E+00 -0.21999733180E+04  0.21999733180E+04  0.25500000920E-02 0. -1.
    10030    2    1    2    0    0  0.00000000000E+00  0.00000000000E+00 -0.21053666754E+04  0.22945799606E+04  0.91242991936E+03 0.  0.
        5    1    3    3  502    0  0.14646413295E+03  0.42459400186E+03 -0.12535243637E+04  0.13315694608E+04  0.46999998093E+01 0. -1.
       -5    1    3    3    0  502 -0.14646413295E+03 -0.42459400186E+03 -0.85184231171E+03  0.96301049977E+03  0.46999998093E+01 0.  1.
</event>
<event>
 5   0  0.1003252E-02  0.8521776E+03  0.7818609E-02  0.9487419E-01
       -2   -1    0    0    0  501  0.00000000000E+00  0.00000000000E+00  0.10507382721E+03  0.10507382724E+03  0.25500000920E-02 0.  1.
        2   -1    0    0  501    0  0.00000000000E+00  0.00000000000E+00 -0.17278486924E+04  0.17278486924E+04  0.25500000920E-02 0. -1.
    10030    2    1    2    0    0  0.00000000000E+00  0.00000000000E+00 -0.16227748651E+04  0.18329225196E+04  0.85217762227E+03 0.  0.
        2    1    3    3  502    0 -0.31061119525E+03  0.31693759616E+02 -0.14350202959E+04  0.14685935648E+04  0.25500000920E-02 0. -1.
       -2    1    3    3    0  502  0.31061119525E+03 -0.31693759616E+02 -0.18775456928E+03  0.36432895480E+03  0.25500000920E-02 0.  1.
</event>
<event>
 5   0  0.1041727E-02  0.9045538E+03  0.7818609E-02  0.9419907E-01
       -2   -1    0    0    0  501  0.00000000000E+00  0.00000000000E+00  0.19705761243E+03  0.19705761245E+03  0.25500000920E-02 0.  1.
        2   -1    0    0  501    0  0.00000000000E+00  0.00000000000E+00 -0.10380436902E+04  0.10380436902E+04  0.25500000920E-02 0. -1.
    10030    2    1    2    0    0  0.00000000000E+00  0.00000000000E+00 -0.84098607776E+03  0.12351013026E+04  0.90455383742E+03 0.  0.
        4    1    3    3  502    0  0.18824578301E+03 -0.32118591037E+03 -0.77116020062E+03  0.85632151191E+03  0.12699999809E+01 0. -1.
       -4    1    3    3    0  502 -0.18824578301E+03  0.32118591037E+03 -0.69825877141E+02  0.37877979073E+03  0.12699999809E+01 0.  1.
</event>
<event>
 5   0  0.6288003E-03  0.9018638E+03  0.7818609E-02  0.9423255E-01
       -1   -1    0    0    0  501  0.00000000000E+00  0.00000000000E+00  0.10684751090E+04  0.10684751090E+04  0.50400001928E-02 0. -1.
        1   -1    0    0  501    0  0.00000000000E+00  0.00000000000E+00 -0.19030819543E+03  0.19030819550E+03  0.50400001928E-02 0.  1.
    10030    2    1    2    0    0  0.00000000000E+00  0.00000000000E+00  0.87816691359E+03  0.12587833045E+04  0.90186378109E+03 0.  0.
        1    1    3    3  502    0  0.43446762393E+03  0.25416739684E+02  0.60382687741E+03  0.74432185565E+03  0.50400001928E-02 0. -1.
       -1    1    3    3    0  502 -0.43446762393E+03 -0.25416739684E+02  0.27434003619E+03  0.51446144888E+03  0.50400001928E-02 0.  1.
</event>
<event>
 5   0  0.6288003E-03  0.8643905E+03  0.7818609E-02  0.9471224E-01
       -1   -1    0    0    0  501  0.00000000000E+00  0.00000000000E+00  0.32757403734E+03  0.32757403738E+03  0.50400001928E-02 0.  1.
        1   -1    0    0  501    0  0.00000000000E+00  0.00000000000E+00 -0.57023052615E+03  0.57023052618E+03  0.50400001928E-02 0. -1.
    10030    2    1    2    0    0  0.00000000000E+00  0.00000000000E+00 -0.24265648882E+03  0.89780456355E+03  0.86439045736E+03 0.  0.
        1    1    3    3  502    0 -0.34403852871E+03 -0.10593197917E+03  0.12710092603E+03  0.38175743460E+03  0.50400001928E-02 0.  1.
       -1    1    3    3    0  502  0.34403852871E+03  0.10593197917E+03 -0.36975741484E+03  0.51604712896E+03  0.50400001928E-02 0. -1.
</event>
<event>
 5   0  0.6015709E-03  0.9177699E+03  0.7818609E-02  0.9403637E-01
        1   -1    0    0  501    0  0.00000000000E+00  0.00000000000E+00  0.13822500997E+04  0.13822500997E+04  0.50400001928E-02 0. -1.
       -1   -1    0    0    0  501  0.00000000000E+00  0.00000000000E+00 -0.15234247053E+03  0.15234247061E+03  0.50400001928E-02 0.  1.
    10030    2    1    2    0    0  0.00000000000E+00  0.00000000000E+00  0.12299076292E+04  0.15345925703E+04  0.91776989523E+03 0.  0.
        3    1    3    3  502    0  0.96767300209E+02  0.97958108591E+02 -0.11698505298E+03  0.18067986675E+03  0.10100000352E+00 0.  1.
       -3    1    3    3    0  502 -0.96767300209E+02 -0.97958108591E+02  0.13468926822E+04  0.13539127036E+04  0.10100000352E+00 0. -1.
</event>
<event>
 5   0  0.1017079E-02  0.9021692E+03  0.7818609E-02  0.9422874E-01
       -2   -1    0    0    0  501  0.00000000000E+00  0.00000000000E+00  0.12723378291E+03  0.12723378294E+03  0.25500000920E-02 0.  1.
        2   -1    0    0  501    0  0.00000000000E+00  0.00000000000E+00 -0.15992396165E+04  0.15992396165E+04  0.25500000920E-02 0. -1.
    10030    2    1    2    0    0  0.00000000000E+00  0.00000000000E+00 -0.14720058336E+04  0.17264733995E+04  0.90216917752E+03 0.  0.
        1    1    3    3  502    0 -0.27695401575E+03  0.50217999632E+02 -0.61438418582E+02  0.28809729889E+03  0.50400001928E-02 0.  1.
       -1    1    3    3    0  502  0.27695401575E+03 -0.50217999632E+02 -0.14105674150E+04  0.14383761006E+04  0.50400001928E-02 0. -1.
</event>
<event>
 5   0  0.3996375E-03  0.9307731E+03  0.7818609E-02  0.9387911E-01
        3   -1    0    0  501    0  0.00000000000E+00  0.00000000000E+00  0.33392616134E+03  0.33392617661E+03  0.10100000352E+00 0.  1.
       -3   -1    0    0    0  501  0.00000000000E+00  0.00000000000E+00 -0.64860038824E+03  0.64860039611E+03  0.10100000352E+00 0. -1.
    10030    2    1    2    0    0  0.00000000000E+00  0.00000000000E+00 -0.31467422690E+03  0.98252657272E+03  0.93077311791E+03 0.  0.
        1    1    3    3  502    0  0.93822002888E+02 -0.36215089160E+03  0.13487386026E+03  0.39767674652E+03  0.50400001928E-02 0.  1.
       -1    1    3    3    0  502 -0.93822002888E+02  0.36215089160E+03 -0.44954808717E+03  0.58484982621E+03  0.50400001928E-02 0. -1.
</event>
<event>
 5   0  0.1041727E-02  0.9211759E+03  0.7818609E-02  0.9399491E-01
       -2   -1    0    0    0  501  0.00000000000E+00  0.00000000000E+00  0.24300351188E+03  0.24300351189E+03  0.25500000920E-02 0.  1.
        2   -1    0    0  501    0  0.00000000000E+00  0.00000000000E+00 -0.87299675034E+03  0.87299675035E+03  0.25500000920E-02 0. -1.
    10030    2    1    2    0    0  0.00000000000E+00  0.00000000000E+00 -0.62999323846E+03  0.11160002622E+04  0.92117593586E+03 0.  0.
        4    1    3    3  502    0  0.84245981357E+02 -0.42050163244E+03 -0.11147747983E+03  0.44311155443E+03  0.12699999809E+01 0.  1.
       -4    1    3    3    0  502 -0.84245981357E+02  0.42050163244E+03 -0.51851575863E+03  0.67288870782E+03  0.12699999809E+01 0. -1.
</event>
<event>
 5   0  0.6137243E-03  0.9022817E+03  0.7818609E-02  0.9422734E-01
       -1   -1    0    0    0  501  0.00000000000E+00  0.00000000000E+00  0.23679178421E+03  0.23679178426E+03  0.50400001928E-02 0.  1.
        1   -1    0    0  501    0  0.00000000000E+00  0.00000000000E+00 -0.85952337809E+03  0.85952337810E+03  0.50400001928E-02 0. -1.
    10030    2    1    2    0    0  0.00000000000E+00  0.00000000000E+00 -0.62273159388E+03  0.10963151624E+04  0.90228171721E+03 0.  0.
        4    1    3    3  502    0 -0.36588759162E+03  0.12318692936E+03 -0.27768104103E+02  0.38706773280E+03  0.12699999809E+01 0.  1.
       -4    1    3    3    0  502  0.36588759162E+03 -0.12318692936E+03 -0.59496348978E+03  0.70924742956E+03  0.12699999809E+01 0. -1.
</event>
<event>
 5   0  0.6211218E-03  0.9898304E+03  0.7818609E-02  0.9319769E-01
       -1   -1    0    0    0  501  0.00000000000E+00  0.00000000000E+00  0.34146943109E+03  0.34146943113E+03  0.50400001928E-02 0. -1.
        1   -1    0    0  501    0  0.00000000000E+00  0.00000000000E+00 -0.71731476716E+03  0.71731476718E+03  0.50400001928E-02 0.  1.
    10030    2    1    2    0    0  0.00000000000E+00  0.00000000000E+00 -0.37584533607E+03  0.10587841983E+04  0.98983042080E+03 0.  0.
        5    1    3    3  502    0  0.14941739351E+03 -0.10541609296E+03  0.30398341536E+03  0.35477615048E+03  0.46999998093E+01 0. -1.
       -5    1    3    3    0  502 -0.14941739351E+03  0.10541609296E+03 -0.67982875142E+03  0.70400804782E+03  0.46999998093E+01 0.  1.
</event>
<event>
 5   0  0.1017079E-02  0.8691674E+03  0.7818609E-02  0.9464966E-01
       -2   -1    0    0    0  501  0.00000000000E+00  0.00000000000E+00  0.14843181875E+03  0.14843181877E+03  0.25500000920E-02 0.  1.
        2   -1    0    0  501    0  0.00000000000E+00  0.00000000000E+00 -0.12723888321E+04  0.12723888321E+04  0.25500000920E-02 0. -1.
    10030    2    1    2    0    0  0.00000000000E+00  0.00000000000E+00 -0.11239570133E+04  0.14208206508E+04  0.86916739129E+03 0.  0.
        1    1    3    3  502    0  0.23894184384E+03 -0.14795051132E+03 -0.11038496344E+04  0.11390639025E+04  0.50400001928E-02 0. -1.
       -1    1    3    3    0  502 -0.23894184384E+03  0.14795051132E+03 -0.20107378922E+02  0.28175674837E+03  0.50400001928E-02 0.  1.
</event>
<event>
 5   0  0.6015709E-03  0.9001551E+03  0.7818609E-02  0.9425388E-01
       -1   -1    0    0    0  501  0.00000000000E+00  0.00000000000E+00  0.50958491247E+03  0.50958491249E+03  0.50400001928E-02 0. -1.
        1   -1    0    0  501    0  0.00000000000E+00  0.00000000000E+00 -0.39751919722E+03  0.39751919725E+03  0.50400001928E-02 0.  1.
    10030    2    1    2    0    0  0.00000000000E+00  0.00000000000E+00  0.11206571525E+03  0.90710410974E+03  0.90015506519E+03 0.  0.
        3    1    3    3  502    0  0.31601498536E+02 -0.41559752849E+03  0.22719642102E+03  0.47469799275E+03  0.10100000352E+00 0. -1.
       -3    1    3    3    0  502 -0.31601498536E+02  0.41559752849E+03 -0.11513070577E+03  0.43240611699E+03  0.10100000352E+00 0.  1.
</event>
<event>
 5   0  0.1003252E-02  0.9072091E+03  0.7818609E-02  0.9416614E-01
        2   -1    0    0  501    0  0.00000000000E+00  0.00000000000E+00  0.21895744333E+04  0.21895744333E+04  0.25500000920E-02 0. -1.
       -2   -1    0    0    0  501  0.00000000000E+00  0.00000000000E+00 -0.93971276456E+02  0.93971276491E+02  0.25500000920E-02 0.  1.
    10030    2    1    2    0    0  0.00000000000E+00  0.00000000000E+00  0.20956031569E+04  0.22835457098E+04  0.90720913672E+03 0.  0.
        2    1    3    3  502    0  0.14280371935E+03  0.14479666460E+03  0.27212943177E+02  0.20518167711E+03  0.25500000920E-02 0.  1.
       -2    1    3    3    0  502 -0.14280371935E+03 -0.14479666460E+03  0.20683902137E+04  0.20783640327E+04  0.25500000920E-02 0. -1.
</event>
<event>
 5   0  0.1003252E-02  0.9018912E+03  0.7818609E-02  0.9423220E-01
       -2   -1    0    0    0  501  0.00000000000E+00  0.00000000000E+00  0.14623279857E+03  0.14623279859E+03  0.25500000920E-02 0.  1.
        2   -1    0    0  501    0  0.00000000000E+00  0.00000000000E+00 -0.13906040837E+04  0.13906040837E+04  0.25500000920E-02 0. -1.
    10030    2    1    2    0    0  0.00000000000E+00  0.00000000000E+00 -0.12443712852E+04  0.15368368823E+04  0.90189118387E+03 0.  0.
        2    1    3    3  502    0 -0.43806119081E+03 -0.10405339106E+03 -0.66486135130E+03  0.80297280872E+03  0.25500000920E-02 0. -1.
       -2    1    3    3    0  502  0.43806119081E+03  0.10405339106E+03 -0.57950993387E+03  0.73386407361E+03  0.25500000920E-02 0.  1.
</event>
<event>
 5   0  0.1041727E-02  0.8254800E+03  0.7818609E-02  0.9523851E-01
        2   -1    0    0  501    0  0.00000000000E+00  0.00000000000E+00  0.33428344401E+03  0.33428344402E+03  0.25500000920E-02 0. -1.
       -2   -1    0    0    0  501  0.00000000000E+00  0.00000000000E+00 -0.50961039611E+03  0.50961039611E+03  0.25500000920E-02 0.  1.
    10030    2    1    2    0    0  0.00000000000E+00  0.00000000000E+00 -0.17532695210E+03  0.84389384013E+03  0.82548002597E+03 0.  0.
        4    1    3    3  502    0 -0.17959840902E+02 -0.13441080610E+03 -0.48618468695E+03  0.50474348277E+03  0.12699999809E+01 0.  1.
       -4    1    3    3    0  502  0.17959840902E+02  0.13441080610E+03  0.31085773485E+03  0.33915035736E+03  0.12699999809E+01 0. -1.
</event>
<event>
 5   0  0.1028978E-02  0.9087776E+03  0.7818609E-02  0.9414675E-01
       -2   -1    0    0    0  501  0.00000000000E+00  0.00000000000E+00  0.57930401492E+03  0.57930401493E+03  0.25500000920E-02 0.  1.
        2   -1    0    0  501    0  0.00000000000E+00  0.00000000000E+00 -0.35640906003E+03  0.35640906003E+03  0.25500000920E-02 0. -1.
    10030    2    1    2    0    0  0.00000000000E+00  0.00000000000E+00  0.22289495490E+03  0.93571307496E+03  0.90877763933E+03 0.  0.
        3    1    3    3  502    0  0.15386747689E+03 -0.12680569782E+03 -0.30896103107E+03  0.36771159129E+03  0.10100000352E+00 0. -1.
       -3    1    3    3    0  502 -0.15386747689E+03  0.12680569782E+03  0.53185598597E+03  0.56800148368E+03  0.10100000352E+00 0.  1.
</event>
<event>
 5   0  0.1017079E-02  0.9047965E+03  0.7818609E-02  0.9419605E-01
       -2   -1    0    0    0  501  0.00000000000E+00  0.00000000000E+00  0.24538112598E+03  0.24538112600E+03  0.25500000920E-02 0. -1.
        2   -1    0    0  501    0  0.00000000000E+00  0.00000000000E+00 -0.83406642198E+03  0.83406642199E+03  0.25500000920E-02 0.  1.
    10030    2    1    2    0    0  0.00000000000E+00  0.00000000000E+00 -0.58868529600E+03  0.10794475480E+04  0.90479645839E+03 0.  0.
        1    1    3    3  502    0  0.17662682359E+02 -0.38371300767E+02  0.24302323393E+03  0.24666702116E+03  0.50400001928E-02 0. -1.
       -1    1    3    3    0  502 -0.17662682359E+02  0.38371300767E+02 -0.83170852993E+03  0.83278052682E+03  0.50400001928E-02 0.  1.
</event>
<event>
 5   0  0.1033749E-02  0.8875653E+03  0.7818609E-02  0.9441260E-01
       -2   -1    0    0    0  501  0.00000000000E+00  0.00000000000E+00  0.98950526859E+02  0.98950526892E+02  0.25500000920E-02 0.  1.
        2   -1    0    0  501    0  0.00000000000E+00  0.00000000000E+00 -0.19903183703E+04  0.19903183703E+04  0.25500000920E-02 0. -1.
    10030    2    1    2    0    0  0.00000000000E+00  0.00000000000E+00 -0.18913678434E+04  0.20892688972E+04  0.88756532468E+03 0.  0.
        5    1    3    3  502    0  0.38380028661E+03 -0.12305353270E+03 -0.50861164161E+03  0.64896280625E+03  0.46999998093E+01 0.  1.
       -5    1    3    3    0  502 -0.38380028661E+03  0.12305353270E+03 -0.13827562018E+04  0.14403060909E+04  0.46999998093E+01 0. -1.
</event>
<event>
 5   0  0.6137243E-03  0.9172026E+03  0.7818609E-02  0.9404329E-01
       -1   -1    0    0    0  501  0.00000000000E+00  0.00000000000E+00  0.13509567089E+03  0.13509567098E+03  0.50400001928E-02 0. -1.
        1   -1    0    0  501    0  0.00000000000E+00  0.00000000000E+00 -0.15567867149E+04  0.15567867149E+04  0.50400001928E-02 0.  1.
    10030    2    1    2    0    0  0.00000000000E+00  0.00000000000E+00 -0.14216910440E+04  0.16918823859E+04  0.91720258560E+03 0.  0.
        4    1    3    3  502    0  0.44305778549E+03  0.64326068592E+02 -0.52753635159E+03  0.69190625054E+03  0.12699999809E+01 0. -1.
       -4    1    3    3    0  502 -0.44305778549E+03 -0.64326068592E+02 -0.89415469238E+03  0.99997613531E+03  0.12699999809E+01 0.  1.
</event>
<event>
 5   0  0.6211218E-03  0.9815555E+03  0.7818609E-02  0.9329009E-01
       -1   -1    0    0    0  501  0.00000000000E+00  0.00000000000E+00  0.20380760595E+03  0.20380760601E+03  0.50400001928E-02 0.  1.
        1   -1    0    0  501    0  0.00000000000E+00  0.00000000000E+00 -0.11818146375E+04  0.11818146376E+04  0.50400001928E-02 0. -1.
    10030    2    1    2    0    0  0.00000000000E+00  0.00000000000E+00 -0.97800703159E+03  0.13856222436E+04  0.98155552467E+03 0.  0.
        5    1    3    3  502    0 -0.16106141667E+03 -0.21792790489E+03  0.88583287523E+02  0.28513582815E+03  0.46999998093E+01 0.  1.
       -5    1    3    3    0  502  0.16106141667E+03  0.21792790489E+03 -0.10665903191E+04  0.11004864154E+04  0.46999998093E+01 0. -1.
</event>
<event>
 5   0  0.1041727E-02  0.8203705E+03  0.7818609E-02  0.9530991E-01
       -2   -1    0    0    0  501  0.00000000000E+00  0.00000000000E+00  0.13430833974E+03  0.13430833977E+03  0.25500000920E-02 0.  1.
        2   -1    0    0  501    0  0.00000000000E+00  0.00000000000E+00 -0.12527288560E+04  0.12527288560E+04  0.25500000920E-02 0. -1.
    10030    2    1    2    0    0  0.00000000000E+00  0.00000000000E+00 -0.11184205162E+04  0.13870371958E+04  0.82037048415E+03 0.  0.
        4    1    3    3  502    0 -0.49546604962E+01 -0.23291497931E+03  0.11591783155E+02  0.23325933762E+03  0.12699999809E+01 0.  1.
       -4    1    3    3    0  502  0.49546604962E+01  0.23291497931E+03 -0.11300122994E+04  0.11537778581E+04  0.12699999809E+01 0. -1.
</event>
<event>
 5   0  0.1003252E-02  0.9273481E+03  0.7818609E-02  0.9392026E-01
       -2   -1    0    0    0  501  0.00000000000E+00  0.00000000000E+00  0.23780509244E+03  0.23780509246E+03  0.25500000920E-02 0.  1.
        2   -1    0    0  501    0  0.00000000000E+00  0.00000000000E+00 -0.90407502899E+03  0.90407502899E+03  0.25500000920E-02 0. -1.
    10030    2    1    2    0    0  0.00000000000E+00  0.00000000000E+00 -0.66626993655E+03  0.11418801215E+04  0.92734814574E+03 0.  0.
        2    1    3    3  502    0  0.89543323304E+02 -0.26961890250E+03  0.11808202929E+03  0.30766170542E+03  0.25500000920E-02 0.  1.
       -2    1    3    3    0  502 -0.89543323304E+02  0.26961890250E+03 -0.78435196583E+03  0.83421841603E+03  0.25500000920E-02 0. -1.
</event>
<event>
 5   0  0.6211218E-03  0.9010021E+03  0.7818609E-02  0.9424330E-01
        1   -1    0    0  501    0  0.00000000000E+00  0.00000000000E+00  0.34373658154E+03  0.34373658157E+03  0.50400001928E-02 0. -1.
       -1   -1    0    0    0  501  0.00000000000E+00  0.00000000000E+00 -0.59042655985E+03  0.59042655987E+03  0.50400001928E-02 0.  1.
    10030    2    1    2    0    0  0.00000000000E+00  0.00000000000E+00 -0.24668997831E+03  0.93416314144E+03  0.90100212510E+03 0.  0.
        5    1    3    3  502    0 -0.91530802940E+02  0.42586183986E+03 -0.42571477571E+01  0.43563334106E+03  0.46999998093E+01 0. -1.
       -5    1    3    3    0  502  0.91530802940E+02 -0.42586183986E+03 -0.24243283056E+03  0.49852980038E+03  0.46999998093E+01 0.  1.
</event>
<event>
 5   0  0.6092779E-03  0.9073973E+03  0.7818609E-02  0.9416381E-01
       -1   -1    0    0    0  501  0.00000000000E+00  0.00000000000E+00  0.13408348968E+03  0.13408348978E+03  0.50400001928E-02 0. -1.
        1   -1    0    0  501    0  0.00000000000E+00  0.00000000000E+00 -0.15351813479E+04  0.15351813479E+04  0.50400001928E-02 0.  1.
    10030    2    1    2    0    0  0.00000000000E+00  0.00000000000E+00 -0.14010978582E+04  0.16692648377E+04  0.90739731653E+03 0.  0.
        2    1    3    3  502    0 -0.24234770460E+03 -0.35777656519E+03 -0.44626872570E+03  0.62120226664E+03  0.25500000920E-02 0. -1.
       -2    1    3    3    0  502  0.24234770460E+03  0.35777656519E+03 -0.95482913253E+03  0.10480625711E+04  0.25500000920E-02 0.  1.
</event>
<event>
 5   0  0.1033749E-02  0.9062556E+03  0.7818609E-02  0.9417795E-01
       -2   -1    0    0    0  501  0.00000000000E+00  0.00000000000E+00  0.59338039872E+03  0.59338039873E+03  0.25500000920E-02 0. -1.
        2   -1    0    0  501    0  0.00000000000E+00  0.00000000000E+00 -0.34602559399E+03  0.34602559400E+03  0.25500000920E-02 0.  1.
    10030    2    1    2    0    0  0.00000000000E+00  0.00000000000E+00  0.24735480473E+03  0.93940599273E+03  0.90625560398E+03 0.  0.
        5    1    3    3  502    0 -0.25772043140E+03  0.26328353207E+03 -0.14972164963E+03  0.39771434647E+03  0.46999998093E+01 0.  1.
       -5    1    3    3    0  502  0.25772043140E+03 -0.26328353207E+03  0.39707645436E+03  0.54169164626E+03  0.46999998093E+01 0. -1.
</event>
<event>
 5   0  0.6092779E-03  0.9536014E+03  0.7818609E-02  0.9360951E-01
        1   -1    0    0  501    0  0.00000000000E+00  0.00000000000E+00  0.51945407114E+03  0.51945407117E+03  0.50400001928E-02 0.  1.
       -1   -1    0    0    0  501  0.00000000000E+00  0.00000000000E+00 -0.43764968730E+03  0.43764968733E+03  0.50400001928E-02 0. -1.
    10030    2    1    2    0    0  0.00000000000E+00  0.00000000000E+00  0.81804383843E+02  0.95710375850E+03  0.95360140904E+03 0.  0.
        2    1    3    3  502    0 -0.21277531735E+03  0.21907234154E+03 -0.32660226929E+03  0.44714099433E+03  0.25500000920E-02 0. -1.
       -2    1    3    3    0  502  0.21277531735E+03 -0.21907234154E+03  0.40840665314E+03  0.50996276416E+03  0.25500000920E-02 0.  1.
</event>
<event>
 5   0  0.6015709E-03  0.8792597E+03  0.7818609E-02  0.9451886E-01
       -1   -1    0    0    0  501  0.00000000000E+00  0.00000000000E+00  0.36337311541E+03  0.36337311545E+03  0.50400001928E-02 0. -1.
        1   -1    0    0  501    0  0.00000000000E+00  0.00000000000E+00 -0.53188970455E+03  0.53188970457E+03  0.50400001928E-02 0.  1.
    10030    2    1    2    0    0  0.00000000000E+00  0.00000000000E+00 -0.16851658914E+03  0.89526282002E+03  0.87925973188E+03 0.  0.
        3    1    3    3  502    0 -0.25379267981E+03  0.35897446459E+03 -0.85285753885E+02  0.44782481013E+03  0.10100000352E+00 0. -1.
       -3    1    3    3    0  502  0.25379267981E+03 -0.35897446459E+03 -0.83230835250E+02  0.44743800989E+03  0.10100000352E+00 0.  1.
</event>
<event>
 5   0  0.6288003E-03  0.9363350E+03  0.7818609E-02  0.9381267E-01
        1   -1    0    0  501    0  0.00000000000E+00  0.00000000000E+00  0.41489339464E+03  0.41489339467E+03  0.50400001928E-02 0.  1.
       -1   -1    0    0    0  501  0.00000000000E+00  0.00000000000E+00 -0.52828228611E+03  0.52828228613E+03  0.50400001928E-02 0. -1.
    10030    2    1    2    0    0  0.00000000000E+00  0.00000000000E+00 -0.11338889147E+03  0.94317568080E+03  0.93633504908E+03 0.  0.
        1    1    3    3  502    0  0.35902286603E+03 -0.84964827467E+02  0.23362007326E+03  0.43668613316E+03  0.50400001928E-02 0.  1.
       -1    1    3    3    0  502 -0.35902286603E+03  0.84964827467E+02 -0.34700896473E+03  0.50648954764E+03  0.50400001928E-02 0. -1.
</event>
<event>
 5   0  0.1017079E-02  0.8978630E+03  0.7818609E-02  0.9428257E-01
        2   -1    0    0  501    0  0.00000000000E+00  0.00000000000E+00  0.23381331067E+04  0.23381331067E+04  0.25500000920E-02 0.  1.
       -2   -1    0    0    0  501  0.00000000000E+00  0.00000000000E+00 -0.86196761522E+02  0.86196761559E+02  0.25500000920E-02 0. -1.
    10030    2    1    2    0    0  0.00000000000E+00  0.00000000000E+00  0.22519363452E+04  0.24243298683E+04  0.89786302263E+03 0.  0.
        1    1    3    3  502    0 -0.37956242701E+03  0.22286988919E+03  0.13644489496E+04  0.14336873996E+04  0.50400001928E-02 0.  1.
       -1    1    3    3    0  502  0.37956242701E+03 -0.22286988919E+03  0.88748739556E+03  0.99064246871E+03  0.50400001928E-02 0. -1.
</event>
<event>
 5   0  0.3996375E-03  0.8995897E+03  0.7818609E-02  0.9426094E-01
       -3   -1    0    0    0  501  0.00000000000E+00  0.00000000000E+00  0.60402910284E+03  0.60402911128E+03  0.10100000352E+00 0.  1.
        3   -1    0    0  501    0  0.00000000000E+00  0.00000000000E+00 -0.33494311676E+03  0.33494313199E+03  0.10100000352E+00 0. -1.
    10030    2    1    2    0    0  0.00000000000E+00  0.00000000000E+00  0.26908598608E+03  0.93897224327E+03  0.89958968743E+03 0.  0.
        3    1    3    3  502    0 -0.97954886477E+02  0.31717198522E+03  0.45134676953E+03  0.56027416910E+03  0.10100000352E+00 0.  1.
       -3    1    3    3    0  502  0.97954886477E+02 -0.31717198522E+03 -0.18226078345E+03  0.37869807417E+03  0.10100000352E+00 0. -1.
</event>
<event>
 5   0  0.1028978E-02  0.9048546E+03  0.7818609E-02  0.9419533E-01
        2   -1    0    0  501    0  0.00000000000E+00  0.00000000000E+00  0.22416425693E+04  0.22416425693E+04  0.25500000920E-02 0.  1.
       -2   -1    0    0    0  501  0.00000000000E+00  0.00000000000E+00 -0.91312706270E+02  0.91312706305E+02  0.25500000920E-02 0. -1.
    10030    2    1    2    0    0  0.00000000000E+00  0.00000000000E+00  0.21503298630E+04  0.23329552756E+04  0.90485457292E+03 0.  0.
        3    1    3    3  502    0  0.14715026895E+03 -0.37272951686E+03  0.16166617202E+04  0.16655856694E+04  0.10100000352E+00 0.  1.
       -3    1    3    3    0  502 -0.14715026895E+03  0.37272951686E+03  0.53366814280E+03  0.66736960617E+03  0.10100000352E+00 0. -1.
</event>
<event>
 5   0  0.1033749E-02  0.8957822E+03  0.7818609E-02  0.9430869E-01
       -2   -1    0    0    0  501  0.00000000000E+00  0.00000000000E+00  0.23708532988E+03  0.23708532989E+03  0.25500000920E-02 0.  1.
        2   -1    0    0  501    0  0.00000000000E+00  0.00000000000E+00 -0.84613604822E+03  0.84613604823E+03  0.25500000920E-02 0. -1.
    10030    2    1    2    0    0  0.00000000000E+00  0.00000000000E+00 -0.60905071835E+03  0.10832213781E+04  0.89578221488E+03 0.  0.
        5    1    3    3  502    0  0.64209302999E+02 -0.87940839739E+02 -0.82985617013E+03  0.83698254401E+03  0.46999998093E+01 0. -1.
       -5    1    3    3    0  502 -0.64209302999E+02  0.87940839739E+02  0.22080545178E+03  0.24623883410E+03  0.46999998093E+01 0.  1.
</event>
<event>
 5   0  0.1041727E-02  0.8960115E+03  0.7818609E-02  0.9430581E-01
        2   -1    0    0  501    0  0.00000000000E+00  0.00000000000E+00  0.22594575452E+03  0.22594575454E+03  0.25500000920E-02 0. -1.
       -2   -1    0    0    0  501  0.00000000000E+00  0.00000000000E+00 -0.88830673224E+03  0.88830673225E+03  0.25500000920E-02 0.  1.
    10030    2    1    2    0    0  0.00000000000E+00  0.00000000000E+00 -0.66236097772E+03  0.11142524868E+04  0.89601146170E+03 0.  0.
        4    1    3    3  502    0  0.39620544161E+03  0.20793091445E+03 -0.30355463254E+03  0.54070421210E+03  0.12699999809E+01 0.  1.
       -4    1    3    3    0  502 -0.39620544161E+03 -0.20793091445E+03 -0.35880634518E+03  0.57354827468E+03  0.12699999809E+01 0. -1.
</event>
<event>
 5   0  0.1017079E-02  0.9165535E+03  0.7818609E-02  0.9405122E-01
       -2   -1    0    0    0  501  0.00000000000E+00  0.00000000000E+00  0.30588777058E+03  0.30588777059E+03  0.25500000920E-02 0. -1.
        2   -1    0    0  501    0  0.00000000000E+00  0.00000000000E+00 -0.68658382696E+03  0.68658382697E+03  0.25500000920E-02 0.  1.
    10030    2    1    2    0    0  0.00000000000E+00  0.00000000000E+00 -0.38069605639E+03  0.99247159755E+03  0.91655353614E+03 0.  0.
        1    1    3    3  502    0  0.37548153532E+03  0.10344145127E+03  0.71175191558E+02  0.39591972056E+03  0.50400001928E-02 0. -1.
       -1    1    3    3    0  502 -0.37548153532E+03 -0.10344145127E+03 -0.45187124794E+03  0.59655187700E+03  0.50400001928E-02 0.  1.
</event>
<event>
 5   0  0.6092779E-03  0.9082511E+03  0.7818609E-02  0.9415325E-01
        1   -1    0    0  501    0  0.00000000000E+00  0.00000000000E+00  0.86552081867E+03  0.86552081868E+03  0.50400001928E-02 0.  1.
       -1   -1    0    0    0  501  0.00000000000E+00  0.00000000000E+00 -0.23827276334E+03  0.23827276339E+03  0.50400001928E-02 0. -1.
    10030    2    1    2    0    0  0.00000000000E+00  0.00000000000E+00  0.62724805533E+03  0.11037935821E+04  0.90825114860E+03 0.  0.
        2    1    3    3  502    0  0.16342312228E+03 -0.49398047035E+02  0.82503500012E+03  0.84251411583E+03  0.25500000920E-02 0.  1.
       -2    1    3    3    0  502 -0.16342312228E+03  0.49398047035E+02 -0.19778694479E+03  0.26127946625E+03  0.25500000920E-02 0. -1.
</event>
<event>
 5   0  0.6015709E-03  0.8855541E+03  0.7818609E-02  0.9443822E-01
       -1   -1    0    0    0  501  0.00000000000E+00  0.00000000000E+00  0.75123011643E+02  0.75123011813E+02  0.50400001928E-02 0. -1.
        1   -1    0    0  501    0  0.00000000000E+00  0.00000000000E+00 -0.26097395792E+04  0.26097395792E+04  0.50400001928E-02 0.  1.
    10030    2    1    2    0    0  0.00000000000E+00  0.00000000000E+00 -0.25346165676E+04  0.26848625910E+04  0.88555405714E+03 0.  0.
        3    1    3    3  502    0 -0.15185613672E+03 -0.29409759976E+03 -0.21589893059E+04  0.21842134780E+04  0.10100000352E+00 0.  1.
       -3    1    3    3    0  502  0.15185613672E+03  0.29409759976E+03 -0.37562726171E+03  0.50064911304E+03  0.10100000352E+00 0. -1.
</event>
<event>
 5   0  0.1028978E-02  0.8977631E+03  0.7818609E-02  0.9428382E-01
        2   -1    0    0  501    0  0.00000000000E+00  0.00000000000E+00  0.68191106678E+03  0.68191106678E+03  0.25500000920E-02 0. -1.
       -2   -1    0    0    0  501  0.00000000000E+00  0.00000000000E+00 -0.29548520764E+03  0.29548520765E+03  0.25500000920E-02 0.  1.
    10030    2    1    2    0    0  0.00000000000E+00  0.00000000000E+00  0.38642585914E+03  0.97739627443E+03  0.89776307156E+03 0.  0.
        3    1    3    3  502    0  0.12769488468E+03 -0.40797476719E+03  0.34227059467E+03  0.54762995208E+03  0.10100000352E+00 0.  1.
       -3    1    3    3    0  502 -0.12769488468E+03  0.40797476719E+03  0.44155264468E+02  0.42976632235E+03  0.10100000352E+00 0. -1.
</event>
<event>
 5   0  0.1028978E-02  0.8946556E+03  0.7818609E-02  0.9432287E-01
        2   -1    0    0  501    0  0.00000000000E+00  0.00000000000E+00  0.66617612446E+03  0.66617612446E+03  0.25500000920E-02 0. -1.
       -2   -1    0    0    0  501  0.00000000000E+00  0.00000000000E+00 -0.30037428366E+03  0.30037428367E+03  0.25500000920E-02 0.  1.
    10030    2    1    2    0    0  0.00000000000E+00  0.00000000000E+00  0.36580184080E+03  0.96655040813E+03  0.89465563471E+03 0.  0.
        3    1    3    3  502    0 -0.12707967443E+03 -0.21602463097E+03 -0.21739593407E+03  0.33177837059E+03  0.10100000352E+00 0.  1.
       -3    1    3    3    0  502  0.12707967443E+03  0.21602463097E+03  0.58319777487E+03  0.63477203755E+03  0.10100000352E+00 0. -1.
</event>
<event>
 5   0  0.6092779E-03  0.8028920E+03  0.7818609E-02  0.9555840E-01
        1   -1    0    0  501    0  0.00000000000E+00  0.00000000000E+00  0.10761209477E+04  0.10761209477E+04  0.50400001928E-02 0. -1.
       -1   -1    0    0    0  501  0.00000000000E+00  0.00000000000E+00 -0.14975910530E+03  0.14975910539E+03  0.50400001928E-02 0.  1.
    10030    2    1    2    0    0  0.00000000000E+00  0.00000000000E+00  0.92636184243E+03  0.12258800531E+04  0.80289204851E+03 0.  0.
        2    1    3    3  502    0  0.96178538466E+02  0.34745060575E+03  0.73281536150E+03  0.81669491779E+03  0.25500000920E-02 0. -1.
       -2    1    3    3    0  502 -0.96178538466E+02 -0.34745060575E+03  0.19354648093E+03  0.40918513534E+03  0.25500000920E-02 0.  1.
</event>
<event>
 5   0  0.6288003E-03  0.8948348E+03  0.7818609E-02  0.9432061E-01
       -1   -1    0    0    0  501  0.00000000000E+00  0.00000000000E+00  0.78248346843E+03  0.78248346845E+03  0.50400001928E-02 0.  1.
        1   -1    0    0  501    0  0.00000000000E+00  0.00000000000E+00 -0.25582944721E+03  0.25582944726E+03  0.50400001928E-02 0. -1.
    10030    2    1    2    0    0  0.00000000000E+00  0.00000000000E+00  0.52665402123E+03  0.10383129157E+04  0.89483476287E+03 0.  0.
        1    1    3    3  502    0  0.99072269421E+02  0.15755082923E+03  0.73543689715E+03  0.75862046378E+03  0.50400001928E-02 0.  1.
       -1    1    3    3    0  502 -0.99072269421E+02 -0.15755082923E+03 -0.20878287592E+03  0.27969245192E+03  0.50400001928E-02 0. -1.
</event>
<event>
 5   0  0.1033749E-02  0.9117630E+03  0.7818609E-02  0.9410995E-01
        2   -1    0    0  501    0  0.00000000000E+00  0.00000000000E+00  0.40225354522E+03  0.40225354522E+03  0.25500000920E-02 0. -1.
       -2   -1    0    0    0  501  0.00000000000E+00  0.00000000000E+00 -0.51665901380E+03  0.51665901381E+03  0.25500000920E-02 0.  1.
    10030    2    1    2    0    0  0.00000000000E+00  0.00000000000E+00 -0.11440546859E+03  0.91891255903E+03  0.91176295160E+03 0.  0.
        5    1    3    3  502    0 -0.40942640036E+03  0.18785323242E+03  0.13252638109E+02  0.45068452010E+03  0.46999998093E+01 0.  1.
       -5    1    3    3    0  502  0.40942640036E+03 -0.18785323242E+03 -0.12765810670E+03  0.46822803894E+03  0.46999998093E+01 0. -1.
</event>
<event>
 5   0  0.6137243E-03  0.8888596E+03  0.7818609E-02  0.9439616E-01
        1   -1    0    0  501    0  0.00000000000E+00  0.00000000000E+00  0.59680774918E+03  0.59680774920E+03  0.50400001928E-02 0. -1.
       -1   -1    0    0    0  501  0.00000000000E+00  0.00000000000E+00 -0.33095722547E+03  0.33095722551E+03  0.50400001928E-02 0.  1.
    10030    2    1    2    0    0  0.00000000000E+00  0.00000000000E+00  0.26585052371E+03  0.92776497471E+03  0.88885957684E+03 0.  0.
        4    1    3    3  502    0  0.30104053691E+03 -0.51980475048E+02  0.46983645337E+03  0.56042419689E+03  0.12699999809E+01 0. -1.
       -4    1    3    3    0  502 -0.30104053691E+03  0.51980475048E+02 -0.20398592966E+03  0.36734077782E+03  0.12699999809E+01 0.  1.
</event>
<event>
 5   0  0.6288003E-03  0.9085692E+03  0.7818609E-02  0.9414932E-01
       -1   -1    0    0    0  501  0.00000000000E+00  0.00000000000E+00  0.87154938768E+03  0.87154938769E+03  0.50400001928E-02 0.  1.
        1   -1    0    0  501    0  0.00000000000E+00  0.00000000000E+00 -0.23679036711E+03  0.23679036716E+03  0.50400001928E-02 0. -1.
    10030    2    1    2    0    0  0.00000000000E+00  0.00000000000E+00  0.63475902057E+03  0.11083397549E+04  0.90856920374E+03 0.  0.
        1    1    3    3  502    0  0.11522986523E+03 -0.29526292067E+03 -0.79625944926E+02  0.32680025290E+03  0.50400001928E-02 0. -1.
       -1    1    3    3    0  502 -0.11522986523E+03  0.29526292067E+03  0.71438496550E+03  0.78153950196E+03  0.50400001928E-02 0.  1.
</event>
<event>
 5   0  0.1041727E-02  0.9012708E+03  0.7818609E-02  0.9423994E-01
       -2   -1    0    0    0  501  0.00000000000E+00  0.00000000000E+00  0.20092200033E+03  0.20092200035E+03  0.25500000920E-02 0. -1.
        2   -1    0    0  501    0  0.00000000000E+00  0.00000000000E+00 -0.10107020464E+04  0.10107020464E+04  0.25500000920E-02 0.  1.
    10030    2    1    2    0    0  0.00000000000E+00  0.00000000000E+00 -0.80978004603E+03  0.12116240467E+04  0.90127082923E+03 0.  0.
        4    1    3    3  502    0 -0.36560405675E+03 -0.23845983224E+03 -0.25433927612E+03  0.50519253575E+03  0.12699999809E+01 0. -1.
       -4    1    3    3    0  502  0.36560405675E+03  0.23845983224E+03 -0.55544076991E+03  0.70643151096E+03  0.12699999809E+01 0.  1.
</event>
<event>
 5   0  0.6288003E-03  0.8885489E+03  0.7818609E-02  0.9440010E-01
       -1   -1    0    0    0  501  0.00000000000E+00  0.00000000000E+00  0.11763828683E+03  0.11763828694E+03  0.50400001928E-02 0.  1.
        1   -1    0    0  501    0  0.00000000000E+00  0.00000000000E+00 -0.16778531896E+04  0.16778531896E+04  0.50400001928E-02 0. -1.
    10030    2    1    2    0    0  0.00000000000E+00  0.00000000000E+00 -0.15602149027E+04  0.17954914765E+04  0.88854887289E+03 0.  0.
        1    1    3    3  502    0  0.57710550145E+02 -0.18951180035E+03  0.23447171331E+02  0.19948684152E+03  0.50400001928E-02 0.  1.
       -1    1    3    3    0  502 -0.57710550145E+02  0.18951180035E+03 -0.15836620741E+04  0.15960046350E+04  0.50400001928E-02 0. -1.
</event>
<event>
 5   0  0.6288003E-03  0.8901956E+03  0.7818609E-02  0.9437921E-01
        1   -1    0    0  501    0  0.00000000000E+00  0.00000000000E+00  0.95900947525E+03  0.95900947526E+03  0.50400001928E-02 0.  1.
       -1   -1    0    0    0  501  0.00000000000E+00  0.00000000000E+00 -0.20657986252E+03  0.20657986258E+03  0.50400001928E-02 0. -1.
    10030    2    1    2    0    0  0.00000000000E+00  0.00000000000E+00  0.75242961273E+03  0.11655893378E+04  0.89019558658E+03 0.  0.
        1    1    3    3  502    0 -0.24048700775E+03  0.28076240146E+03  0.51633947220E+02  0.37326611352E+03  0.50400001928E-02 0. -1.
       -1    1    3    3    0  502  0.24048700775E+03 -0.28076240146E+03  0.70079566551E+03  0.79232322432E+03  0.50400001928E-02 0.  1.
</event>
<event>
 5   0  0.6288003E-03  0.9000965E+03  0.7818609E-02  0.9425461E-01
       -1   -1    0    0    0  501  0.00000000000E+00  0.00000000000E+00  0.32313057099E+03  0.32313057103E+03  0.50400001928E-02 0.  1.
        1   -1    0    0  501    0  0.00000000000E+00  0.00000000000E+00 -0.62681598624E+03  0.62681598627E+03  0.50400001928E-02 0. -1.
    10030    2    1    2    0    0  0.00000000000E+00  0.00000000000E+00 -0.30368541525E+03  0.94994655730E+03  0.90009645610E+03 0.  0.
        1    1    3    3  502    0 -0.29701886461E+03  0.30772402278E+03 -0.29970608388E+03  0.52224325449E+03  0.50400001928E-02 0. -1.
       -1    1    3    3    0  502  0.29701886461E+03 -0.30772402278E+03 -0.39793313742E+01  0.42770330280E+03  0.50400001928E-02 0.  1.
</event>
<event>
 5   0  0.6211218E-03  0.9007868E+03  0.7818609E-02  0.9424598E-01
        1   -1    0    0  501    0  0.00000000000E+00  0.00000000000E+00  0.55943361950E+03  0.55943361952E+03  0.50400001928E-02 0.  1.
       -1   -1    0    0    0  501  0.00000000000E+00  0.00000000000E+00 -0.36260636777E+03  0.36260636780E+03  0.50400001928E-02 0. -1.
    10030    2    1    2    0    0  0.00000000000E+00  0.00000000000E+00  0.19682725173E+03  0.92203998732E+03  0.90078675123E+03 0.  0.
        5    1    3    3  502    0  0.17697189217E+03  0.32652014381E+03 -0.16234713792E+03  0.40535556999E+03  0.46999998093E+01 0. -1.
       -5    1    3    3    0  502 -0.17697189217E+03 -0.32652014381E+03  0.35917438965E+03  0.51668441733E+03  0.46999998093E+01 0.  1.
</event>
<event>
 5   0  0.6211218E-03  0.9061868E+03  0.7818609E-02  0.9417881E-01
       -1   -1    0    0    0  501  0.00000000000E+00  0.00000000000E+00  0.13640100738E+03  0.13640100747E+03  0.50400001928E-02 0. -1.
        1   -1    0    0  501    0  0.00000000000E+00  0.00000000000E+00 -0.15050741076E+04  0.15050741076E+04  0.50400001928E-02 0.  1.
    10030    2    1    2    0    0  0.00000000000E+00  0.00000000000E+00 -0.13686731003E+04  0.16414751151E+04  0.90618678989E+03 0.  0.
        5    1    3    3  502    0 -0.24193306199E+03 -0.22520630524E+03 -0.12456456188E+04  0.12887608716E+04  0.46999998093E+01 0.  1.
       -5    1    3    3    0  502  0.24193306199E+03  0.22520630524E+03 -0.12302748141E+03  0.35271424353E+03  0.46999998093E+01 0. -1.
</event>
<event>
 5   0  0.6092779E-03  0.8831779E+03  0.7818609E-02  0.9446858E-01
        1   -1    0    0  501    0  0.00000000000E+00  0.00000000000E+00  0.30093090562E+04  0.30093090562E+04  0.50400001928E-02 0.  1.
       -1   -1    0    0    0  501  0.00000000000E+00  0.00000000000E+00 -0.64799187194E+02  0.64799187390E+02  0.50400001928E-02 0. -1.
    10030    2    1    2    0    0  0.00000000000E+00  0.00000000000E+00  0.29445098690E+04  0.30741082436E+04  0.88317785562E+03 0.  0.
        2    1    3    3  502    0  0.24329777840E+03 -0.34792966492E+02  0.19526421419E+03  0.31389882581E+03  0.25500000920E-02 0. -1.
       -2    1    3    3    0  502 -0.24329777840E+03  0.34792966492E+02  0.27492456549E+04  0.27602094178E+04  0.25500000920E-02 0.  1.
</event>
<event>
 5   0  0.6092779E-03  0.9018108E+03  0.7818609E-02  0.9423321E-01
       -1   -1    0    0    0  501  0.00000000000E+00  0.00000000000E+00  0.20589196732E+03  0.20589196738E+03  0.50400001928E-02 0.  1.
        1   -1    0    0  501    0  0.00000000000E+00  0.00000000000E+00 -0.98748721179E+03  0.98748721180E+03  0.50400001928E-02 0. -1.
    10030    2    1    2    0    0  0.00000000000E+00  0.00000000000E+00 -0.78159524447E+03  0.11933791792E+04  0.90181081116E+03 0.  0.
        2    1    3    3  502    0 -0.30854917600E+03 -0.88681257363E+02  0.28191211256E+02  0.32227581947E+03  0.25500000920E-02 0.  1.
       -2    1    3    3    0  502  0.30854917600E+03  0.88681257363E+02 -0.80978645573E+03  0.87110335971E+03  0.25500000920E-02 0. -1.
</event>
<event>
 5   0  0.6092779E-03  0.8900419E+03  0.7818609E-02  0.9438116E-01
        1   -1    0    0  501    0  0.00000000000E+00  0.00000000000E+00  0.30472842605E+03  0.30472842610E+03  0.50400001928E-02 0.  1.
       -1   -1    0    0    0  501  0.00000000000E+00  0.00000000000E+00 -0.64990208112E+03  0.64990208114E+03  0.50400001928E-02 0. -1.
    10030    2    1    2    0    0  0.00000000000E+00  0.00000000000E+00 -0.34517365506E+03  0.95463050723E+03  0.89004188283E+03 0.  0.
        2    1    3    3  502    0 -0.80346747142E+02 -0.41834935689E+03 -0.31066035361E+03  0.52723964143E+03  0.25500000920E-02 0. -1.
       -2    1    3    3    0  502  0.80346747142E+02  0.41834935689E+03 -0.34513301458E+02  0.42739086580E+03  0.25500000920E-02 0.  1.
</event>
<event>
 5   0  0.1033749E-02  0.9115899E+03  0.7818609E-02  0.9411208E-01
        2   -1    0    0  501    0  0.00000000000E+00  0.00000000000E+00  0.79507932581E+03  0.79507932581E+03  0.25500000920E-02 0.  1.
       -2   -1    0    0    0  501  0.00000000000E+00  0.00000000000E+00 -0.26129348494E+03  0.26129348495E+03  0.25500000920E-02 0. -1.
    10030    2    1    2    0    0  0.00000000000E+00  0.00000000000E+00  0.53378584087E+03  0.10563728108E+04  0.91158992502E+03 0.  0.
        5    1    3    3  502    0 -0.42891219283E+03 -0.13581360019E+03  0.35138350865E+03  0.57087955236E+03  0.46999998093E+01 0.  1.
       -5    1    3    3    0  502  0.42891219283E+03  0.13581360019E+03  0.18240233222E+03  0.48549325840E+03  0.46999998093E+01 0. -1.
</event>
<event>
 5   0  0.6288003E-03  0.8982660E+03  0.7818609E-02  0.9427752E-01
       -1   -1    0    0    0  501  0.00000000000E+00  0.00000000000E+00  0.48054190260E+03  0.48054190263E+03  0.50400001928E-02 0. -1.
        1   -1    0    0  501    0  0.00000000000E+00  0.00000000000E+00 -0.41977703026E+03  0.41977703029E+03  0.50400001928E-02 0.  1.
    10030    2    1    2    0    0  0.00000000000E+00  0.00000000000E+00  0.60764872346E+02  0.90031893292E+03  0.89826600251E+03 0.  0.
        1    1    3    3  502    0  0.27587093944E+03 -0.24949999263E+03 -0.22191777711E+03  0.43313106720E+03  0.50400001928E-02 0.  1.
       -1    1    3    3    0  502 -0.27587093944E+03  0.24949999263E+03  0.28268264946E+03  0.46718786572E+03  0.50400001928E-02 0. -1.
</event>
<event>
 5   0  0.3996375E-03  0.9039961E+03  0.7818609E-02  0.9420600E-01
       -3   -1    0    0    0  501  0.00000000000E+00  0.00000000000E+00  0.34747056841E+03  0.34747058308E+03  0.10100000352E+00 0.  1.
        3   -1    0    0  501    0  0.00000000000E+00  0.00000000000E+00 -0.58796991912E+03  0.58796992780E+03  0.10100000352E+00 0. -1.
    10030    2    1    2    0    0  0.00000000000E+00  0.00000000000E+00 -0.24049935072E+03  0.93544051088E+03  0.90399613478E+03 0.  0.
        2    1    3    3  502    0  0.18381516106E+02  0.13176063281E+03 -0.56725171288E+03  0.58264333023E+03  0.25500000920E-02 0. -1.
       -2    1    3    3    0  502 -0.18381516106E+02 -0.13176063281E+03  0.32675236216E+03  0.35279718065E+03  0.25500000920E-02 0.  1.
</event>
<event>
 5   0  0.1028978E-02  0.8953084E+03  0.7818609E-02  0.9431465E-01
       -2   -1    0    0    0  501  0.00000000000E+00  0.00000000000E+00  0.12428879537E+04  0.12428879537E+04  0.25500000920E-02 0.  1.
        2   -1    0    0  501    0  0.00000000000E+00  0.00000000000E+00 -0.16123276852E+03  0.16123276854E+03  0.25500000920E-02 0. -1.
    10030    2    1    2    0    0  0.00000000000E+00  0.00000000000E+00  0.10816551852E+04  0.14041207223E+04  0.89530836198E+03 0.  0.
        3    1    3    3  502    0  0.10376033357E+03  0.28327702623E+03  0.22140924049E+02  0.30249348940E+03  0.10100000352E+00 0. -1.
       -3    1    3    3    0  502 -0.10376033357E+03 -0.28327702623E+03  0.10595142612E+04  0.11016272329E+04  0.10100000352E+00 0.  1.
</event>
<event>
 5   0  0.6137243E-03  0.8959096E+03  0.7818609E-02  0.9430709E-01
        1   -1    0    0  501    0  0.00000000000E+00  0.00000000000E+00  0.78458643132E+03  0.78458643134E+03  0.50400001928E-02 0.  1.
       -1   -1    0    0    0  501  0.00000000000E+00  0.00000000000E+00 -0.25575705621E+03  0.25575705626E+03  0.50400001928E-02 0. -1.
    10030    2    1    2    0    0  0.00000000000E+00  0.00000000000E+00  0.52882937511E+03  0.10403434876E+04  0.89590962950E+03 0.  0.
        4    1    3    3  502    0  0.72789207570E+02 -0.42170133428E+03  0.41816767442E+03  0.59832775375E+03  0.12699999809E+01 0.  1.
       -4    1    3    3    0  502 -0.72789207570E+02  0.42170133428E+03  0.11066170069E+03  0.44201573385E+03  0.12699999809E+01 0. -1.
</event>
<event>
 5   0  0.1041727E-02  0.9084984E+03  0.7818609E-02  0.9415020E-01
        2   -1    0    0  501    0  0.00000000000E+00  0.00000000000E+00  0.48075697331E+03  0.48075697332E+03  0.25500000920E-02 0. -1.
       -2   -1    0    0    0  501  0.00000000000E+00  0.00000000000E+00 -0.42920301427E+03  0.42920301428E+03  0.25500000920E-02 0.  1.
    10030    2    1    2    0    0  0.00000000000E+00  0.00000000000E+00  0.51553959039E+02  0.90995998760E+03  0.90849841405E+03 0.  0.
        4    1    3    3  502    0 -0.32554810166E+03 -0.23435642365E+02  0.34221233787E+03  0.47290770021E+03  0.12699999809E+01 0. -1.
       -4    1    3    3    0  502  0.32554810166E+03  0.23435642365E+02 -0.29065837883E+03  0.43705228739E+03  0.12699999809E+01 0.  1.
</event>
<event>
 5   0  0.1017079E-02  0.9016176E+03  0.7818609E-02  0.9423562E-01
        2   -1    0    0  501    0  0.00000000000E+00  0.00000000000E+00  0.10785725463E+04  0.10785725463E+04  0.25500000920E-02 0.  1.
       -2   -1    0    0    0  501  0.00000000000E+00  0.00000000000E+00 -0.18842364738E+03  0.18842364740E+03  0.25500000920E-02 0. -1.
    10030    2    1    2    0    0  0.00000000000E+00  0.00000000000E+00  0.89014889887E+03  0.12669961937E+04  0.90161759775E+03 0.  0.
        1    1    3    3  502    0 -0.23058390089E+03  0.25786674534E+03  0.38852368433E+02  0.34810012964E+03  0.50400001928E-02 0. -1.
       -1    1    3    3    0  502  0.23058390089E+03 -0.25786674534E+03  0.85129653044E+03  0.91889606401E+03  0.50400001928E-02 0.  1.
</event>
<event>
 5   0  0.6015709E-03  0.8998749E+03  0.7818609E-02  0.9425738E-01
        1   -1    0    0  501    0  0.00000000000E+00  0.00000000000E+00  0.21716711891E+04  0.21716711891E+04  0.50400001928E-02 0.  1.
       -1   -1    0    0    0  501  0.00000000000E+00  0.00000000000E+00 -0.93220242778E+02  0.93220242914E+02  0.50400001928E-02 0. -1.
    10030    2    1    2    0    0  0.00000000000E+00  0.00000000000E+00  0.20784509464E+04  0.22648914321E+04  0.89987491497E+03 0.  0.
        3    1    3    3  502    0 -0.34221229069E+03 -0.19480880900E+03  0.49135106025E+03  0.62967102409E+03  0.10100000352E+00 0.  1.
       -3    1    3    3    0  502  0.34221229069E+03  0.19480880900E+03  0.15870998861E+04  0.16352204080E+04  0.10100000352E+00 0. -1.
</event>
<event>
 5   0  0.1028978E-02  0.8837453E+03  0.7818609E-02  0.9446132E-01
        2   -1    0    0  501    0  0.00000000000E+00  0.00000000000E+00  0.14338886111E+04  0.14338886111E+04  0.25500000920E-02 0. -1.
       -2   -1    0    0    0  501  0.00000000000E+00  0.00000000000E+00 -0.13616917837E+03  0.13616917839E+03  0.25500000920E-02 0.  1.
    10030    2    1    2    0    0  0.00000000000E+00  0.00000000000E+00  0.12977194327E+04  0.15700577895E+04  0.88374528923E+03 0.  0.
        3    1    3    3  502    0 -0.32070297159E+03 -0.19535576899E+03  0.23511071178E+03  0.44304777334E+03  0.10100000352E+00 0.  1.
       -3    1    3    3    0  502  0.32070297159E+03  0.19535576899E+03  0.10626087209E+04  0.11270100161E+04  0.10100000352E+00 0. -1.
</event>
<event>
 5   0  0.6137243E-03  0.9013257E+03  0.7818609E-02  0.9423926E-01
        1   -1    0    0  501    0  0.00000000000E+00  0.00000000000E+00  0.10911963689E+04  0.10911963689E+04  0.50400001928E-02 0.  1.
       -1   -1    0    0    0  501  0.00000000000E+00  0.00000000000E+00 -0.18612325606E+03  0.18612325613E+03  0.50400001928E-02 0. -1.
    10030    2    1    2    0    0  0.00000000000E+00  0.00000000000E+00  0.90507311280E+03  0.12773196250E+04  0.90132573741E+03 0.  0.
        4    1    3    3  502    0 -0.14043519003E+03  0.52573890463E+02  0.10548019778E+04  0.10654083170E+04  0.12699999809E+01 0.  1.
       -4    1    3    3    0  502  0.14043519003E+03 -0.52573890463E+02 -0.14972886501E+03  0.21191130804E+03  0.12699999809E+01 0. -1.
</event>
<event>
 5   0  0.1003252E-02  0.8518609E+03  0.7818609E-02  0.9487843E-01
       -2   -1    0    0    0  501  0.00000000000E+00  0.00000000000E+00  0.36925672519E+03  0.36925672520E+03  0.25500000920E-02 0.  1.
        2   -1    0    0  501    0  0.00000000000E+00  0.00000000000E+00 -0.49130250119E+03  0.49130250120E+03  0.25500000920E-02 0. -1.
    10030    2    1    2    0    0  0.00000000000E+00  0.00000000000E+00 -0.12204577600E+03  0.86055922639E+03  0.85186091041E+03 0.  0.
        2    1    3    3  502    0 -0.87365661626E+01 -0.40832685389E+03 -0.18312728948E+03  0.44759663912E+03  0.25500000920E-02 0.  1.
       -2    1    3    3    0  502  0.87365661626E+01  0.40832685389E+03  0.61081513473E+02  0.41296258727E+03  0.25500000920E-02 0. -1.
</event>
<event>
 5   0  0.6137243E-03  0.9053387E+03  0.7818609E-02  0.9418932E-01
       -1   -1    0    0    0  501  0.00000000000E+00  0.00000000000E+00  0.32260062756E+03  0.32260062760E+03  0.50400001928E-02 0. -1.
        1   -1    0    0  501    0  0.00000000000E+00  0.00000000000E+00 -0.63518026429E+03  0.63518026431E+03  0.50400001928E-02 0.  1.
    10030    2    1    2    0    0  0.00000000000E+00  0.00000000000E+00 -0.31257963673E+03  0.95778089191E+03  0.90533872535E+03 0.  0.
        4    1    3    3  502    0 -0.34276124254E+03 -0.29564861230E+03 -0.16032766699E+03  0.48020823092E+03  0.12699999809E+01 0.  1.
       -4    1    3    3    0  502  0.34276124254E+03  0.29564861230E+03 -0.15225196975E+03  0.47757266100E+03  0.12699999809E+01 0. -1.
</event>
<event>
 5   0  0.6137243E-03  0.8982853E+03  0.7818609E-02  0.9427727E-01
        1   -1    0    0  501    0  0.00000000000E+00  0.00000000000E+00  0.67967084584E+03  0.67967084586E+03  0.50400001928E-02 0.  1.
       -1   -1    0    0    0  501  0.00000000000E+00  0.00000000000E+00 -0.29680416191E+03  0.29680416196E+03  0.50400001928E-02 0. -1.
    10030    2    1    2    0    0  0.00000000000E+00  0.00000000000E+00  0.38286668393E+03  0.97647500781E+03  0.89828533508E+03 0.  0.
        4    1    3    3  502    0 -0.19197543288E+03 -0.41961941531E+02  0.63045907913E+03  0.66037537411E+03  0.12699999809E+01 0.  1.
       -4    1    3    3    0  502  0.19197543288E+03  0.41961941531E+02 -0.24759239521E+03  0.31609963371E+03  0.12699999809E+01 0. -1.
</event>
<event>
 5   0  0.6092779E-03  0.9291875E+03  0.7818609E-02  0.9389814E-01
        1   -1    0    0  501    0  0.00000000000E+00  0.00000000000E+00  0.13590110324E+04  0.13590110324E+04  0.50400001928E-02 0.  1.
       -1   -1    0    0    0  501  0.00000000000E+00  0.00000000000E+00 -0.15882678927E+03  0.15882678935E+03  0.50400001928E-02 0. -1.
    10030    2    1    2    0    0  0.00000000000E+00  0.00000000000E+00  0.12001842432E+04  0.15178378218E+04  0.92918751377E+03 0.  0.
        2    1    3    3  502    0 -0.22999242817E+03  0.39647078518E+03  0.72408579529E+03  0.85696314942E+03  0.25500000920E-02 0.  1.
       -2    1    3    3    0  502  0.22999242817E+03 -0.39647078518E+03  0.47609844788E+03  0.66087467238E+03  0.25500000920E-02 0. -1.
</event>
<event>
 5   0  0.1003252E-02  0.9091991E+03  0.7818609E-02  0.9414155E-01
        2   -1    0    0  501    0  0.00000000000E+00  0.00000000000E+00  0.21658641342E+04  0.21658641342E+04  0.25500000920E-02 0. -1.
       -2   -1    0    0    0  501  0.00000000000E+00  0.00000000000E+00 -0.95417227849E+02  0.95417227883E+02  0.25500000920E-02 0.  1.
    10030    2    1    2    0    0  0.00000000000E+00  0.00000000000E+00  0.20704469063E+04  0.22612813620E+04  0.90919910167E+03 0.  0.
        2    1    3    3  502    0  0.21046086003E+03 -0.85350837934E+02  0.55786243160E+02  0.23386030888E+03  0.25500000920E-02 0.  1.
       -2    1    3    3    0  502 -0.21046086003E+03  0.85350837934E+02  0.20146606632E+04  0.20274210532E+04  0.25500000920E-02 0. -1.
</event>
<event>
 5   0  0.1017079E-02  0.8933385E+03  0.7818609E-02  0.9433947E-01
       -2   -1    0    0    0  501  0.00000000000E+00  0.00000000000E+00  0.68217078169E+03  0.68217078170E+03  0.25500000920E-02 0.  1.
        2   -1    0    0  501    0  0.00000000000E+00  0.00000000000E+00 -0.29246845100E+03  0.29246845101E+03  0.25500000920E-02 0. -1.
    10030    2    1    2    0    0  0.00000000000E+00  0.00000000000E+00  0.38970233070E+03  0.97463923270E+03  0.89333852899E+03 0.  0.
        1    1    3    3  502    0  0.17323724825E+03  0.10738566277E+03 -0.23877548694E+03  0.31393718788E+03  0.50400001928E-02 0. -1.
       -1    1    3    3    0  502 -0.17323724825E+03 -0.10738566277E+03  0.62847781763E+03  0.66070204482E+03  0.50400001928E-02 0.  1.
</event>
<event>
 5   0  0.3996375E-03  0.9005400E+03  0.7818609E-02  0.9424907E-01
       -4   -1    0    0    0  501  0.00000000000E+00  0.00000000000E+00  0.42441198234E+03  0.42441388249E+03  0.12699999809E+01 0. -1.
        4   -1    0    0  501    0  0.00000000000E+00  0.00000000000E+00 -0.47769965192E+03  0.47770134012E+03  0.12699999809E+01 0.  1.
    10030    2    1    2    0    0  0.00000000000E+00  0.00000000000E+00 -0.53287669589E+02  0.90211522261E+03  0.90054000418E+03 0.  0.
        2    1    3    3  502    0  0.31828801781E+03  0.28962582088E+03  0.10607449924E+03  0.44321798001E+03  0.25500000920E-02 0. -1.
       -2    1    3    3    0  502 -0.31828801781E+03 -0.28962582088E+03 -0.15936216883E+03  0.45889724260E+03  0.25500000920E-02 0.  1.
</event>
<event>
 5   0  0.1017079E-02  0.9028108E+03  0.7818609E-02  0.9422075E-01
       -2   -1    0    0    0  501  0.00000000000E+00  0.00000000000E+00  0.25145140337E+03  0.25145140338E+03  0.25500000920E-02 0.  1.
        2   -1    0    0  501    0  0.00000000000E+00  0.00000000000E+00 -0.81036268089E+03  0.81036268089E+03  0.25500000920E-02 0. -1.
    10030    2    1    2    0    0  0.00000000000E+00  0.00000000000E+00 -0.55891127752E+03  0.10618140843E+04  0.90281079603E+03 0.  0.
        1    1    3    3  502    0 -0.14960376822E+03 -0.12424561940E+02 -0.78014480259E+03  0.79445677683E+03  0.50400001928E-02 0. -1.
       -1    1    3    3    0  502  0.14960376822E+03  0.12424561940E+02  0.22123352508E+03  0.26735730745E+03  0.50400001928E-02 0.  1.
</event>
<event>
 5   0  0.6288003E-03  0.9054744E+03  0.7818609E-02  0.9418764E-01
        1   -1    0    0  501    0  0.00000000000E+00  0.00000000000E+00  0.49083175773E+03  0.49083175776E+03  0.50400001928E-02 0.  1.
       -1   -1    0    0    0  501  0.00000000000E+00  0.00000000000E+00 -0.41759922231E+03  0.41759922234E+03  0.50400001928E-02 0. -1.
    10030    2    1    2    0    0  0.00000000000E+00  0.00000000000E+00  0.73232535420E+02  0.90843098010E+03  0.90547437366E+03 0.  0.
        1    1    3    3  502    0 -0.41240932555E+03  0.10867558637E+03 -0.11579793783E+03  0.44192872424E+03  0.50400001928E-02 0. -1.
       -1    1    3    3    0  502  0.41240932555E+03 -0.10867558637E+03  0.18903047325E+03  0.46650225586E+03  0.50400001928E-02 0.  1.
</event>
<event>
 5   0  0.1033749E-02  0.9017223E+03  0.7818609E-02  0.9423431E-01
        2   -1    0    0  501    0  0.00000000000E+00  0.00000000000E+00  0.17183735594E+04  0.17183735594E+04  0.25500000920E-02 0. -1.
       -2   -1    0    0    0  501  0.00000000000E+00  0.00000000000E+00 -0.11829544777E+03  0.11829544780E+03  0.25500000920E-02 0.  1.
    10030    2    1    2    0    0  0.00000000000E+00  0.00000000000E+00  0.16000781116E+04  0.18366690072E+04  0.90172228467E+03 0.  0.
        5    1    3    3  502    0  0.60032839177E+01 -0.38164168569E+03  0.31133506059E+03  0.49258301394E+03  0.46999998093E+01 0.  1.
       -5    1    3    3    0  502 -0.60032839177E+01  0.38164168569E+03  0.12887430510E+04  0.13440859932E+04  0.46999998093E+01 0. -1.
</event>
<event>
 5   0  0.3996375E-03  0.9086282E+03  0.7818609E-02  0.9414860E-01
        3   -1    0    0  501    0  0.00000000000E+00  0.00000000000E+00  0.11135890204E+04  0.11135890249E+04  0.10100000352E+00 0.  1.
       -3   -1    0    0    0  501  0.00000000000E+00  0.00000000000E+00 -0.18534782308E+03  0.18534785060E+03  0.10100000352E+00 0. -1.
    10030    2    1    2    0    0  0.00000000000E+00  0.00000000000E+00  0.92824119728E+03  0.12989368755E+04  0.90862824428E+03 0.  0.
        1    1    3    3  502    0 -0.50563889529E+02  0.36843306710E+02 -0.17916019579E+03  0.18976962864E+03  0.50400001928E-02 0. -1.
       -1    1    3    3    0  502  0.50563889529E+02 -0.36843306710E+02  0.11074013931E+04  0.11091672469E+04  0.50400001928E-02 0.  1.
</event>
<event>
 5   0  0.1041727E-02  0.9315950E+03  0.7818609E-02  0.9386926E-01
        2   -1    0    0  501    0  0.00000000000E+00  0.00000000000E+00  0.86256153828E+03  0.86256153829E+03  0.25500000920E-02 0. -1.
       -2   -1    0    0    0  501  0.00000000000E+00  0.00000000000E+00 -0.25153836260E+03  0.25153836261E+03  0.25500000920E-02 0.  1.
    10030    2    1    2    0    0  0.00000000000E+00  0.00000000000E+00  0.61102317569E+03  0.11140999009E+04  0.93159501284E+03 0.  0.
        4    1    3    3  502    0 -0.46168466850E+03 -0.54182739356E+02  0.34093143782E+03  0.57647581091E+03  0.12699999809E+01 0.  1.
       -4    1    3    3    0  502  0.46168466850E+03  0.54182739356E+02  0.27009173787E+03  0.53762408999E+03  0.12699999809E+01 0. -1.
</event>
<event>
 5   0  0.1041727E-02  0.8993994E+03  0.7818609E-02  0.9426333E-01
       -2   -1    0    0    0  501  0.00000000000E+00  0.00000000000E+00  0.32220593023E+03  0.32220593024E+03  0.25500000920E-02 0.  1.
        2   -1    0    0  501    0  0.00000000000E+00  0.00000000000E+00 -0.62764145548E+03  0.62764145549E+03  0.25500000920E-02 0. -1.
    10030    2    1    2    0    0  0.00000000000E+00  0.00000000000E+00 -0.30543552525E+03  0.94984738573E+03  0.89939935295E+03 0.  0.
        4    1    3    3  502    0 -0.41241708558E+03 -0.15605619642E+03 -0.24591020483E+03  0.50489090966E+03  0.12699999809E+01 0. -1.
       -4    1    3    3    0  502  0.41241708558E+03  0.15605619642E+03 -0.59525320415E+02  0.44495647607E+03  0.12699999809E+01 0.  1.
</event>
<event>
 5   0  0.6092779E-03  0.9073057E+03  0.7818609E-02  0.9416495E-01
        1   -1    0    0  501    0  0.00000000000E+00  0.00000000000E+00  0.12063388766E+04  0.12063388766E+04  0.50400001928E-02 0.  1.
       -1   -1    0    0    0  501  0.00000000000E+00  0.00000000000E+00 -0.17059957589E+03  0.17059957596E+03  0.50400001928E-02 0. -1.
    10030    2    1    2    0    0  0.00000000000E+00  0.00000000000E+00  0.10357393007E+04  0.13769384526E+04  0.90730568340E+03 0.  0.
        2    1    3    3  502    0  0.12537171204E+03  0.25253839578E+03 -0.21485635369E+02  0.28276375308E+03  0.25500000920E-02 0. -1.
       -2    1    3    3    0  502 -0.12537171204E+03 -0.25253839578E+03  0.10572249361E+04  0.10941746995E+04  0.25500000920E-02 0.  1.
</event>
<event>
 5   0  0.6288003E-03  0.9062948E+03  0.7818609E-02  0.9417747E-01
        1   -1    0    0  501    0  0.00000000000E+00  0.00000000000E+00  0.56807310771E+03  0.56807310774E+03  0.50400001928E-02 0. -1.
       -1   -1    0    0    0  501  0.00000000000E+00  0.00000000000E+00 -0.36147206712E+03  0.36147206716E+03  0.50400001928E-02 0.  1.
    10030    2    1    2    0    0  0.00000000000E+00  0.00000000000E+00  0.20660104059E+03  0.92954517489E+03  0.90629478769E+03 0.  0.
        1    1    3    3  502    0 -0.31879925295E+03  0.29768746704E+03 -0.22699637902E+02  0.43676774755E+03  0.50400001928E-02 0. -1.
       -1    1    3    3    0  502  0.31879925295E+03 -0.29768746704E+03  0.22930067849E+03  0.49277742734E+03  0.50400001928E-02 0.  1.
</event>
<event>
 5   0  0.6211218E-03  0.9082880E+03  0.7818609E-02  0.9415280E-01
       -1   -1    0    0    0  501  0.00000000000E+00  0.00000000000E+00  0.96335496851E+03  0.96335496852E+03  0.50400001928E-02 0.  1.
        1   -1    0    0  501    0  0.00000000000E+00  0.00000000000E+00 -0.21409218640E+03  0.21409218646E+03  0.50400001928E-02 0. -1.
    10030    2    1    2    0    0  0.00000000000E+00  0.00000000000E+00  0.74926278211E+03  0.11774471550E+04  0.90828799735E+03 0.  0.
        5    1    3    3  502    0  0.25299394368E+02  0.55894273051E+02 -0.20866320236E+03  0.21754689410E+03  0.46999998093E+01 0. -1.
       -5    1    3    3    0  502 -0.25299394368E+02 -0.55894273051E+02  0.95792598447E+03  0.95990026088E+03  0.46999998093E+01 0.  1.
</event>
<event>
 5   0  0.1041727E-02  0.9049695E+03  0.7818609E-02  0.9419391E-01
        2   -1    0    0  501    0  0.00000000000E+00  0.00000000000E+00  0.57434132142E+03  0.57434132142E+03  0.25500000920E-02 0. -1.
       -2   -1    0    0    0  501  0.00000000000E+00  0.00000000000E+00 -0.35648215621E+03  0.35648215622E+03  0.25500000920E-02 0.  1.
    10030    2    1    2    0    0  0.00000000000E+00  0.00000000000E+00  0.21785916521E+03  0.93082347764E+03  0.90496946394E+03 0.  0.
        4    1    3    3  502    0  0.56145906357E+01  0.37519658652E+03 -0.15115158812E+03  0.40453976029E+03  0.12699999809E+01 0.  1.
       -4    1    3    3    0  502 -0.56145906357E+01 -0.37519658652E+03  0.36901075333E+03  0.52628371735E+03  0.12699999809E+01 0. -1.
</event>
<event>
 5   0  0.1033749E-02  0.9099400E+03  0.7818609E-02  0.9413241E-01
        2   -1    0    0  501    0  0.00000000000E+00  0.00000000000E+00  0.82999530467E+03  0.82999530468E+03  0.25500000920E-02 0.  1.
       -2   -1    0    0    0  501  0.00000000000E+00  0.00000000000E+00 -0.24939621236E+03  0.24939621237E+03  0.25500000920E-02 0. -1.
    10030    2    1    2    0    0  0.00000000000E+00  0.00000000000E+00  0.58059909232E+03  0.10793915170E+04  0.90993996565E+03 0.  0.
        5    1    3    3  502    0  0.59472658080E+02 -0.41746684783E+03  0.87736491507E+02  0.43073814323E+03  0.46999998093E+01 0. -1.
       -5    1    3    3    0  502 -0.59472658080E+02  0.41746684783E+03  0.49286260081E+03  0.64865337382E+03  0.46999998093E+01 0.  1.
</event>
<event>
 5   0  0.1017079E-02  0.9045608E+03  0.7818609E-02  0.9419898E-01
       -2   -1    0    0    0  501  0.00000000000E+00  0.00000000000E+00  0.15421789390E+03  0.15421789393E+03  0.25500000920E-02 0.  1.
        2   -1    0    0  501    0  0.00000000000E+00  0.00000000000E+00 -0.13264190049E+04  0.13264190049E+04  0.25500000920E-02 0. -1.
    10030    2    1    2    0    0  0.00000000000E+00  0.00000000000E+00 -0.11722011110E+04  0.14806368988E+04  0.90456076720E+03 0.  0.
        1    1    3    3  502    0 -0.37896177918E+03  0.71729508798E+02 -0.97276073566E+03  0.10464323205E+04  0.50400001928E-02 0.  1.
       -1    1    3    3    0  502  0.37896177918E+03 -0.71729508798E+02 -0.19944037536E+03  0.43420457835E+03  0.50400001928E-02 0. -1.
</event>
<event>
 5   0  0.1017079E-02  0.9121962E+03  0.7818609E-02  0.9410463E-01
        2   -1    0    0  501    0  0.00000000000E+00  0.00000000000E+00  0.10059599768E+04  0.10059599768E+04  0.25500000920E-02 0. -1.
       -2   -1    0    0    0  501  0.00000000000E+00  0.00000000000E+00 -0.20679299059E+03  0.20679299060E+03  0.25500000920E-02 0.  1.
    10030    2    1    2    0    0  0.00000000000E+00  0.00000000000E+00  0.79916698618E+03  0.12127529674E+04  0.91219618946E+03 0.  0.
        1    1    3    3  502    0 -0.78568922591E+02 -0.56313933617E+02 -0.19301754901E+03  0.21587058384E+03  0.50400001928E-02 0.  1.
       -1    1    3    3    0  502  0.78568922591E+02  0.56313933617E+02  0.99218453519E+03  0.99688238354E+03  0.50400001928E-02 0. -1.
</event>
<event>
 5   0  0.6211218E-03  0.9025176E+03  0.7818609E-02  0.9422440E-01
       -1   -1    0    0    0  501  0.00000000000E+00  0.00000000000E+00  0.21963584927E+03  0.21963584933E+03  0.50400001928E-02 0. -1.
        1   -1    0    0  501    0  0.00000000000E+00  0.00000000000E+00 -0.92714610769E+03  0.92714610770E+03  0.50400001928E-02 0.  1.
    10030    2    1    2    0    0  0.00000000000E+00  0.00000000000E+00 -0.70751025841E+03  0.11467819570E+04  0.90251764039E+03 0.  0.
        5    1    3    3  502    0  0.44499754982E+02 -0.35517386232E+03 -0.46535330727E+01  0.35801179595E+03  0.46999998093E+01 0. -1.
       -5    1    3    3    0  502 -0.44499754982E+02  0.35517386232E+03 -0.70285672534E+03  0.78877016109E+03  0.46999998093E+01 0.  1.
</event>
<event>
 5   0  0.6211218E-03  0.9062201E+03  0.7818609E-02  0.9417839E-01
       -1   -1    0    0    0  501  0.00000000000E+00  0.00000000000E+00  0.17823236911E+03  0.17823236918E+03  0.50400001928E-02 0. -1.
        1   -1    0    0  501    0  0.00000000000E+00  0.00000000000E+00 -0.11519160836E+04  0.11519160836E+04  0.50400001928E-02 0.  1.
    10030    2    1    2    0    0  0.00000000000E+00  0.00000000000E+00 -0.97368371448E+03  0.13301484528E+04  0.90622013364E+03 0.  0.
        5    1    3    3  502    0 -0.12247167898E+03 -0.18923844734E+03 -0.10637373052E+04  0.10873682203E+04  0.46999998093E+01 0.  1.
       -5    1    3    3    0  502  0.12247167898E+03  0.18923844734E+03  0.90053590675E+02  0.24278023250E+03  0.46999998093E+01 0. -1.
</event>
<event>
 5   0  0.1041727E-02  0.8855272E+03  0.7818609E-02  0.9443856E-01
       -2   -1    0    0    0  501  0.00000000000E+00  0.00000000000E+00  0.16954947954E+03  0.16954947956E+03  0.25500000920E-02 0. -1.
        2   -1    0    0  501    0  0.00000000000E+00  0.00000000000E+00 -0.11562383432E+04  0.11562383432E+04  0.25500000920E-02 0.  1.
    10030    2    1    2    0    0  0.00000000000E+00  0.00000000000E+00 -0.98668886366E+03  0.13257878228E+04  0.88552720869E+03 0.  0.
        4    1    3    3  502    0 -0.30077732694E+03 -0.10715081031E+03 -0.34100784443E+02  0.32111177641E+03  0.12699999809E+01 0. -1.
       -4    1    3    3    0  502  0.30077732694E+03  0.10715081031E+03 -0.95258807921E+03  0.10046760463E+04  0.12699999809E+01 0.  1.
</event>
<event>
 5   0  0.6137243E-03  0.9232745E+03  0.7818609E-02  0.9396946E-01
        1   -1    0    0  501    0  0.00000000000E+00  0.00000000000E+00  0.68264238319E+03  0.68264238321E+03  0.50400001928E-02 0. -1.
       -1   -1    0    0    0  501  0.00000000000E+00  0.00000000000E+00 -0.31218244437E+03  0.31218244442E+03  0.50400001928E-02 0.  1.
    10030    2    1    2    0    0  0.00000000000E+00  0.00000000000E+00  0.37045993882E+03  0.99482482763E+03  0.92327453739E+03 0.  0.
        4    1    3    3  502    0 -0.13832493729E+03  0.29464088564E+03  0.53795213153E+03  0.62876159909E+03  0.12699999809E+01 0. -1.
       -4    1    3    3    0  502  0.13832493729E+03 -0.29464088564E+03 -0.16749219272E+03  0.36606322854E+03  0.12699999809E+01 0.  1.
</event>
<event>
 5   0  0.1041727E-02  0.9013701E+03  0.7818609E-02  0.9423870E-01
       -2   -1    0    0    0  501  0.00000000000E+00  0.00000000000E+00  0.31030366007E+03  0.31030366008E+03  0.25500000920E-02 0.  1.
        2   -1    0    0  501    0  0.00000000000E+00  0.00000000000E+00 -0.65457499436E+03  0.65457499436E+03  0.25500000920E-02 0. -1.
    10030    2    1    2    0    0  0.00000000000E+00  0.00000000000E+00 -0.34427133429E+03  0.96487865444E+03  0.90137010500E+03 0.  0.
        4    1    3    3  502    0  0.29260808319E+03  0.30648661347E+02  0.19332272010E+03  0.35204277837E+03  0.12699999809E+01 0.  1.
       -4    1    3    3    0  502 -0.29260808319E+03 -0.30648661347E+02 -0.53759405439E+03  0.61283587608E+03  0.12699999809E+01 0. -1.
</event>
<event>
 5   0  0.6015709E-03  0.9573384E+03  0.7818609E-02  0.9356614E-01
        1   -1    0    0  501    0  0.00000000000E+00  0.00000000000E+00  0.51411989828E+03  0.51411989830E+03  0.50400001928E-02 0.  1.
       -1   -1    0    0    0  501  0.00000000000E+00  0.00000000000E+00 -0.44566296790E+03  0.44566296793E+03  0.50400001928E-02 0. -1.
    10030    2    1    2    0    0  0.00000000000E+00  0.00000000000E+00  0.68456930376E+02  0.95978286624E+03  0.95733839315E+03 0.  0.
        3    1    3    3  502    0 -0.43475571837E+03 -0.77240777351E+02  0.21948535314E+03  0.49310496123E+03  0.10100000352E+00 0.  1.
       -3    1    3    3    0  502  0.43475571837E+03  0.77240777351E+02 -0.15102842276E+03  0.46667790501E+03  0.10100000352E+00 0. -1.
</event>
<event>
 5   0  0.6137243E-03  0.9685445E+03  0.7818609E-02  0.9343734E-01
        1   -1    0    0  501    0  0.00000000000E+00  0.00000000000E+00  0.35676912675E+03  0.35676912679E+03  0.50400001928E-02 0. -1.
       -1   -1    0    0    0  501  0.00000000000E+00  0.00000000000E+00 -0.65734275117E+03  0.65734275119E+03  0.50400001928E-02 0.  1.
    10030    2    1    2    0    0  0.00000000000E+00  0.00000000000E+00 -0.30057362442E+03  0.10141118780E+04  0.96854447361E+03 0.  0.
        4    1    3    3  502    0 -0.77720600801E+02 -0.37082099310E+03  0.16551432852E+03  0.41345532595E+03  0.12699999809E+01 0. -1.
       -4    1    3    3    0  502  0.77720600801E+02  0.37082099310E+03 -0.46608795294E+03  0.60065655202E+03  0.12699999809E+01 0.  1.
</event>
<event>
 5   0  0.6092779E-03  0.8878869E+03  0.7818609E-02  0.9440851E-01
       -1   -1    0    0    0  501  0.00000000000E+00  0.00000000000E+00  0.46779571920E+03  0.46779571923E+03  0.50400001928E-02 0. -1.
        1   -1    0    0  501    0  0.00000000000E+00  0.00000000000E+00 -0.42130740764E+03  0.42130740767E+03  0.50400001928E-02 0.  1.
    10030    2    1    2    0    0  0.00000000000E+00  0.00000000000E+00  0.46488311560E+02  0.88910312690E+03  0.88788693377E+03 0.  0.
        2    1    3    3  502    0 -0.24383754650E+03  0.51075989929E+02  0.39119855571E+03  0.46379070261E+03  0.25500000920E-02 0. -1.
       -2    1    3    3    0  502  0.24383754650E+03 -0.51075989929E+02 -0.34471024415E+03  0.42531242429E+03  0.25500000920E-02 0.  1.
</event>
<event>
 5   0  0.1017079E-02  0.9027809E+03  0.7818609E-02  0.9422112E-01
       -2   -1    0    0    0  501  0.00000000000E+00  0.00000000000E+00  0.50049362338E+03  0.50049362339E+03  0.25500000920E-02 0. -1.
        2   -1    0    0  501    0  0.00000000000E+00  0.00000000000E+00 -0.40710476578E+03  0.40710476579E+03  0.25500000920E-02 0.  1.
    10030    2    1    2    0    0  0.00000000000E+00  0.00000000000E+00  0.93388857595E+02  0.90759838918E+03  0.90278090217E+03 0.  0.
        1    1    3    3  502    0  0.13114345811E+03  0.37160547188E+03  0.26801483365E+03  0.47657232863E+03  0.50400001928E-02 0. -1.
       -1    1    3    3    0  502 -0.13114345811E+03 -0.37160547188E+03 -0.17462597606E+03  0.43102606055E+03  0.50400001928E-02 0.  1.
</event>
<event>
 5   0  0.6288003E-03  0.9566515E+03  0.7818609E-02  0.9357410E-01
       -1   -1    0    0    0  501  0.00000000000E+00  0.00000000000E+00  0.65532303631E+03  0.65532303633E+03  0.50400001928E-02 0.  1.
        1   -1    0    0  501    0  0.00000000000E+00  0.00000000000E+00 -0.34913392654E+03  0.34913392658E+03  0.50400001928E-02 0. -1.
    10030    2    1    2    0    0  0.00000000000E+00  0.00000000000E+00  0.30618910977E+03  0.10044569629E+04  0.95665146182E+03 0.  0.
        1    1    3    3  502    0  0.31505725688E+03  0.13788294559E+03  0.50215720565E+03  0.60863342088E+03  0.50400001928E-02 0.  1.
       -1    1    3    3    0  502 -0.31505725688E+03 -0.13788294559E+03 -0.19596809588E+03  0.39582354203E+03  0.50400001928E-02 0. -1.
</event>
<event>
 5   0  0.1017079E-02  0.9005059E+03  0.7818609E-02  0.9424949E-01
        2   -1    0    0  501    0  0.00000000000E+00  0.00000000000E+00  0.74872130355E+03  0.74872130356E+03  0.25500000920E-02 0. -1.
       -2   -1    0    0    0  501  0.00000000000E+00  0.00000000000E+00 -0.27076524250E+03  0.27076524252E+03  0.25500000920E-02 0.  1.
    10030    2    1    2    0    0  0.00000000000E+00  0.00000000000E+00  0.47795606105E+03  0.10194865461E+04  0.90050586968E+03 0.  0.
        1    1    3    3  502    0 -0.34836429648E+02 -0.21761335216E+03 -0.20552913855E+03  0.30134925699E+03  0.50400001928E-02 0.  1.
       -1    1    3    3    0  502  0.34836429648E+02  0.21761335216E+03  0.68348519960E+03  0.71813728908E+03  0.50400001928E-02 0. -1.
</event>
<event>
 5   0  0.1003252E-02  0.9038139E+03  0.7818609E-02  0.9420826E-01
       -2   -1    0    0    0  501  0.00000000000E+00  0.00000000000E+00  0.17652352060E+03  0.17652352062E+03  0.25500000920E-02 0.  1.
        2   -1    0    0  501    0  0.00000000000E+00  0.00000000000E+00 -0.11568989595E+04  0.11568989595E+04  0.25500000920E-02 0. -1.
    10030    2    1    2    0    0  0.00000000000E+00  0.00000000000E+00 -0.98037543889E+03  0.13334224801E+04  0.90381386873E+03 0.  0.
        2    1    3    3  502    0 -0.15777422967E+03 -0.17450893619E+03  0.79055557122E+02  0.24818512743E+03  0.25500000920E-02 0.  1.
       -2    1    3    3    0  502  0.15777422967E+03  0.17450893619E+03 -0.10594309960E+04  0.10852373527E+04  0.25500000920E-02 0. -1.
</event>
<event>
 5   0  0.1041727E-02  0.9037460E+03  0.7818609E-02  0.9420911E-01
        2   -1    0    0  501    0  0.00000000000E+00  0.00000000000E+00  0.76150339381E+03  0.76150339381E+03  0.25500000920E-02 0. -1.
       -2   -1    0    0    0  501  0.00000000000E+00  0.00000000000E+00 -0.26813957181E+03  0.26813957182E+03  0.25500000920E-02 0.  1.
    10030    2    1    2    0    0  0.00000000000E+00  0.00000000000E+00  0.49336382200E+03  0.10296429656E+04  0.90374596864E+03 0.  0.
        4    1    3    3  502    0  0.32864874045E+03  0.19627817118E+03  0.52023979002E+03  0.64589950232E+03  0.12699999809E+01 0. -1.
       -4    1    3    3    0  502 -0.32864874045E+03 -0.19627817118E+03 -0.26875968020E+02  0.38374346332E+03  0.12699999809E+01 0.  1.
</event>
<event>
 5   0  0.6092779E-03  0.8904560E+03  0.7818609E-02  0.9437591E-01
        1   -1    0    0  501    0  0.00000000000E+00  0.00000000000E+00  0.99432077541E+03  0.99432077543E+03  0.50400001928E-02 0. -1.
       -1   -1    0    0    0  501  0.00000000000E+00  0.00000000000E+00 -0.19936017937E+03  0.19936017944E+03  0.50400001928E-02 0.  1.
    10030    2    1    2    0    0  0.00000000000E+00  0.00000000000E+00  0.79496059604E+03  0.11936809549E+04  0.89045599147E+03 0.  0.
        2    1    3    3  502    0 -0.32053461898E+03  0.19923841461E+03  0.80850086027E+02  0.38597295791E+03  0.25500000920E-02 0.  1.
       -2    1    3    3    0  502  0.32053461898E+03 -0.19923841461E+03  0.71411051002E+03  0.80770799695E+03  0.25500000920E-02 0. -1.
</event>
<event>
 5   0  0.6288003E-03  0.8962850E+03  0.7818609E-02  0.9430237E-01
       -1   -1    0    0    0  501  0.00000000000E+00  0.00000000000E+00  0.65745734055E+03  0.65745734057E+03  0.50400001928E-02 0. -1.
        1   -1    0    0  501    0  0.00000000000E+00  0.00000000000E+00 -0.30546729441E+03  0.30546729445E+03  0.50400001928E-02 0.  1.
    10030    2    1    2    0    0  0.00000000000E+00  0.00000000000E+00  0.35199004614E+03  0.96292463502E+03  0.89628503287E+03 0.  0.
        1    1    3    3  502    0 -0.39147090041E+02  0.39881413827E+03 -0.39536218824E+02  0.40267645097E+03  0.50400001928E-02 0.  1.
       -1    1    3    3    0  502  0.39147090041E+02 -0.39881413827E+03  0.39152626497E+03  0.56024818405E+03  0.50400001928E-02 0. -1.
</event>
<event>
 5   0  0.1041727E-02  0.8924739E+03  0.7818609E-02  0.9435039E-01
       -2   -1    0    0    0  501  0.00000000000E+00  0.00000000000E+00  0.14015192962E+03  0.14015192964E+03  0.25500000920E-02 0. -1.
        2   -1    0    0  501    0  0.00000000000E+00  0.00000000000E+00 -0.14207966864E+04  0.14207966864E+04  0.25500000920E-02 0.  1.
    10030    2    1    2    0    0  0.00000000000E+00  0.00000000000E+00 -0.12806447567E+04  0.15609486160E+04  0.89247385891E+03 0.  0.
        4    1    3    3  502    0  0.79250556553E+02 -0.19014221527E+03 -0.13326556898E+04  0.13484834123E+04  0.12699999809E+01 0.  1.
       -4    1    3    3    0  502 -0.79250556553E+02  0.19014221527E+03  0.52010933052E+02  0.21246520373E+03  0.12699999809E+01 0. -1.
</event>
<event>
 5   0  0.1033749E-02  0.9096437E+03  0.7818609E-02  0.9413606E-01
       -2   -1    0    0    0  501  0.00000000000E+00  0.00000000000E+00  0.28208087738E+03  0.28208087740E+03  0.25500000920E-02 0.  1.
        2   -1    0    0  501    0  0.00000000000E+00  0.00000000000E+00 -0.73334617877E+03  0.73334617877E+03  0.25500000920E-02 0. -1.
    10030    2    1    2    0    0  0.00000000000E+00  0.00000000000E+00 -0.45126530138E+03  0.10154270562E+04  0.90964374024E+03 0.  0.
        5    1    3    3  502    0 -0.42524948688E+03 -0.12341679737E+03 -0.34149059050E+03  0.55920188247E+03  0.46999998093E+01 0.  1.
       -5    1    3    3    0  502  0.42524948688E+03  0.12341679737E+03 -0.10977471088E+03  0.45622517369E+03  0.46999998093E+01 0. -1.
</event>
<event>
 5   0  0.6092779E-03  0.9092607E+03  0.7818609E-02  0.9414079E-01
       -1   -1    0    0    0  501  0.00000000000E+00  0.00000000000E+00  0.26828239680E+03  0.26828239685E+03  0.50400001928E-02 0. -1.
        1   -1    0    0  501    0  0.00000000000E+00  0.00000000000E+00 -0.77041482795E+03  0.77041482797E+03  0.50400001928E-02 0.  1.
    10030    2    1    2    0    0  0.00000000000E+00  0.00000000000E+00 -0.50213243115E+03  0.10386972248E+04  0.90926065923E+03 0.  0.
        2    1    3    3  502    0 -0.38361390776E+03 -0.23559542598E+03 -0.32353054002E+03  0.55437969417E+03  0.25500000920E-02 0. -1.
       -2    1    3    3    0  502  0.38361390776E+03  0.23559542598E+03 -0.17860189113E+03  0.48431753065E+03  0.25500000920E-02 0.  1.
</event>
<event>
 5   0  0.3996375E-03  0.9138462E+03  0.7818609E-02  0.9408437E-01
        3   -1    0    0  501    0  0.00000000000E+00  0.00000000000E+00  0.59495212053E+03  0.59495212910E+03  0.10100000352E+00 0. -1.
       -3   -1    0    0    0  501  0.00000000000E+00  0.00000000000E+00 -0.35091681880E+03  0.35091683334E+03  0.10100000352E+00 0.  1.
    10030    2    1    2    0    0  0.00000000000E+00  0.00000000000E+00  0.24403530172E+03  0.94586896244E+03  0.91384619363E+03 0.  0.
        3    1    3    3  502    0  0.25930240762E+03  0.30043832882E+03 -0.11236338389E+03  0.41246389934E+03  0.10100000352E+00 0.  1.
       -3    1    3    3    0  502 -0.25930240762E+03 -0.30043832882E+03  0.35639868561E+03  0.53340506309E+03  0.10100000352E+00 0. -1.
</event>
<event>
 5   0  0.6015709E-03  0.9060861E+03  0.7818609E-02  0.9418005E-01
        1   -1    0    0  501    0  0.00000000000E+00  0.00000000000E+00  0.11822826482E+04  0.11822826482E+04  0.50400001928E-02 0. -1.
       -1   -1    0    0    0  501  0.00000000000E+00  0.00000000000E+00 -0.17360314441E+03  0.17360314448E+03  0.50400001928E-02 0.  1.
    10030    2    1    2    0    0  0.00000000000E+00  0.00000000000E+00  0.10086795038E+04  0.13558857927E+04  0.90608605631E+03 0.  0.
        3    1    3    3  502    0  0.18087365557E+03  0.10740015424E+03 -0.96092168520E+02  0.23126562101E+03  0.10100000352E+00 0.  1.
       -3    1    3    3    0  502 -0.18087365557E+03 -0.10740015424E+03  0.11047716723E+04  0.11246201717E+04  0.10100000352E+00 0. -1.
</event>
<event>
 5   0  0.1003252E-02  0.9131899E+03  0.7818609E-02  0.9409242E-01
       -2   -1    0    0    0  501  0.00000000000E+00  0.00000000000E+00  0.30780862762E+03  0.30780862763E+03  0.25500000920E-02 0. -1.
        2   -1    0    0  501    0  0.00000000000E+00  0.00000000000E+00 -0.67730054564E+03  0.67730054565E+03  0.25500000920E-02 0.  1.
    10030    2    1    2    0    0  0.00000000000E+00  0.00000000000E+00 -0.36949191802E+03  0.98510917328E+03  0.91318990676E+03 0.  0.
        2    1    3    3  502    0 -0.34974482930E+02  0.44498237892E+03 -0.81014602926E+02  0.45364732767E+03  0.25500000920E-02 0. -1.
       -2    1    3    3    0  502  0.34974482930E+02 -0.44498237892E+03 -0.28847731509E+03  0.53146184561E+03  0.25500000920E-02 0.  1.
</event>
<event>
 5   0  0.1041727E-02  0.9241098E+03  0.7818609E-02  0.9395935E-01
        2   -1    0    0  501    0  0.00000000000E+00  0.00000000000E+00  0.18196662526E+04  0.18196662526E+04  0.25500000920E-02 0.  1.
       -2   -1    0    0    0  501  0.00000000000E+00  0.00000000000E+00 -0.11732630738E+03  0.11732630741E+03  0.25500000920E-02 0. -1.
    10030    2    1    2    0    0  0.00000000000E+00  0.00000000000E+00  0.17023399453E+04  0.19369925601E+04  0.92410978161E+03 0.  0.
        4    1    3    3  502    0  0.43869428199E+03 -0.13281395625E+03  0.72893355141E+03  0.86106791561E+03  0.12699999809E+01 0.  1.
       -4    1    3    3    0  502 -0.43869428199E+03  0.13281395625E+03  0.97340639386E+03  0.10759246445E+04  0.12699999809E+01 0. -1.
</event>
<event>
 5   0  0.6288003E-03  0.9042689E+03  0.7818609E-02  0.9420261E-01
       -1   -1    0    0    0  501  0.00000000000E+00  0.00000000000E+00  0.32590382688E+03  0.32590382692E+03  0.50400001928E-02 0. -1.
        1   -1    0    0  501    0  0.00000000000E+00  0.00000000000E+00 -0.62725736631E+03  0.62725736633E+03  0.50400001928E-02 0.  1.
    10030    2    1    2    0    0  0.00000000000E+00  0.00000000000E+00 -0.30135353943E+03  0.95316119325E+03  0.90426893378E+03 0.  0.
        1    1    3    3  502    0 -0.79710919599E+02 -0.42375046565E+02  0.31630771576E+03  0.32893775452E+03  0.50400001928E-02 0. -1.
       -1    1    3    3    0  502  0.79710919599E+02  0.42375046565E+02 -0.61766125519E+03  0.62422343873E+03  0.50400001928E-02 0.  1.
</event>
<event>
 5   0  0.6288003E-03  0.9075639E+03  0.7818609E-02  0.9416175E-01
       -1   -1    0    0    0  501  0.00000000000E+00  0.00000000000E+00  0.91050716667E+03  0.91050716668E+03  0.50400001928E-02 0.  1.
        1   -1    0    0  501    0  0.00000000000E+00  0.00000000000E+00 -0.22615752661E+03  0.22615752666E+03  0.50400001928E-02 0. -1.
    10030    2    1    2    0    0  0.00000000000E+00  0.00000000000E+00  0.68434964006E+03  0.11366646933E+04  0.90756387943E+03 0.  0.
        1    1    3    3  502    0  0.24419836392E+03  0.17773767187E+03 -0.81982060528E+02  0.31296098673E+03  0.50400001928E-02 0. -1.
       -1    1    3    3    0  502 -0.24419836392E+03 -0.17773767187E+03  0.76633170059E+03  0.82370370662E+03  0.50400001928E-02 0.  1.
</event>
<event>
 5   0  0.1028978E-02  0.7889422E+03  0.7818609E-02  0.9576162E-01
        2   -1    0    0  501    0  0.00000000000E+00  0.00000000000E+00  0.11511111521E+04  0.11511111521E+04  0.25500000920E-02 0.  1.
       -2   -1    0    0    0  501  0.00000000000E+00  0.00000000000E+00 -0.13518020714E+03  0.13518020717E+03  0.25500000920E-02 0. -1.
    10030    2    1    2    0    0  0.00000000000E+00  0.00000000000E+00  0.10159309450E+04  0.12862913593E+04  0.78894218801E+03 0.  0.
        3    1    3    3  502    0 -0.11104907996E+00  0.81338670900E+02  0.11372902543E+04  0.11401952133E+04  0.10100000352E+00 0.  1.
       -3    1    3    3    0  502  0.11104907996E+00 -0.81338670900E+02 -0.12135930931E+03  0.14609614599E+03  0.10100000352E+00 0. -1.
</event>
<event>
 5   0  0.6137243E-03  0.9110177E+03  0.7818609E-02  0.9411913E-01
        1   -1    0    0  501    0  0.00000000000E+00  0.00000000000E+00  0.13035877475E+04  0.13035877475E+04  0.50400001928E-02 0. -1.
       -1   -1    0    0    0  501  0.00000000000E+00  0.00000000000E+00 -0.15916714101E+03  0.15916714109E+03  0.50400001928E-02 0.  1.
    10030    2    1    2    0    0  0.00000000000E+00  0.00000000000E+00  0.11444206065E+04  0.14627548886E+04  0.91101774930E+03 0.  0.
        4    1    3    3  502    0  0.15905544549E+03  0.41483934108E+03  0.41087545930E+03  0.60515334387E+03  0.12699999809E+01 0.  1.
       -4    1    3    3    0  502 -0.15905544549E+03 -0.41483934108E+03  0.73354514720E+03  0.85760154473E+03  0.12699999809E+01 0. -1.
</event>
<event>
 5   0  0.6288003E-03  0.8858459E+03  0.7818609E-02  0.9443450E-01
        1   -1    0    0  501    0  0.00000000000E+00  0.00000000000E+00  0.48207839263E+03  0.48207839266E+03  0.50400001928E-02 0.  1.
       -1   -1    0    0    0  501  0.00000000000E+00  0.00000000000E+00 -0.40694784189E+03  0.40694784192E+03  0.50400001928E-02 0. -1.
    10030    2    1    2    0    0  0.00000000000E+00  0.00000000000E+00  0.75130550744E+02  0.88902623458E+03  0.88584594942E+03 0.  0.
        1    1    3    3  502    0 -0.44021987667E+03  0.30059749989E+01  0.86506999447E+02  0.44864912424E+03  0.50400001928E-02 0. -1.
       -1    1    3    3    0  502  0.44021987667E+03 -0.30059749989E+01 -0.11376448703E+02  0.44037711034E+03  0.50400001928E-02 0.  1.
</event>
<event>
 5   0  0.3996375E-03  0.9020431E+03  0.7818609E-02  0.9423031E-01
        3   -1    0    0  501    0  0.00000000000E+00  0.00000000000E+00  0.78124617262E+03  0.78124617915E+03  0.10100000352E+00 0. -1.
       -3   -1    0    0    0  501  0.00000000000E+00  0.00000000000E+00 -0.26037944410E+03  0.26037946368E+03  0.10100000352E+00 0.  1.
    10030    2    1    2    0    0  0.00000000000E+00  0.00000000000E+00  0.52086672853E+03  0.10416256428E+04  0.90204314250E+03 0.  0.
        5    1    3    3  502    0  0.22153788188E+03  0.37194571670E+03  0.11447985124E+03  0.44782851139E+03  0.46999998093E+01 0.  1.
       -5    1    3    3    0  502 -0.22153788188E+03 -0.37194571670E+03  0.40638687729E+03  0.59379713144E+03  0.46999998093E+01 0. -1.
</event>
<event>
 5   0  0.6288003E-03  0.8669570E+03  0.7818609E-02  0.9467856E-01
       -1   -1    0    0    0  501  0.00000000000E+00  0.00000000000E+00  0.34856540267E+03  0.34856540270E+03  0.50400001928E-02 0.  1.
        1   -1    0    0  501    0  0.00000000000E+00  0.00000000000E+00 -0.53907706935E+03  0.53907706937E+03  0.50400001928E-02 0. -1.
    10030    2    1    2    0    0  0.00000000000E+00  0.00000000000E+00 -0.19051166668E+03  0.88764247207E+03  0.86695701340E+03 0.  0.
        1    1    3    3  502    0 -0.16577645339E+03 -0.39772277933E+03 -0.46815531492E+02  0.43342465979E+03  0.50400001928E-02 0. -1.
       -1    1    3    3    0  502  0.16577645339E+03  0.39772277933E+03 -0.14369613519E+03  0.45421781228E+03  0.50400001928E-02 0.  1.
</event>
<event>
 5   0  0.6015709E-03  0.9055014E+03  0.7818609E-02  0.9418730E-01
       -1   -1    0    0    0  501  0.00000000000E+00  0.00000000000E+00  0.11431879325E+03  0.11431879336E+03  0.50400001928E-02 0.  1.
        1   -1    0    0  501    0  0.00000000000E+00  0.00000000000E+00 -0.17930838468E+04  0.17930838468E+04  0.50400001928E-02 0. -1.
    10030    2    1    2    0    0  0.00000000000E+00  0.00000000000E+00 -0.16787650536E+04  0.19074026402E+04  0.90550136760E+03 0.  0.
        3    1    3    3  502    0 -0.50061154331E+02  0.44342721318E+03 -0.10004869276E+04  0.10954943702E+04  0.10100000352E+00 0. -1.
       -3    1    3    3    0  502  0.50061154331E+02 -0.44342721318E+03 -0.67827812596E+03  0.81190827002E+03  0.10100000352E+00 0.  1.
</event>
<event>
 5   0  0.1033749E-02  0.8919532E+03  0.7818609E-02  0.9435697E-01
       -2   -1    0    0    0  501  0.00000000000E+00  0.00000000000E+00  0.42918244417E+03  0.42918244417E+03  0.25500000920E-02 0.  1.
        2   -1    0    0  501    0  0.00000000000E+00  0.00000000000E+00 -0.46342792255E+03  0.46342792256E+03  0.25500000920E-02 0. -1.
    10030    2    1    2    0    0  0.00000000000E+00  0.00000000000E+00 -0.34245478388E+02  0.89261036673E+03  0.89195320169E+03 0.  0.
        5    1    3    3  502    0 -0.19135528081E+03 -0.13898765920E+03 -0.39547354095E+03  0.46082081604E+03  0.46999998093E+01 0. -1.
       -5    1    3    3    0  502  0.19135528081E+03  0.13898765920E+03  0.36122806257E+03  0.43178955069E+03  0.46999998093E+01 0.  1.
</event>
<event>
 5   0  0.6137243E-03  0.9071688E+03  0.7818609E-02  0.9416664E-01
        1   -1    0    0  501    0  0.00000000000E+00  0.00000000000E+00  0.27540000064E+03  0.27540000069E+03  0.50400001928E-02 0.  1.
       -1   -1    0    0    0  501  0.00000000000E+00  0.00000000000E+00 -0.74705454076E+03  0.74705454077E+03  0.50400001928E-02 0. -1.
    10030    2    1    2    0    0  0.00000000000E+00  0.00000000000E+00 -0.47165454011E+03  0.10224545415E+04  0.90716882891E+03 0.  0.
        4    1    3    3  502    0  0.25138824368E+03 -0.32530570474E+03 -0.19858180004E+02  0.41160151945E+03  0.12699999809E+01 0.  1.
       -4    1    3    3    0  502 -0.25138824368E+03  0.32530570474E+03 -0.45179636011E+03  0.61085302202E+03  0.12699999809E+01 0. -1.
</event>
<event>
 5   0  0.6288003E-03  0.8967367E+03  0.7818609E-02  0.9429670E-01
       -1   -1    0    0    0  501  0.00000000000E+00  0.00000000000E+00  0.25199402377E+03  0.25199402382E+03  0.50400001928E-02 0.  1.
        1   -1    0    0  501    0  0.00000000000E+00  0.00000000000E+00 -0.79777356414E+03  0.79777356415E+03  0.50400001928E-02 0. -1.
    10030    2    1    2    0    0  0.00000000000E+00  0.00000000000E+00 -0.54577954037E+03  0.10497675880E+04  0.89673668491E+03 0.  0.
        1    1    3    3  502    0  0.30565121073E+03  0.62928457690E+02  0.10400147929E+03  0.32893610493E+03  0.50400001928E-02 0.  1.
       -1    1    3    3    0  502 -0.30565121073E+03 -0.62928457690E+02 -0.64978101966E+03  0.72083148304E+03  0.50400001928E-02 0. -1.
</event>
<event>
 5   0  0.6288003E-03  0.1058406E+04  0.7818609E-02  0.9246708E-01
        1   -1    0    0  501    0  0.00000000000E+00  0.00000000000E+00  0.43563847612E+03  0.43563847615E+03  0.50400001928E-02 0. -1.
       -1   -1    0    0    0  501  0.00000000000E+00  0.00000000000E+00 -0.64286277874E+03  0.64286277876E+03  0.50400001928E-02 0.  1.
    10030    2    1    2    0    0  0.00000000000E+00  0.00000000000E+00 -0.20722430261E+03  0.10785012549E+04  0.10584058982E+04 0.  0.
        1    1    3    3  502    0  0.21299926391E+03  0.31745177181E+02 -0.59619415634E+03  0.63389582328E+03  0.50400001928E-02 0.  1.
       -1    1    3    3    0  502 -0.21299926391E+03 -0.31745177181E+02  0.38896985372E+03  0.44460543163E+03  0.50400001928E-02 0. -1.
</event>
<event>
 5   0  0.1033749E-02  0.9219025E+03  0.7818609E-02  0.9398609E-01
       -2   -1    0    0    0  501  0.00000000000E+00  0.00000000000E+00  0.13314320100E+03  0.13314320102E+03  0.25500000920E-02 0. -1.
        2   -1    0    0  501    0  0.00000000000E+00  0.00000000000E+00 -0.15958460461E+04  0.15958460461E+04  0.25500000920E-02 0.  1.
    10030    2    1    2    0    0  0.00000000000E+00  0.00000000000E+00 -0.14627028451E+04  0.17289892471E+04  0.92190249138E+03 0.  0.
        5    1    3    3  502    0 -0.13511443569E+03  0.43330284363E+03 -0.58076843996E+03  0.73710334139E+03  0.46999998093E+01 0. -1.
       -5    1    3    3    0  502  0.13511443569E+03 -0.43330284363E+03 -0.88193440513E+03  0.99188590573E+03  0.46999998093E+01 0.  1.
</event>
<event>
 5   0  0.1041727E-02  0.9018192E+03  0.7818609E-02  0.9423310E-01
        2   -1    0    0  501    0  0.00000000000E+00  0.00000000000E+00  0.89100136905E+03  0.89100136905E+03  0.25500000920E-02 0. -1.
       -2   -1    0    0    0  501  0.00000000000E+00  0.00000000000E+00 -0.22819207222E+03  0.22819207224E+03  0.25500000920E-02 0.  1.
    10030    2    1    2    0    0  0.00000000000E+00  0.00000000000E+00  0.66280929683E+03  0.11191934413E+04  0.90181915873E+03 0.  0.
        4    1    3    3  502    0  0.18206089922E+02 -0.27941682468E+02 -0.22665719292E+03  0.22910105922E+03  0.12699999809E+01 0.  1.
       -4    1    3    3    0  502 -0.18206089922E+02  0.27941682468E+02  0.88946648975E+03  0.89009238207E+03  0.12699999809E+01 0. -1.
</event>
<event>
 5   0  0.6211218E-03  0.8924711E+03  0.7818609E-02  0.9435042E-01
       -1   -1    0    0    0  501  0.00000000000E+00  0.00000000000E+00  0.19687486567E+03  0.19687486573E+03  0.50400001928E-02 0.  1.
        1   -1    0    0  501    0  0.00000000000E+00  0.00000000000E+00 -0.10114352691E+04  0.10114352691E+04  0.50400001928E-02 0. -1.
    10030    2    1    2    0    0  0.00000000000E+00  0.00000000000E+00 -0.81456040345E+03  0.12083101349E+04  0.89247113743E+03 0.  0.
        5    1    3    3  502    0  0.17391031141E+03  0.33672147088E+03 -0.88387609651E+02  0.38917939938E+03  0.46999998093E+01 0.  1.
       -5    1    3    3    0  502 -0.17391031141E+03 -0.33672147088E+03 -0.72617279380E+03  0.81913073548E+03  0.46999998093E+01 0. -1.
</event>
<event>
 5   0  0.1041727E-02  0.9010772E+03  0.7818609E-02  0.9424236E-01
       -2   -1    0    0    0  501  0.00000000000E+00  0.00000000000E+00  0.57728688821E+03  0.57728688822E+03  0.25500000920E-02 0. -1.
        2   -1    0    0  501    0  0.00000000000E+00  0.00000000000E+00 -0.35161896523E+03  0.35161896524E+03  0.25500000920E-02 0.  1.
    10030    2    1    2    0    0  0.00000000000E+00  0.00000000000E+00  0.22566792298E+03  0.92890585345E+03  0.90107717379E+03 0.  0.
        4    1    3    3  502    0 -0.27311331917E+03 -0.35481499179E+03  0.16436621069E+03  0.47697214555E+03  0.12699999809E+01 0.  1.
       -4    1    3    3    0  502  0.27311331917E+03  0.35481499179E+03  0.61301712293E+02  0.45193370791E+03  0.12699999809E+01 0. -1.
</event>
<event>
 5   0  0.6015709E-03  0.9330499E+03  0.7818609E-02  0.9385185E-01
       -1   -1    0    0    0  501  0.00000000000E+00  0.00000000000E+00  0.68379471873E+03  0.68379471875E+03  0.50400001928E-02 0. -1.
        1   -1    0    0  501    0  0.00000000000E+00  0.00000000000E+00 -0.31829072142E+03  0.31829072146E+03  0.50400001928E-02 0.  1.
    10030    2    1    2    0    0  0.00000000000E+00  0.00000000000E+00  0.36550399731E+03  0.10020854402E+04  0.93304986867E+03 0.  0.
        3    1    3    3  502    0 -0.34628181439E+03  0.30047625824E+03  0.27544185113E+03  0.53485072712E+03  0.10100000352E+00 0.  1.
       -3    1    3    3    0  502  0.34628181439E+03 -0.30047625824E+03  0.90062146183E+02  0.46723471309E+03  0.10100000352E+00 0. -1.
</event>
<event>
 5   0  0.1003252E-02  0.8886149E+03  0.7818609E-02  0.9439926E-01
       -2   -1    0    0    0  501  0.00000000000E+00  0.00000000000E+00  0.32703171618E+03  0.32703171619E+03  0.25500000920E-02 0. -1.
        2   -1    0    0  501    0  0.00000000000E+00  0.00000000000E+00 -0.60363898733E+03  0.60363898734E+03  0.25500000920E-02 0.  1.
    10030    2    1    2    0    0  0.00000000000E+00  0.00000000000E+00 -0.27660727115E+03  0.93067070353E+03  0.88861486368E+03 0.  0.
        2    1    3    3  502    0 -0.10765797734E+03 -0.18446071013E+03 -0.54634903470E+03  0.58661167854E+03  0.25500000920E-02 0.  1.
       -2    1    3    3    0  502  0.10765797734E+03  0.18446071013E+03  0.26974176355E+03  0.34405902499E+03  0.25500000920E-02 0. -1.
</event>
<event>
 5   0  0.1017079E-02  0.8536752E+03  0.7818609E-02  0.9485417E-01
       -2   -1    0    0    0  501  0.00000000000E+00  0.00000000000E+00  0.97241516823E+02  0.97241516857E+02  0.25500000920E-02 0. -1.
        2   -1    0    0  501    0  0.00000000000E+00  0.00000000000E+00 -0.18735860957E+04  0.18735860957E+04  0.25500000920E-02 0.  1.
    10030    2    1    2    0    0  0.00000000000E+00  0.00000000000E+00 -0.17763445789E+04  0.19708276126E+04  0.85367524008E+03 0.  0.
        1    1    3    3  502    0 -0.24954021532E+03 -0.14277391474E+03 -0.15981366253E+03  0.32893026092E+03  0.50400001928E-02 0. -1.
       -1    1    3    3    0  502  0.24954021532E+03  0.14277391474E+03 -0.16165309164E+04  0.16418973516E+04  0.50400001928E-02 0.  1.
</event>
<event>
 5   0  0.6137243E-03  0.8691631E+03  0.7818609E-02  0.9464972E-01
       -1   -1    0    0    0  501  0.00000000000E+00  0.00000000000E+00  0.25232212697E+03  0.25232212702E+03  0.50400001928E-02 0.  1.
        1   -1    0    0  501    0  0.00000000000E+00  0.00000000000E+00 -0.74849207580E+03  0.74849207582E+03  0.50400001928E-02 0. -1.
    10030    2    1    2    0    0  0.00000000000E+00  0.00000000000E+00 -0.49616994883E+03  0.10008142028E+04  0.86916307474E+03 0.  0.
        4    1    3    3  502    0 -0.19033670345E+02 -0.42829389455E+03 -0.16616414427E+03  0.45979351502E+03  0.12699999809E+01 0. -1.
       -4    1    3    3    0  502  0.19033670345E+02  0.42829389455E+03 -0.33000580456E+03  0.54102068783E+03  0.12699999809E+01 0.  1.
</event>
<event>
 5   0  0.1017079E-02  0.8896297E+03  0.7818609E-02  0.9438638E-01
       -2   -1    0    0    0  501  0.00000000000E+00  0.00000000000E+00  0.21342014261E+03  0.21342014262E+03  0.25500000920E-02 0.  1.
        2   -1    0    0  501    0  0.00000000000E+00  0.00000000000E+00 -0.92709269645E+03  0.92709269646E+03  0.25500000920E-02 0. -1.
    10030    2    1    2    0    0  0.00000000000E+00  0.00000000000E+00 -0.71367255384E+03  0.11405128391E+04  0.88962971061E+03 0.  0.
        1    1    3    3  502    0 -0.16554584319E+03 -0.35040221982E+02  0.17054625813E+03  0.24024834971E+03  0.50400001928E-02 0.  1.
       -1    1    3    3    0  502  0.16554584319E+03  0.35040221982E+02 -0.88421881197E+03  0.90026448937E+03  0.50400001928E-02 0. -1.
</event>
<event>
 5   0  0.3996375E-03  0.9101278E+03  0.7818609E-02  0.9413009E-01
       -4   -1    0    0    0  501  0.00000000000E+00  0.00000000000E+00  0.23178986328E+03  0.23179334248E+03  0.12699999809E+01 0. -1.
        4   -1    0    0  501    0  0.00000000000E+00  0.00000000000E+00 -0.89339833897E+03  0.89339924164E+03  0.12699999809E+01 0.  1.
    10030    2    1    2    0    0  0.00000000000E+00  0.00000000000E+00 -0.66160847569E+03  0.11251925841E+04  0.91012778018E+03 0.  0.
        3    1    3    3  502    0  0.13991002514E+03 -0.33026598368E+03 -0.67704091392E+03  0.76618199172E+03  0.10100000352E+00 0.  1.
       -3    1    3    3    0  502 -0.13991002514E+03  0.33026598368E+03  0.15432438226E+02  0.35901059241E+03  0.10100000352E+00 0. -1.
</event>
<event>
 5   0  0.1041727E-02  0.9103605E+03  0.7818609E-02  0.9412722E-01
        2   -1    0    0  501    0  0.00000000000E+00  0.00000000000E+00  0.64234126803E+03  0.64234126803E+03  0.25500000920E-02 0.  1.
       -2   -1    0    0    0  501  0.00000000000E+00  0.00000000000E+00 -0.32255293504E+03  0.32255293505E+03  0.25500000920E-02 0. -1.
    10030    2    1    2    0    0  0.00000000000E+00  0.00000000000E+00  0.31978833299E+03  0.96489420308E+03  0.91036050289E+03 0.  0.
        4    1    3    3  502    0 -0.44233320983E+03  0.10677063706E+03  0.14786480220E+03  0.47846029103E+03  0.12699999809E+01 0.  1.
       -4    1    3    3    0  502  0.44233320983E+03 -0.10677063706E+03  0.17192353079E+03  0.48643391206E+03  0.12699999809E+01 0. -1.
</event>
<event>
 5   0  0.1028978E-02  0.8833161E+03  0.7818609E-02  0.9446681E-01
        2   -1    0    0  501    0  0.00000000000E+00  0.00000000000E+00  0.55436786522E+03  0.55436786523E+03  0.25500000920E-02 0.  1.
       -2   -1    0    0    0  501  0.00000000000E+00  0.00000000000E+00 -0.35186354645E+03  0.35186354646E+03  0.25500000920E-02 0. -1.
    10030    2    1    2    0    0  0.00000000000E+00  0.00000000000E+00  0.20250431877E+03  0.90623141169E+03  0.88331612258E+03 0.  0.
        3    1    3    3  502    0  0.98630923987E+02 -0.24079257001E+03  0.46737519370E+03  0.53492868947E+03  0.10100000352E+00 0.  1.
       -3    1    3    3    0  502 -0.98630923987E+02  0.24079257001E+03 -0.26487087493E+03  0.37130272221E+03  0.10100000352E+00 0. -1.
</event>
<event>
 5   0  0.6092779E-03  0.7406999E+03  0.7818609E-02  0.9650055E-01
        1   -1    0    0  501    0  0.00000000000E+00  0.00000000000E+00  0.40359757283E+03  0.40359757286E+03  0.50400001928E-02 0.  1.
       -1   -1    0    0    0  501  0.00000000000E+00  0.00000000000E+00 -0.33984124243E+03  0.33984124247E+03  0.50400001928E-02 0. -1.
    10030    2    1    2    0    0  0.00000000000E+00  0.00000000000E+00  0.63756330397E+02  0.74343881533E+03  0.74069994092E+03 0.  0.
        2    1    3    3  502    0  0.33010404946E+03 -0.36237586598E+02  0.19642721304E+03  0.38583091657E+03  0.25500000920E-02 0.  1.
       -2    1    3    3    0  502 -0.33010404946E+03  0.36237586598E+02 -0.13267088264E+03  0.35760789876E+03  0.25500000920E-02 0. -1.
</event>
<event>
 5   0  0.6137243E-03  0.9015161E+03  0.7818609E-02  0.9423688E-01
       -1   -1    0    0    0  501  0.00000000000E+00  0.00000000000E+00  0.29901656582E+03  0.29901656586E+03  0.50400001928E-02 0.  1.
        1   -1    0    0  501    0  0.00000000000E+00  0.00000000000E+00 -0.67950359550E+03  0.67950359552E+03  0.50400001928E-02 0. -1.
    10030    2    1    2    0    0  0.00000000000E+00  0.00000000000E+00 -0.38048702968E+03  0.97852016138E+03  0.90151612657E+03 0.  0.
        4    1    3    3  502    0 -0.37523134065E+03  0.24871821220E+03 -0.16544678859E+03  0.47961814065E+03  0.12699999809E+01 0.  1.
       -4    1    3    3    0  502  0.37523134065E+03 -0.24871821220E+03 -0.21504024109E+03  0.49890202072E+03  0.12699999809E+01 0. -1.
</event>
<event>
 5   0  0.6015709E-03  0.8937656E+03  0.7818609E-02  0.9433408E-01
        1   -1    0    0  501    0  0.00000000000E+00  0.00000000000E+00  0.46925965139E+03  0.46925965142E+03  0.50400001928E-02 0.  1.
       -1   -1    0    0    0  501  0.00000000000E+00  0.00000000000E+00 -0.42557301088E+03  0.42557301091E+03  0.50400001928E-02 0. -1.
    10030    2    1    2    0    0  0.00000000000E+00  0.00000000000E+00  0.43686640504E+02  0.89483266233E+03  0.89376561302E+03 0.  0.
        3    1    3    3  502    0 -0.23923557073E+03 -0.90773146525E+02  0.38865595980E+03  0.46532449723E+03  0.10100000352E+00 0.  1.
       -3    1    3    3    0  502  0.23923557073E+03  0.90773146525E+02 -0.34496931930E+03  0.42950816510E+03  0.10100000352E+00 0. -1.
</event>
<event>
 5   0  0.6015709E-03  0.9275885E+03  0.7818609E-02  0.9391737E-01
       -1   -1    0    0    0  501  0.00000000000E+00  0.00000000000E+00  0.86981832447E+03  0.86981832449E+03  0.50400001928E-02 0.  1.
        1   -1    0    0  501    0  0.00000000000E+00  0.00000000000E+00 -0.24729889005E+03  0.24729889010E+03  0.50400001928E-02 0. -1.
    10030    2    1    2    0    0  0.00000000000E+00  0.00000000000E+00  0.62251943442E+03  0.11171172146E+04  0.92758849976E+03 0.  0.
        3    1    3    3  502    0  0.80655953764E+02  0.44042352640E+03  0.16560702932E+03  0.47739288206E+03  0.10100000352E+00 0. -1.
       -3    1    3    3    0  502 -0.80655953764E+02 -0.44042352640E+03  0.45691240510E+03  0.63972433252E+03  0.10100000352E+00 0.  1.
</event>
<event>
 5   0  0.1017079E-02  0.9011962E+03  0.7818609E-02  0.9424087E-01
        2   -1    0    0  501    0  0.00000000000E+00  0.00000000000E+00  0.83823105962E+03  0.83823105962E+03  0.25500000920E-02 0.  1.
       -2   -1    0    0    0  501  0.00000000000E+00  0.00000000000E+00 -0.24222275178E+03  0.24222275179E+03  0.25500000920E-02 0. -1.
    10030    2    1    2    0    0  0.00000000000E+00  0.00000000000E+00  0.59600830784E+03  0.10804538114E+04  0.90119616931E+03 0.  0.
        1    1    3    3  502    0 -0.13538451287E+03 -0.18616286110E+03 -0.16641411166E+03  0.28404090157E+03  0.50400001928E-02 0. -1.
       -1    1    3    3    0  502  0.13538451287E+03  0.18616286110E+03  0.76242241950E+03  0.79641290984E+03  0.50400001928E-02 0.  1.
</event>
<event>
 5   0  0.1033749E-02  0.9123611E+03  0.7818609E-02  0.9410260E-01
       -2   -1    0    0    0  501  0.00000000000E+00  0.00000000000E+00  0.25253153453E+03  0.25253153454E+03  0.25500000920E-02 0. -1.
        2   -1    0    0  501    0  0.00000000000E+00  0.00000000000E+00 -0.82405822475E+03  0.82405822475E+03  0.25500000920E-02 0.  1.
    10030    2    1    2    0    0  0.00000000000E+00  0.00000000000E+00 -0.57152669022E+03  0.10765897593E+04  0.91236108651E+03 0.  0.
        5    1    3    3  502    0  0.12120589968E+03 -0.27936263520E+03  0.11499396953E+03  0.32554578033E+03  0.46999998093E+01 0.  1.
       -5    1    3    3    0  502 -0.12120589968E+03  0.27936263520E+03 -0.68652065976E+03  0.75104397896E+03  0.46999998093E+01 0. -1.
</event>
<event>
 5   0  0.1003252E-02  0.9022900E+03  0.7818609E-02  0.9422723E-01
        2   -1    0    0  501    0  0.00000000000E+00  0.00000000000E+00  0.79479149137E+03  0.79479149137E+03  0.25500000920E-02 0. -1.
       -2   -1    0    0    0  501  0.00000000000E+00  0.00000000000E+00 -0.25608199220E+03  0.25608199222E+03  0.25500000920E-02 0.  1.
    10030    2    1    2    0    0  0.00000000000E+00  0.00000000000E+00  0.53870949916E+03  0.10508734836E+04  0.90228995008E+03 0.  0.
        2    1    3    3  502    0  0.81753318665E+02  0.12627328468E+03  0.76472222371E+03  0.77937707625E+03  0.25500000920E-02 0. -1.
       -2    1    3    3    0  502 -0.81753318665E+02 -0.12627328468E+03 -0.22601272455E+03  0.27149640734E+03  0.25500000920E-02 0.  1.
</event>
<event>
 5   0  0.6288003E-03  0.9066764E+03  0.7818609E-02  0.9417274E-01
       -1   -1    0    0    0  501  0.00000000000E+00  0.00000000000E+00  0.29226638148E+03  0.29226638153E+03  0.50400001928E-02 0. -1.
        1   -1    0    0  501    0  0.00000000000E+00  0.00000000000E+00 -0.70317886408E+03  0.70317886410E+03  0.50400001928E-02 0.  1.
    10030    2    1    2    0    0  0.00000000000E+00  0.00000000000E+00 -0.41091248259E+03  0.99544524562E+03  0.90667644101E+03 0.  0.
        1    1    3    3  502    0  0.25504525189E+03 -0.34127082949E+03 -0.37554902525E+03  0.56793567414E+03  0.50400001928E-02 0.  1.
       -1    1    3    3    0  502 -0.25504525189E+03  0.34127082949E+03 -0.35363457345E+02  0.42750957148E+03  0.50400001928E-02 0. -1.
</event>
<event>
 5   0  0.1003252E-02  0.9359633E+03  0.7818609E-02  0.9381710E-01
       -2   -1    0    0    0  501  0.00000000000E+00  0.00000000000E+00  0.16571216232E+03  0.16571216234E+03  0.25500000920E-02 0. -1.
        2   -1    0    0  501    0  0.00000000000E+00  0.00000000000E+00 -0.13216097108E+04  0.13216097108E+04  0.25500000920E-02 0.  1.
    10030    2    1    2    0    0  0.00000000000E+00  0.00000000000E+00 -0.11558975484E+04  0.14873218731E+04  0.93596325341E+03 0.  0.
        2    1    3    3  502    0 -0.21611668039E+03 -0.38556841169E+03 -0.82226137408E+03  0.93353263839E+03  0.25500000920E-02 0.  1.
       -2    1    3    3    0  502  0.21611668039E+03  0.38556841169E+03 -0.33363617436E+03  0.55378923471E+03  0.25500000920E-02 0. -1.
</event>
<event>
 5   0  0.6288003E-03  0.8995790E+03  0.7818609E-02  0.9426108E-01
        1   -1    0    0  501    0  0.00000000000E+00  0.00000000000E+00  0.42222719266E+03  0.42222719269E+03  0.50400001928E-02 0.  1.
       -1   -1    0    0    0  501  0.00000000000E+00  0.00000000000E+00 -0.47915098791E+03  0.47915098794E+03  0.50400001928E-02 0. -1.
    10030    2    1    2    0    0  0.00000000000E+00  0.00000000000E+00 -0.56923795245E+02  0.90137818063E+03  0.89957896043E+03 0.  0.
        1    1    3    3  502    0 -0.23616336319E+03 -0.86439447569E+02 -0.40212284352E+03  0.47428650995E+03  0.50400001928E-02 0. -1.
       -1    1    3    3    0  502  0.23616336319E+03  0.86439447569E+02  0.34519904828E+03  0.42709167068E+03  0.50400001928E-02 0.  1.
</event>
<event>
 5   0  0.6211218E-03  0.8435243E+03  0.7818609E-02  0.9499070E-01
       -1   -1    0    0    0  501  0.00000000000E+00  0.00000000000E+00  0.39422806278E+03  0.39422806281E+03  0.50400001928E-02 0. -1.
        1   -1    0    0  501    0  0.00000000000E+00  0.00000000000E+00 -0.45121928235E+03  0.45121928238E+03  0.50400001928E-02 0.  1.
    10030    2    1    2    0    0  0.00000000000E+00  0.00000000000E+00 -0.56991219567E+02  0.84544734519E+03  0.84352428203E+03 0.  0.
        5    1    3    3  502    0  0.34688015117E+03  0.61475768045E+02  0.20388659595E+03  0.40705889419E+03  0.46999998093E+01 0. -1.
       -5    1    3    3    0  502 -0.34688015117E+03 -0.61475768045E+02 -0.26087781552E+03  0.43838845099E+03  0.46999998093E+01 0.  1.
</event>
<event>
 5   0  0.1041727E-02  0.9024655E+03  0.7818609E-02  0.9422505E-01
        2   -1    0    0  501    0  0.00000000000E+00  0.00000000000E+00  0.41249602987E+03  0.41249602988E+03  0.25500000920E-02 0.  1.
       -2   -1    0    0    0  501  0.00000000000E+00  0.00000000000E+00 -0.49360712995E+03  0.49360712995E+03  0.25500000920E-02 0. -1.
    10030    2    1    2    0    0  0.00000000000E+00  0.00000000000E+00 -0.81111100073E+02  0.90610315983E+03  0.90246547065E+03 0.  0.
        4    1    3    3  502    0 -0.30144300051E+03  0.33528511136E+03 -0.22444546157E+02  0.45143034791E+03  0.12699999809E+01 0.  1.
       -4    1    3    3    0  502  0.30144300051E+03 -0.33528511136E+03 -0.58666553915E+02  0.45467281193E+03  0.12699999809E+01 0. -1.
</event>
<event>
 5   0  0.6015709E-03  0.9197719E+03  0.7818609E-02  0.9401198E-01
       -1   -1    0    0    0  501  0.00000000000E+00  0.00000000000E+00  0.14878172015E+03  0.14878172024E+03  0.50400001928E-02 0. -1.
        1   -1    0    0  501    0  0.00000000000E+00  0.00000000000E+00 -0.14215126405E+04  0.14215126405E+04  0.50400001928E-02 0.  1.
    10030    2    1    2    0    0  0.00000000000E+00  0.00000000000E+00 -0.12727309203E+04  0.15702943607E+04  0.91977191944E+03 0.  0.
        3    1    3    3  502    0  0.18689496445E+03 -0.31761263505E+03 -0.16667340780E+03  0.40445957616E+03  0.10100000352E+00 0. -1.
       -3    1    3    3    0  502 -0.18689496445E+03  0.31761263505E+03 -0.11060575125E+04  0.11658347846E+04  0.10100000352E+00 0.  1.
</event>
<event>
 5   0  0.3996375E-03  0.9306298E+03  0.7818609E-02  0.9388082E-01
        3   -1    0    0  501    0  0.00000000000E+00  0.00000000000E+00  0.37332669781E+03  0.37332671147E+03  0.10100000352E+00 0.  1.
       -3   -1    0    0    0  501  0.00000000000E+00  0.00000000000E+00 -0.57996908212E+03  0.57996909092E+03  0.10100000352E+00 0. -1.
    10030    2    1    2    0    0  0.00000000000E+00  0.00000000000E+00 -0.20664238432E+03  0.95329580238E+03  0.93062979312E+03 0.  0.
        4    1    3    3  502    0  0.15253879932E+03  0.43908992792E+03 -0.12500972809E+03  0.48134924443E+03  0.12699999809E+01 0.  1.
       -4    1    3    3    0  502 -0.15253879932E+03 -0.43908992792E+03 -0.81632656231E+02  0.47194655795E+03  0.12699999809E+01 0. -1.
</event>
<event>
 5   0  0.6288003E-03  0.8716162E+03  0.7818609E-02  0.9461775E-01
        1   -1    0    0  501    0  0.00000000000E+00  0.00000000000E+00  0.31263048767E+03  0.31263048771E+03  0.50400001928E-02 0. -1.
       -1   -1    0    0    0  501  0.00000000000E+00  0.00000000000E+00 -0.60751822093E+03  0.60751822095E+03  0.50400001928E-02 0.  1.
    10030    2    1    2    0    0  0.00000000000E+00  0.00000000000E+00 -0.29488773326E+03  0.92014870867E+03  0.87161624057E+03 0.  0.
        1    1    3    3  502    0  0.27721757474E+03  0.17244343114E+02  0.20708545012E+03  0.34645538643E+03  0.50400001928E-02 0. -1.
       -1    1    3    3    0  502 -0.27721757474E+03 -0.17244343114E+02 -0.50197318338E+03  0.57369332223E+03  0.50400001928E-02 0.  1.
</event>
<event>
 5   0  0.6092779E-03  0.8955325E+03  0.7818609E-02  0.9431183E-01
        1   -1    0    0  501    0  0.00000000000E+00  0.00000000000E+00  0.56035044417E+03  0.56035044419E+03  0.50400001928E-02 0.  1.
       -1   -1    0    0    0  501  0.00000000000E+00  0.00000000000E+00 -0.35780215646E+03  0.35780215650E+03  0.50400001928E-02 0. -1.
    10030    2    1    2    0    0  0.00000000000E+00  0.00000000000E+00  0.20254828771E+03  0.91815260069E+03  0.89553246133E+03 0.  0.
        2    1    3    3  502    0  0.12369772993E+03 -0.16187864399E+03  0.51007967717E+03  0.54926050362E+03  0.25500000920E-02 0.  1.
       -2    1    3    3    0  502 -0.12369772993E+03  0.16187864399E+03 -0.30753138946E+03  0.36889209707E+03  0.25500000920E-02 0. -1.
</event>
<event>
 5   0  0.6137243E-03  0.9004833E+03  0.7818609E-02  0.9424977E-01
        1   -1    0    0  501    0  0.00000000000E+00  0.00000000000E+00  0.59449400653E+03  0.59449400655E+03  0.50400001928E-02 0. -1.
       -1   -1    0    0    0  501  0.00000000000E+00  0.00000000000E+00 -0.34099172403E+03  0.34099172406E+03  0.50400001928E-02 0.  1.
    10030    2    1    2    0    0  0.00000000000E+00  0.00000000000E+00  0.25350228251E+03  0.93548573062E+03  0.90048328410E+03 0.  0.
        4    1    3    3  502    0 -0.26706340117E+03 -0.30491408733E+03  0.33038163111E+03  0.52292360434E+03  0.12699999809E+01 0. -1.
       -4    1    3    3    0  502  0.26706340117E+03  0.30491408733E+03 -0.76879348607E+02  0.41256212628E+03  0.12699999809E+01 0.  1.
</event>
<event>
 5   0  0.6211218E-03  0.8923703E+03  0.7818609E-02  0.9435170E-01
       -1   -1    0    0    0  501  0.00000000000E+00  0.00000000000E+00  0.17250358872E+03  0.17250358880E+03  0.50400001928E-02 0.  1.
        1   -1    0    0  501    0  0.00000000000E+00  0.00000000000E+00 -0.11540698060E+04  0.11540698060E+04  0.50400001928E-02 0. -1.
    10030    2    1    2    0    0  0.00000000000E+00  0.00000000000E+00 -0.98156621729E+03  0.13265733948E+04  0.89237028913E+03 0.  0.
        5    1    3    3  502    0 -0.39457064941E+03 -0.15911959106E+03 -0.29103921087E+03  0.51549098334E+03  0.46999998093E+01 0.  1.
       -5    1    3    3    0  502  0.39457064941E+03  0.15911959106E+03 -0.69052700642E+03  0.81108241149E+03  0.46999998093E+01 0. -1.
</event>
<event>
 5   0  0.1017079E-02  0.8996406E+03  0.7818609E-02  0.9426031E-01
       -2   -1    0    0    0  501  0.00000000000E+00  0.00000000000E+00  0.31657889405E+03  0.31657889406E+03  0.25500000920E-02 0. -1.
        2   -1    0    0  501    0  0.00000000000E+00  0.00000000000E+00 -0.63914027915E+03  0.63914027915E+03  0.25500000920E-02 0.  1.
    10030    2    1    2    0    0  0.00000000000E+00  0.00000000000E+00 -0.32256138510E+03  0.95571917322E+03  0.89964064542E+03 0.  0.
        1    1    3    3  502    0  0.16981362484E+03 -0.23103696986E+03 -0.52947354454E+03  0.60212704890E+03  0.50400001928E-02 0.  1.
       -1    1    3    3    0  502 -0.16981362484E+03  0.23103696986E+03  0.20691215945E+03  0.35359212431E+03  0.50400001928E-02 0. -1.
</event>
<event>
 5   0  0.6092779E-03  0.8932490E+03  0.7818609E-02  0.9434060E-01
       -1   -1    0    0    0  501  0.00000000000E+00  0.00000000000E+00  0.17157789138E+03  0.17157789146E+03  0.50400001928E-02 0. -1.
        1   -1    0    0  501    0  0.00000000000E+00  0.00000000000E+00 -0.11625824546E+04  0.11625824546E+04  0.50400001928E-02 0.  1.
    10030    2    1    2    0    0  0.00000000000E+00  0.00000000000E+00 -0.99100456319E+03  0.13341603460E+04  0.89324900486E+03 0.  0.
        2    1    3    3  502    0 -0.61829121514E+00  0.62954760239E+02 -0.11559215122E+04  0.11576347552E+04  0.25500000920E-02 0.  1.
       -2    1    3    3    0  502  0.61829121514E+00 -0.62954760239E+02  0.16491694903E+03  0.17652559080E+03  0.25500000920E-02 0. -1.
</event>
<event>
 5   0  0.1028978E-02  0.9072580E+03  0.7818609E-02  0.9416554E-01
       -2   -1    0    0    0  501  0.00000000000E+00  0.00000000000E+00  0.31712059197E+03  0.31712059198E+03  0.25500000920E-02 0.  1.
        2   -1    0    0  501    0  0.00000000000E+00  0.00000000000E+00 -0.64889906178E+03  0.64889906179E+03  0.25500000920E-02 0. -1.
    10030    2    1    2    0    0  0.00000000000E+00  0.00000000000E+00 -0.33177846981E+03  0.96601965377E+03  0.90725796687E+03 0.  0.
        3    1    3    3  502    0 -0.39439848207E+03 -0.14233276866E+03 -0.35022173366E+03  0.54631863653E+03  0.10100000352E+00 0. -1.
       -3    1    3    3    0  502  0.39439848207E+03  0.14233276866E+03  0.18443263849E+02  0.41970101724E+03  0.10100000352E+00 0.  1.
</event>
<event>
 5   0  0.6137243E-03  0.9098377E+03  0.7818609E-02  0.9413367E-01
        1   -1    0    0  501    0  0.00000000000E+00  0.00000000000E+00  0.32041333453E+03  0.32041333457E+03  0.50400001928E-02 0.  1.
       -1   -1    0    0    0  501  0.00000000000E+00  0.00000000000E+00 -0.64588815744E+03  0.64588815746E+03  0.50400001928E-02 0. -1.
    10030    2    1    2    0    0  0.00000000000E+00  0.00000000000E+00 -0.32547482291E+03  0.96630149203E+03  0.90983774001E+03 0.  0.
        4    1    3    3  502    0  0.27269229012E+03 -0.35062734972E+03 -0.26706244884E+03  0.51829006159E+03  0.12699999809E+01 0. -1.
       -4    1    3    3    0  502 -0.27269229012E+03  0.35062734972E+03 -0.58412374065E+02  0.44801143044E+03  0.12699999809E+01 0.  1.
</event>
<event>
 5   0  0.1017079E-02  0.8817875E+03  0.7818609E-02  0.9448639E-01
        2   -1    0    0  501    0  0.00000000000E+00  0.00000000000E+00  0.61866463268E+03  0.61866463269E+03  0.25500000920E-02 0.  1.
       -2   -1    0    0    0  501  0.00000000000E+00  0.00000000000E+00 -0.31420466564E+03  0.31420466565E+03  0.25500000920E-02 0. -1.
    10030    2    1    2    0    0  0.00000000000E+00  0.00000000000E+00  0.30445996704E+03  0.93286929834E+03  0.88178753465E+03 0.  0.
        1    1    3    3  502    0  0.42987516241E+03  0.52979573049E+02  0.65069000535E+02  0.43798797389E+03  0.50400001928E-02 0.  1.
       -1    1    3    3    0  502 -0.42987516241E+03 -0.52979573049E+02  0.23939096651E+03  0.49488132445E+03  0.50400001928E-02 0. -1.
</event>
<event>
 5   0  0.6015709E-03  0.8583949E+03  0.7818609E-02  0.9479138E-01
        1   -1    0    0  501    0  0.00000000000E+00  0.00000000000E+00  0.77311052431E+03  0.77311052432E+03  0.50400001928E-02 0. -1.
       -1   -1    0    0    0  501  0.00000000000E+00  0.00000000000E+00 -0.23827183166E+03  0.23827183171E+03  0.50400001928E-02 0.  1.
    10030    2    1    2    0    0  0.00000000000E+00  0.00000000000E+00  0.53483869265E+03  0.10113823560E+04  0.85839492248E+03 0.  0.
        3    1    3    3  502    0 -0.17567743137E+03  0.68691117849E+02  0.72165437885E+03  0.74589951219E+03  0.10100000352E+00 0. -1.
       -3    1    3    3    0  502  0.17567743137E+03 -0.68691117849E+02 -0.18681568620E+03  0.26548284384E+03  0.10100000352E+00 0.  1.
</event>
<event>
 5   0  0.1041727E-02  0.8931561E+03  0.7818609E-02  0.9434177E-01
        2   -1    0    0  501    0  0.00000000000E+00  0.00000000000E+00  0.85939038800E+03  0.85939038800E+03  0.25500000920E-02 0. -1.
       -2   -1    0    0    0  501  0.00000000000E+00  0.00000000000E+00 -0.23206212918E+03  0.23206212919E+03  0.25500000920E-02 0.  1.
    10030    2    1    2    0    0  0.00000000000E+00  0.00000000000E+00  0.62732825882E+03  0.10914525172E+04  0.89315611903E+03 0.  0.
        4    1    3    3  502    0 -0.35597020798E+03  0.26546933148E+03  0.25580710634E+03  0.51247209044E+03  0.12699999809E+01 0. -1.
       -4    1    3    3    0  502  0.35597020798E+03 -0.26546933148E+03  0.37152115248E+03  0.57898042676E+03  0.12699999809E+01 0.  1.
</event>
<event>
 5   0  0.3996375E-03  0.9031548E+03  0.7818609E-02  0.9421646E-01
       -3   -1    0    0    0  501  0.00000000000E+00  0.00000000000E+00  0.58365289757E+03  0.58365290631E+03  0.10100000352E+00 0.  1.
        3   -1    0    0  501    0  0.00000000000E+00  0.00000000000E+00 -0.34938940474E+03  0.34938941934E+03  0.10100000352E+00 0. -1.
    10030    2    1    2    0    0  0.00000000000E+00  0.00000000000E+00  0.23426349283E+03  0.93304232564E+03  0.90315480255E+03 0.  0.
        3    1    3    3  502    0  0.36717236099E+03  0.80212676496E+02 -0.14149756209E+03  0.40158583942E+03  0.10100000352E+00 0. -1.
       -3    1    3    3    0  502 -0.36717236099E+03 -0.80212676496E+02  0.37576105492E+03  0.53145648622E+03  0.10100000352E+00 0.  1.
</event>
<event>
 5   0  0.1041727E-02  0.8719213E+03  0.7818609E-02  0.9461378E-01
       -2   -1    0    0    0  501  0.00000000000E+00  0.00000000000E+00  0.14929988089E+03  0.14929988091E+03  0.25500000920E-02 0. -1.
        2   -1    0    0  501    0  0.00000000000E+00  0.00000000000E+00 -0.12730197264E+04  0.12730197264E+04  0.25500000920E-02 0.  1.
    10030    2    1    2    0    0  0.00000000000E+00  0.00000000000E+00 -0.11237198455E+04  0.14223196073E+04  0.87192131189E+03 0.  0.
        4    1    3    3  502    0 -0.20938997124E+03 -0.25213437817E+03 -0.10308093726E+04  0.10816586709E+04  0.12699999809E+01 0.  1.
       -4    1    3    3    0  502  0.20938997124E+03  0.25213437817E+03 -0.92910472831E+02  0.34066093637E+03  0.12699999809E+01 0. -1.
</event>
<event>
 5   0  0.1033749E-02  0.9014145E+03  0.7818609E-02  0.9423815E-01
        2   -1    0    0  501    0  0.00000000000E+00  0.00000000000E+00  0.12423893999E+04  0.12423893999E+04  0.25500000920E-02 0.  1.
       -2   -1    0    0    0  501  0.00000000000E+00  0.00000000000E+00 -0.16350510030E+03  0.16350510032E+03  0.25500000920E-02 0. -1.
    10030    2    1    2    0    0  0.00000000000E+00  0.00000000000E+00  0.10788842996E+04  0.14058945002E+04  0.90141445176E+03 0.  0.
        5    1    3    3  502    0  0.27830040341E+03 -0.12257411115E+02  0.10919946272E+04  0.11269763593E+04  0.46999998093E+01 0.  1.
       -5    1    3    3    0  502 -0.27830040341E+03  0.12257411115E+02 -0.13110327530E+02  0.27891814095E+03  0.46999998093E+01 0. -1.
</event>
<event>
 5   0  0.1003252E-02  0.8968762E+03  0.7818609E-02  0.9429495E-01
        2   -1    0    0  501    0  0.00000000000E+00  0.00000000000E+00  0.42991367129E+03  0.42991367130E+03  0.25500000920E-02 0. -1.
       -2   -1    0    0    0  501  0.00000000000E+00  0.00000000000E+00 -0.46776072032E+03  0.46776072033E+03  0.25500000920E-02 0.  1.
    10030    2    1    2    0    0  0.00000000000E+00  0.00000000000E+00 -0.37847049037E+02  0.89767439163E+03  0.89687619785E+03 0.  0.
        2    1    3    3  502    0 -0.41834148522E+03 -0.20777290161E+02  0.14139216411E+03  0.44207809052E+03  0.25500000920E-02 0. -1.
       -2    1    3    3    0  502  0.41834148522E+03  0.20777290161E+02 -0.17923921315E+03  0.45559630110E+03  0.25500000920E-02 0.  1.
</event>
<event>
 5   0  0.1028978E-02  0.8979232E+03  0.7818609E-02  0.9428181E-01
       -2   -1    0    0    0  501  0.00000000000E+00  0.00000000000E+00  0.59544191143E+03  0.59544191143E+03  0.25500000920E-02 0.  1.
        2   -1    0    0  501    0  0.00000000000E+00  0.00000000000E+00 -0.33851581486E+03  0.33851581487E+03  0.25500000920E-02 0. -1.
    10030    2    1    2    0    0  0.00000000000E+00  0.00000000000E+00  0.25692609656E+03  0.93395772630E+03  0.89792316789E+03 0.  0.
        3    1    3    3  502    0  0.11012710366E+03  0.23358215086E+03 -0.25353261220E+03  0.36189417764E+03  0.10100000352E+00 0. -1.
       -3    1    3    3    0  502 -0.11012710366E+03 -0.23358215086E+03  0.51045870876E+03  0.57206354866E+03  0.10100000352E+00 0.  1.
</event>
<event>
 5   0  0.1028978E-02  0.8945148E+03  0.7818609E-02  0.9432464E-01
       -2   -1    0    0    0  501  0.00000000000E+00  0.00000000000E+00  0.10555395995E+03  0.10555395998E+03  0.25500000920E-02 0. -1.
        2   -1    0    0  501    0  0.00000000000E+00  0.00000000000E+00 -0.18951366067E+04  0.18951366067E+04  0.25500000920E-02 0.  1.
    10030    2    1    2    0    0  0.00000000000E+00  0.00000000000E+00 -0.17895826467E+04  0.20006905666E+04  0.89451478135E+03 0.  0.
        3    1    3    3  502    0 -0.33865784765E+03  0.21845335143E+03 -0.46093204756E+03  0.61226576517E+03  0.10100000352E+00 0. -1.
       -3    1    3    3    0  502  0.33865784765E+03 -0.21845335143E+03 -0.13286505991E+04  0.13884248015E+04  0.10100000352E+00 0.  1.
</event>
<event>
 5   0  0.1003252E-02  0.9119970E+03  0.7818609E-02  0.9410708E-01
       -2   -1    0    0    0  501  0.00000000000E+00  0.00000000000E+00  0.44592036995E+03  0.44592036996E+03  0.25500000920E-02 0. -1.
        2   -1    0    0  501    0  0.00000000000E+00  0.00000000000E+00 -0.46630436209E+03  0.46630436210E+03  0.25500000920E-02 0.  1.
    10030    2    1    2    0    0  0.00000000000E+00  0.00000000000E+00 -0.20383992142E+02  0.91222473205E+03  0.91199695977E+03 0.  0.
        2    1    3    3  502    0  0.27481668904E+03  0.67890463377E+02  0.34739034558E+03  0.44812205905E+03  0.25500000920E-02 0. -1.
       -2    1    3    3    0  502 -0.27481668904E+03 -0.67890463377E+02 -0.36777433772E+03  0.46410267300E+03  0.25500000920E-02 0.  1.
</event>
<event>
 5   0  0.3996375E-03  0.8986317E+03  0.7818609E-02  0.9427293E-01
        3   -1    0    0  501    0  0.00000000000E+00  0.00000000000E+00  0.14302511576E+04  0.14302511611E+04  0.10100000352E+00 0.  1.
       -3   -1    0    0    0  501  0.00000000000E+00  0.00000000000E+00 -0.14115332464E+03  0.14115336077E+03  0.10100000352E+00 0. -1.
    10030    2    1    2    0    0  0.00000000000E+00  0.00000000000E+00  0.12890978329E+04  0.15714045219E+04  0.89863170911E+03 0.  0.
        4    1    3    3  502    0 -0.21739758677E+03  0.39315077237E+03  0.65738507242E+03  0.79623236990E+03  0.12699999809E+01 0.  1.
       -4    1    3    3    0  502  0.21739758677E+03 -0.39315077237E+03  0.63171276051E+03  0.77517215200E+03  0.12699999809E+01 0. -1.
</event>
<event>
 5   0  0.3996375E-03  0.8736753E+03  0.7818609E-02  0.9459100E-01
       -4   -1    0    0    0  501  0.00000000000E+00  0.00000000000E+00  0.44830650845E+03  0.44830830733E+03  0.12699999809E+01 0. -1.
        4   -1    0    0  501    0  0.00000000000E+00  0.00000000000E+00 -0.42565858147E+03  0.42566047606E+03  0.12699999809E+01 0.  1.
    10030    2    1    2    0    0  0.00000000000E+00  0.00000000000E+00  0.22647926977E+02  0.87396878339E+03  0.87367528622E+03 0.  0.
        2    1    3    3  502    0 -0.39885903621E+03 -0.35261081031E+02  0.18601152473E+03  0.44151122515E+03  0.25500000920E-02 0. -1.
       -2    1    3    3    0  502  0.39885903621E+03  0.35261081031E+02 -0.16336359775E+03  0.43245755824E+03  0.25500000920E-02 0.  1.
</event>
<event>
 5   0  0.1028978E-02  0.8820767E+03  0.7818609E-02  0.9448268E-01
        2   -1    0    0  501    0  0.00000000000E+00  0.00000000000E+00  0.89526447017E+03  0.89526447017E+03  0.25500000920E-02 0. -1.
       -2   -1    0    0    0  501  0.00000000000E+00  0.00000000000E+00 -0.21727078093E+03  0.21727078095E+03  0.25500000920E-02 0.  1.
    10030    2    1    2    0    0  0.00000000000E+00  0.00000000000E+00  0.67799368923E+03  0.11125352511E+04  0.88207666466E+03 0.  0.
        3    1    3    3  502    0  0.42904912587E+03  0.68693462735E+02  0.24366585707E+03  0.49817166152E+03  0.10100000352E+00 0.  1.
       -3    1    3    3    0  502 -0.42904912587E+03 -0.68693462735E+02  0.43432783216E+03  0.61436358960E+03  0.10100000352E+00 0. -1.
</event>
<event>
 5   0  0.6137243E-03  0.9262313E+03  0.7818609E-02  0.9393372E-01
        1   -1    0    0  501    0  0.00000000000E+00  0.00000000000E+00  0.67466526363E+03  0.67466526364E+03  0.50400001928E-02 0.  1.
       -1   -1    0    0    0  501  0.00000000000E+00  0.00000000000E+00 -0.31790002810E+03  0.31790002814E+03  0.50400001928E-02 0. -1.
    10030    2    1    2    0    0  0.00000000000E+00  0.00000000000E+00  0.35676523552E+03  0.99256529179E+03  0.92623130221E+03 0.  0.
        4    1    3    3  502    0  0.19800475703E+03 -0.24727527967E+03  0.54039819535E+03  0.62640463774E+03  0.12699999809E+01 0.  1.
       -4    1    3    3    0  502 -0.19800475703E+03  0.24727527967E+03 -0.18363295983E+03  0.36616065405E+03  0.12699999809E+01 0. -1.
</event>
<event>
 5   0  0.1017079E-02  0.8951920E+03  0.7818609E-02  0.9431612E-01
        2   -1    0    0  501    0  0.00000000000E+00  0.00000000000E+00  0.93115971359E+03  0.93115971359E+03  0.25500000920E-02 0. -1.
       -2   -1    0    0    0  501  0.00000000000E+00  0.00000000000E+00 -0.21515341556E+03  0.21515341557E+03  0.25500000920E-02 0.  1.
    10030    2    1    2    0    0  0.00000000000E+00  0.00000000000E+00  0.71600629803E+03  0.11463131292E+04  0.89519203039E+03 0.  0.
        1    1    3    3  502    0 -0.43829806930E+03  0.60279909933E+02  0.44488378787E+03  0.62742366056E+03  0.50400001928E-02 0. -1.
       -1    1    3    3    0  502  0.43829806930E+03 -0.60279909933E+02  0.27112251016E+03  0.51888946861E+03  0.50400001928E-02 0.  1.
</event>
<event>
 5   0  0.1003252E-02  0.8879840E+03  0.7818609E-02  0.9440728E-01
        2   -1    0    0  501    0  0.00000000000E+00  0.00000000000E+00  0.34448289694E+03  0.34448289695E+03  0.25500000920E-02 0. -1.
       -2   -1    0    0    0  501  0.00000000000E+00  0.00000000000E+00 -0.57224583158E+03  0.57224583159E+03  0.25500000920E-02 0.  1.
    10030    2    1    2    0    0  0.00000000000E+00  0.00000000000E+00 -0.22776293464E+03  0.91672872854E+03  0.88798401300E+03 0.  0.
        2    1    3    3  502    0 -0.31215776815E+03 -0.84669520185E+02  0.20013154392E+03  0.38034725547E+03  0.25500000920E-02 0. -1.
       -2    1    3    3    0  502  0.31215776815E+03  0.84669520185E+02 -0.42789447856E+03  0.53638147307E+03  0.25500000920E-02 0.  1.
</event>
<event>
 5   0  0.6092779E-03  0.8968014E+03  0.7818609E-02  0.9429589E-01
        1   -1    0    0  501    0  0.00000000000E+00  0.00000000000E+00  0.90770129504E+03  0.90770129505E+03  0.50400001928E-02 0. -1.
       -1   -1    0    0    0  501  0.00000000000E+00  0.00000000000E+00 -0.22150810166E+03  0.22150810172E+03  0.50400001928E-02 0.  1.
    10030    2    1    2    0    0  0.00000000000E+00  0.00000000000E+00  0.68619319338E+03  0.11292093968E+04  0.89680140673E+03 0.  0.
        2    1    3    3  502    0 -0.19178487964E+03 -0.32517684547E+03  0.38439620845E+02  0.37947203500E+03  0.25500000920E-02 0.  1.
       -2    1    3    3    0  502  0.19178487964E+03  0.32517684547E+03  0.64775357253E+03  0.74973736177E+03  0.25500000920E-02 0. -1.
</event>
<event>
 5   0  0.1033749E-02  0.9017342E+03  0.7818609E-02  0.9423416E-01
        2   -1    0    0  501    0  0.00000000000E+00  0.00000000000E+00  0.11075317770E+04  0.11075317770E+04  0.25500000920E-02 0.  1.
       -2   -1    0    0    0  501  0.00000000000E+00  0.00000000000E+00 -0.18354431296E+03  0.18354431298E+03  0.25500000920E-02 0. -1.
    10030    2    1    2    0    0  0.00000000000E+00  0.00000000000E+00  0.92398746403E+03  0.12910760900E+04  0.90173423824E+03 0.  0.
        5    1    3    3  502    0  0.12155425073E+03  0.32940941864E+03  0.86689128996E+03  0.93531203326E+03  0.46999998093E+01 0. -1.
       -5    1    3    3    0  502 -0.12155425073E+03 -0.32940941864E+03  0.57096174068E+02  0.35576405671E+03  0.46999998093E+01 0.  1.
</event>
<event>
 5   0  0.6015709E-03  0.9026196E+03  0.7818609E-02  0.9422313E-01
        1   -1    0    0  501    0  0.00000000000E+00  0.00000000000E+00  0.84516365387E+03  0.84516365389E+03  0.50400001928E-02 0.  1.
       -1   -1    0    0    0  501  0.00000000000E+00  0.00000000000E+00 -0.24099539046E+03  0.24099539051E+03  0.50400001928E-02 0. -1.
    10030    2    1    2    0    0  0.00000000000E+00  0.00000000000E+00  0.60416826341E+03  0.10861590444E+04  0.90261962045E+03 0.  0.
        3    1    3    3  502    0  0.44659433226E+03  0.34096197403E+02  0.23539378955E+03  0.50598349247E+03  0.10100000352E+00 0. -1.
       -3    1    3    3    0  502 -0.44659433226E+03 -0.34096197403E+02  0.36877447386E+03  0.58017555193E+03  0.10100000352E+00 0.  1.
</event>
<event>
 5   0  0.6015709E-03  0.8821822E+03  0.7818609E-02  0.9448133E-01
       -1   -1    0    0    0  501  0.00000000000E+00  0.00000000000E+00  0.10376681008E+04  0.10376681008E+04  0.50400001928E-02 0.  1.
        1   -1    0    0  501    0  0.00000000000E+00  0.00000000000E+00 -0.18749865137E+03  0.18749865144E+03  0.50400001928E-02 0. -1.
    10030    2    1    2    0    0  0.00000000000E+00  0.00000000000E+00  0.85016944940E+03  0.12251667522E+04  0.88218222497E+03 0.  0.
        3    1    3    3  502    0  0.10137333096E+03 -0.41407680667E+03  0.58236311732E+03  0.72172222126E+03  0.10100000352E+00 0.  1.
       -3    1    3    3    0  502 -0.10137333096E+03  0.41407680667E+03  0.26780633208E+03  0.50344453096E+03  0.10100000352E+00 0. -1.
</event>
<event>
 5   0  0.6137243E-03  0.9070742E+03  0.7818609E-02  0.9416781E-01
       -1   -1    0    0    0  501  0.00000000000E+00  0.00000000000E+00  0.22669172395E+03  0.22669172401E+03  0.50400001928E-02 0.  1.
        1   -1    0    0  501    0  0.00000000000E+00  0.00000000000E+00 -0.90738158482E+03  0.90738158484E+03  0.50400001928E-02 0. -1.
    10030    2    1    2    0    0  0.00000000000E+00  0.00000000000E+00 -0.68068986087E+03  0.11340733088E+04  0.90707418834E+03 0.  0.
        4    1    3    3  502    0 -0.11409240101E+03  0.33788186463E+03 -0.69066841460E+03  0.77730669767E+03  0.12699999809E+01 0. -1.
       -4    1    3    3    0  502  0.11409240101E+03 -0.33788186463E+03  0.99785537329E+01  0.35676661118E+03  0.12699999809E+01 0.  1.
</event>
<event>
 5   0  0.1041727E-02  0.9059035E+03  0.7818609E-02  0.9418232E-01
       -2   -1    0    0    0  501  0.00000000000E+00  0.00000000000E+00  0.75786405943E+03  0.75786405944E+03  0.25500000920E-02 0.  1.
        2   -1    0    0  501    0  0.00000000000E+00  0.00000000000E+00 -0.27071513218E+03  0.27071513219E+03  0.25500000920E-02 0. -1.
    10030    2    1    2    0    0  0.00000000000E+00  0.00000000000E+00  0.48714892725E+03  0.10285791916E+04  0.90590345851E+03 0.  0.
        4    1    3    3  502    0 -0.44952807149E+03  0.37479278683E+02  0.19698809474E+03  0.49222566548E+03  0.12699999809E+01 0. -1.
       -4    1    3    3    0  502  0.44952807149E+03 -0.37479278683E+02  0.29016083251E+03  0.53635352615E+03  0.12699999809E+01 0.  1.
</event>
<event>
 5   0  0.1003252E-02  0.8984087E+03  0.7818609E-02  0.9427573E-01
       -2   -1    0    0    0  501  0.00000000000E+00  0.00000000000E+00  0.22589384294E+03  0.22589384296E+03  0.25500000920E-02 0.  1.
        2   -1    0    0  501    0  0.00000000000E+00  0.00000000000E+00 -0.89327156519E+03  0.89327156519E+03  0.25500000920E-02 0. -1.
    10030    2    1    2    0    0  0.00000000000E+00  0.00000000000E+00 -0.66737772224E+03  0.11191654081E+04  0.89840869689E+03 0.  0.
        2    1    3    3  502    0  0.10708954577E+03 -0.27533630413E+03  0.87847471778E+02  0.30821328571E+03  0.25500000920E-02 0.  1.
       -2    1    3    3    0  502 -0.10708954577E+03  0.27533630413E+03 -0.75522519402E+03  0.81095212243E+03  0.25500000920E-02 0. -1.
</event>
<event>
 5   0  0.1041727E-02  0.9043160E+03  0.7818609E-02  0.9420202E-01
        2   -1    0    0  501    0  0.00000000000E+00  0.00000000000E+00  0.51533020362E+03  0.51533020363E+03  0.25500000920E-02 0.  1.
       -2   -1    0    0    0  501  0.00000000000E+00  0.00000000000E+00 -0.39672982381E+03  0.39672982382E+03  0.25500000920E-02 0. -1.
    10030    2    1    2    0    0  0.00000000000E+00  0.00000000000E+00  0.11860037981E+03  0.91206002745E+03  0.90431600869E+03 0.  0.
        4    1    3    3  502    0  0.22984776010E+03  0.16180526782E+03 -0.29789974975E+03  0.40958126338E+03  0.12699999809E+01 0. -1.
       -4    1    3    3    0  502 -0.22984776010E+03 -0.16180526782E+03  0.41650012955E+03  0.50247876406E+03  0.12699999809E+01 0.  1.
</event>
<event>
 5   0  0.1017079E-02  0.8747771E+03  0.7818609E-02  0.9457672E-01
        2   -1    0    0  501    0  0.00000000000E+00  0.00000000000E+00  0.51252916996E+03  0.51252916996E+03  0.25500000920E-02 0. -1.
       -2   -1    0    0    0  501  0.00000000000E+00  0.00000000000E+00 -0.37326411827E+03  0.37326411828E+03  0.25500000920E-02 0.  1.
    10030    2    1    2    0    0  0.00000000000E+00  0.00000000000E+00  0.13926505168E+03  0.88579328824E+03  0.87477711154E+03 0.  0.
        1    1    3    3  502    0  0.50600664104E+02 -0.30489816200E+03  0.38302221659E+03  0.49216799451E+03  0.50400001928E-02 0. -1.
       -1    1    3    3    0  502 -0.50600664104E+02  0.30489816200E+03 -0.24375716490E+03  0.39362529373E+03  0.50400001928E-02 0.  1.
</event>
<event>
 5   0  0.1028978E-02  0.8980622E+03  0.7818609E-02  0.9428007E-01
        2   -1    0    0  501    0  0.00000000000E+00  0.00000000000E+00  0.12435044648E+04  0.12435044648E+04  0.25500000920E-02 0.  1.
       -2   -1    0    0    0  501  0.00000000000E+00  0.00000000000E+00 -0.16214573135E+03  0.16214573137E+03  0.25500000920E-02 0. -1.
    10030    2    1    2    0    0  0.00000000000E+00  0.00000000000E+00  0.10813587335E+04  0.14056501962E+04  0.89806222701E+03 0.  0.
        3    1    3    3  502    0 -0.35260499496E+03  0.25799120899E+03  0.70288146778E+03  0.82760625562E+03  0.10100000352E+00 0.  1.
       -3    1    3    3    0  502  0.35260499496E+03 -0.25799120899E+03  0.37847726569E+03  0.57804394057E+03  0.10100000352E+00 0. -1.
</event>
<event>
 5   0  0.6288003E-03  0.9105044E+03  0.7818609E-02  0.9412545E-01
       -1   -1    0    0    0  501  0.00000000000E+00  0.00000000000E+00  0.31666757556E+03  0.31666757560E+03  0.50400001928E-02 0.  1.
        1   -1    0    0  501    0  0.00000000000E+00  0.00000000000E+00 -0.65448629283E+03  0.65448629285E+03  0.50400001928E-02 0. -1.
    10030    2    1    2    0    0  0.00000000000E+00  0.00000000000E+00 -0.33781871727E+03  0.97115386845E+03  0.91050444835E+03 0.  0.
        1    1    3    3  502    0  0.10625368540E+03 -0.35597958454E+03  0.11175985643E+03  0.38794532579E+03  0.50400001928E-02 0.  1.
       -1    1    3    3    0  502 -0.10625368540E+03  0.35597958454E+03 -0.44957857370E+03  0.58320854266E+03  0.50400001928E-02 0. -1.
</event>
<event>
 5   0  0.1003252E-02  0.9055337E+03  0.7818609E-02  0.9418690E-01
       -2   -1    0    0    0  501  0.00000000000E+00  0.00000000000E+00  0.14250620073E+03  0.14250620076E+03  0.25500000920E-02 0.  1.
        2   -1    0    0  501    0  0.00000000000E+00  0.00000000000E+00 -0.14385186073E+04  0.14385186073E+04  0.25500000920E-02 0. -1.
    10030    2    1    2    0    0  0.00000000000E+00  0.00000000000E+00 -0.12960124066E+04  0.15810248081E+04  0.90553370215E+03 0.  0.
        2    1    3    3  502    0  0.40462994432E+03  0.37609758032E+01 -0.10026477807E+04  0.10812225066E+04  0.25500000920E-02 0. -1.
       -2    1    3    3    0  502 -0.40462994432E+03 -0.37609758032E+01 -0.29336462592E+03  0.49980230144E+03  0.25500000920E-02 0.  1.
</event>
<event>
 5   0  0.6092779E-03  0.8683612E+03  0.7818609E-02  0.9466019E-01
        1   -1    0    0  501    0  0.00000000000E+00  0.00000000000E+00  0.41696153038E+03  0.41696153041E+03  0.50400001928E-02 0. -1.
       -1   -1    0    0    0  501  0.00000000000E+00  0.00000000000E+00 -0.45211075744E+03  0.45211075746E+03  0.50400001928E-02 0.  1.
    10030    2    1    2    0    0  0.00000000000E+00  0.00000000000E+00 -0.35149227052E+02  0.86907228788E+03  0.86836119985E+03 0.  0.
        2    1    3    3  502    0  0.18303511916E+03  0.17009687681E+03 -0.37294000620E+03  0.44890873302E+03  0.25500000920E-02 0.  1.
       -2    1    3    3    0  502 -0.18303511916E+03 -0.17009687681E+03  0.33779077915E+03  0.42016355486E+03  0.25500000920E-02 0. -1.
</event>
<event>
 5   0  0.1003252E-02  0.8707476E+03  0.7818609E-02  0.9462906E-01
       -2   -1    0    0    0  501  0.00000000000E+00  0.00000000000E+00  0.46005755212E+03  0.46005755212E+03  0.25500000920E-02 0. -1.
        2   -1    0    0  501    0  0.00000000000E+00  0.00000000000E+00 -0.41201437809E+03  0.41201437810E+03  0.25500000920E-02 0.  1.
    10030    2    1    2    0    0  0.00000000000E+00  0.00000000000E+00  0.48043174022E+02  0.87207193023E+03  0.87074755522E+03 0.  0.
        2    1    3    3  502    0  0.19139606771E+03  0.21897017037E+03 -0.30046183264E+03  0.41815990139E+03  0.25500000920E-02 0.  1.
       -2    1    3    3    0  502 -0.19139606771E+03 -0.21897017037E+03  0.34850500666E+03  0.45391202884E+03  0.25500000920E-02 0. -1.
</event>
<event>
 5   0  0.1041727E-02  0.9234796E+03  0.7818609E-02  0.9396698E-01
        2   -1    0    0  501    0  0.00000000000E+00  0.00000000000E+00  0.14413847064E+04  0.14413847064E+04  0.25500000920E-02 0.  1.
       -2   -1    0    0    0  501  0.00000000000E+00  0.00000000000E+00 -0.14791585157E+03  0.14791585159E+03  0.25500000920E-02 0. -1.
    10030    2    1    2    0    0  0.00000000000E+00  0.00000000000E+00  0.12934688548E+04  0.15893005580E+04  0.92347960737E+03 0.  0.
        4    1    3    3  502    0 -0.21244881404E+03 -0.31168902621E+03  0.11050402674E+04  0.11676472726E+04  0.12699999809E+01 0.  1.
       -4    1    3    3    0  502  0.21244881404E+03  0.31168902621E+03  0.18842858743E+03  0.42165328543E+03  0.12699999809E+01 0. -1.
</event>
<event>
 5   0  0.6288003E-03  0.8935168E+03  0.7818609E-02  0.9433722E-01
        1   -1    0    0  501    0  0.00000000000E+00  0.00000000000E+00  0.39341041401E+03  0.39341041404E+03  0.50400001928E-02 0.  1.
       -1   -1    0    0    0  501  0.00000000000E+00  0.00000000000E+00 -0.50734060135E+03  0.50734060137E+03  0.50400001928E-02 0. -1.
    10030    2    1    2    0    0  0.00000000000E+00  0.00000000000E+00 -0.11393018733E+03  0.90075101541E+03  0.89351681808E+03 0.  0.
        1    1    3    3  502    0 -0.34816685182E+03 -0.20581977410E+03  0.13433732611E+03  0.42617889827E+03  0.50400001928E-02 0.  1.
       -1    1    3    3    0  502  0.34816685182E+03  0.20581977410E+03 -0.24826751345E+03  0.47457211715E+03  0.50400001928E-02 0. -1.
</event>
<event>
 5   0  0.6015709E-03  0.9012331E+03  0.7818609E-02  0.9424041E-01
       -1   -1    0    0    0  501  0.00000000000E+00  0.00000000000E+00  0.80889784652E+03  0.80889784653E+03  0.50400001928E-02 0. -1.
        1   -1    0    0  501    0  0.00000000000E+00  0.00000000000E+00 -0.25102711855E+03  0.25102711860E+03  0.50400001928E-02 0.  1.
    10030    2    1    2    0    0  0.00000000000E+00  0.00000000000E+00  0.55787072796E+03  0.10599249651E+04  0.90123314553E+03 0.  0.
        3    1    3    3  502    0  0.17197556824E+03  0.32130649081E+03 -0.32763966470E+02  0.36590565015E+03  0.10100000352E+00 0.  1.
       -3    1    3    3    0  502 -0.17197556824E+03 -0.32130649081E+03  0.59063469443E+03  0.69401931499E+03  0.10100000352E+00 0. -1.
</event>
<event>
 5   0  0.1028978E-02  0.8726190E+03  0.7818609E-02  0.9460471E-01
       -2   -1    0    0    0  501  0.00000000000E+00  0.00000000000E+00  0.14018228212E+03  0.14018228214E+03  0.25500000920E-02 0.  1.
        2   -1    0    0  501    0  0.00000000000E+00  0.00000000000E+00 -0.13579887844E+04  0.13579887844E+04  0.25500000920E-02 0. -1.
    10030    2    1    2    0    0  0.00000000000E+00  0.00000000000E+00 -0.12178065023E+04  0.14981710666E+04  0.87261897048E+03 0.  0.
        3    1    3    3  502    0 -0.36446157144E+03  0.12648034581E+03 -0.25899724255E+03  0.46466019496E+03  0.10100000352E+00 0.  1.
       -3    1    3    3    0  502  0.36446157144E+03 -0.12648034581E+03 -0.95880925976E+03  0.10335108716E+04  0.10100000352E+00 0. -1.
</event>
<event>
 5   0  0.6211218E-03  0.9577427E+03  0.7818609E-02  0.9356146E-01
       -1   -1    0    0    0  501  0.00000000000E+00  0.00000000000E+00  0.52347028010E+03  0.52347028012E+03  0.50400001928E-02 0.  1.
        1   -1    0    0  501    0  0.00000000000E+00  0.00000000000E+00 -0.43807222815E+03  0.43807222818E+03  0.50400001928E-02 0. -1.
    10030    2    1    2    0    0  0.00000000000E+00  0.00000000000E+00  0.85398051950E+02  0.96154250830E+03  0.95774274625E+03 0.  0.
        5    1    3    3  502    0 -0.32281280899E+02  0.33183496095E+02 -0.43579702189E+03  0.43827429744E+03  0.46999998093E+01 0. -1.
       -5    1    3    3    0  502  0.32281280899E+02 -0.33183496095E+02  0.52119507384E+03  0.52326821086E+03  0.46999998093E+01 0.  1.
</event>
<event>
 5   0  0.6137243E-03  0.8822327E+03  0.7818609E-02  0.9448068E-01
       -1   -1    0    0    0  501  0.00000000000E+00  0.00000000000E+00  0.11414972671E+03  0.11414972682E+03  0.50400001928E-02 0. -1.
        1   -1    0    0  501    0  0.00000000000E+00  0.00000000000E+00 -0.17046351929E+04  0.17046351929E+04  0.50400001928E-02 0.  1.
    10030    2    1    2    0    0  0.00000000000E+00  0.00000000000E+00 -0.15904854662E+04  0.18187849197E+04  0.88223271652E+03 0.  0.
        4    1    3    3  502    0 -0.18762478557E+03  0.39900673600E+03 -0.76815891461E+03  0.88570828523E+03  0.12699999809E+01 0.  1.
       -4    1    3    3    0  502  0.18762478557E+03 -0.39900673600E+03 -0.82232655158E+03  0.93307663451E+03  0.12699999809E+01 0. -1.
</event>
<event>
 5   0  0.1041727E-02  0.9084305E+03  0.7818609E-02  0.9415104E-01
        2   -1    0    0  501    0  0.00000000000E+00  0.00000000000E+00  0.13549746002E+04  0.13549746002E+04  0.25500000920E-02 0.  1.
       -2   -1    0    0    0  501  0.00000000000E+00  0.00000000000E+00 -0.15226224704E+03  0.15226224706E+03  0.25500000920E-02 0. -1.
    10030    2    1    2    0    0  0.00000000000E+00  0.00000000000E+00  0.12027123532E+04  0.15072368473E+04  0.90843046477E+03 0.  0.
        4    1    3    3  502    0  0.18859018948E+03  0.41181561978E+03  0.54505443678E+03  0.70869197556E+03  0.12699999809E+01 0. -1.
       -4    1    3    3    0  502 -0.18859018948E+03 -0.41181561978E+03  0.65765791641E+03  0.79854487174E+03  0.12699999809E+01 0.  1.
</event>
<event>
 5   0  0.1017079E-02  0.8995813E+03  0.7818609E-02  0.9426105E-01
       -2   -1    0    0    0  501  0.00000000000E+00  0.00000000000E+00  0.15633779895E+03  0.15633779897E+03  0.25500000920E-02 0.  1.
        2   -1    0    0  501    0  0.00000000000E+00  0.00000000000E+00 -0.12940671474E+04  0.12940671474E+04  0.25500000920E-02 0. -1.
    10030    2    1    2    0    0  0.00000000000E+00  0.00000000000E+00 -0.11377293484E+04  0.14504049464E+04  0.89958125709E+03 0.  0.
        1    1    3    3  502    0  0.30151770712E+03  0.18378382907E+03 -0.11966254266E+03  0.37283850079E+03  0.50400001928E-02 0.  1.
       -1    1    3    3    0  502 -0.30151770712E+03 -0.18378382907E+03 -0.10180668058E+04  0.10775664456E+04  0.50400001928E-02 0. -1.
</event>
<event>
 5   0  0.6092779E-03  0.8997196E+03  0.7818609E-02  0.9425932E-01
       -1   -1    0    0    0  501  0.00000000000E+00  0.00000000000E+00  0.25688647425E+03  0.25688647430E+03  0.50400001928E-02 0. -1.
        1   -1    0    0  501    0  0.00000000000E+00  0.00000000000E+00 -0.78779481294E+03  0.78779481295E+03  0.50400001928E-02 0.  1.
    10030    2    1    2    0    0  0.00000000000E+00  0.00000000000E+00 -0.53090833868E+03  0.10446812873E+04  0.89971958290E+03 0.  0.
        2    1    3    3  502    0 -0.17286094175E+03 -0.59384238874E+02  0.21182982201E+03  0.27978432141E+03  0.25500000920E-02 0. -1.
       -2    1    3    3    0  502  0.17286094175E+03  0.59384238874E+02 -0.74273816069E+03  0.76489696585E+03  0.25500000920E-02 0.  1.
</event>
<event>
 5   0  0.1003252E-02  0.9038082E+03  0.7818609E-02  0.9420833E-01
        2   -1    0    0  501    0  0.00000000000E+00  0.00000000000E+00  0.88147489036E+03  0.88147489036E+03  0.25500000920E-02 0.  1.
       -2   -1    0    0    0  501  0.00000000000E+00  0.00000000000E+00 -0.23167684650E+03  0.23167684651E+03  0.25500000920E-02 0. -1.
    10030    2    1    2    0    0  0.00000000000E+00  0.00000000000E+00  0.64979804387E+03  0.11131517369E+04  0.90380821610E+03 0.  0.
        2    1    3    3  502    0  0.21214453593E+03 -0.27766879609E+03  0.67782331460E+03  0.76259406650E+03  0.25500000920E-02 0.  1.
       -2    1    3    3    0  502 -0.21214453593E+03  0.27766879609E+03 -0.28025270730E+02  0.35055767037E+03  0.25500000920E-02 0. -1.
</event>
<event>
 5   0  0.1017079E-02  0.8944246E+03  0.7818609E-02  0.9432578E-01
       -2   -1    0    0    0  501  0.00000000000E+00  0.00000000000E+00  0.64668165769E+03  0.64668165770E+03  0.25500000920E-02 0.  1.
        2   -1    0    0  501    0  0.00000000000E+00  0.00000000000E+00 -0.30926936673E+03  0.30926936674E+03  0.25500000920E-02 0. -1.
    10030    2    1    2    0    0  0.00000000000E+00  0.00000000000E+00  0.33741229097E+03  0.95595102444E+03  0.89442456754E+03 0.  0.
        1    1    3    3  502    0 -0.37518376808E+03 -0.29499209267E+02 -0.89502636473E+02  0.38683818986E+03  0.50400001928E-02 0. -1.
       -1    1    3    3    0  502  0.37518376808E+03  0.29499209267E+02  0.42691492744E+03  0.56911283457E+03  0.50400001928E-02 0.  1.
</event>
<event>
 5   0  0.1028978E-02  0.9048272E+03  0.7818609E-02  0.9419567E-01
        2   -1    0    0  501    0  0.00000000000E+00  0.00000000000E+00  0.15541901289E+04  0.15541901289E+04  0.25500000920E-02 0. -1.
       -2   -1    0    0    0  501  0.00000000000E+00  0.00000000000E+00 -0.13169433995E+03  0.13169433997E+03  0.25500000920E-02 0.  1.
    10030    2    1    2    0    0  0.00000000000E+00  0.00000000000E+00  0.14224957890E+04  0.16858844689E+04  0.90482715080E+03 0.  0.
        3    1    3    3  502    0 -0.23210022599E+03  0.37030468494E+03  0.92918757950E+03  0.10268328212E+04  0.10100000352E+00 0. -1.
       -3    1    3    3    0  502  0.23210022599E+03 -0.37030468494E+03  0.49330820946E+03  0.65905164769E+03  0.10100000352E+00 0.  1.
</event>
<event>
 5   0  0.1003252E-02  0.9003684E+03  0.7818609E-02  0.9425121E-01
        2   -1    0    0  501    0  0.00000000000E+00  0.00000000000E+00  0.41891898936E+03  0.41891898937E+03  0.25500000920E-02 0. -1.
       -2   -1    0    0    0  501  0.00000000000E+00  0.00000000000E+00 -0.48378287953E+03  0.48378287954E+03  0.25500000920E-02 0.  1.
    10030    2    1    2    0    0  0.00000000000E+00  0.00000000000E+00 -0.64863890170E+02  0.90270186891E+03  0.90036844674E+03 0.  0.
        2    1    3    3  502    0 -0.16869613700E+02  0.32814826199E+03  0.27609918775E+03  0.42918134535E+03  0.25500000920E-02 0. -1.
       -2    1    3    3    0  502  0.16869613700E+02 -0.32814826199E+03 -0.34096307792E+03  0.47352052355E+03  0.25500000920E-02 0.  1.
</event>
<event>
 5   0  0.6211218E-03  0.8866012E+03  0.7818609E-02  0.9442487E-01
       -1   -1    0    0    0  501  0.00000000000E+00  0.00000000000E+00  0.56086402333E+03  0.56086402335E+03  0.50400001928E-02 0. -1.
        1   -1    0    0  501    0  0.00000000000E+00  0.00000000000E+00 -0.35037977992E+03  0.35037977996E+03  0.50400001928E-02 0.  1.
    10030    2    1    2    0    0  0.00000000000E+00  0.00000000000E+00  0.21048424341E+03  0.91124380331E+03  0.88660117998E+03 0.  0.
        5    1    3    3  502    0 -0.15382135053E+03 -0.23075264342E+03 -0.25018094059E+03  0.37352427412E+03  0.46999998093E+01 0.  1.
       -5    1    3    3    0  502  0.15382135053E+03  0.23075264342E+03  0.46066518400E+03  0.53771952919E+03  0.46999998093E+01 0. -1.
</event>
<event>
 5   0  0.1041727E-02  0.9027189E+03  0.7818609E-02  0.9422189E-01
       -2   -1    0    0    0  501  0.00000000000E+00  0.00000000000E+00  0.10302709731E+04  0.10302709731E+04  0.25500000920E-02 0.  1.
        2   -1    0    0  501    0  0.00000000000E+00  0.00000000000E+00 -0.19773960402E+03  0.19773960404E+03  0.25500000920E-02 0. -1.
    10030    2    1    2    0    0  0.00000000000E+00  0.00000000000E+00  0.83253136903E+03  0.12280105771E+04  0.90271894686E+03 0.  0.
        4    1    3    3  502    0 -0.31415310703E+03  0.26002122190E+03  0.67941645010E+03  0.79240869257E+03  0.12699999809E+01 0.  1.
       -4    1    3    3    0  502  0.31415310703E+03 -0.26002122190E+03  0.15311491893E+03  0.43560188452E+03  0.12699999809E+01 0. -1.
</event>
<event>
 5   0  0.6015709E-03  0.8961563E+03  0.7818609E-02  0.9430399E-01
       -1   -1    0    0    0  501  0.00000000000E+00  0.00000000000E+00  0.52725026237E+03  0.52725026239E+03  0.50400001928E-02 0.  1.
        1   -1    0    0  501    0  0.00000000000E+00  0.00000000000E+00 -0.38079455495E+03  0.38079455498E+03  0.50400001928E-02 0. -1.
    10030    2    1    2    0    0  0.00000000000E+00  0.00000000000E+00  0.14645570742E+03  0.90804481738E+03  0.89615630117E+03 0.  0.
        3    1    3    3  502    0  0.15284126882E+02 -0.34415081748E+03 -0.21710538836E+03  0.40719546850E+03  0.10100000352E+00 0. -1.
       -3    1    3    3    0  502 -0.15284126882E+02  0.34415081748E+03  0.36356109578E+03  0.50084934888E+03  0.10100000352E+00 0.  1.
</event>
<event>
 5   0  0.6288003E-03  0.8983774E+03  0.7818609E-02  0.9427612E-01
        1   -1    0    0  501    0  0.00000000000E+00  0.00000000000E+00  0.62952780187E+03  0.62952780189E+03  0.50400001928E-02 0.  1.
       -1   -1    0    0    0  501  0.00000000000E+00  0.00000000000E+00 -0.32051086695E+03  0.32051086699E+03  0.50400001928E-02 0. -1.
    10030    2    1    2    0    0  0.00000000000E+00  0.00000000000E+00  0.30901693492E+03  0.95003866889E+03  0.89837742977E+03 0.  0.
        1    1    3    3  502    0  0.87818387823E+01 -0.23076411319E+03 -0.25292793808E+03  0.34249341383E+03  0.50400001928E-02 0. -1.
       -1    1    3    3    0  502 -0.87818387823E+01  0.23076411319E+03  0.56194487300E+03  0.60754525506E+03  0.50400001928E-02 0.  1.
</event>
<event>
 5   0  0.1028978E-02  0.9040785E+03  0.7818609E-02  0.9420497E-01
        2   -1    0    0  501    0  0.00000000000E+00  0.00000000000E+00  0.99668462256E+03  0.99668462256E+03  0.25500000920E-02 0.  1.
       -2   -1    0    0    0  501  0.00000000000E+00  0.00000000000E+00 -0.20501921136E+03  0.20501921138E+03  0.25500000920E-02 0. -1.
    10030    2    1    2    0    0  0.00000000000E+00  0.00000000000E+00  0.79166541119E+03  0.12017038339E+04  0.90407852603E+03 0.  0.
        3    1    3    3  502    0  0.80548185546E+02  0.14290256297E+03 -0.16406053700E+03  0.23200220408E+03  0.10100000352E+00 0. -1.
       -3    1    3    3    0  502 -0.80548185546E+02 -0.14290256297E+03  0.95572594819E+03  0.96970162986E+03  0.10100000352E+00 0.  1.
</event>
<event>
 5   0  0.3996375E-03  0.9021094E+03  0.7818609E-02  0.9422948E-01
       -3   -1    0    0    0  501  0.00000000000E+00  0.00000000000E+00  0.14348729682E+03  0.14348733237E+03  0.10100000352E+00 0.  1.
        3   -1    0    0  501    0  0.00000000000E+00  0.00000000000E+00 -0.14178978715E+04  0.14178978750E+04  0.10100000352E+00 0. -1.
    10030    2    1    2    0    0  0.00000000000E+00  0.00000000000E+00 -0.12744105746E+04  0.15613852074E+04  0.90210944636E+03 0.  0.
        2    1    3    3  502    0 -0.25562772633E+03 -0.28317408913E+03 -0.22066707469E+03  0.44071198881E+03  0.25500000920E-02 0.  1.
       -2    1    3    3    0  502  0.25562772633E+03  0.28317408913E+03 -0.10537434999E+04  0.11206732186E+04  0.25500000920E-02 0. -1.
</event>
<event>
 5   0  0.6015709E-03  0.9064175E+03  0.7818609E-02  0.9417595E-01
       -1   -1    0    0    0  501  0.00000000000E+00  0.00000000000E+00  0.45922456991E+03  0.45922456994E+03  0.50400001928E-02 0.  1.
        1   -1    0    0  501    0  0.00000000000E+00  0.00000000000E+00 -0.44727171223E+03  0.44727171226E+03  0.50400001928E-02 0. -1.
    10030    2    1    2    0    0  0.00000000000E+00  0.00000000000E+00  0.11952857677E+02  0.90649628220E+03  0.90641747492E+03 0.  0.
        3    1    3    3  502    0 -0.20799835255E+03 -0.19287484231E+03 -0.34751452644E+03  0.44858708825E+03  0.10100000352E+00 0. -1.
       -3    1    3    3    0  502  0.20799835255E+03  0.19287484231E+03  0.35946738412E+03  0.45790919395E+03  0.10100000352E+00 0.  1.
</event>
<event>
 5   0  0.6137243E-03  0.8965378E+03  0.7818609E-02  0.9429920E-01
        1   -1    0    0  501    0  0.00000000000E+00  0.00000000000E+00  0.12871810554E+04  0.12871810554E+04  0.50400001928E-02 0.  1.
       -1   -1    0    0    0  501  0.00000000000E+00  0.00000000000E+00 -0.15611247043E+03  0.15611247051E+03  0.50400001928E-02 0. -1.
    10030    2    1    2    0    0  0.00000000000E+00  0.00000000000E+00  0.11310685849E+04  0.14432935259E+04  0.89653781741E+03 0.  0.
        4    1    3    3  502    0  0.36757912658E+03  0.25080272695E+03  0.47843875812E+03  0.65339243974E+03  0.12699999809E+01 0. -1.
       -4    1    3    3    0  502 -0.36757912658E+03 -0.25080272695E+03  0.65262982682E+03  0.78990108615E+03  0.12699999809E+01 0.  1.
</event>
<event>
 5   0  0.6211218E-03  0.9002022E+03  0.7818609E-02  0.9425329E-01
        1   -1    0    0  501    0  0.00000000000E+00  0.00000000000E+00  0.46840886194E+03  0.46840886197E+03  0.50400001928E-02 0. -1.
       -1   -1    0    0    0  501  0.00000000000E+00  0.00000000000E+00 -0.43250894040E+03  0.43250894043E+03  0.50400001928E-02 0.  1.
    10030    2    1    2    0    0  0.00000000000E+00  0.00000000000E+00  0.35899921540E+02  0.90091780240E+03  0.90020224523E+03 0.  0.
        5    1    3    3  502    0  0.70494782395E+02 -0.14877368641E+03 -0.40126939419E+03  0.43375377903E+03  0.46999998093E+01 0.  1.
       -5    1    3    3    0  502 -0.70494782395E+02  0.14877368641E+03  0.43716931573E+03  0.46716402337E+03  0.46999998093E+01 0. -1.
</event>
<event>
 5   0  0.6137243E-03  0.8924918E+03  0.7818609E-02  0.9435016E-01
       -1   -1    0    0    0  501  0.00000000000E+00  0.00000000000E+00  0.38759565900E+03  0.38759565903E+03  0.50400001928E-02 0.  1.
        1   -1    0    0  501    0  0.00000000000E+00  0.00000000000E+00 -0.51377092976E+03  0.51377092978E+03  0.50400001928E-02 0. -1.
    10030    2    1    2    0    0  0.00000000000E+00  0.00000000000E+00 -0.12617527076E+03  0.90136658881E+03  0.89249175261E+03 0.  0.
        4    1    3    3  502    0  0.15722019027E+03 -0.18593454058E+03 -0.44076334235E+03  0.50355116767E+03  0.12699999809E+01 0. -1.
       -4    1    3    3    0  502 -0.15722019027E+03  0.18593454058E+03  0.31458807159E+03  0.39781542114E+03  0.12699999809E+01 0.  1.
</event>
<event>
 5   0  0.1028978E-02  0.8695579E+03  0.7818609E-02  0.9464456E-01
        2   -1    0    0  501    0  0.00000000000E+00  0.00000000000E+00  0.15135937193E+04  0.15135937193E+04  0.25500000920E-02 0. -1.
       -2   -1    0    0    0  501  0.00000000000E+00  0.00000000000E+00 -0.12489002222E+03  0.12489002225E+03  0.25500000920E-02 0.  1.
    10030    2    1    2    0    0  0.00000000000E+00  0.00000000000E+00  0.13887036971E+04  0.16384837415E+04  0.86955794116E+03 0.  0.
        3    1    3    3  502    0  0.21764652682E+03 -0.36450805901E+03  0.51762553681E+03  0.66945675162E+03  0.10100000352E+00 0.  1.
       -3    1    3    3    0  502 -0.21764652682E+03  0.36450805901E+03  0.87107816026E+03  0.96902698993E+03  0.10100000352E+00 0. -1.
</event>
<event>
 5   0  0.6137243E-03  0.8930244E+03  0.7818609E-02  0.9434343E-01
       -1   -1    0    0    0  501  0.00000000000E+00  0.00000000000E+00  0.36733122463E+03  0.36733122466E+03  0.50400001928E-02 0. -1.
        1   -1    0    0  501    0  0.00000000000E+00  0.00000000000E+00 -0.54276127531E+03  0.54276127534E+03  0.50400001928E-02 0.  1.
    10030    2    1    2    0    0  0.00000000000E+00  0.00000000000E+00 -0.17543005068E+03  0.91009250000E+03  0.89302444304E+03 0.  0.
        4    1    3    3  502    0 -0.30751738207E+03  0.30119400623E+03  0.33241158625E+02  0.43173065353E+03  0.12699999809E+01 0.  1.
       -4    1    3    3    0  502  0.30751738207E+03 -0.30119400623E+03 -0.20867120931E+03  0.47836184647E+03  0.12699999809E+01 0. -1.
</event>
<event>
 5   0  0.1028978E-02  0.9034192E+03  0.7818609E-02  0.9421317E-01
        2   -1    0    0  501    0  0.00000000000E+00  0.00000000000E+00  0.13800187469E+04  0.13800187469E+04  0.25500000920E-02 0.  1.
       -2   -1    0    0    0  501  0.00000000000E+00  0.00000000000E+00 -0.14785419004E+03  0.14785419006E+03  0.25500000920E-02 0. -1.
    10030    2    1    2    0    0  0.00000000000E+00  0.00000000000E+00  0.12321645568E+04  0.15278729369E+04  0.90341918084E+03 0.  0.
        3    1    3    3  502    0 -0.10240665921E+03  0.15464958627E+03  0.13126436839E+04  0.13256836235E+04  0.10100000352E+00 0.  1.
       -3    1    3    3    0  502  0.10240665921E+03 -0.15464958627E+03 -0.80479127088E+02  0.20218931347E+03  0.10100000352E+00 0. -1.
</event>
<event>
 5   0  0.1041727E-02  0.8827621E+03  0.7818609E-02  0.9447390E-01
        2   -1    0    0  501    0  0.00000000000E+00  0.00000000000E+00  0.14752745722E+03  0.14752745724E+03  0.25500000920E-02 0. -1.
       -2   -1    0    0    0  501  0.00000000000E+00  0.00000000000E+00 -0.13205488980E+04  0.13205488980E+04  0.25500000920E-02 0.  1.
    10030    2    1    2    0    0  0.00000000000E+00  0.00000000000E+00 -0.11730214407E+04  0.14680763552E+04  0.88276207681E+03 0.  0.
        4    1    3    3  502    0 -0.23818677905E+03  0.98561027146E+02 -0.11823567147E+04  0.12101306671E+04  0.12699999809E+01 0.  1.
       -4    1    3    3    0  502  0.23818677905E+03 -0.98561027146E+02  0.93352739144E+01  0.25794568813E+03  0.12699999809E+01 0. -1.
</event>
<event>
 5   0  0.6137243E-03  0.9277967E+03  0.7818609E-02  0.9391486E-01
       -1   -1    0    0    0  501  0.00000000000E+00  0.00000000000E+00  0.16669694541E+03  0.16669694549E+03  0.50400001928E-02 0. -1.
        1   -1    0    0  501    0  0.00000000000E+00  0.00000000000E+00 -0.12909755685E+04  0.12909755685E+04  0.50400001928E-02 0.  1.
    10030    2    1    2    0    0  0.00000000000E+00  0.00000000000E+00 -0.11242786231E+04  0.14576725140E+04  0.92779671034E+03 0.  0.
        4    1    3    3  502    0  0.18238952322E+03  0.15191022148E+02  0.10757352363E+03  0.21229785968E+03  0.12699999809E+01 0. -1.
       -4    1    3    3    0  502 -0.18238952322E+03 -0.15191022148E+02 -0.12318521467E+04  0.12453746543E+04  0.12699999809E+01 0.  1.
</event>
<event>
 5   0  0.6288003E-03  0.9697289E+03  0.7818609E-02  0.9342383E-01
        1   -1    0    0  501    0  0.00000000000E+00  0.00000000000E+00  0.16918979646E+04  0.16918979646E+04  0.50400001928E-02 0.  1.
       -1   -1    0    0    0  501  0.00000000000E+00  0.00000000000E+00 -0.13895255831E+03  0.13895255840E+03  0.50400001928E-02 0. -1.
    10030    2    1    2    0    0  0.00000000000E+00  0.00000000000E+00  0.15529454062E+04  0.18308505230E+04  0.96972893256E+03 0.  0.
        1    1    3    3  502    0  0.34194063777E+03 -0.36323447502E+01  0.14254540044E+04  0.14658975791E+04  0.50400001928E-02 0.  1.
       -1    1    3    3    0  502 -0.34194063777E+03  0.36323447502E+01  0.12749140188E+03  0.36495294391E+03  0.50400001928E-02 0. -1.
</event>
<event>
 5   0  0.1003252E-02  0.9005461E+03  0.7818609E-02  0.9424899E-01
        2   -1    0    0  501    0  0.00000000000E+00  0.00000000000E+00  0.44997133250E+03  0.44997133251E+03  0.25500000920E-02 0. -1.
       -2   -1    0    0    0  501  0.00000000000E+00  0.00000000000E+00 -0.45057501390E+03  0.45057501391E+03  0.25500000920E-02 0.  1.
    10030    2    1    2    0    0  0.00000000000E+00  0.00000000000E+00 -0.60368140581E+00  0.90054634642E+03  0.90054614408E+03 0.  0.
        2    1    3    3  502    0  0.33965695159E+03  0.54285281386E+02  0.29027025156E+03  0.45007838815E+03  0.25500000920E-02 0. -1.
       -2    1    3    3    0  502 -0.33965695159E+03 -0.54285281386E+02 -0.29087393296E+03  0.45046795826E+03  0.25500000920E-02 0.  1.
</event>
<event>
 5   0  0.1028978E-02  0.8991187E+03  0.7818609E-02  0.9426684E-01
        2   -1    0    0  501    0  0.00000000000E+00  0.00000000000E+00  0.14388055464E+04  0.14388055464E+04  0.25500000920E-02 0. -1.
       -2   -1    0    0    0  501  0.00000000000E+00  0.00000000000E+00 -0.14046624828E+03  0.14046624831E+03  0.25500000920E-02 0.  1.
    10030    2    1    2    0    0  0.00000000000E+00  0.00000000000E+00  0.12983392981E+04  0.15792717947E+04  0.89911871769E+03 0.  0.
        3    1    3    3  502    0  0.12051304710E+03  0.28535317221E+03  0.76890963471E+02  0.31915835861E+03  0.10100000352E+00 0.  1.
       -3    1    3    3    0  502 -0.12051304710E+03 -0.28535317221E+03  0.12214483346E+04  0.12601134361E+04  0.10100000352E+00 0. -1.
</event>
<event>
 5   0  0.6137243E-03  0.8956158E+03  0.7818609E-02  0.9431079E-01
        1   -1    0    0  501    0  0.00000000000E+00  0.00000000000E+00  0.36134966760E+03  0.36134966763E+03  0.50400001928E-02 0. -1.
       -1   -1    0    0    0  501  0.00000000000E+00  0.00000000000E+00 -0.55495252198E+03  0.55495252200E+03  0.50400001928E-02 0.  1.
    10030    2    1    2    0    0  0.00000000000E+00  0.00000000000E+00 -0.19360285438E+03  0.91630218963E+03  0.89561578676E+03 0.  0.
        4    1    3    3  502    0  0.21203173979E+02 -0.20484511909E+03 -0.50362797659E+03  0.54410830641E+03  0.12699999809E+01 0.  1.
       -4    1    3    3    0  502 -0.21203173979E+02  0.20484511909E+03  0.31002512222E+03  0.37219388322E+03  0.12699999809E+01 0. -1.
</event>
<event>
 5   0  0.6092779E-03  0.8978106E+03  0.7818609E-02  0.9428322E-01
       -1   -1    0    0    0  501  0.00000000000E+00  0.00000000000E+00  0.31058992830E+03  0.31058992834E+03  0.50400001928E-02 0.  1.
        1   -1    0    0  501    0  0.00000000000E+00  0.00000000000E+00 -0.64881684718E+03  0.64881684720E+03  0.50400001928E-02 0. -1.
    10030    2    1    2    0    0  0.00000000000E+00  0.00000000000E+00 -0.33822691888E+03  0.95940677554E+03  0.89781062162E+03 0.  0.
        2    1    3    3  502    0 -0.25991980256E+03 -0.15562279818E+03 -0.52310996477E+03  0.60450045023E+03  0.25500000920E-02 0. -1.
       -2    1    3    3    0  502  0.25991980256E+03  0.15562279818E+03  0.18488304589E+03  0.35490632531E+03  0.25500000920E-02 0.  1.
</event>
<event>
 5   0  0.6288003E-03  0.8920731E+03  0.7818609E-02  0.9435545E-01
       -1   -1    0    0    0  501  0.00000000000E+00  0.00000000000E+00  0.51943653326E+03  0.51943653329E+03  0.50400001928E-02 0.  1.
        1   -1    0    0  501    0  0.00000000000E+00  0.00000000000E+00 -0.38300846663E+03  0.38300846666E+03  0.50400001928E-02 0. -1.
    10030    2    1    2    0    0  0.00000000000E+00  0.00000000000E+00  0.13642806664E+03  0.90244499995E+03  0.89207306907E+03 0.  0.
        1    1    3    3  502    0  0.10627968640E+03 -0.14387230364E+03  0.48156475572E+03  0.51371122771E+03  0.50400001928E-02 0.  1.
       -1    1    3    3    0  502 -0.10627968640E+03  0.14387230364E+03 -0.34513668909E+03  0.38873377224E+03  0.50400001928E-02 0. -1.
</event>
<event>
 5   0  0.1003252E-02  0.9005479E+03  0.7818609E-02  0.9424897E-01
        2   -1    0    0  501    0  0.00000000000E+00  0.00000000000E+00  0.92547811901E+03  0.92547811902E+03  0.25500000920E-02 0. -1.
       -2   -1    0    0    0  501  0.00000000000E+00  0.00000000000E+00 -0.21907231020E+03  0.21907231022E+03  0.25500000920E-02 0.  1.
    10030    2    1    2    0    0  0.00000000000E+00  0.00000000000E+00  0.70640580881E+03  0.11445504292E+04  0.90054789897E+03 0.  0.
        2    1    3    3  502    0  0.84847823410E+01 -0.43410855918E+03  0.50478400150E+03  0.66582964853E+03  0.25500000920E-02 0. -1.
       -2    1    3    3    0  502 -0.84847823410E+01  0.43410855918E+03  0.20162180731E+03  0.47872078071E+03  0.25500000920E-02 0.  1.
</event>
<event>
 5   0  0.6211218E-03  0.8972265E+03  0.7818609E-02  0.9429055E-01
        1   -1    0    0  501    0  0.00000000000E+00  0.00000000000E+00  0.17826205932E+04  0.17826205932E+04  0.50400001928E-02 0. -1.
       -1   -1    0    0    0  501  0.00000000000E+00  0.00000000000E+00 -0.11289775609E+03  0.11289775621E+03  0.50400001928E-02 0.  1.
    10030    2    1    2    0    0  0.00000000000E+00  0.00000000000E+00  0.16697228371E+04  0.18955183494E+04  0.89722653785E+03 0.  0.
        5    1    3    3  502    0  0.19800270932E+03 -0.39742548276E+03  0.69992184048E+03  0.82889369646E+03  0.46999998093E+01 0. -1.
       -5    1    3    3    0  502 -0.19800270932E+03  0.39742548276E+03  0.96980099665E+03  0.10666246530E+04  0.46999998093E+01 0.  1.
</event>
<event>
 5   0  0.6015709E-03  0.9048209E+03  0.7818609E-02  0.9419575E-01
        1   -1    0    0  501    0  0.00000000000E+00  0.00000000000E+00  0.64906035125E+03  0.64906035127E+03  0.50400001928E-02 0. -1.
       -1   -1    0    0    0  501  0.00000000000E+00  0.00000000000E+00 -0.31534081650E+03  0.31534081654E+03  0.50400001928E-02 0.  1.
    10030    2    1    2    0    0  0.00000000000E+00  0.00000000000E+00  0.33371953475E+03  0.96440116781E+03  0.90482091299E+03 0.  0.
        3    1    3    3  502    0  0.14475040192E+03  0.23448189571E+03  0.54929082404E+03  0.61453629498E+03  0.10100000352E+00 0. -1.
       -3    1    3    3    0  502 -0.14475040192E+03 -0.23448189571E+03 -0.21557128929E+03  0.34986487283E+03  0.10100000352E+00 0.  1.
</event>
<event>
 5   0  0.1028978E-02  0.8991536E+03  0.7818609E-02  0.9426640E-01
       -2   -1    0    0    0  501  0.00000000000E+00  0.00000000000E+00  0.12035215075E+03  0.12035215078E+03  0.25500000920E-02 0. -1.
        2   -1    0    0  501    0  0.00000000000E+00  0.00000000000E+00 -0.16793990756E+04  0.16793990756E+04  0.25500000920E-02 0.  1.
    10030    2    1    2    0    0  0.00000000000E+00  0.00000000000E+00 -0.15590469249E+04  0.17997512264E+04  0.89915358142E+03 0.  0.
        3    1    3    3  502    0  0.33269768493E+03  0.28801437368E+03 -0.59520987204E+03  0.74021269307E+03  0.10100000352E+00 0.  1.
       -3    1    3    3    0  502 -0.33269768493E+03 -0.28801437368E+03 -0.96383705281E+03  0.10595385333E+04  0.10100000352E+00 0. -1.
</event>
<event>
 5   0  0.1028978E-02  0.8934008E+03  0.7818609E-02  0.9433869E-01
       -2   -1    0    0    0  501  0.00000000000E+00  0.00000000000E+00  0.19948418133E+03  0.19948418135E+03  0.25500000920E-02 0. -1.
        2   -1    0    0  501    0  0.00000000000E+00  0.00000000000E+00 -0.10002861231E+04  0.10002861231E+04  0.25500000920E-02 0.  1.
    10030    2    1    2    0    0  0.00000000000E+00  0.00000000000E+00 -0.80080194175E+03  0.11997703044E+04  0.89340082465E+03 0.  0.
        3    1    3    3  502    0 -0.10835471257E+02  0.19723475514E+03  0.13764506457E+03  0.24075948595E+03  0.10100000352E+00 0. -1.
       -3    1    3    3    0  502  0.10835471257E+02 -0.19723475514E+03 -0.93844700632E+03  0.95901081847E+03  0.10100000352E+00 0.  1.
</event>
<event>
 5   0  0.6288003E-03  0.9098978E+03  0.7818609E-02  0.9413293E-01
       -1   -1    0    0    0  501  0.00000000000E+00  0.00000000000E+00  0.97780252268E+03  0.97780252269E+03  0.50400001928E-02 0.  1.
        1   -1    0    0  501    0  0.00000000000E+00  0.00000000000E+00 -0.21167717943E+03  0.21167717949E+03  0.50400001928E-02 0. -1.
    10030    2    1    2    0    0  0.00000000000E+00  0.00000000000E+00  0.76612534325E+03  0.11894797022E+04  0.90989775267E+03 0.  0.
        1    1    3    3  502    0  0.62706225274E+02  0.40893700648E+03  0.63046777109E+03  0.75408962091E+03  0.50400001928E-02 0. -1.
       -1    1    3    3    0  502 -0.62706225274E+02 -0.40893700648E+03  0.13565757216E+03  0.43539008127E+03  0.50400001928E-02 0.  1.
</event>
<event>
 5   0  0.1017079E-02  0.9020086E+03  0.7818609E-02  0.9423074E-01
        2   -1    0    0  501    0  0.00000000000E+00  0.00000000000E+00  0.34926834491E+03  0.34926834492E+03  0.25500000920E-02 0.  1.
       -2   -1    0    0    0  501  0.00000000000E+00  0.00000000000E+00 -0.58237425430E+03  0.58237425430E+03  0.25500000920E-02 0. -1.
    10030    2    1    2    0    0  0.00000000000E+00  0.00000000000E+00 -0.23310590939E+03  0.93164259922E+03  0.90200862950E+03 0.  0.
        1    1    3    3  502    0 -0.16426343904E+03 -0.41044975663E+02  0.31519668500E+03  0.35779340085E+03  0.50400001928E-02 0.  1.
       -1    1    3    3    0  502  0.16426343904E+03  0.41044975663E+02 -0.54830259439E+03  0.57384919837E+03  0.50400001928E-02 0. -1.
</event>
<event>
 5   0  0.6092779E-03  0.9258782E+03  0.7818609E-02  0.9393798E-01
       -1   -1    0    0    0  501  0.00000000000E+00  0.00000000000E+00  0.41998862820E+03  0.41998862823E+03  0.50400001928E-02 0. -1.
        1   -1    0    0  501    0  0.00000000000E+00  0.00000000000E+00 -0.51028196976E+03  0.51028196979E+03  0.50400001928E-02 0.  1.
    10030    2    1    2    0    0  0.00000000000E+00  0.00000000000E+00 -0.90293341559E+02  0.93027059802E+03  0.92587823066E+03 0.  0.
        2    1    3    3  502    0 -0.37494272640E+03 -0.20936479489E+03 -0.21887431491E+03  0.48199754269E+03  0.25500000920E-02 0.  1.
       -2    1    3    3    0  502  0.37494272640E+03  0.20936479489E+03  0.12858097336E+03  0.44827305533E+03  0.25500000920E-02 0. -1.
</event>
<event>
 5   0  0.6288003E-03  0.9229929E+03  0.7818609E-02  0.9397287E-01
       -1   -1    0    0    0  501  0.00000000000E+00  0.00000000000E+00  0.49227316933E+03  0.49227316936E+03  0.50400001928E-02 0.  1.
        1   -1    0    0  501    0  0.00000000000E+00  0.00000000000E+00 -0.43264389255E+03  0.43264389258E+03  0.50400001928E-02 0. -1.
    10030    2    1    2    0    0  0.00000000000E+00  0.00000000000E+00  0.59629276786E+02  0.92491706193E+03  0.92299291482E+03 0.  0.
        1    1    3    3  502    0 -0.14562911648E+03  0.43186976605E+03 -0.42859965302E+02  0.45777320918E+03  0.50400001928E-02 0.  1.
       -1    1    3    3    0  502  0.14562911648E+03 -0.43186976605E+03  0.10248924209E+03  0.46714385275E+03  0.50400001928E-02 0. -1.
</event>
<event>
 5   0  0.3996375E-03  0.8748443E+03  0.7818609E-02  0.9457585E-01
       -4   -1    0    0    0  501  0.00000000000E+00  0.00000000000E+00  0.17694041489E+03  0.17694497258E+03  0.12699999809E+01 0.  1.
        4   -1    0    0  501    0  0.00000000000E+00  0.00000000000E+00 -0.10813515925E+04  0.10813523383E+04  0.12699999809E+01 0. -1.
    10030    2    1    2    0    0  0.00000000000E+00  0.00000000000E+00 -0.90441117762E+03  0.12582973109E+04  0.87484429718E+03 0.  0.
        4    1    3    3  502    0 -0.18402558914E+03 -0.36647445317E+02  0.11611448943E+03  0.22066408919E+03  0.12699999809E+01 0.  1.
       -4    1    3    3    0  502  0.18402558914E+03  0.36647445317E+02 -0.10205256670E+04  0.10376332217E+04  0.12699999809E+01 0. -1.
</event>
<event>
 5   0  0.1017079E-02  0.8995111E+03  0.7818609E-02  0.9426193E-01
       -2   -1    0    0    0  501  0.00000000000E+00  0.00000000000E+00  0.21424481692E+03  0.21424481693E+03  0.25500000920E-02 0. -1.
        2   -1    0    0  501    0  0.00000000000E+00  0.00000000000E+00 -0.94415380358E+03  0.94415380358E+03  0.25500000920E-02 0.  1.
    10030    2    1    2    0    0  0.00000000000E+00  0.00000000000E+00 -0.72990898666E+03  0.11583986205E+04  0.89951110899E+03 0.  0.
        1    1    3    3  502    0  0.42370635158E+03 -0.32824545994E+02 -0.55455365779E+03  0.69866607373E+03  0.50400001928E-02 0.  1.
       -1    1    3    3    0  502 -0.42370635158E+03  0.32824545994E+02 -0.17535532887E+03  0.45973254679E+03  0.50400001928E-02 0. -1.
</event>
<event>
 5   0  0.6092779E-03  0.8984257E+03  0.7818609E-02  0.9427552E-01
       -1   -1    0    0    0  501  0.00000000000E+00  0.00000000000E+00  0.18382421281E+03  0.18382421288E+03  0.50400001928E-02 0.  1.
        1   -1    0    0  501    0  0.00000000000E+00  0.00000000000E+00 -0.10977453038E+04  0.10977453038E+04  0.50400001928E-02 0. -1.
    10030    2    1    2    0    0  0.00000000000E+00  0.00000000000E+00 -0.91392109098E+03  0.12815695167E+04  0.89842565946E+03 0.  0.
        2    1    3    3  502    0  0.16200716679E+03  0.23417757480E+03 -0.95255418514E+03  0.99420568006E+03  0.25500000920E-02 0. -1.
       -2    1    3    3    0  502 -0.16200716679E+03 -0.23417757480E+03  0.38633094161E+02  0.28736383663E+03  0.25500000920E-02 0.  1.
</event>
<event>
 5   0  0.6092779E-03  0.8975799E+03  0.7818609E-02  0.9428612E-01
       -1   -1    0    0    0  501  0.00000000000E+00  0.00000000000E+00  0.58591408433E+03  0.58591408436E+03  0.50400001928E-02 0.  1.
        1   -1    0    0  501    0  0.00000000000E+00  0.00000000000E+00 -0.34375757500E+03  0.34375757504E+03  0.50400001928E-02 0. -1.
    10030    2    1    2    0    0  0.00000000000E+00  0.00000000000E+00  0.24215650934E+03  0.92967165939E+03  0.89757986790E+03 0.  0.
        2    1    3    3  502    0 -0.38611734730E+02  0.28791334549E+03  0.47540207436E+03  0.55712843482E+03  0.25500000920E-02 0.  1.
       -2    1    3    3    0  502  0.38611734730E+02 -0.28791334549E+03 -0.23324556502E+03  0.37254322458E+03  0.25500000920E-02 0. -1.
</event>
<event>
 5   0  0.1003252E-02  0.9099765E+03  0.7818609E-02  0.9413196E-01
        2   -1    0    0  501    0  0.00000000000E+00  0.00000000000E+00  0.11254986389E+04  0.11254986389E+04  0.25500000920E-02 0. -1.
       -2   -1    0    0    0  501  0.00000000000E+00  0.00000000000E+00 -0.18393119275E+03  0.18393119277E+03  0.25500000920E-02 0.  1.
    10030    2    1    2    0    0  0.00000000000E+00  0.00000000000E+00  0.94156744619E+03  0.13094298317E+04  0.90997649884E+03 0.  0.
        2    1    3    3  502    0  0.21561459761E+03  0.84833304717E+02 -0.92675818098E+02  0.24954989793E+03  0.25500000920E-02 0.  1.
       -2    1    3    3    0  502 -0.21561459761E+03 -0.84833304717E+02  0.10342432643E+04  0.10598799338E+04  0.25500000920E-02 0. -1.
</event>
<event>
 5   0  0.3996375E-03  0.9151057E+03  0.7818609E-02  0.9406893E-01
        3   -1    0    0  501    0  0.00000000000E+00  0.00000000000E+00  0.65648142328E+03  0.65648143105E+03  0.10100000352E+00 0. -1.
       -3   -1    0    0    0  501  0.00000000000E+00  0.00000000000E+00 -0.31890409476E+03  0.31890411076E+03  0.10100000352E+00 0.  1.
    10030    2    1    2    0    0  0.00000000000E+00  0.00000000000E+00  0.33757732852E+03  0.97538554181E+03  0.91510573293E+03 0.  0.
        3    1    3    3  502    0 -0.38229905976E+03 -0.10130428657E+02  0.43653141251E+03  0.58035754582E+03  0.10100000352E+00 0. -1.
       -3    1    3    3    0  502  0.38229905976E+03  0.10130428657E+02 -0.98954083990E+02  0.39502799599E+03  0.10100000352E+00 0.  1.
</event>
<event>
 5   0  0.6015709E-03  0.8893111E+03  0.7818609E-02  0.9439043E-01
        1   -1    0    0  501    0  0.00000000000E+00  0.00000000000E+00  0.35260321318E+03  0.35260321322E+03  0.50400001928E-02 0. -1.
       -1   -1    0    0    0  501  0.00000000000E+00  0.00000000000E+00 -0.56073948832E+03  0.56073948834E+03  0.50400001928E-02 0.  1.
    10030    2    1    2    0    0  0.00000000000E+00  0.00000000000E+00 -0.20813627513E+03  0.91334270156E+03  0.88931107126E+03 0.  0.
        3    1    3    3  502    0  0.41510331517E+03  0.18125395497E+02  0.58575573447E+02  0.41960743586E+03  0.10100000352E+00 0.  1.
       -3    1    3    3    0  502 -0.41510331517E+03 -0.18125395497E+02 -0.26671184858E+03  0.49373526570E+03  0.10100000352E+00 0. -1.
</event>
<event>
 5   0  0.1033749E-02  0.8961555E+03  0.7818609E-02  0.9430400E-01
       -2   -1    0    0    0  501  0.00000000000E+00  0.00000000000E+00  0.17054207903E+03  0.17054207905E+03  0.25500000920E-02 0. -1.
        2   -1    0    0  501    0  0.00000000000E+00  0.00000000000E+00 -0.11772676135E+04  0.11772676135E+04  0.25500000920E-02 0.  1.
    10030    2    1    2    0    0  0.00000000000E+00  0.00000000000E+00 -0.10067255345E+04  0.13478096925E+04  0.89615549185E+03 0.  0.
        5    1    3    3  502    0 -0.36250027104E+03  0.17643027623E+03 -0.79738235939E+03  0.89351821803E+03  0.46999998093E+01 0.  1.
       -5    1    3    3    0  502  0.36250027104E+03 -0.17643027623E+03 -0.20934317508E+03  0.45429147452E+03  0.46999998093E+01 0. -1.
</event>
<event>
 5   0  0.6015709E-03  0.9004043E+03  0.7818609E-02  0.9425076E-01
       -1   -1    0    0    0  501  0.00000000000E+00  0.00000000000E+00  0.20725553774E+03  0.20725553780E+03  0.50400001928E-02 0.  1.
        1   -1    0    0  501    0  0.00000000000E+00  0.00000000000E+00 -0.97793265013E+03  0.97793265014E+03  0.50400001928E-02 0. -1.
    10030    2    1    2    0    0  0.00000000000E+00  0.00000000000E+00 -0.77067711239E+03  0.11851881879E+04  0.90040425880E+03 0.  0.
        3    1    3    3  502    0  0.27157388258E+03  0.11795206776E+03 -0.83174511946E+03  0.88287316073E+03  0.10100000352E+00 0. -1.
       -3    1    3    3    0  502 -0.27157388258E+03 -0.11795206776E+03  0.61068007070E+02  0.30231502721E+03  0.10100000352E+00 0.  1.
</event>
<event>
 5   0  0.1003252E-02  0.8725247E+03  0.7818609E-02  0.9460594E-01
        2   -1    0    0  501    0  0.00000000000E+00  0.00000000000E+00  0.54505807574E+03  0.54505807574E+03  0.25500000920E-02 0. -1.
       -2   -1    0    0    0  501  0.00000000000E+00  0.00000000000E+00 -0.34918266697E+03  0.34918266698E+03  0.25500000920E-02 0.  1.
    10030    2    1    2    0    0  0.00000000000E+00  0.00000000000E+00  0.19587540877E+03  0.89424074273E+03  0.87252468744E+03 0.  0.
        2    1    3    3  502    0  0.17463904351E+03  0.30571833737E+03  0.36195814963E+03  0.50495168028E+03  0.25500000920E-02 0. -1.
       -2    1    3    3    0  502 -0.17463904351E+03 -0.30571833737E+03 -0.16608274086E+03  0.38928906245E+03  0.25500000920E-02 0.  1.
</event>
<event>
 5   0  0.1003252E-02  0.9023524E+03  0.7818609E-02  0.9422646E-01
       -2   -1    0    0    0  501  0.00000000000E+00  0.00000000000E+00  0.11703859755E+03  0.11703859758E+03  0.25500000920E-02 0.  1.
        2   -1    0    0  501    0  0.00000000000E+00  0.00000000000E+00 -0.17392550733E+04  0.17392550733E+04  0.25500000920E-02 0. -1.
    10030    2    1    2    0    0  0.00000000000E+00  0.00000000000E+00 -0.16222164757E+04  0.18562936709E+04  0.90235242470E+03 0.  0.
        2    1    3    3  502    0 -0.40291033147E+03  0.59899079461E+02 -0.12101960034E+04  0.12769099426E+04  0.25500000920E-02 0. -1.
       -2    1    3    3    0  502  0.40291033147E+03 -0.59899079461E+02 -0.41202047235E+03  0.57938372826E+03  0.25500000920E-02 0.  1.
</event>
<event>
 5   0  0.6288003E-03  0.8867769E+03  0.7818609E-02  0.9442264E-01
        1   -1    0    0  501    0  0.00000000000E+00  0.00000000000E+00  0.93653303848E+03  0.93653303849E+03  0.50400001928E-02 0.  1.
       -1   -1    0    0    0  501  0.00000000000E+00  0.00000000000E+00 -0.20991606083E+03  0.20991606089E+03  0.50400001928E-02 0. -1.
    10030    2    1    2    0    0  0.00000000000E+00  0.00000000000E+00  0.72661697765E+03  0.11464490994E+04  0.88677691968E+03 0.  0.
        1    1    3    3  502    0 -0.20382618652E+03  0.99741650521E+02  0.85577173773E+03  0.88534669948E+03  0.50400001928E-02 0.  1.
       -1    1    3    3    0  502  0.20382618652E+03 -0.99741650521E+02 -0.12915476008E+03  0.26110239991E+03  0.50400001928E-02 0. -1.
</event>
<event>
 5   0  0.1028978E-02  0.8391488E+03  0.7818609E-02  0.9505018E-01
        2   -1    0    0  501    0  0.00000000000E+00  0.00000000000E+00  0.78179191138E+03  0.78179191139E+03  0.25500000920E-02 0.  1.
       -2   -1    0    0    0  501  0.00000000000E+00  0.00000000000E+00 -0.22517840720E+03  0.22517840721E+03  0.25500000920E-02 0. -1.
    10030    2    1    2    0    0  0.00000000000E+00  0.00000000000E+00  0.55661350419E+03  0.10069703186E+04  0.83914875291E+03 0.  0.
        3    1    3    3  502    0  0.33296311885E+03  0.18994439905E+03  0.48300741078E+03  0.61663561552E+03  0.10100000352E+00 0.  1.
       -3    1    3    3    0  502 -0.33296311885E+03 -0.18994439905E+03  0.73606093401E+02  0.39033470309E+03  0.10100000352E+00 0. -1.
</event>
<event>
 5   0  0.1003252E-02  0.9004250E+03  0.7818609E-02  0.9425050E-01
        2   -1    0    0  501    0  0.00000000000E+00  0.00000000000E+00  0.38812212674E+03  0.38812212675E+03  0.25500000920E-02 0. -1.
       -2   -1    0    0    0  501  0.00000000000E+00  0.00000000000E+00 -0.52223581117E+03  0.52223581118E+03  0.25500000920E-02 0.  1.
    10030    2    1    2    0    0  0.00000000000E+00  0.00000000000E+00 -0.13411368443E+03  0.91035793792E+03  0.90042495234E+03 0.  0.
        2    1    3    3  502    0  0.28501348255E+03  0.87906925354E+01 -0.41929838604E+03  0.50707109763E+03  0.25500000920E-02 0.  1.
       -2    1    3    3    0  502 -0.28501348255E+03 -0.87906925354E+01  0.28518470161E+03  0.40328684029E+03  0.25500000920E-02 0. -1.
</event>
<event>
 5   0  0.6015709E-03  0.9564214E+03  0.7818609E-02  0.9357676E-01
       -1   -1    0    0    0  501  0.00000000000E+00  0.00000000000E+00  0.57986262328E+03  0.57986262330E+03  0.50400001928E-02 0.  1.
        1   -1    0    0  501    0  0.00000000000E+00  0.00000000000E+00 -0.39437874249E+03  0.39437874252E+03  0.50400001928E-02 0. -1.
    10030    2    1    2    0    0  0.00000000000E+00  0.00000000000E+00  0.18548388079E+03  0.97424136582E+03  0.95642143893E+03 0.  0.
        3    1    3    3  502    0  0.17912465788E+01  0.20384954989E+03 -0.34790040150E+03  0.40322766165E+03  0.10100000352E+00 0. -1.
       -3    1    3    3    0  502 -0.17912465788E+01 -0.20384954989E+03  0.53338428229E+03  0.57101370417E+03  0.10100000352E+00 0.  1.
</event>
<event>
 5   0  0.6015709E-03  0.8927277E+03  0.7818609E-02  0.9434718E-01
        1   -1    0    0  501    0  0.00000000000E+00  0.00000000000E+00  0.39609834427E+03  0.39609834430E+03  0.50400001928E-02 0.  1.
       -1   -1    0    0    0  501  0.00000000000E+00  0.00000000000E+00 -0.50300807379E+03  0.50300807382E+03  0.50400001928E-02 0. -1.
    10030    2    1    2    0    0  0.00000000000E+00  0.00000000000E+00 -0.10690972953E+03  0.89910641812E+03  0.89272765211E+03 0.  0.
        3    1    3    3  502    0  0.32518660994E+03 -0.24685349455E+03 -0.23518159343E+03  0.47116172505E+03  0.10100000352E+00 0. -1.
       -3    1    3    3    0  502 -0.32518660994E+03  0.24685349455E+03  0.12827186391E+03  0.42794469307E+03  0.10100000352E+00 0.  1.
</event>
<event>
 5   0  0.6137243E-03  0.9015627E+03  0.7818609E-02  0.9423630E-01
        1   -1    0    0  501    0  0.00000000000E+00  0.00000000000E+00  0.92428633643E+03  0.92428633644E+03  0.50400001928E-02 0.  1.
       -1   -1    0    0    0  501  0.00000000000E+00  0.00000000000E+00 -0.21984943686E+03  0.21984943692E+03  0.50400001928E-02 0. -1.
    10030    2    1    2    0    0  0.00000000000E+00  0.00000000000E+00  0.70443689957E+03  0.11441357734E+04  0.90156271131E+03 0.  0.
        4    1    3    3  502    0 -0.18985657928E+03  0.31874739182E+03  0.27287943099E+02  0.37201030258E+03  0.12699999809E+01 0. -1.
       -4    1    3    3    0  502  0.18985657928E+03 -0.31874739182E+03  0.67714895647E+03  0.77212547078E+03  0.12699999809E+01 0.  1.
</event>
<event>
 5   0  0.1028978E-02  0.8879706E+03  0.7818609E-02  0.9440745E-01
       -2   -1    0    0    0  501  0.00000000000E+00  0.00000000000E+00  0.49799271798E+03  0.49799271799E+03  0.25500000920E-02 0. -1.
        2   -1    0    0  501    0  0.00000000000E+00  0.00000000000E+00 -0.39583495737E+03  0.39583495738E+03  0.25500000920E-02 0.  1.
    10030    2    1    2    0    0  0.00000000000E+00  0.00000000000E+00  0.10215776061E+03  0.89382767536E+03  0.88797055424E+03 0.  0.
        3    1    3    3  502    0 -0.29732436116E+03  0.97512187874E+02 -0.26597893250E+03  0.41067652144E+03  0.10100000352E+00 0.  1.
       -3    1    3    3    0  502  0.29732436116E+03 -0.97512187874E+02  0.36813669311E+03  0.48315115393E+03  0.10100000352E+00 0. -1.
</event>
<event>
 5   0  0.1003252E-02  0.8641100E+03  0.7818609E-02  0.9471592E-01
        2   -1    0    0  501    0  0.00000000000E+00  0.00000000000E+00  0.12607523448E+03  0.12607523450E+03  0.25500000920E-02 0.  1.
       -2   -1    0    0    0  501  0.00000000000E+00  0.00000000000E+00 -0.14806359843E+04  0.14806359843E+04  0.25500000920E-02 0. -1.
    10030    2    1    2    0    0  0.00000000000E+00  0.00000000000E+00 -0.13545607498E+04  0.16067112188E+04  0.86411001363E+03 0.  0.
        2    1    3    3  502    0 -0.27944781267E+03  0.14447559409E+03 -0.12661655980E+03  0.33911064642E+03  0.25500000920E-02 0.  1.
       -2    1    3    3    0  502  0.27944781267E+03 -0.14447559409E+03 -0.12279441900E+04  0.12676005724E+04  0.25500000920E-02 0. -1.
</event>
<event>
 5   0  0.1041727E-02  0.9037466E+03  0.7818609E-02  0.9420910E-01
        2   -1    0    0  501    0  0.00000000000E+00  0.00000000000E+00  0.11865157007E+04  0.11865157007E+04  0.25500000920E-02 0. -1.
       -2   -1    0    0    0  501  0.00000000000E+00  0.00000000000E+00 -0.17209166255E+03  0.17209166256E+03  0.25500000920E-02 0.  1.
    10030    2    1    2    0    0  0.00000000000E+00  0.00000000000E+00  0.10144240381E+04  0.13586073632E+04  0.90374655647E+03 0.  0.
        4    1    3    3  502    0  0.43594953063E+03  0.37861907982E+02  0.33778253321E+03  0.55279668050E+03  0.12699999809E+01 0.  1.
       -4    1    3    3    0  502 -0.43594953063E+03 -0.37861907982E+02  0.67664150492E+03  0.80581068274E+03  0.12699999809E+01 0. -1.
</event>
<event>
 5   0  0.6092779E-03  0.9389082E+03  0.7818609E-02  0.9378210E-01
        1   -1    0    0  501    0  0.00000000000E+00  0.00000000000E+00  0.60711264248E+03  0.60711264250E+03  0.50400001928E-02 0. -1.
       -1   -1    0    0    0  501  0.00000000000E+00  0.00000000000E+00 -0.36300868615E+03  0.36300868619E+03  0.50400001928E-02 0.  1.
    10030    2    1    2    0    0  0.00000000000E+00  0.00000000000E+00  0.24410395633E+03  0.97012132869E+03  0.93890822282E+03 0.  0.
        2    1    3    3  502    0 -0.42643931575E+03  0.16924264591E+03  0.19278732221E+02  0.45920064540E+03  0.25500000920E-02 0.  1.
       -2    1    3    3    0  502  0.42643931575E+03 -0.16924264591E+03  0.22482522411E+03  0.51092068329E+03  0.25500000920E-02 0. -1.
</event>
<event>
 5   0  0.3996375E-03  0.8904725E+03  0.7818609E-02  0.9437570E-01
        3   -1    0    0  501    0  0.00000000000E+00  0.00000000000E+00  0.54838410354E+03  0.54838411285E+03  0.10100000352E+00 0. -1.
       -3   -1    0    0    0  501  0.00000000000E+00  0.00000000000E+00 -0.36148990015E+03  0.36148991426E+03  0.10100000352E+00 0.  1.
    10030    2    1    2    0    0  0.00000000000E+00  0.00000000000E+00  0.18689420340E+03  0.90987402710E+03  0.89047251610E+03 0.  0.
        4    1    3    3  502    0 -0.21508797596E+03  0.38577837395E+03  0.36136538025E+02  0.44316504092E+03  0.12699999809E+01 0. -1.
       -4    1    3    3    0  502  0.21508797596E+03 -0.38577837395E+03  0.15075766537E+03  0.46670898618E+03  0.12699999809E+01 0.  1.
</event>
<event>
 5   0  0.1017079E-02  0.9221994E+03  0.7818609E-02  0.9398249E-01
        2   -1    0    0  501    0  0.00000000000E+00  0.00000000000E+00  0.94447306818E+03  0.94447306818E+03  0.25500000920E-02 0.  1.
       -2   -1    0    0    0  501  0.00000000000E+00  0.00000000000E+00 -0.22511273517E+03  0.22511273518E+03  0.25500000920E-02 0. -1.
    10030    2    1    2    0    0  0.00000000000E+00  0.00000000000E+00  0.71936033301E+03  0.11695858034E+04  0.92219936170E+03 0.  0.
        1    1    3    3  502    0  0.34038947085E+03 -0.10164348795E+03 -0.13145386213E+02  0.35548444651E+03  0.50400001928E-02 0. -1.
       -1    1    3    3    0  502 -0.34038947085E+03  0.10164348795E+03  0.73250571922E+03  0.81410135685E+03  0.50400001928E-02 0.  1.
</event>
<event>
 5   0  0.1003252E-02  0.9036337E+03  0.7818609E-02  0.9421050E-01
        2   -1    0    0  501    0  0.00000000000E+00  0.00000000000E+00  0.24298005006E+03  0.24298005007E+03  0.25500000920E-02 0.  1.
       -2   -1    0    0    0  501  0.00000000000E+00  0.00000000000E+00 -0.84014499604E+03  0.84014499605E+03  0.25500000920E-02 0. -1.
    10030    2    1    2    0    0  0.00000000000E+00  0.00000000000E+00 -0.59716494598E+03  0.10831250461E+04  0.90363371607E+03 0.  0.
        2    1    3    3  502    0  0.39514255753E+03 -0.68471327657E+02 -0.49127109266E+02  0.40402900434E+03  0.25500000920E-02 0.  1.
       -2    1    3    3    0  502 -0.39514255753E+03  0.68471327657E+02 -0.54803783672E+03  0.67909604178E+03  0.25500000920E-02 0. -1.
</event>
<event>
 5   0  0.6288003E-03  0.9096874E+03  0.7818609E-02  0.9413552E-01
       -1   -1    0    0    0  501  0.00000000000E+00  0.00000000000E+00  0.38773985108E+03  0.38773985111E+03  0.50400001928E-02 0.  1.
        1   -1    0    0  501    0  0.00000000000E+00  0.00000000000E+00 -0.53356087022E+03  0.53356087024E+03  0.50400001928E-02 0. -1.
    10030    2    1    2    0    0  0.00000000000E+00  0.00000000000E+00 -0.14582101914E+03  0.92130072135E+03  0.90968744607E+03 0.  0.
        1    1    3    3  502    0 -0.42294763196E+03 -0.15941656528E+03 -0.21423804488E+02  0.45250118242E+03  0.50400001928E-02 0.  1.
       -1    1    3    3    0  502  0.42294763196E+03  0.15941656528E+03 -0.12439721465E+03  0.46879953893E+03  0.50400001928E-02 0. -1.
</event>
<event>
 5   0  0.6015709E-03  0.9070519E+03  0.7818609E-02  0.9416809E-01
       -1   -1    0    0    0  501  0.00000000000E+00  0.00000000000E+00  0.23646254347E+03  0.23646254352E+03  0.50400001928E-02 0. -1.
        1   -1    0    0  501    0  0.00000000000E+00  0.00000000000E+00 -0.86984510868E+03  0.86984510870E+03  0.50400001928E-02 0.  1.
    10030    2    1    2    0    0  0.00000000000E+00  0.00000000000E+00 -0.63338256522E+03  0.11063076522E+04  0.90705189898E+03 0.  0.
        3    1    3    3  502    0 -0.27100910878E+03 -0.23645260404E+03 -0.65366142915E+03  0.74607576368E+03  0.10100000352E+00 0.  1.
       -3    1    3    3    0  502  0.27100910878E+03  0.23645260404E+03  0.20278863933E+02  0.36023188854E+03  0.10100000352E+00 0. -1.
</event>
<event>
 5   0  0.6137243E-03  0.9022957E+03  0.7818609E-02  0.9422716E-01
        1   -1    0    0  501    0  0.00000000000E+00  0.00000000000E+00  0.12235139074E+04  0.12235139074E+04  0.50400001928E-02 0. -1.
       -1   -1    0    0    0  501  0.00000000000E+00  0.00000000000E+00 -0.16635231487E+03  0.16635231494E+03  0.50400001928E-02 0.  1.
    10030    2    1    2    0    0  0.00000000000E+00  0.00000000000E+00  0.10571615925E+04  0.13898662223E+04  0.90229567399E+03 0.  0.
        4    1    3    3  502    0  0.21707100045E+03  0.94278509531E+02 -0.63057398086E+02  0.24492060948E+03  0.12699999809E+01 0.  1.
       -4    1    3    3    0  502 -0.21707100045E+03 -0.94278509531E+02  0.11202189906E+04  0.11449456128E+04  0.12699999809E+01 0. -1.
</event>
<event>
 5   0  0.3996375E-03  0.8904754E+03  0.7818609E-02  0.9437567E-01
        3   -1    0    0  501    0  0.00000000000E+00  0.00000000000E+00  0.19387861569E+03  0.19387864200E+03  0.10100000352E+00 0.  1.
       -3   -1    0    0    0  501  0.00000000000E+00  0.00000000000E+00 -0.10224778353E+04  0.10224778403E+04  0.10100000352E+00 0. -1.
    10030    2    1    2    0    0  0.00000000000E+00  0.00000000000E+00 -0.82859921957E+03  0.12163564822E+04  0.89047539283E+03 0.  0.
        3    1    3    3  502    0 -0.30937517598E+03  0.15065911192E+03 -0.28368684549E+02  0.34527664268E+03  0.10100000352E+00 0.  1.
       -3    1    3    3    0  502  0.30937517598E+03 -0.15065911192E+03 -0.80023053503E+03  0.87107983957E+03  0.10100000352E+00 0. -1.
</event>
<event>
 5   0  0.6288003E-03  0.9053479E+03  0.7818609E-02  0.9418921E-01
       -1   -1    0    0    0  501  0.00000000000E+00  0.00000000000E+00  0.19772071153E+03  0.19772071159E+03  0.50400001928E-02 0. -1.
        1   -1    0    0  501    0  0.00000000000E+00  0.00000000000E+00 -0.10363796771E+04  0.10363796771E+04  0.50400001928E-02 0.  1.
    10030    2    1    2    0    0  0.00000000000E+00  0.00000000000E+00 -0.83865896555E+03  0.12341003887E+04  0.90534794905E+03 0.  0.
        1    1    3    3  502    0  0.57076099812E+02 -0.40934405131E+02  0.19024770443E+03  0.20279915128E+03  0.50400001928E-02 0. -1.
       -1    1    3    3    0  502 -0.57076099812E+02  0.40934405131E+02 -0.10289066700E+04  0.10313012374E+04  0.50400001928E-02 0.  1.
</event>
<event>
 5   0  0.1028978E-02  0.9001247E+03  0.7818609E-02  0.9425426E-01
       -2   -1    0    0    0  501  0.00000000000E+00  0.00000000000E+00  0.50067546489E+03  0.50067546490E+03  0.25500000920E-02 0.  1.
        2   -1    0    0  501    0  0.00000000000E+00  0.00000000000E+00 -0.40456569015E+03  0.40456569016E+03  0.25500000920E-02 0. -1.
    10030    2    1    2    0    0  0.00000000000E+00  0.00000000000E+00  0.96109774739E+02  0.90524115506E+03  0.90012469137E+03 0.  0.
        3    1    3    3  502    0  0.48398940258E+01  0.12573620269E+03  0.48262577099E+03  0.49875912249E+03  0.10100000352E+00 0.  1.
       -3    1    3    3    0  502 -0.48398940258E+01 -0.12573620269E+03 -0.38651599625E+03  0.40648203257E+03  0.10100000352E+00 0. -1.
</event>
<event>
 5   0  0.6092779E-03  0.8883899E+03  0.7818609E-02  0.9440212E-01
       -1   -1    0    0    0  501  0.00000000000E+00  0.00000000000E+00  0.40172714280E+03  0.40172714283E+03  0.50400001928E-02 0. -1.
        1   -1    0    0  501    0  0.00000000000E+00  0.00000000000E+00 -0.49115212229E+03  0.49115212232E+03  0.50400001928E-02 0.  1.
    10030    2    1    2    0    0  0.00000000000E+00  0.00000000000E+00 -0.89424979491E+02  0.89287926515E+03  0.88838986666E+03 0.  0.
        2    1    3    3  502    0  0.32558934145E+03 -0.22916979780E+02  0.25809983117E+03  0.41611192015E+03  0.25500000920E-02 0. -1.
       -2    1    3    3    0  502 -0.32558934145E+03  0.22916979780E+02 -0.34752481066E+03  0.47676734501E+03  0.25500000920E-02 0.  1.
</event>
<event>
 5   0  0.1017079E-02  0.9129783E+03  0.7818609E-02  0.9409502E-01
        2   -1    0    0  501    0  0.00000000000E+00  0.00000000000E+00  0.30793867398E+03  0.30793867399E+03  0.25500000920E-02 0.  1.
       -2   -1    0    0    0  501  0.00000000000E+00  0.00000000000E+00 -0.67670073001E+03  0.67670073001E+03  0.25500000920E-02 0. -1.
    10030    2    1    2    0    0  0.00000000000E+00  0.00000000000E+00 -0.36876205603E+03  0.98463940400E+03  0.91297825929E+03 0.  0.
        1    1    3    3  502    0 -0.59280376802E+02 -0.32397325406E+03 -0.52527565293E+03  0.61998979347E+03  0.50400001928E-02 0. -1.
       -1    1    3    3    0  502  0.59280376802E+02  0.32397325406E+03  0.15651359690E+03  0.36464961053E+03  0.50400001928E-02 0.  1.
</event>
<event>
 5   0  0.6092779E-03  0.9037499E+03  0.7818609E-02  0.9420906E-01
        1   -1    0    0  501    0  0.00000000000E+00  0.00000000000E+00  0.27757021275E+03  0.27757021279E+03  0.50400001928E-02 0. -1.
       -1   -1    0    0    0  501  0.00000000000E+00  0.00000000000E+00 -0.73563711085E+03  0.73563711086E+03  0.50400001928E-02 0.  1.
    10030    2    1    2    0    0  0.00000000000E+00  0.00000000000E+00 -0.45806689810E+03  0.10132073237E+04  0.90374985343E+03 0.  0.
        2    1    3    3  502    0  0.38591479282E+03  0.67386369352E+02  0.23453447137E+02  0.39245536597E+03  0.25500000920E-02 0. -1.
       -2    1    3    3    0  502 -0.38591479282E+03 -0.67386369352E+02 -0.48152034523E+03  0.62075195769E+03  0.25500000920E-02 0.  1.
</event>
<event>
 5   0  0.6015709E-03  0.8846019E+03  0.7818609E-02  0.9445037E-01
        1   -1    0    0  501    0  0.00000000000E+00  0.00000000000E+00  0.21498300151E+03  0.21498300157E+03  0.50400001928E-02 0.  1.
       -1   -1    0    0    0  501  0.00000000000E+00  0.00000000000E+00 -0.90997958393E+03  0.90997958394E+03  0.50400001928E-02 0. -1.
    10030    2    1    2    0    0  0.00000000000E+00  0.00000000000E+00 -0.69499658241E+03  0.11249625855E+04  0.88460192699E+03 0.  0.
        3    1    3    3  502    0 -0.54870413554E+02  0.43820591024E+03 -0.37851748121E+03  0.58164480212E+03  0.10100000352E+00 0. -1.
       -3    1    3    3    0  502  0.54870413554E+02 -0.43820591024E+03 -0.31647910120E+03  0.54331778339E+03  0.10100000352E+00 0.  1.
</event>
<event>
 5   0  0.1041727E-02  0.9235129E+03  0.7818609E-02  0.9396657E-01
       -2   -1    0    0    0  501  0.00000000000E+00  0.00000000000E+00  0.35111531801E+03  0.35111531802E+03  0.25500000920E-02 0.  1.
        2   -1    0    0  501    0  0.00000000000E+00  0.00000000000E+00 -0.60726214285E+03  0.60726214286E+03  0.25500000920E-02 0. -1.
    10030    2    1    2    0    0  0.00000000000E+00  0.00000000000E+00 -0.25614682484E+03  0.95837746088E+03  0.92351294612E+03 0.  0.
        4    1    3    3  502    0  0.19681531607E+03  0.27281683504E+03  0.20017813360E+03  0.39145650102E+03  0.12699999809E+01 0.  1.
       -4    1    3    3    0  502 -0.19681531607E+03 -0.27281683504E+03 -0.45632495845E+03  0.56692095986E+03  0.12699999809E+01 0. -1.
</event>
<event>
 5   0  0.6137243E-03  0.9150891E+03  0.7818609E-02  0.9406913E-01
       -1   -1    0    0    0  501  0.00000000000E+00  0.00000000000E+00  0.12717265839E+04  0.12717265839E+04  0.50400001928E-02 0. -1.
        1   -1    0    0  501    0  0.00000000000E+00  0.00000000000E+00 -0.16461637533E+03  0.16461637541E+03  0.50400001928E-02 0.  1.
    10030    2    1    2    0    0  0.00000000000E+00  0.00000000000E+00  0.11071102086E+04  0.14363429594E+04  0.91508911200E+03 0.  0.
        4    1    3    3  502    0  0.56509916106E+02 -0.33752405879E+03  0.76871955442E+02  0.35075172318E+03  0.12699999809E+01 0.  1.
       -4    1    3    3    0  502 -0.56509916106E+02  0.33752405879E+03  0.10302382532E+04  0.10855912362E+04  0.12699999809E+01 0. -1.
</event>
<event>
 5   0  0.1003252E-02  0.8984561E+03  0.7818609E-02  0.9427513E-01
        2   -1    0    0  501    0  0.00000000000E+00  0.00000000000E+00  0.50021217581E+03  0.50021217582E+03  0.25500000920E-02 0.  1.
       -2   -1    0    0    0  501  0.00000000000E+00  0.00000000000E+00 -0.40344050741E+03  0.40344050742E+03  0.25500000920E-02 0. -1.
    10030    2    1    2    0    0  0.00000000000E+00  0.00000000000E+00  0.96771668398E+02  0.90365268324E+03  0.89845612921E+03 0.  0.
        2    1    3    3  502    0  0.22851358944E+03  0.80634703934E+02 -0.33206836800E+03  0.41108371054E+03  0.25500000920E-02 0. -1.
       -2    1    3    3    0  502 -0.22851358944E+03 -0.80634703934E+02  0.42884003640E+03  0.49256897270E+03  0.25500000920E-02 0.  1.
</event>
<event>
 5   0  0.6211218E-03  0.8999617E+03  0.7818609E-02  0.9425629E-01
       -1   -1    0    0    0  501  0.00000000000E+00  0.00000000000E+00  0.12330563075E+03  0.12330563085E+03  0.50400001928E-02 0.  1.
        1   -1    0    0  501    0  0.00000000000E+00  0.00000000000E+00 -0.16421210406E+04  0.16421210406E+04  0.50400001928E-02 0. -1.
    10030    2    1    2    0    0  0.00000000000E+00  0.00000000000E+00 -0.15188154099E+04  0.17654266715E+04  0.89996171202E+03 0.  0.
        5    1    3    3  502    0  0.26846015519E+03 -0.33416991208E+03 -0.10278073905E+04  0.11136204501E+04  0.46999998093E+01 0. -1.
       -5    1    3    3    0  502 -0.26846015519E+03  0.33416991208E+03 -0.49100801941E+03  0.65180622135E+03  0.46999998093E+01 0.  1.
</event>
<event>
 5   0  0.1028978E-02  0.9009036E+03  0.7818609E-02  0.9424453E-01
       -2   -1    0    0    0  501  0.00000000000E+00  0.00000000000E+00  0.30399846810E+03  0.30399846811E+03  0.25500000920E-02 0. -1.
        2   -1    0    0  501    0  0.00000000000E+00  0.00000000000E+00 -0.66745995339E+03  0.66745995340E+03  0.25500000920E-02 0.  1.
    10030    2    1    2    0    0  0.00000000000E+00  0.00000000000E+00 -0.36346148530E+03  0.97145842151E+03  0.90090355389E+03 0.  0.
        3    1    3    3  502    0  0.34774130419E+03 -0.23045774632E+03  0.14941156826E+01  0.41717745632E+03  0.10100000352E+00 0. -1.
       -3    1    3    3    0  502 -0.34774130419E+03  0.23045774632E+03 -0.36495560098E+03  0.55428096518E+03  0.10100000352E+00 0.  1.
</event>
<event>
 5   0  0.6092779E-03  0.9034726E+03  0.7818609E-02  0.9421251E-01
       -1   -1    0    0    0  501  0.00000000000E+00  0.00000000000E+00  0.17645292651E+03  0.17645292658E+03  0.50400001928E-02 0. -1.
        1   -1    0    0  501    0  0.00000000000E+00  0.00000000000E+00 -0.11564878695E+04  0.11564878695E+04  0.50400001928E-02 0.  1.
    10030    2    1    2    0    0  0.00000000000E+00  0.00000000000E+00 -0.98003494295E+03  0.13329407961E+04  0.90347256537E+03 0.  0.
        2    1    3    3  502    0  0.41119590605E+03  0.76821840499E+02 -0.74161596216E+03  0.85145634278E+03  0.25500000920E-02 0.  1.
       -2    1    3    3    0  502 -0.41119590605E+03 -0.76821840499E+02 -0.23841898079E+03  0.48148445327E+03  0.25500000920E-02 0. -1.
</event>
<event>
 5   0  0.1003252E-02  0.9015876E+03  0.7818609E-02  0.9423599E-01
        2   -1    0    0  501    0  0.00000000000E+00  0.00000000000E+00  0.31270536223E+03  0.31270536224E+03  0.25500000920E-02 0. -1.
       -2   -1    0    0    0  501  0.00000000000E+00  0.00000000000E+00 -0.64986114029E+03  0.64986114029E+03  0.25500000920E-02 0.  1.
    10030    2    1    2    0    0  0.00000000000E+00  0.00000000000E+00 -0.33715577805E+03  0.96256650253E+03  0.90158762920E+03 0.  0.
        2    1    3    3  502    0  0.15130832020E+03 -0.12264520068E+03 -0.60261978488E+03  0.63331402807E+03  0.25500000920E-02 0.  1.
       -2    1    3    3    0  502 -0.15130832020E+03  0.12264520068E+03  0.26546400683E+03  0.32925247446E+03  0.25500000920E-02 0. -1.
</event>
<event>
 5   0  0.1017079E-02  0.8981393E+03  0.7818609E-02  0.9427910E-01
       -2   -1    0    0    0  501  0.00000000000E+00  0.00000000000E+00  0.44800083684E+03  0.44800083685E+03  0.25500000920E-02 0. -1.
        2   -1    0    0  501    0  0.00000000000E+00  0.00000000000E+00 -0.45014101570E+03  0.45014101571E+03  0.25500000920E-02 0.  1.
    10030    2    1    2    0    0  0.00000000000E+00  0.00000000000E+00 -0.21401788612E+01  0.89814185255E+03  0.89813930264E+03 0.  0.
        1    1    3    3  502    0  0.24516420888E+03  0.11997019920E+03  0.35553324170E+03  0.44822117753E+03  0.50400001928E-02 0. -1.
       -1    1    3    3    0  502 -0.24516420888E+03 -0.11997019920E+03 -0.35767342056E+03  0.44992067502E+03  0.50400001928E-02 0.  1.
</event>
<event>
 5   0  0.6015709E-03  0.8958524E+03  0.7818609E-02  0.9430781E-01
       -1   -1    0    0    0  501  0.00000000000E+00  0.00000000000E+00  0.47560262607E+03  0.47560262610E+03  0.50400001928E-02 0. -1.
        1   -1    0    0  501    0  0.00000000000E+00  0.00000000000E+00 -0.42186032051E+03  0.42186032054E+03  0.50400001928E-02 0.  1.
    10030    2    1    2    0    0  0.00000000000E+00  0.00000000000E+00  0.53742305563E+02  0.89746294664E+03  0.89585239029E+03 0.  0.
        3    1    3    3  502    0 -0.36462253474E+03 -0.91570688474E+02 -0.21708889142E+03  0.43412254123E+03  0.10100000352E+00 0.  1.
       -3    1    3    3    0  502  0.36462253474E+03  0.91570688474E+02  0.27083119698E+03  0.46334040541E+03  0.10100000352E+00 0. -1.
</event>
<event>
 5   0  0.6092779E-03  0.8900772E+03  0.7818609E-02  0.9438071E-01
       -1   -1    0    0    0  501  0.00000000000E+00  0.00000000000E+00  0.75661299592E+03  0.75661299593E+03  0.50400001928E-02 0.  1.
        1   -1    0    0  501    0  0.00000000000E+00  0.00000000000E+00 -0.26177102710E+03  0.26177102715E+03  0.50400001928E-02 0. -1.
    10030    2    1    2    0    0  0.00000000000E+00  0.00000000000E+00  0.49484196881E+03  0.10183840231E+04  0.89007721259E+03 0.  0.
        2    1    3    3  502    0  0.42568040829E+03  0.12590774669E+03  0.21118926202E+03  0.49158669132E+03  0.25500000920E-02 0. -1.
       -2    1    3    3    0  502 -0.42568040829E+03 -0.12590774669E+03  0.28365270679E+03  0.52679733177E+03  0.25500000920E-02 0.  1.
</event>
<event>
 5   0  0.1003252E-02  0.9005533E+03  0.7818609E-02  0.9424890E-01
       -2   -1    0    0    0  501  0.00000000000E+00  0.00000000000E+00  0.12161014137E+03  0.12161014140E+03  0.25500000920E-02 0. -1.
        2   -1    0    0  501    0  0.00000000000E+00  0.00000000000E+00 -0.16672050731E+04  0.16672050731E+04  0.25500000920E-02 0.  1.
    10030    2    1    2    0    0  0.00000000000E+00  0.00000000000E+00 -0.15455949317E+04  0.17888152145E+04  0.90055326252E+03 0.  0.
        2    1    3    3  502    0 -0.56621465720E+02  0.38608647733E+03 -0.12190872861E+04  0.12800166286E+04  0.25500000920E-02 0.  1.
       -2    1    3    3    0  502  0.56621465720E+02 -0.38608647733E+03 -0.32650764563E+03  0.50879858590E+03  0.25500000920E-02 0. -1.
</event>
<event>
 5   0  0.1041727E-02  0.8658299E+03  0.7818609E-02  0.9469333E-01
       -2   -1    0    0    0  501  0.00000000000E+00  0.00000000000E+00  0.14947145851E+03  0.14947145854E+03  0.25500000920E-02 0. -1.
        2   -1    0    0  501    0  0.00000000000E+00  0.00000000000E+00 -0.12538538773E+04  0.12538538773E+04  0.25500000920E-02 0.  1.
    10030    2    1    2    0    0  0.00000000000E+00  0.00000000000E+00 -0.11043824187E+04  0.14033253358E+04  0.86582993206E+03 0.  0.
        4    1    3    3  502    0 -0.39217478578E+03 -0.61789362255E+02 -0.27242467209E+03  0.48149330499E+03  0.12699999809E+01 0.  1.
       -4    1    3    3    0  502  0.39217478578E+03  0.61789362255E+02 -0.83195774665E+03  0.92183203080E+03  0.12699999809E+01 0. -1.
</event>
<event>
 5   0  0.1028978E-02  0.9003532E+03  0.7818609E-02  0.9425140E-01
       -2   -1    0    0    0  501  0.00000000000E+00  0.00000000000E+00  0.20900279194E+03  0.20900279196E+03  0.25500000920E-02 0.  1.
        2   -1    0    0  501    0  0.00000000000E+00  0.00000000000E+00 -0.96964711054E+03  0.96964711054E+03  0.25500000920E-02 0. -1.
    10030    2    1    2    0    0  0.00000000000E+00  0.00000000000E+00 -0.76064431859E+03  0.11786499025E+04  0.90035316029E+03 0.  0.
        3    1    3    3  502    0  0.57619291316E+02  0.24377806580E+02 -0.96392808197E+03  0.96595632282E+03  0.10100000352E+00 0. -1.
       -3    1    3    3    0  502 -0.57619291316E+02 -0.24377806580E+02  0.20328376337E+03  0.21269357968E+03  0.10100000352E+00 0.  1.
</event>
<event>
 5   0  0.1033749E-02  0.9038119E+03  0.7818609E-02  0.9420829E-01
       -2   -1    0    0    0  501  0.00000000000E+00  0.00000000000E+00  0.14874838512E+03  0.14874838514E+03  0.25500000920E-02 0. -1.
        2   -1    0    0  501    0  0.00000000000E+00  0.00000000000E+00 -0.13729156501E+04  0.13729156501E+04  0.25500000920E-02 0.  1.
    10030    2    1    2    0    0  0.00000000000E+00  0.00000000000E+00 -0.12241672650E+04  0.15216640352E+04  0.90381189608E+03 0.  0.
        5    1    3    3  502    0  0.13436356414E+02  0.11604517295E+03  0.12284481858E+03  0.16958760948E+03  0.46999998093E+01 0. -1.
       -5    1    3    3    0  502 -0.13436356414E+02 -0.11604517295E+03 -0.13470120836E+04  0.13520764258E+04  0.46999998093E+01 0.  1.
</event>
<event>
 5   0  0.6137243E-03  0.8998587E+03  0.7818609E-02  0.9425758E-01
       -1   -1    0    0    0  501  0.00000000000E+00  0.00000000000E+00  0.32017769277E+03  0.32017769281E+03  0.50400001928E-02 0. -1.
        1   -1    0    0  501    0  0.00000000000E+00  0.00000000000E+00 -0.63226267237E+03  0.63226267239E+03  0.50400001928E-02 0.  1.
    10030    2    1    2    0    0  0.00000000000E+00  0.00000000000E+00 -0.31208497960E+03  0.95244036521E+03  0.89985866378E+03 0.  0.
        4    1    3    3  502    0  0.19695115336E+02 -0.90795726460E+02 -0.62199726954E+03  0.62889902029E+03  0.12699999809E+01 0.  1.
       -4    1    3    3    0  502 -0.19695115336E+02  0.90795726460E+02  0.30991228994E+03  0.32354134491E+03  0.12699999809E+01 0. -1.
</event>
<event>
 5   0  0.6211218E-03  0.9074350E+03  0.7818609E-02  0.9416335E-01
        1   -1    0    0  501    0  0.00000000000E+00  0.00000000000E+00  0.49604088844E+03  0.49604088847E+03  0.50400001928E-02 0. -1.
       -1   -1    0    0    0  501  0.00000000000E+00  0.00000000000E+00 -0.41500520594E+03  0.41500520597E+03  0.50400001928E-02 0.  1.
    10030    2    1    2    0    0  0.00000000000E+00  0.00000000000E+00  0.81035682500E+02  0.91104609444E+03  0.90743495875E+03 0.  0.
        5    1    3    3  502    0  0.88749225706E+02 -0.37235038545E+03 -0.20400059049E+03  0.43377363397E+03  0.46999998093E+01 0.  1.
       -5    1    3    3    0  502 -0.88749225706E+02  0.37235038545E+03  0.28503627299E+03  0.47727246047E+03  0.46999998093E+01 0. -1.
</event>
<event>
 5   0  0.6288003E-03  0.8977138E+03  0.7818609E-02  0.9428444E-01
        1   -1    0    0  501    0  0.00000000000E+00  0.00000000000E+00  0.43472528522E+03  0.43472528525E+03  0.50400001928E-02 0. -1.
       -1   -1    0    0    0  501  0.00000000000E+00  0.00000000000E+00 -0.46344787501E+03  0.46344787503E+03  0.50400001928E-02 0.  1.
    10030    2    1    2    0    0  0.00000000000E+00  0.00000000000E+00 -0.28722589790E+02  0.89817316028E+03  0.89771378439E+03 0.  0.
        1    1    3    3  502    0  0.19585570844E+03 -0.60336954926E+02 -0.41390572860E+03  0.46186357168E+03  0.50400001928E-02 0.  1.
       -1    1    3    3    0  502 -0.19585570844E+03  0.60336954926E+02  0.38518313881E+03  0.43630958860E+03  0.50400001928E-02 0. -1.
</event>
<event>
 5   0  0.1041727E-02  0.8770885E+03  0.7818609E-02  0.9454684E-01
        2   -1    0    0  501    0  0.00000000000E+00  0.00000000000E+00  0.30619077291E+03  0.30619077292E+03  0.25500000920E-02 0. -1.
       -2   -1    0    0    0  501  0.00000000000E+00  0.00000000000E+00 -0.62810867284E+03  0.62810867285E+03  0.25500000920E-02 0.  1.
    10030    2    1    2    0    0  0.00000000000E+00  0.00000000000E+00 -0.32191789994E+03  0.93429944577E+03  0.87708854744E+03 0.  0.
        4    1    3    3  502    0  0.38212385111E+03 -0.21417102067E+03 -0.13882876233E+03  0.45952464769E+03  0.12699999809E+01 0. -1.
       -4    1    3    3    0  502 -0.38212385111E+03  0.21417102067E+03 -0.18308913761E+03  0.47477479808E+03  0.12699999809E+01 0.  1.
</event>
<event>
 5   0  0.1041727E-02  0.7765615E+03  0.7818609E-02  0.9594577E-01
        2   -1    0    0  501    0  0.00000000000E+00  0.00000000000E+00  0.11902491555E+04  0.11902491555E+04  0.25500000920E-02 0.  1.
       -2   -1    0    0    0  501  0.00000000000E+00  0.00000000000E+00 -0.12666418126E+03  0.12666418129E+03  0.25500000920E-02 0. -1.
    10030    2    1    2    0    0  0.00000000000E+00  0.00000000000E+00  0.10635849743E+04  0.13169133368E+04  0.77656148450E+03 0.  0.
        4    1    3    3  502    0  0.11889883859E+03  0.35318229202E+03  0.71667376743E+03  0.80777321510E+03  0.12699999809E+01 0.  1.
       -4    1    3    3    0  502 -0.11889883859E+03 -0.35318229202E+03  0.34691120682E+03  0.50914012171E+03  0.12699999809E+01 0. -1.
</event>
<event>
 5   0  0.3996375E-03  0.9001770E+03  0.7818609E-02  0.9425360E-01
       -3   -1    0    0    0  501  0.00000000000E+00  0.00000000000E+00  0.15210614710E+03  0.15210618063E+03  0.10100000352E+00 0. -1.
        3   -1    0    0  501    0  0.00000000000E+00  0.00000000000E+00 -0.13318305174E+04  0.13318305212E+04  0.10100000352E+00 0.  1.
    10030    2    1    2    0    0  0.00000000000E+00  0.00000000000E+00 -0.11797243703E+04  0.14839367019E+04  0.90017695218E+03 0.  0.
        2    1    3    3  502    0  0.37915781386E+02  0.19468412670E+03 -0.12559031489E+04  0.12714685349E+04  0.25500000920E-02 0.  1.
       -2    1    3    3    0  502 -0.37915781386E+02 -0.19468412670E+03  0.76178778626E+02  0.21246816699E+03  0.25500000920E-02 0. -1.
</event>
<event>
 5   0  0.1003252E-02  0.8917611E+03  0.7818609E-02  0.9435939E-01
       -2   -1    0    0    0  501  0.00000000000E+00  0.00000000000E+00  0.10294006189E+03  0.10294006192E+03  0.25500000920E-02 0.  1.
        2   -1    0    0  501    0  0.00000000000E+00  0.00000000000E+00 -0.19313129961E+04  0.19313129961E+04  0.25500000920E-02 0. -1.
    10030    2    1    2    0    0  0.00000000000E+00  0.00000000000E+00 -0.18283729342E+04  0.20342530580E+04  0.89176113256E+03 0.  0.
        2    1    3    3  502    0  0.27082161346E+02  0.36366708357E+03 -0.14994384932E+04  0.15431471044E+04  0.25500000920E-02 0. -1.
       -2    1    3    3    0  502 -0.27082161346E+02 -0.36366708357E+03 -0.32893444104E+03  0.49110595358E+03  0.25500000920E-02 0.  1.
</event>
<event>
 5   0  0.6092779E-03  0.8292387E+03  0.7818609E-02  0.9518634E-01
        1   -1    0    0  501    0  0.00000000000E+00  0.00000000000E+00  0.10230772489E+04  0.10230772490E+04  0.50400001928E-02 0. -1.
       -1   -1    0    0    0  501  0.00000000000E+00  0.00000000000E+00 -0.16803151883E+03  0.16803151891E+03  0.50400001928E-02 0.  1.
    10030    2    1    2    0    0  0.00000000000E+00  0.00000000000E+00  0.85504573011E+03  0.11911087679E+04  0.82923874506E+03 0.  0.
        2    1    3    3  502    0  0.23658457075E+03  0.21337086903E+03  0.46379375437E+02  0.32194787364E+03  0.25500000920E-02 0.  1.
       -2    1    3    3    0  502 -0.23658457075E+03 -0.21337086903E+03  0.80866635467E+03  0.86916089423E+03  0.25500000920E-02 0. -1.
</event>
<event>
 5   0  0.6015709E-03  0.9017913E+03  0.7818609E-02  0.9423345E-01
        1   -1    0    0  501    0  0.00000000000E+00  0.00000000000E+00  0.39010522632E+03  0.39010522635E+03  0.50400001928E-02 0. -1.
       -1   -1    0    0    0  501  0.00000000000E+00  0.00000000000E+00 -0.52115913944E+03  0.52115913946E+03  0.50400001928E-02 0.  1.
    10030    2    1    2    0    0  0.00000000000E+00  0.00000000000E+00 -0.13105391312E+03  0.91126436581E+03  0.90179133742E+03 0.  0.
        3    1    3    3  502    0  0.10009197648E+03  0.31764068104E+03  0.24162805069E+03  0.41145854115E+03  0.10100000352E+00 0. -1.
       -3    1    3    3    0  502 -0.10009197648E+03 -0.31764068104E+03 -0.37268196382E+03  0.49980582466E+03  0.10100000352E+00 0.  1.
</event>
<event>
 5   0  0.1033749E-02  0.9051085E+03  0.7818609E-02  0.9419218E-01
        2   -1    0    0  501    0  0.00000000000E+00  0.00000000000E+00  0.42777477990E+03  0.42777477991E+03  0.25500000920E-02 0. -1.
       -2   -1    0    0    0  501  0.00000000000E+00  0.00000000000E+00 -0.47876913081E+03  0.47876913082E+03  0.25500000920E-02 0.  1.
    10030    2    1    2    0    0  0.00000000000E+00  0.00000000000E+00 -0.50994350910E+02  0.90654391072E+03  0.90510852291E+03 0.  0.
        5    1    3    3  502    0  0.29240293822E+03 -0.32006208199E+03 -0.15548764590E+03  0.46058409941E+03  0.46999998093E+01 0. -1.
       -5    1    3    3    0  502 -0.29240293822E+03  0.32006208199E+03  0.10449329499E+03  0.44595981131E+03  0.46999998093E+01 0.  1.
</event>
<event>
 5   0  0.1017079E-02  0.9024846E+03  0.7818609E-02  0.9422481E-01
        2   -1    0    0  501    0  0.00000000000E+00  0.00000000000E+00  0.79078684649E+03  0.79078684649E+03  0.25500000920E-02 0. -1.
       -2   -1    0    0    0  501  0.00000000000E+00  0.00000000000E+00 -0.25748986918E+03  0.25748986919E+03  0.25500000920E-02 0.  1.
    10030    2    1    2    0    0  0.00000000000E+00  0.00000000000E+00  0.53329697731E+03  0.10482767157E+04  0.90248457419E+03 0.  0.
        1    1    3    3  502    0  0.32776470192E+03  0.30950529888E+03  0.24352318127E+03  0.51237366218E+03  0.50400001928E-02 0. -1.
       -1    1    3    3    0  502 -0.32776470192E+03 -0.30950529888E+03  0.28977379604E+03  0.53590305350E+03  0.50400001928E-02 0.  1.
</event>
<event>
 5   0  0.6137243E-03  0.9083036E+03  0.7818609E-02  0.9415261E-01
       -1   -1    0    0    0  501  0.00000000000E+00  0.00000000000E+00  0.22588649539E+03  0.22588649544E+03  0.50400001928E-02 0. -1.
        1   -1    0    0  501    0  0.00000000000E+00  0.00000000000E+00 -0.91308633814E+03  0.91308633815E+03  0.50400001928E-02 0.  1.
    10030    2    1    2    0    0  0.00000000000E+00  0.00000000000E+00 -0.68719984275E+03  0.11389728336E+04  0.90830363414E+03 0.  0.
        4    1    3    3  502    0  0.15555135558E+03 -0.28379062237E+03  0.55935975250E+02  0.32842622885E+03  0.12699999809E+01 0. -1.
       -4    1    3    3    0  502 -0.15555135558E+03  0.28379062237E+03 -0.74313581800E+03  0.81054660474E+03  0.12699999809E+01 0.  1.
</event>
<event>
 5   0  0.6137243E-03  0.9039683E+03  0.7818609E-02  0.9420634E-01
        1   -1    0    0  501    0  0.00000000000E+00  0.00000000000E+00  0.60490709179E+03  0.60490709181E+03  0.50400001928E-02 0.  1.
       -1   -1    0    0    0  501  0.00000000000E+00  0.00000000000E+00 -0.33772073504E+03  0.33772073508E+03  0.50400001928E-02 0. -1.
    10030    2    1    2    0    0  0.00000000000E+00  0.00000000000E+00  0.26718635675E+03  0.94262782689E+03  0.90396829081E+03 0.  0.
        4    1    3    3  502    0 -0.35821988808E+03 -0.24980481128E+03  0.25503909490E+03  0.50573756513E+03  0.12699999809E+01 0.  1.
       -4    1    3    3    0  502  0.35821988808E+03  0.24980481128E+03  0.12147261852E+02  0.43689026176E+03  0.12699999809E+01 0. -1.
</event>
<event>
 5   0  0.6211218E-03  0.8997160E+03  0.7818609E-02  0.9425937E-01
        1   -1    0    0  501    0  0.00000000000E+00  0.00000000000E+00  0.23601418545E+03  0.23601418550E+03  0.50400001928E-02 0.  1.
       -1   -1    0    0    0  501  0.00000000000E+00  0.00000000000E+00 -0.85745785650E+03  0.85745785652E+03  0.50400001928E-02 0. -1.
    10030    2    1    2    0    0  0.00000000000E+00  0.00000000000E+00 -0.62144367106E+03  0.10934720420E+04  0.89971599429E+03 0.  0.
        5    1    3    3  502    0  0.19284766492E+03  0.27926012214E+03 -0.66955696814E+03  0.75066974180E+03  0.46999998093E+01 0. -1.
       -5    1    3    3    0  502 -0.19284766492E+03 -0.27926012214E+03  0.48113297080E+02  0.34280230022E+03  0.46999998093E+01 0.  1.
</event>
<event>
 5   0  0.1041727E-02  0.9076661E+03  0.7818609E-02  0.9416049E-01
        2   -1    0    0  501    0  0.00000000000E+00  0.00000000000E+00  0.13332973510E+04  0.13332973510E+04  0.25500000920E-02 0.  1.
       -2   -1    0    0    0  501  0.00000000000E+00  0.00000000000E+00 -0.15447748214E+03  0.15447748216E+03  0.25500000920E-02 0. -1.
    10030    2    1    2    0    0  0.00000000000E+00  0.00000000000E+00  0.11788198688E+04  0.14877748331E+04  0.90766605696E+03 0.  0.
        4    1    3    3  502    0  0.41257171501E+03  0.18094866358E+03  0.49955728416E+03  0.67269378765E+03  0.12699999809E+01 0. -1.
       -4    1    3    3    0  502 -0.41257171501E+03 -0.18094866358E+03  0.67926258466E+03  0.81508104548E+03  0.12699999809E+01 0.  1.
</event>
<event>
 5   0  0.6211218E-03  0.8970957E+03  0.7818609E-02  0.9429219E-01
       -1   -1    0    0    0  501  0.00000000000E+00  0.00000000000E+00  0.64243319405E+03  0.64243319407E+03  0.50400001928E-02 0.  1.
        1   -1    0    0  501    0  0.00000000000E+00  0.00000000000E+00 -0.31317681109E+03  0.31317681113E+03  0.50400001928E-02 0. -1.
    10030    2    1    2    0    0  0.00000000000E+00  0.00000000000E+00  0.32925638296E+03  0.95561000520E+03  0.89709571191E+03 0.  0.
        5    1    3    3  502    0 -0.36391635782E+03  0.20300002576E+02 -0.11381367443E+03  0.38186757924E+03  0.46999998093E+01 0. -1.
       -5    1    3    3    0  502  0.36391635782E+03 -0.20300002576E+02  0.44307005739E+03  0.57374242596E+03  0.46999998093E+01 0.  1.
</event>
<event>
 5   0  0.1028978E-02  0.8710808E+03  0.7818609E-02  0.9462472E-01
        2   -1    0    0  501    0  0.00000000000E+00  0.00000000000E+00  0.94522496836E+03  0.94522496836E+03  0.25500000920E-02 0. -1.
       -2   -1    0    0    0  501  0.00000000000E+00  0.00000000000E+00 -0.20068813171E+03  0.20068813173E+03  0.25500000920E-02 0.  1.
    10030    2    1    2    0    0  0.00000000000E+00  0.00000000000E+00  0.74453683665E+03  0.11459131001E+04  0.87108078376E+03 0.  0.
        3    1    3    3  502    0 -0.41374846047E+03 -0.84506113715E+02  0.51251871283E+03  0.66408170657E+03  0.10100000352E+00 0. -1.
       -3    1    3    3    0  502  0.41374846047E+03  0.84506113715E+02  0.23201812382E+03  0.48183139352E+03  0.10100000352E+00 0.  1.
</event>
<event>
 5   0  0.1028978E-02  0.9049109E+03  0.7818609E-02  0.9419463E-01
        2   -1    0    0  501    0  0.00000000000E+00  0.00000000000E+00  0.55399785853E+03  0.55399785854E+03  0.25500000920E-02 0. -1.
       -2   -1    0    0    0  501  0.00000000000E+00  0.00000000000E+00 -0.36952476354E+03  0.36952476355E+03  0.25500000920E-02 0.  1.
    10030    2    1    2    0    0  0.00000000000E+00  0.00000000000E+00  0.18447309499E+03  0.92352262209E+03  0.90491088552E+03 0.  0.
        3    1    3    3  502    0 -0.10331807991E+03  0.23786100764E+03  0.47062277301E+03  0.53734373475E+03  0.10100000352E+00 0. -1.
       -3    1    3    3    0  502  0.10331807991E+03 -0.23786100764E+03 -0.28614967802E+03  0.38617888734E+03  0.10100000352E+00 0.  1.
</event>
<event>
 5   0  0.3996375E-03  0.9056063E+03  0.7818609E-02  0.9418600E-01
        3   -1    0    0  501    0  0.00000000000E+00  0.00000000000E+00  0.53594756545E+03  0.53594757497E+03  0.10100000352E+00 0. -1.
       -3   -1    0    0    0  501  0.00000000000E+00  0.00000000000E+00 -0.38255731968E+03  0.38255733301E+03  0.10100000352E+00 0.  1.
    10030    2    1    2    0    0  0.00000000000E+00  0.00000000000E+00  0.15339024578E+03  0.91850490798E+03  0.90560626018E+03 0.  0.
        4    1    3    3  502    0 -0.43515133035E+03 -0.88245534311E+02 -0.13367763879E+02  0.44421195914E+03  0.12699999809E+01 0.  1.
       -4    1    3    3    0  502  0.43515133035E+03  0.88245534311E+02  0.16675800966E+03  0.47429294884E+03  0.12699999809E+01 0. -1.
</event>
<event>
 5   0  0.6211218E-03  0.8583383E+03  0.7818609E-02  0.9479213E-01
       -1   -1    0    0    0  501  0.00000000000E+00  0.00000000000E+00  0.14173262790E+03  0.14173262799E+03  0.50400001928E-02 0.  1.
        1   -1    0    0  501    0  0.00000000000E+00  0.00000000000E+00 -0.12995324566E+04  0.12995324566E+04  0.50400001928E-02 0. -1.
    10030    2    1    2    0    0  0.00000000000E+00  0.00000000000E+00 -0.11577998287E+04  0.14412650846E+04  0.85833827875E+03 0.  0.
        5    1    3    3  502    0 -0.43179931926E+02  0.33040611573E+03 -0.12481488169E+03  0.35585608401E+03  0.46999998093E+01 0.  1.
       -5    1    3    3    0  502  0.43179931926E+02 -0.33040611573E+03 -0.10329849470E+04  0.10854090006E+04  0.46999998093E+01 0. -1.
</event>
<event>
 5   0  0.1028978E-02  0.9069784E+03  0.7818609E-02  0.9416900E-01
       -2   -1    0    0    0  501  0.00000000000E+00  0.00000000000E+00  0.16836590007E+03  0.16836590009E+03  0.25500000920E-02 0. -1.
        2   -1    0    0  501    0  0.00000000000E+00  0.00000000000E+00 -0.12214613114E+04  0.12214613114E+04  0.25500000920E-02 0.  1.
    10030    2    1    2    0    0  0.00000000000E+00  0.00000000000E+00 -0.10530954113E+04  0.13898272115E+04  0.90697835278E+03 0.  0.
        3    1    3    3  502    0  0.81386117510E+01 -0.41054358003E+03 -0.23163038118E+03  0.47144979774E+03  0.10100000352E+00 0. -1.
       -3    1    3    3    0  502 -0.81386117510E+01  0.41054358003E+03 -0.82146503014E+03  0.91837741373E+03  0.10100000352E+00 0.  1.
</event>
<event>
 5   0  0.3996375E-03  0.8912147E+03  0.7818609E-02  0.9436631E-01
       -3   -1    0    0    0  501  0.00000000000E+00  0.00000000000E+00  0.88823275634E+03  0.88823276208E+03  0.10100000352E+00 0. -1.
        3   -1    0    0  501    0  0.00000000000E+00  0.00000000000E+00 -0.22355165179E+03  0.22355167461E+03  0.10100000352E+00 0.  1.
    10030    2    1    2    0    0  0.00000000000E+00  0.00000000000E+00  0.66468110455E+03  0.11117844367E+04  0.89121471202E+03 0.  0.
        1    1    3    3  502    0  0.33136033124E+03 -0.28975863640E+03  0.24585606328E+03  0.50418740600E+03  0.50400001928E-02 0. -1.
       -1    1    3    3    0  502 -0.33136033124E+03  0.28975863640E+03  0.41882504127E+03  0.60759703069E+03  0.50400001928E-02 0.  1.
</event>
<event>
 5   0  0.1003252E-02  0.8479659E+03  0.7818609E-02  0.9493071E-01
       -2   -1    0    0    0  501  0.00000000000E+00  0.00000000000E+00  0.12493327764E+03  0.12493327767E+03  0.25500000920E-02 0. -1.
        2   -1    0    0  501    0  0.00000000000E+00  0.00000000000E+00 -0.14388603297E+04  0.14388603297E+04  0.25500000920E-02 0.  1.
    10030    2    1    2    0    0  0.00000000000E+00  0.00000000000E+00 -0.13139270520E+04  0.15637936074E+04  0.84796588865E+03 0.  0.
        2    1    3    3  502    0  0.54669212986E+02 -0.41579647709E+03 -0.77192656965E+03  0.87849078660E+03  0.25500000920E-02 0.  1.
       -2    1    3    3    0  502 -0.54669212986E+02  0.41579647709E+03 -0.54200048240E+03  0.68530282076E+03  0.25500000920E-02 0. -1.
</event>
<event>
 5   0  0.1017079E-02  0.8924712E+03  0.7818609E-02  0.9435042E-01
        2   -1    0    0  501    0  0.00000000000E+00  0.00000000000E+00  0.45642513058E+03  0.45642513058E+03  0.25500000920E-02 0.  1.
       -2   -1    0    0    0  501  0.00000000000E+00  0.00000000000E+00 -0.43627358525E+03  0.43627358526E+03  0.25500000920E-02 0. -1.
    10030    2    1    2    0    0  0.00000000000E+00  0.00000000000E+00  0.20151545324E+02  0.89269871584E+03  0.89247123903E+03 0.  0.
        1    1    3    3  502    0  0.30770279835E+03 -0.10730004840E+03  0.31500083787E+03  0.45323265591E+03  0.50400001928E-02 0.  1.
       -1    1    3    3    0  502 -0.30770279835E+03  0.10730004840E+03 -0.29484929254E+03  0.43946605994E+03  0.50400001928E-02 0. -1.
</event>
<event>
 5   0  0.6288003E-03  0.9130086E+03  0.7818609E-02  0.9409465E-01
        1   -1    0    0  501    0  0.00000000000E+00  0.00000000000E+00  0.22259837387E+04  0.22259837387E+04  0.50400001928E-02 0. -1.
       -1   -1    0    0    0  501  0.00000000000E+00  0.00000000000E+00 -0.93619807057E+02  0.93619807192E+02  0.50400001928E-02 0.  1.
    10030    2    1    2    0    0  0.00000000000E+00  0.00000000000E+00  0.21323639317E+04  0.23196035459E+04  0.91300858330E+03 0.  0.
        1    1    3    3  502    0  0.44453377004E+03  0.21830274504E+02  0.13241430675E+04  0.13969401193E+04  0.50400001928E-02 0.  1.
       -1    1    3    3    0  502 -0.44453377004E+03 -0.21830274504E+02  0.80822086418E+03  0.92266342667E+03  0.50400001928E-02 0. -1.
</event>
<event>
 5   0  0.1041727E-02  0.9079171E+03  0.7818609E-02  0.9415738E-01
       -2   -1    0    0    0  501  0.00000000000E+00  0.00000000000E+00  0.16214017986E+03  0.16214017988E+03  0.25500000920E-02 0.  1.
        2   -1    0    0  501    0  0.00000000000E+00  0.00000000000E+00 -0.12709888433E+04  0.12709888433E+04  0.25500000920E-02 0. -1.
    10030    2    1    2    0    0  0.00000000000E+00  0.00000000000E+00 -0.11088486634E+04  0.14331290232E+04  0.90791708800E+03 0.  0.
        4    1    3    3  502    0 -0.15034435933E+03  0.42777028360E+03 -0.58921916180E+03  0.74348616359E+03  0.12699999809E+01 0. -1.
       -4    1    3    3    0  502  0.15034435933E+03 -0.42777028360E+03 -0.51962950164E+03  0.68964285960E+03  0.12699999809E+01 0.  1.
</event>
<event>
 5   0  0.1041727E-02  0.8929875E+03  0.7818609E-02  0.9434390E-01
        2   -1    0    0  501    0  0.00000000000E+00  0.00000000000E+00  0.54050373689E+03  0.54050373690E+03  0.25500000920E-02 0.  1.
       -2   -1    0    0    0  501  0.00000000000E+00  0.00000000000E+00 -0.36883493666E+03  0.36883493667E+03  0.25500000920E-02 0. -1.
    10030    2    1    2    0    0  0.00000000000E+00  0.00000000000E+00  0.17166880023E+03  0.90933867357E+03  0.89298748383E+03 0.  0.
        4    1    3    3  502    0  0.20391856931E+03 -0.27654568234E+03 -0.20450872255E+03  0.39985713428E+03  0.12699999809E+01 0. -1.
       -4    1    3    3    0  502 -0.20391856931E+03  0.27654568234E+03  0.37617752278E+03  0.50948153929E+03  0.12699999809E+01 0.  1.
</event>
<event>
 5   0  0.1033749E-02  0.8607045E+03  0.7818609E-02  0.9476081E-01
        2   -1    0    0  501    0  0.00000000000E+00  0.00000000000E+00  0.37744108115E+03  0.37744108115E+03  0.25500000920E-02 0. -1.
       -2   -1    0    0    0  501  0.00000000000E+00  0.00000000000E+00 -0.49068066820E+03  0.49068066821E+03  0.25500000920E-02 0.  1.
    10030    2    1    2    0    0  0.00000000000E+00  0.00000000000E+00 -0.11323958705E+03  0.86812174936E+03  0.86070446010E+03 0.  0.
        5    1    3    3  502    0  0.34434623320E+03 -0.22137648002E+03  0.77184958545E+02  0.41660710753E+03  0.46999998093E+01 0. -1.
       -5    1    3    3    0  502 -0.34434623320E+03  0.22137648002E+03 -0.19042454560E+03  0.45151464183E+03  0.46999998093E+01 0.  1.
</event>
<event>
 5   0  0.6137243E-03  0.8802364E+03  0.7818609E-02  0.9450630E-01
       -1   -1    0    0    0  501  0.00000000000E+00  0.00000000000E+00  0.78004438838E+02  0.78004439000E+02  0.50400001928E-02 0.  1.
        1   -1    0    0  501    0  0.00000000000E+00  0.00000000000E+00 -0.24832435011E+04  0.24832435011E+04  0.50400001928E-02 0. -1.
    10030    2    1    2    0    0  0.00000000000E+00  0.00000000000E+00 -0.24052390623E+04  0.25612479401E+04  0.88023636829E+03 0.  0.
        4    1    3    3  502    0 -0.15944455192E+03 -0.26652565080E+03 -0.29525137756E+03  0.42852476769E+03  0.12699999809E+01 0.  1.
       -4    1    3    3    0  502  0.15944455192E+03  0.26652565080E+03 -0.21099876847E+04  0.21327231724E+04  0.12699999809E+01 0. -1.
</event>
<event>
 5   0  0.6092779E-03  0.8972861E+03  0.7818609E-02  0.9428980E-01
        1   -1    0    0  501    0  0.00000000000E+00  0.00000000000E+00  0.46192835088E+03  0.46192835091E+03  0.50400001928E-02 0.  1.
       -1   -1    0    0    0  501  0.00000000000E+00  0.00000000000E+00 -0.43573981919E+03  0.43573981922E+03  0.50400001928E-02 0. -1.
    10030    2    1    2    0    0  0.00000000000E+00  0.00000000000E+00  0.26188531690E+02  0.89766817013E+03  0.89728607728E+03 0.  0.
        2    1    3    3  502    0  0.13767198701E+03  0.49721242697E+02  0.43736777019E+03  0.46121182161E+03  0.25500000920E-02 0.  1.
       -2    1    3    3    0  502 -0.13767198701E+03 -0.49721242697E+02 -0.41117923850E+03  0.43645634852E+03  0.25500000920E-02 0. -1.
</event>
<event>
 5   0  0.1028978E-02  0.9062907E+03  0.7818609E-02  0.9417752E-01
       -2   -1    0    0    0  501  0.00000000000E+00  0.00000000000E+00  0.27189771978E+03  0.27189771979E+03  0.25500000920E-02 0. -1.
        2   -1    0    0  501    0  0.00000000000E+00  0.00000000000E+00 -0.75521304960E+03  0.75521304961E+03  0.25500000920E-02 0.  1.
    10030    2    1    2    0    0  0.00000000000E+00  0.00000000000E+00 -0.48331532982E+03  0.10271107694E+04  0.90629069540E+03 0.  0.
        3    1    3    3  502    0 -0.29609978165E+03  0.32095240422E+03 -0.37885484470E+03  0.57811463398E+03  0.10100000352E+00 0. -1.
       -3    1    3    3    0  502  0.29609978165E+03 -0.32095240422E+03 -0.10446048512E+03  0.44899613542E+03  0.10100000352E+00 0.  1.
</event>
<event>
 5   0  0.1041727E-02  0.8973346E+03  0.7818609E-02  0.9428920E-01
       -2   -1    0    0    0  501  0.00000000000E+00  0.00000000000E+00  0.35412370604E+03  0.35412370605E+03  0.25500000920E-02 0.  1.
        2   -1    0    0  501    0  0.00000000000E+00  0.00000000000E+00 -0.56845198963E+03  0.56845198964E+03  0.25500000920E-02 0. -1.
    10030    2    1    2    0    0  0.00000000000E+00  0.00000000000E+00 -0.21432828359E+03  0.92257569569E+03  0.89733455362E+03 0.  0.
        4    1    3    3  502    0  0.32560205025E+03  0.19172779132E+03 -0.35588738237E+03  0.51907001736E+03  0.12699999809E+01 0. -1.
       -4    1    3    3    0  502 -0.32560205025E+03 -0.19172779132E+03  0.14155909878E+03  0.40350567832E+03  0.12699999809E+01 0.  1.
</event>
<event>
 5   0  0.1041727E-02  0.8926324E+03  0.7818609E-02  0.9434838E-01
        2   -1    0    0  501    0  0.00000000000E+00  0.00000000000E+00  0.69545860561E+03  0.69545860561E+03  0.25500000920E-02 0.  1.
       -2   -1    0    0    0  501  0.00000000000E+00  0.00000000000E+00 -0.28642701972E+03  0.28642701974E+03  0.25500000920E-02 0. -1.
    10030    2    1    2    0    0  0.00000000000E+00  0.00000000000E+00  0.40903158588E+03  0.98188562535E+03  0.89263236722E+03 0.  0.
        4    1    3    3  502    0  0.37931931477E+03  0.12160618778E+03  0.42595344776E+03  0.58318878592E+03  0.12699999809E+01 0.  1.
       -4    1    3    3    0  502 -0.37931931477E+03 -0.12160618778E+03 -0.16921861880E+02  0.39869683943E+03  0.12699999809E+01 0. -1.
</event>
<event>
 5   0  0.6015709E-03  0.9048360E+03  0.7818609E-02  0.9419556E-01
        1   -1    0    0  501    0  0.00000000000E+00  0.00000000000E+00  0.36211413425E+03  0.36211413428E+03  0.50400001928E-02 0. -1.
       -1   -1    0    0    0  501  0.00000000000E+00  0.00000000000E+00 -0.56524180506E+03  0.56524180508E+03  0.50400001928E-02 0.  1.
    10030    2    1    2    0    0  0.00000000000E+00  0.00000000000E+00 -0.20312767081E+03  0.92735593936E+03  0.90483600040E+03 0.  0.
        3    1    3    3  502    0  0.56900842514E+02  0.30975058948E+03 -0.43445368933E+03  0.53659402898E+03  0.10100000352E+00 0.  1.
       -3    1    3    3    0  502 -0.56900842514E+02 -0.30975058948E+03  0.23132601852E+03  0.39076191038E+03  0.10100000352E+00 0. -1.
</event>
<event>
 5   0  0.6288003E-03  0.9054618E+03  0.7818609E-02  0.9418780E-01
        1   -1    0    0  501    0  0.00000000000E+00  0.00000000000E+00  0.22341818716E+03  0.22341818722E+03  0.50400001928E-02 0. -1.
       -1   -1    0    0    0  501  0.00000000000E+00  0.00000000000E+00 -0.91740641081E+03  0.91740641083E+03  0.50400001928E-02 0.  1.
    10030    2    1    2    0    0  0.00000000000E+00  0.00000000000E+00 -0.69398822365E+03  0.11408245980E+04  0.90546182081E+03 0.  0.
        1    1    3    3  502    0 -0.20222962049E+03 -0.19332827479E+03  0.10146661864E+03  0.29760395824E+03  0.50400001928E-02 0. -1.
       -1    1    3    3    0  502  0.20222962049E+03  0.19332827479E+03 -0.79545484229E+03  0.84322063980E+03  0.50400001928E-02 0.  1.
</event>
<event>
 5   0  0.6092779E-03  0.8939909E+03  0.7818609E-02  0.9433124E-01
        1   -1    0    0  501    0  0.00000000000E+00  0.00000000000E+00  0.49004759974E+03  0.49004759977E+03  0.50400001928E-02 0.  1.
       -1   -1    0    0    0  501  0.00000000000E+00  0.00000000000E+00 -0.40772555559E+03  0.40772555562E+03  0.50400001928E-02 0. -1.
    10030    2    1    2    0    0  0.00000000000E+00  0.00000000000E+00  0.82322044151E+02  0.89777315539E+03  0.89399089458E+03 0.  0.
        2    1    3    3  502    0 -0.36689147839E+02 -0.37484205221E+03 -0.20059024229E+03  0.42671899768E+03  0.25500000920E-02 0. -1.
       -2    1    3    3    0  502  0.36689147839E+02  0.37484205221E+03  0.28291228644E+03  0.47105415771E+03  0.25500000920E-02 0.  1.
</event>
<event>
 5   0  0.1017079E-02  0.9305746E+03  0.7818609E-02  0.9388149E-01
       -2   -1    0    0    0  501  0.00000000000E+00  0.00000000000E+00  0.96189864481E+02  0.96189864515E+02  0.25500000920E-02 0.  1.
        2   -1    0    0  501    0  0.00000000000E+00  0.00000000000E+00 -0.22506764168E+04  0.22506764168E+04  0.25500000920E-02 0. -1.
    10030    2    1    2    0    0  0.00000000000E+00  0.00000000000E+00 -0.21544865523E+04  0.23468662813E+04  0.93057457425E+03 0.  0.
        1    1    3    3  502    0  0.39329597636E+03  0.24621932705E+03 -0.99037019654E+03  0.10936813102E+04  0.50400001928E-02 0.  1.
       -1    1    3    3    0  502 -0.39329597636E+03 -0.24621932705E+03 -0.11641163557E+04  0.12531849711E+04  0.50400001928E-02 0. -1.
</event>
<event>
 5   0  0.1041727E-02  0.8816003E+03  0.7818609E-02  0.9448879E-01
        2   -1    0    0  501    0  0.00000000000E+00  0.00000000000E+00  0.28610339855E+03  0.28610339857E+03  0.25500000920E-02 0. -1.
       -2   -1    0    0    0  501  0.00000000000E+00  0.00000000000E+00 -0.67914171357E+03  0.67914171357E+03  0.25500000920E-02 0.  1.
    10030    2    1    2    0    0  0.00000000000E+00  0.00000000000E+00 -0.39303831501E+03  0.96524511214E+03  0.88160025490E+03 0.  0.
        4    1    3    3  502    0  0.40694276772E+03  0.11401651112E+03 -0.33371122031E+03  0.53848581455E+03  0.12699999809E+01 0.  1.
       -4    1    3    3    0  502 -0.40694276772E+03 -0.11401651112E+03 -0.59327094698E+02  0.42675929758E+03  0.12699999809E+01 0. -1.
</event>
<event>
 5   0  0.6211218E-03  0.8889935E+03  0.7818609E-02  0.9439446E-01
        1   -1    0    0  501    0  0.00000000000E+00  0.00000000000E+00  0.99858893500E+03  0.99858893501E+03  0.50400001928E-02 0. -1.
       -1   -1    0    0    0  501  0.00000000000E+00  0.00000000000E+00 -0.19785654493E+03  0.19785654500E+03  0.50400001928E-02 0.  1.
    10030    2    1    2    0    0  0.00000000000E+00  0.00000000000E+00  0.80073239007E+03  0.11964454800E+04  0.88899349049E+03 0.  0.
        5    1    3    3  502    0 -0.24109295875E+02  0.42755598701E+03  0.56057172985E+03  0.70544180091E+03  0.46999998093E+01 0. -1.
       -5    1    3    3    0  502  0.24109295875E+02 -0.42755598701E+03  0.24016066022E+03  0.49100367910E+03  0.46999998093E+01 0.  1.
</event>
<event>
 5   0  0.1017079E-02  0.8961763E+03  0.7818609E-02  0.9430374E-01
       -2   -1    0    0    0  501  0.00000000000E+00  0.00000000000E+00  0.10629517131E+04  0.10629517131E+04  0.25500000920E-02 0. -1.
        2   -1    0    0  501    0  0.00000000000E+00  0.00000000000E+00 -0.18889192868E+03  0.18889192870E+03  0.25500000920E-02 0.  1.
    10030    2    1    2    0    0  0.00000000000E+00  0.00000000000E+00  0.87405978443E+03  0.12518436418E+04  0.89617632015E+03 0.  0.
        1    1    3    3  502    0 -0.31982693940E+03 -0.11240986466E+03  0.27725527383E+02  0.34013813919E+03  0.50400001928E-02 0.  1.
       -1    1    3    3    0  502  0.31982693940E+03  0.11240986466E+03  0.84633425705E+03  0.91170550262E+03  0.50400001928E-02 0. -1.
</event>
<event>
 5   0  0.6015709E-03  0.9062158E+03  0.7818609E-02  0.9417845E-01
       -1   -1    0    0    0  501  0.00000000000E+00  0.00000000000E+00  0.28498639236E+03  0.28498639241E+03  0.50400001928E-02 0.  1.
        1   -1    0    0  501    0  0.00000000000E+00  0.00000000000E+00 -0.72040900009E+03  0.72040900011E+03  0.50400001928E-02 0. -1.
    10030    2    1    2    0    0  0.00000000000E+00  0.00000000000E+00 -0.43542260773E+03  0.10053953925E+04  0.90621578444E+03 0.  0.
        3    1    3    3  502    0  0.30606968271E+03 -0.23065430968E+02  0.15207825923E+03  0.34254703606E+03  0.10100000352E+00 0.  1.
       -3    1    3    3    0  502 -0.30606968271E+03  0.23065430968E+02 -0.58750086697E+03  0.66284835646E+03  0.10100000352E+00 0. -1.
</event>
<event>
 5   0  0.6211218E-03  0.8534978E+03  0.7818609E-02  0.9485654E-01
        1   -1    0    0  501    0  0.00000000000E+00  0.00000000000E+00  0.81015809441E+03  0.81015809443E+03  0.50400001928E-02 0.  1.
       -1   -1    0    0    0  501  0.00000000000E+00  0.00000000000E+00 -0.22478897934E+03  0.22478897939E+03  0.50400001928E-02 0. -1.
    10030    2    1    2    0    0  0.00000000000E+00  0.00000000000E+00  0.58536911507E+03  0.10349470738E+04  0.85349777078E+03 0.  0.
        5    1    3    3  502    0  0.27908342272E+03 -0.11775933136E+03 -0.71775781297E+02  0.31133369516E+03  0.46999998093E+01 0. -1.
       -5    1    3    3    0  502 -0.27908342272E+03  0.11775933136E+03  0.65714489637E+03  0.72361337867E+03  0.46999998093E+01 0.  1.
</event>
<event>
 5   0  0.6211218E-03  0.9026900E+03  0.7818609E-02  0.9422225E-01
       -1   -1    0    0    0  501  0.00000000000E+00  0.00000000000E+00  0.21266050332E+03  0.21266050338E+03  0.50400001928E-02 0. -1.
        1   -1    0    0  501    0  0.00000000000E+00  0.00000000000E+00 -0.95792273133E+03  0.95792273135E+03  0.50400001928E-02 0.  1.
    10030    2    1    2    0    0  0.00000000000E+00  0.00000000000E+00 -0.74526222802E+03  0.11705832347E+04  0.90269004697E+03 0.  0.
        5    1    3    3  502    0 -0.18477674395E+02 -0.24937153783E+03  0.11458713882E+03  0.27509978319E+03  0.46999998093E+01 0. -1.
       -5    1    3    3    0  502  0.18477674395E+02  0.24937153783E+03 -0.85984936684E+03  0.89548345154E+03  0.46999998093E+01 0.  1.
</event>
<event>
 5   0  0.3996375E-03  0.9010152E+03  0.7818609E-02  0.9424313E-01
        4   -1    0    0  501    0  0.00000000000E+00  0.00000000000E+00  0.42771940374E+03  0.42772128920E+03  0.12699999809E+01 0.  1.
       -4   -1    0    0    0  501  0.00000000000E+00  0.00000000000E+00 -0.47450617645E+03  0.47450787601E+03  0.12699999809E+01 0. -1.
    10030    2    1    2    0    0  0.00000000000E+00  0.00000000000E+00 -0.46786772716E+02  0.90222916520E+03  0.90101524096E+03 0.  0.
        2    1    3    3  502    0  0.19199742657E+03  0.25449159943E+02 -0.43069248023E+03  0.47223583524E+03  0.25500000920E-02 0. -1.
       -2    1    3    3    0  502 -0.19199742657E+03 -0.25449159943E+02  0.38390570751E+03  0.42999332997E+03  0.25500000920E-02 0.  1.
</event>
<event>
 5   0  0.1033749E-02  0.8919515E+03  0.7818609E-02  0.9435699E-01
       -2   -1    0    0    0  501  0.00000000000E+00  0.00000000000E+00  0.27892997326E+03  0.27892997327E+03  0.25500000920E-02 0.  1.
        2   -1    0    0  501    0  0.00000000000E+00  0.00000000000E+00 -0.71306206593E+03  0.71306206593E+03  0.25500000920E-02 0. -1.
    10030    2    1    2    0    0  0.00000000000E+00  0.00000000000E+00 -0.43413209267E+03  0.99199203920E+03  0.89195153004E+03 0.  0.
        5    1    3    3  502    0  0.10291727719E+03  0.22773196528E+03 -0.62784060119E+03  0.67576602789E+03  0.46999998093E+01 0. -1.
       -5    1    3    3    0  502 -0.10291727719E+03 -0.22773196528E+03  0.19370850852E+03  0.31622601131E+03  0.46999998093E+01 0.  1.
</event>
<event>
 5   0  0.1003252E-02  0.9085062E+03  0.7818609E-02  0.9415010E-01
       -2   -1    0    0    0  501  0.00000000000E+00  0.00000000000E+00  0.42681115711E+03  0.42681115712E+03  0.25500000920E-02 0. -1.
        2   -1    0    0  501    0  0.00000000000E+00  0.00000000000E+00 -0.48345941196E+03  0.48345941197E+03  0.25500000920E-02 0.  1.
    10030    2    1    2    0    0  0.00000000000E+00  0.00000000000E+00 -0.56648254848E+02  0.91027056909E+03  0.90850618279E+03 0.  0.
        2    1    3    3  502    0  0.14928681615E+03 -0.38967942142E+02  0.39975357709E+03  0.42849501326E+03  0.25500000920E-02 0. -1.
       -2    1    3    3    0  502 -0.14928681615E+03  0.38967942142E+02 -0.45640183193E+03  0.48177555582E+03  0.25500000920E-02 0.  1.
</event>
<event>
 5   0  0.6288003E-03  0.8891510E+03  0.7818609E-02  0.9439246E-01
        1   -1    0    0  501    0  0.00000000000E+00  0.00000000000E+00  0.56192621209E+03  0.56192621211E+03  0.50400001928E-02 0. -1.
       -1   -1    0    0    0  501  0.00000000000E+00  0.00000000000E+00 -0.35173187336E+03  0.35173187340E+03  0.50400001928E-02 0.  1.
    10030    2    1    2    0    0  0.00000000000E+00  0.00000000000E+00  0.21019433873E+03  0.91365808551E+03  0.88915096422E+03 0.  0.
        1    1    3    3  502    0  0.30265076668E+03 -0.98187776358E+02 -0.21395893790E+03  0.38342763741E+03  0.50400001928E-02 0.  1.
       -1    1    3    3    0  502 -0.30265076668E+03  0.98187776358E+02  0.42415327662E+03  0.53023044810E+03  0.50400001928E-02 0. -1.
</event>
<event>
 5   0  0.1033749E-02  0.9214035E+03  0.7818609E-02  0.9399215E-01
       -2   -1    0    0    0  501  0.00000000000E+00  0.00000000000E+00  0.11667165667E+03  0.11667165670E+03  0.25500000920E-02 0. -1.
        2   -1    0    0  501    0  0.00000000000E+00  0.00000000000E+00 -0.18191743127E+04  0.18191743127E+04  0.25500000920E-02 0.  1.
    10030    2    1    2    0    0  0.00000000000E+00  0.00000000000E+00 -0.17025026560E+04  0.19358459694E+04  0.92140345316E+03 0.  0.
        5    1    3    3  502    0 -0.12097635585E+03 -0.11043271859E+03  0.53372477113E+02  0.17234086956E+03  0.46999998093E+01 0. -1.
       -5    1    3    3    0  502  0.12097635585E+03  0.11043271859E+03 -0.17558751331E+04  0.17635050998E+04  0.46999998093E+01 0.  1.
</event>
<event>
 5   0  0.6211218E-03  0.9138237E+03  0.7818609E-02  0.9408464E-01
        1   -1    0    0  501    0  0.00000000000E+00  0.00000000000E+00  0.20868173035E+04  0.20868173035E+04  0.50400001928E-02 0.  1.
       -1   -1    0    0    0  501  0.00000000000E+00  0.00000000000E+00 -0.10004154083E+03  0.10004154096E+03  0.50400001928E-02 0. -1.
    10030    2    1    2    0    0  0.00000000000E+00  0.00000000000E+00  0.19867757626E+04  0.21868588444E+04  0.91382365612E+03 0.  0.
        5    1    3    3  502    0  0.54318441928E+02 -0.21212750779E+03  0.33769967171E+02  0.22161018337E+03  0.46999998093E+01 0. -1.
       -5    1    3    3    0  502 -0.54318441928E+02  0.21212750779E+03  0.19530057955E+04  0.19652486611E+04  0.46999998093E+01 0.  1.
</event>
<event>
 5   0  0.1028978E-02  0.8928447E+03  0.7818609E-02  0.9434570E-01
       -2   -1    0    0    0  501  0.00000000000E+00  0.00000000000E+00  0.13386163176E+04  0.13386163176E+04  0.25500000920E-02 0.  1.
        2   -1    0    0  501    0  0.00000000000E+00  0.00000000000E+00 -0.14887977660E+03  0.14887977662E+03  0.25500000920E-02 0. -1.
    10030    2    1    2    0    0  0.00000000000E+00  0.00000000000E+00  0.11897365410E+04  0.14874960942E+04  0.89284466359E+03 0.  0.
        3    1    3    3  502    0  0.23005561985E+03  0.32084451079E+03  0.94204878290E+03  0.10214316952E+04  0.10100000352E+00 0.  1.
       -3    1    3    3    0  502 -0.23005561985E+03 -0.32084451079E+03  0.24768775806E+03  0.46606439901E+03  0.10100000352E+00 0. -1.
</event>
<event>
 5   0  0.1033749E-02  0.8968226E+03  0.7818609E-02  0.9429562E-01
       -2   -1    0    0    0  501  0.00000000000E+00  0.00000000000E+00  0.20182446263E+03  0.20182446265E+03  0.25500000920E-02 0. -1.
        2   -1    0    0  501    0  0.00000000000E+00  0.00000000000E+00 -0.99627520652E+03  0.99627520652E+03  0.25500000920E-02 0.  1.
    10030    2    1    2    0    0  0.00000000000E+00  0.00000000000E+00 -0.79445074389E+03  0.11980996692E+04  0.89682263174E+03 0.  0.
        5    1    3    3  502    0  0.21828344148E+03 -0.73537819821E+02  0.11671191228E+03  0.25826194500E+03  0.46999998093E+01 0. -1.
       -5    1    3    3    0  502 -0.21828344148E+03  0.73537819821E+02 -0.91116265617E+03  0.93983772417E+03  0.46999998093E+01 0.  1.
</event>
<event>
 5   0  0.6137243E-03  0.8843995E+03  0.7818609E-02  0.9445296E-01
       -1   -1    0    0    0  501  0.00000000000E+00  0.00000000000E+00  0.95920482857E+03  0.95920482858E+03  0.50400001928E-02 0.  1.
        1   -1    0    0  501    0  0.00000000000E+00  0.00000000000E+00 -0.20385700464E+03  0.20385700471E+03  0.50400001928E-02 0. -1.
    10030    2    1    2    0    0  0.00000000000E+00  0.00000000000E+00  0.75534782392E+03  0.11630618333E+04  0.88439950980E+03 0.  0.
        4    1    3    3  502    0 -0.37130140008E+03  0.10354881970E+03  0.92715815346E+02  0.39646553832E+03  0.12699999809E+01 0. -1.
       -4    1    3    3    0  502  0.37130140008E+03 -0.10354881970E+03  0.66263200858E+03  0.76659629496E+03  0.12699999809E+01 0.  1.
</event>
<event>
 5   0  0.1028978E-02  0.8177183E+03  0.7818609E-02  0.9534719E-01
       -2   -1    0    0    0  501  0.00000000000E+00  0.00000000000E+00  0.15481912558E+03  0.15481912560E+03  0.25500000920E-02 0.  1.
        2   -1    0    0  501    0  0.00000000000E+00  0.00000000000E+00 -0.10797489331E+04  0.10797489331E+04  0.25500000920E-02 0. -1.
    10030    2    1    2    0    0  0.00000000000E+00  0.00000000000E+00 -0.92492980756E+03  0.12345680588E+04  0.81771825391E+03 0.  0.
        3    1    3    3  502    0  0.27514523866E+02  0.18510050525E+03 -0.10112966504E+04  0.10284649588E+04  0.10100000352E+00 0. -1.
       -3    1    3    3    0  502 -0.27514523866E+02 -0.18510050525E+03  0.86366842871E+02  0.20610309997E+03  0.10100000352E+00 0.  1.
</event>
<event>
 5   0  0.1003252E-02  0.9139612E+03  0.7818609E-02  0.9408296E-01
        2   -1    0    0  501    0  0.00000000000E+00  0.00000000000E+00  0.82726482420E+03  0.82726482420E+03  0.25500000920E-02 0. -1.
       -2   -1    0    0    0  501  0.00000000000E+00  0.00000000000E+00 -0.25243582495E+03  0.25243582497E+03  0.25500000920E-02 0.  1.
    10030    2    1    2    0    0  0.00000000000E+00  0.00000000000E+00  0.57482899925E+03  0.10797006492E+04  0.91396122097E+03 0.  0.
        2    1    3    3  502    0 -0.44680665307E+03  0.43548696741E+02  0.38833874199E+03  0.59358205225E+03  0.25500000920E-02 0. -1.
       -2    1    3    3    0  502  0.44680665307E+03 -0.43548696741E+02  0.18649025726E+03  0.48611859692E+03  0.25500000920E-02 0.  1.
</event>
<event>
 5   0  0.1041727E-02  0.8969020E+03  0.7818609E-02  0.9429462E-01
       -2   -1    0    0    0  501  0.00000000000E+00  0.00000000000E+00  0.39253613935E+03  0.39253613936E+03  0.25500000920E-02 0.  1.
        2   -1    0    0  501    0  0.00000000000E+00  0.00000000000E+00 -0.51233062617E+03  0.51233062618E+03  0.25500000920E-02 0. -1.
    10030    2    1    2    0    0  0.00000000000E+00  0.00000000000E+00 -0.11979448682E+03  0.90486676554E+03  0.89690197029E+03 0.  0.
        4    1    3    3  502    0 -0.11636122868E+03 -0.25830998037E+03 -0.41060862045E+03  0.49886374250E+03  0.12699999809E+01 0. -1.
       -4    1    3    3    0  502  0.11636122868E+03  0.25830998037E+03  0.29081413362E+03  0.40600302304E+03  0.12699999809E+01 0.  1.
</event>
<event>
 5   0  0.1033749E-02  0.8542240E+03  0.7818609E-02  0.9484685E-01
       -2   -1    0    0    0  501  0.00000000000E+00  0.00000000000E+00  0.14338291229E+03  0.14338291232E+03  0.25500000920E-02 0. -1.
        2   -1    0    0  501    0  0.00000000000E+00  0.00000000000E+00 -0.12722901780E+04  0.12722901780E+04  0.25500000920E-02 0.  1.
    10030    2    1    2    0    0  0.00000000000E+00  0.00000000000E+00 -0.11289072657E+04  0.14156730903E+04  0.85422402453E+03 0.  0.
        5    1    3    3  502    0  0.11530866070E+03  0.29529077424E+03 -0.10387603412E+04  0.10860653134E+04  0.46999998093E+01 0.  1.
       -5    1    3    3    0  502 -0.11530866070E+03 -0.29529077424E+03 -0.90146924499E+02  0.32960777688E+03  0.46999998093E+01 0. -1.
</event>
<event>
 5   0  0.1017079E-02  0.9010572E+03  0.7818609E-02  0.9424261E-01
        2   -1    0    0  501    0  0.00000000000E+00  0.00000000000E+00  0.62869997656E+03  0.62869997656E+03  0.25500000920E-02 0.  1.
       -2   -1    0    0    0  501  0.00000000000E+00  0.00000000000E+00 -0.32285035117E+03  0.32285035118E+03  0.25500000920E-02 0. -1.
    10030    2    1    2    0    0  0.00000000000E+00  0.00000000000E+00  0.30584962538E+03  0.95155032775E+03  0.90105717515E+03 0.  0.
        1    1    3    3  502    0  0.25910531414E+03 -0.21027244968E+03 -0.16673544004E+03  0.37302918639E+03  0.50400001928E-02 0. -1.
       -1    1    3    3    0  502 -0.25910531414E+03  0.21027244968E+03  0.47258506542E+03  0.57852114136E+03  0.50400001928E-02 0.  1.
</event>
<event>
 5   0  0.1017079E-02  0.8945447E+03  0.7818609E-02  0.9432427E-01
        2   -1    0    0  501    0  0.00000000000E+00  0.00000000000E+00  0.17554218249E+04  0.17554218249E+04  0.25500000920E-02 0. -1.
       -2   -1    0    0    0  501  0.00000000000E+00  0.00000000000E+00 -0.11396266094E+03  0.11396266097E+03  0.25500000920E-02 0.  1.
    10030    2    1    2    0    0  0.00000000000E+00  0.00000000000E+00  0.16414591639E+04  0.18693844858E+04  0.89454467137E+03 0.  0.
        1    1    3    3  502    0 -0.33792377963E+03 -0.30504126268E+02  0.14297418446E+04  0.14694504839E+04  0.50400001928E-02 0. -1.
       -1    1    3    3    0  502  0.33792377963E+03  0.30504126268E+02  0.21171731937E+03  0.39993400194E+03  0.50400001928E-02 0.  1.
</event>
<event>
 5   0  0.6288003E-03  0.8990111E+03  0.7818609E-02  0.9426818E-01
        1   -1    0    0  501    0  0.00000000000E+00  0.00000000000E+00  0.90777225382E+03  0.90777225383E+03  0.50400001928E-02 0. -1.
       -1   -1    0    0    0  501  0.00000000000E+00  0.00000000000E+00 -0.22258363114E+03  0.22258363120E+03  0.50400001928E-02 0.  1.
    10030    2    1    2    0    0  0.00000000000E+00  0.00000000000E+00  0.68518862268E+03  0.11303558850E+04  0.89901111126E+03 0.  0.
        1    1    3    3  502    0 -0.34549046063E+03  0.26779203674E+03  0.47433858706E+03  0.64503746289E+03  0.50400001928E-02 0.  1.
       -1    1    3    3    0  502  0.34549046063E+03 -0.26779203674E+03  0.21085003562E+03  0.48531842214E+03  0.50400001928E-02 0. -1.
</event>
<event>
 5   0  0.6092779E-03  0.8920788E+03  0.7818609E-02  0.9435538E-01
        1   -1    0    0  501    0  0.00000000000E+00  0.00000000000E+00  0.46511243010E+03  0.46511243013E+03  0.50400001928E-02 0.  1.
       -1   -1    0    0    0  501  0.00000000000E+00  0.00000000000E+00 -0.42774851219E+03  0.42774851222E+03  0.50400001928E-02 0. -1.
    10030    2    1    2    0    0  0.00000000000E+00  0.00000000000E+00  0.37363917915E+02  0.89286094235E+03  0.89207880818E+03 0.  0.
        2    1    3    3  502    0 -0.15451788012E+03  0.29127894810E+03  0.31933165715E+03  0.45901188236E+03  0.25500000920E-02 0.  1.
       -2    1    3    3    0  502  0.15451788012E+03 -0.29127894810E+03 -0.28196773923E+03  0.43384905999E+03  0.25500000920E-02 0. -1.
</event>
<event>
 5   0  0.1017079E-02  0.9019989E+03  0.7818609E-02  0.9423086E-01
        2   -1    0    0  501    0  0.00000000000E+00  0.00000000000E+00  0.86409947900E+03  0.86409947900E+03  0.25500000920E-02 0. -1.
       -2   -1    0    0    0  501  0.00000000000E+00  0.00000000000E+00 -0.23539012961E+03  0.23539012962E+03  0.25500000920E-02 0.  1.
    10030    2    1    2    0    0  0.00000000000E+00  0.00000000000E+00  0.62870934939E+03  0.10994896086E+04  0.90199886556E+03 0.  0.
        1    1    3    3  502    0  0.17631596498E+03  0.10423734770E+03  0.80413476668E+03  0.82981050076E+03  0.50400001928E-02 0. -1.
       -1    1    3    3    0  502 -0.17631596498E+03 -0.10423734770E+03 -0.17542541729E+03  0.26967910787E+03  0.50400001928E-02 0.  1.
</event>
<event>
 5   0  0.6015709E-03  0.9046079E+03  0.7818609E-02  0.9419840E-01
       -1   -1    0    0    0  501  0.00000000000E+00  0.00000000000E+00  0.15373678743E+03  0.15373678751E+03  0.50400001928E-02 0. -1.
        1   -1    0    0  501    0  0.00000000000E+00  0.00000000000E+00 -0.13307086865E+04  0.13307086865E+04  0.50400001928E-02 0.  1.
    10030    2    1    2    0    0  0.00000000000E+00  0.00000000000E+00 -0.11769718991E+04  0.14844454741E+04  0.90460793396E+03 0.  0.
        3    1    3    3  502    0 -0.87061239989E+02  0.35236297848E+03 -0.10313673639E+04  0.10933700095E+04  0.10100000352E+00 0.  1.
       -3    1    3    3    0  502  0.87061239989E+02 -0.35236297848E+03 -0.14560453517E+03  0.39107546455E+03  0.10100000352E+00 0. -1.
</event>
<event>
 5   0  0.1033749E-02  0.8839246E+03  0.7818609E-02  0.9445903E-01
        2   -1    0    0  501    0  0.00000000000E+00  0.00000000000E+00  0.17138398212E+04  0.17138398212E+04  0.25500000920E-02 0.  1.
       -2   -1    0    0    0  501  0.00000000000E+00  0.00000000000E+00 -0.11397254429E+03  0.11397254432E+03  0.25500000920E-02 0. -1.
    10030    2    1    2    0    0  0.00000000000E+00  0.00000000000E+00  0.15998672769E+04  0.18278123655E+04  0.88392462340E+03 0.  0.
        5    1    3    3  502    0 -0.57879058792E+02  0.36792700646E+03  0.12918370197E+04  0.13444646678E+04  0.46999998093E+01 0.  1.
       -5    1    3    3    0  502  0.57879058792E+02 -0.36792700646E+03  0.30803025720E+03  0.48334769770E+03  0.46999998093E+01 0. -1.
</event>
<event>
 5   0  0.6015709E-03  0.8964659E+03  0.7818609E-02  0.9430010E-01
       -1   -1    0    0    0  501  0.00000000000E+00  0.00000000000E+00  0.12046444135E+03  0.12046444146E+03  0.50400001928E-02 0.  1.
        1   -1    0    0  501    0  0.00000000000E+00  0.00000000000E+00 -0.16678182733E+04  0.16678182733E+04  0.50400001928E-02 0. -1.
    10030    2    1    2    0    0  0.00000000000E+00  0.00000000000E+00 -0.15473538319E+04  0.17882827147E+04  0.89646594283E+03 0.  0.
        3    1    3    3  502    0 -0.41432173832E+03  0.16019381131E+03 -0.65418395998E+03  0.79074725653E+03  0.10100000352E+00 0.  1.
       -3    1    3    3    0  502  0.41432173832E+03 -0.16019381131E+03 -0.89316987192E+03  0.99753545818E+03  0.10100000352E+00 0. -1.
</event>
<event>
 5   0  0.1003252E-02  0.9221953E+03  0.7818609E-02  0.9398254E-01
       -2   -1    0    0    0  501  0.00000000000E+00  0.00000000000E+00  0.19266275205E+03  0.19266275206E+03  0.25500000920E-02 0.  1.
        2   -1    0    0  501    0  0.00000000000E+00  0.00000000000E+00 -0.11035398973E+04  0.11035398973E+04  0.25500000920E-02 0. -1.
    10030    2    1    2    0    0  0.00000000000E+00  0.00000000000E+00 -0.91087714522E+03  0.12962026493E+04  0.92219528000E+03 0.  0.
        2    1    3    3  502    0 -0.31316612049E+03  0.28819471419E+03 -0.20604805628E+03  0.47284777024E+03  0.25500000920E-02 0.  1.
       -2    1    3    3    0  502  0.31316612049E+03 -0.28819471419E+03 -0.70482908894E+03  0.82335487910E+03  0.25500000920E-02 0. -1.
</event>
<event>
 5   0  0.6137243E-03  0.9077905E+03  0.7818609E-02  0.9415895E-01
        1   -1    0    0  501    0  0.00000000000E+00  0.00000000000E+00  0.19177828720E+03  0.19177828727E+03  0.50400001928E-02 0. -1.
       -1   -1    0    0    0  501  0.00000000000E+00  0.00000000000E+00 -0.10742659056E+04  0.10742659056E+04  0.50400001928E-02 0.  1.
    10030    2    1    2    0    0  0.00000000000E+00  0.00000000000E+00 -0.88248761837E+03  0.12660441929E+04  0.90779045031E+03 0.  0.
        4    1    3    3  502    0 -0.12057247387E+03 -0.43658017195E+03 -0.48259903922E+03  0.66184848232E+03  0.12699999809E+01 0.  1.
       -4    1    3    3    0  502  0.12057247387E+03  0.43658017195E+03 -0.39988857916E+03  0.60419571054E+03  0.12699999809E+01 0. -1.
</event>
<event>
 5   0  0.6211218E-03  0.8911584E+03  0.7818609E-02  0.9436702E-01
        1   -1    0    0  501    0  0.00000000000E+00  0.00000000000E+00  0.33389525486E+03  0.33389525490E+03  0.50400001928E-02 0.  1.
       -1   -1    0    0    0  501  0.00000000000E+00  0.00000000000E+00 -0.59462002445E+03  0.59462002447E+03  0.50400001928E-02 0. -1.
    10030    2    1    2    0    0  0.00000000000E+00  0.00000000000E+00 -0.26072476959E+03  0.92851527937E+03  0.89115835773E+03 0.  0.
        5    1    3    3  502    0  0.22678921433E+03 -0.37860430398E+02  0.26727968800E+03  0.35260073957E+03  0.46999998093E+01 0.  1.
       -5    1    3    3    0  502 -0.22678921433E+03  0.37860430398E+02 -0.52800445759E+03  0.57591453981E+03  0.46999998093E+01 0. -1.
</event>
<event>
 5   0  0.6288003E-03  0.9063415E+03  0.7818609E-02  0.9417689E-01
        1   -1    0    0  501    0  0.00000000000E+00  0.00000000000E+00  0.11029081383E+04  0.11029081383E+04  0.50400001928E-02 0.  1.
       -1   -1    0    0    0  501  0.00000000000E+00  0.00000000000E+00 -0.18620200864E+03  0.18620200871E+03  0.50400001928E-02 0. -1.
    10030    2    1    2    0    0  0.00000000000E+00  0.00000000000E+00  0.91670612962E+03  0.12891101470E+04  0.90634146048E+03 0.  0.
        1    1    3    3  502    0  0.20350507475E+03  0.12552358544E+03  0.10058886552E+04  0.10339160859E+04  0.50400001928E-02 0.  1.
       -1    1    3    3    0  502 -0.20350507475E+03 -0.12552358544E+03 -0.89182525550E+02  0.25519406114E+03  0.50400001928E-02 0. -1.
</event>
<event>
 5   0  0.6092779E-03  0.9080572E+03  0.7818609E-02  0.9415565E-01
       -1   -1    0    0    0  501  0.00000000000E+00  0.00000000000E+00  0.18806600054E+03  0.18806600061E+03  0.50400001928E-02 0. -1.
        1   -1    0    0  501    0  0.00000000000E+00  0.00000000000E+00 -0.10961151028E+04  0.10961151029E+04  0.50400001928E-02 0.  1.
    10030    2    1    2    0    0  0.00000000000E+00  0.00000000000E+00 -0.90804910230E+03  0.12841811035E+04  0.90805723075E+03 0.  0.
        2    1    3    3  502    0 -0.14431331975E+03  0.42914791685E+03 -0.40611412413E+03  0.60821291552E+03  0.25500000920E-02 0. -1.
       -2    1    3    3    0  502  0.14431331975E+03 -0.42914791685E+03 -0.50193497818E+03  0.67596818794E+03  0.25500000920E-02 0.  1.
</event>
<event>
 5   0  0.1028978E-02  0.8888887E+03  0.7818609E-02  0.9439579E-01
       -2   -1    0    0    0  501  0.00000000000E+00  0.00000000000E+00  0.12990030560E+03  0.12990030562E+03  0.25500000920E-02 0.  1.
        2   -1    0    0  501    0  0.00000000000E+00  0.00000000000E+00 -0.15206335909E+04  0.15206335909E+04  0.25500000920E-02 0. -1.
    10030    2    1    2    0    0  0.00000000000E+00  0.00000000000E+00 -0.13907332853E+04  0.16505338965E+04  0.88888867284E+03 0.  0.
        3    1    3    3  502    0 -0.50169075232E+02 -0.14976830474E+03  0.76027667184E+02  0.17529317611E+03  0.10100000352E+00 0.  1.
       -3    1    3    3    0  502  0.50169075232E+02  0.14976830474E+03 -0.14667609524E+04  0.14752407204E+04  0.10100000352E+00 0. -1.
</event>
<event>
 5   0  0.1017079E-02  0.9019836E+03  0.7818609E-02  0.9423105E-01
       -2   -1    0    0    0  501  0.00000000000E+00  0.00000000000E+00  0.84881939053E+02  0.84881939092E+02  0.25500000920E-02 0.  1.
        2   -1    0    0  501    0  0.00000000000E+00  0.00000000000E+00 -0.23961938604E+04  0.23961938604E+04  0.25500000920E-02 0. -1.
    10030    2    1    2    0    0  0.00000000000E+00  0.00000000000E+00 -0.23113119213E+04  0.24810757995E+04  0.90198355033E+03 0.  0.
        1    1    3    3  502    0  0.19058956424E+03 -0.20736630825E+03 -0.21245405085E+04  0.21431279803E+04  0.50400001928E-02 0. -1.
       -1    1    3    3    0  502 -0.19058956424E+03  0.20736630825E+03 -0.18677141286E+03  0.33794781918E+03  0.50400001928E-02 0.  1.
</event>
<event>
 5   0  0.6092779E-03  0.8928860E+03  0.7818609E-02  0.9434518E-01
       -1   -1    0    0    0  501  0.00000000000E+00  0.00000000000E+00  0.78403328972E+02  0.78403329134E+02  0.50400001928E-02 0. -1.
        1   -1    0    0  501    0  0.00000000000E+00  0.00000000000E+00 -0.25421284236E+04  0.25421284236E+04  0.50400001928E-02 0.  1.
    10030    2    1    2    0    0  0.00000000000E+00  0.00000000000E+00 -0.24637250946E+04  0.26205317527E+04  0.89288595308E+03 0.  0.
        2    1    3    3  502    0 -0.12125907579E+03  0.20939795298E+03 -0.13074631418E+03  0.27503793347E+03  0.25500000920E-02 0. -1.
       -2    1    3    3    0  502  0.12125907579E+03 -0.20939795298E+03 -0.23329787804E+04  0.23454938192E+04  0.25500000920E-02 0.  1.
</event>
<event>
 5   0  0.6137243E-03  0.8643784E+03  0.7818609E-02  0.9471239E-01
       -1   -1    0    0    0  501  0.00000000000E+00  0.00000000000E+00  0.60268856400E+03  0.60268856402E+03  0.50400001928E-02 0.  1.
        1   -1    0    0  501    0  0.00000000000E+00  0.00000000000E+00 -0.30992372228E+03  0.30992372232E+03  0.50400001928E-02 0. -1.
    10030    2    1    2    0    0  0.00000000000E+00  0.00000000000E+00  0.29276484172E+03  0.91261228634E+03  0.86437835040E+03 0.  0.
        4    1    3    3  502    0  0.20043193643E+03  0.31630452865E+03  0.37421153573E+03  0.52939342871E+03  0.12699999809E+01 0.  1.
       -4    1    3    3    0  502 -0.20043193643E+03 -0.31630452865E+03 -0.81446694009E+02  0.38321885764E+03  0.12699999809E+01 0. -1.
</event>
<event>
 5   0  0.6015709E-03  0.9197273E+03  0.7818609E-02  0.9401252E-01
        1   -1    0    0  501    0  0.00000000000E+00  0.00000000000E+00  0.65892623595E+03  0.65892623597E+03  0.50400001928E-02 0. -1.
       -1   -1    0    0    0  501  0.00000000000E+00  0.00000000000E+00 -0.32093817432E+03  0.32093817436E+03  0.50400001928E-02 0.  1.
    10030    2    1    2    0    0  0.00000000000E+00  0.00000000000E+00  0.33798806163E+03  0.97986441033E+03  0.91972731439E+03 0.  0.
        3    1    3    3  502    0 -0.73915393649E+02 -0.31192252445E+03  0.52027327210E+03  0.61110018372E+03  0.10100000352E+00 0. -1.
       -3    1    3    3    0  502  0.73915393649E+02  0.31192252445E+03 -0.18228521047E+03  0.36876422662E+03  0.10100000352E+00 0.  1.
</event>
<event>
 5   0  0.6137243E-03  0.8607304E+03  0.7818609E-02  0.9476047E-01
        1   -1    0    0  501    0  0.00000000000E+00  0.00000000000E+00  0.20690830068E+04  0.20690830068E+04  0.50400001928E-02 0. -1.
       -1   -1    0    0    0  501  0.00000000000E+00  0.00000000000E+00 -0.89515123684E+02  0.89515123826E+02  0.50400001928E-02 0.  1.
    10030    2    1    2    0    0  0.00000000000E+00  0.00000000000E+00  0.19795678831E+04  0.21585981307E+04  0.86073043731E+03 0.  0.
        4    1    3    3  502    0 -0.12784048927E+03 -0.35931943002E+03  0.14898440045E+04  0.15378850458E+04  0.12699999809E+01 0. -1.
       -4    1    3    3    0  502  0.12784048927E+03  0.35931943002E+03  0.48972387865E+03  0.62071308486E+03  0.12699999809E+01 0.  1.
</event>
<event>
 5   0  0.1003252E-02  0.8969950E+03  0.7818609E-02  0.9429346E-01
        2   -1    0    0  501    0  0.00000000000E+00  0.00000000000E+00  0.22494568683E+04  0.22494568683E+04  0.25500000920E-02 0. -1.
       -2   -1    0    0    0  501  0.00000000000E+00  0.00000000000E+00 -0.89421584210E+02  0.89421584246E+02  0.25500000920E-02 0.  1.
    10030    2    1    2    0    0  0.00000000000E+00  0.00000000000E+00  0.21600352841E+04  0.23388784525E+04  0.89699497617E+03 0.  0.
        2    1    3    3  502    0 -0.20728035967E+03 -0.92613212163E+02  0.20885609024E+04  0.21008638693E+04  0.25500000920E-02 0. -1.
       -2    1    3    3    0  502  0.20728035967E+03  0.92613212163E+02  0.71474381721E+02  0.23801458321E+03  0.25500000920E-02 0.  1.
</event>
<event>
 5   0  0.1017079E-02  0.8975783E+03  0.7818609E-02  0.9428614E-01
        2   -1    0    0  501    0  0.00000000000E+00  0.00000000000E+00  0.70068231222E+03  0.70068231223E+03  0.25500000920E-02 0.  1.
       -2   -1    0    0    0  501  0.00000000000E+00  0.00000000000E+00 -0.28745078561E+03  0.28745078562E+03  0.25500000920E-02 0. -1.
    10030    2    1    2    0    0  0.00000000000E+00  0.00000000000E+00  0.41323152661E+03  0.98813309785E+03  0.89757825535E+03 0.  0.
        1    1    3    3  502    0 -0.32482018856E+03 -0.22400145320E+03  0.44202791971E+03  0.59251454645E+03  0.50400001928E-02 0. -1.
       -1    1    3    3    0  502  0.32482018856E+03  0.22400145320E+03 -0.28796393099E+02  0.39561855140E+03  0.50400001928E-02 0.  1.
</event>
<event>
 5   0  0.3996375E-03  0.8945264E+03  0.7818609E-02  0.9432450E-01
        3   -1    0    0  501    0  0.00000000000E+00  0.00000000000E+00  0.17516569121E+03  0.17516572033E+03  0.10100000352E+00 0. -1.
       -3   -1    0    0    0  501  0.00000000000E+00  0.00000000000E+00 -0.11420292838E+04  0.11420292883E+04  0.10100000352E+00 0.  1.
    10030    2    1    2    0    0  0.00000000000E+00  0.00000000000E+00 -0.96686359260E+03  0.13171950086E+04  0.89452640208E+03 0.  0.
        3    1    3    3  502    0  0.50780533863E+02  0.27703894188E+03  0.28176706044E+02  0.28306037325E+03  0.10100000352E+00 0. -1.
       -3    1    3    3    0  502 -0.50780533863E+02 -0.27703894188E+03 -0.99504029865E+03  0.10341346354E+04  0.10100000352E+00 0.  1.
</event>
<event>
 5   0  0.6288003E-03  0.9008123E+03  0.7818609E-02  0.9424567E-01
       -1   -1    0    0    0  501  0.00000000000E+00  0.00000000000E+00  0.16573125679E+03  0.16573125686E+03  0.50400001928E-02 0. -1.
        1   -1    0    0  501    0  0.00000000000E+00  0.00000000000E+00 -0.12240641781E+04  0.12240641781E+04  0.50400001928E-02 0.  1.
    10030    2    1    2    0    0  0.00000000000E+00  0.00000000000E+00 -0.10583329213E+04  0.13897954350E+04  0.90081228829E+03 0.  0.
        1    1    3    3  502    0 -0.37100266357E+03  0.23519520883E+03 -0.68272156259E+03  0.81183033615E+03  0.50400001928E-02 0.  1.
       -1    1    3    3    0  502  0.37100266357E+03 -0.23519520883E+03 -0.37561135872E+03  0.57796509882E+03  0.50400001928E-02 0. -1.
</event>
<event>
 5   0  0.1003252E-02  0.8616793E+03  0.7818609E-02  0.9474794E-01
       -2   -1    0    0    0  501  0.00000000000E+00  0.00000000000E+00  0.38068412494E+03  0.38068412495E+03  0.25500000920E-02 0. -1.
        2   -1    0    0  501    0  0.00000000000E+00  0.00000000000E+00 -0.48760319657E+03  0.48760319658E+03  0.25500000920E-02 0.  1.
    10030    2    1    2    0    0  0.00000000000E+00  0.00000000000E+00 -0.10691907163E+03  0.86828732153E+03  0.86167928189E+03 0.  0.
        2    1    3    3  502    0  0.39168249584E+02 -0.42665034989E+03 -0.99173986995E+02  0.43977284198E+03  0.25500000920E-02 0.  1.
       -2    1    3    3    0  502 -0.39168249584E+02  0.42665034989E+03 -0.77450846389E+01  0.42851447955E+03  0.25500000920E-02 0. -1.
</event>
<event>
 5   0  0.6015709E-03  0.9009899E+03  0.7818609E-02  0.9424345E-01
       -1   -1    0    0    0  501  0.00000000000E+00  0.00000000000E+00  0.15224244685E+03  0.15224244693E+03  0.50400001928E-02 0. -1.
        1   -1    0    0  501    0  0.00000000000E+00  0.00000000000E+00 -0.13330427216E+04  0.13330427217E+04  0.50400001928E-02 0.  1.
    10030    2    1    2    0    0  0.00000000000E+00  0.00000000000E+00 -0.11808002748E+04  0.14852851686E+04  0.90098986846E+03 0.  0.
        3    1    3    3  502    0  0.27906537543E+03 -0.26836289155E+03 -0.97009156332E+03  0.10444969013E+04  0.10100000352E+00 0.  1.
       -3    1    3    3    0  502 -0.27906537543E+03  0.26836289155E+03 -0.21070871148E+03  0.44078826733E+03  0.10100000352E+00 0. -1.
</event>
<event>
 5   0  0.1017079E-02  0.9035938E+03  0.7818609E-02  0.9421100E-01
        2   -1    0    0  501    0  0.00000000000E+00  0.00000000000E+00  0.12739846532E+04  0.12739846532E+04  0.25500000920E-02 0.  1.
       -2   -1    0    0    0  501  0.00000000000E+00  0.00000000000E+00 -0.16022205761E+03  0.16022205763E+03  0.25500000920E-02 0. -1.
    10030    2    1    2    0    0  0.00000000000E+00  0.00000000000E+00  0.11137625956E+04  0.14342067108E+04  0.90359380813E+03 0.  0.
        1    1    3    3  502    0  0.25220361634E+03 -0.36069655869E+03  0.39492389383E+03  0.59133201629E+03  0.50400001928E-02 0. -1.
       -1    1    3    3    0  502 -0.25220361634E+03  0.36069655869E+03  0.71883870177E+03  0.84287469456E+03  0.50400001928E-02 0.  1.
</event>
<event>
 5   0  0.6015709E-03  0.9064462E+03  0.7818609E-02  0.9417559E-01
       -1   -1    0    0    0  501  0.00000000000E+00  0.00000000000E+00  0.21939346896E+03  0.21939346902E+03  0.50400001928E-02 0. -1.
        1   -1    0    0  501    0  0.00000000000E+00  0.00000000000E+00 -0.93626843433E+03  0.93626843434E+03  0.50400001928E-02 0.  1.
    10030    2    1    2    0    0  0.00000000000E+00  0.00000000000E+00 -0.71687496537E+03  0.11556619034E+04  0.90644620300E+03 0.  0.
        3    1    3    3  502    0  0.36174688554E+03 -0.23756257258E+03 -0.18684409313E+03  0.47138891632E+03  0.10100000352E+00 0. -1.
       -3    1    3    3    0  502 -0.36174688554E+03  0.23756257258E+03 -0.53003087224E+03  0.68427298705E+03  0.10100000352E+00 0.  1.
</event>
<event>
 5   0  0.1033749E-02  0.9001050E+03  0.7818609E-02  0.9425450E-01
       -2   -1    0    0    0  501  0.00000000000E+00  0.00000000000E+00  0.20384227019E+03  0.20384227021E+03  0.25500000920E-02 0.  1.
        2   -1    0    0  501    0  0.00000000000E+00  0.00000000000E+00 -0.99364706381E+03  0.99364706381E+03  0.25500000920E-02 0. -1.
    10030    2    1    2    0    0  0.00000000000E+00  0.00000000000E+00 -0.78980479362E+03  0.11974893340E+04  0.90010504558E+03 0.  0.
        5    1    3    3  502    0 -0.16254668559E+03 -0.41426453030E+03 -0.48403501788E+03  0.65753213959E+03  0.46999998093E+01 0. -1.
       -5    1    3    3    0  502  0.16254668559E+03  0.41426453030E+03 -0.30576977574E+03  0.53995719443E+03  0.46999998093E+01 0.  1.
</event>
<event>
 5   0  0.1017079E-02  0.8171554E+03  0.7818609E-02  0.9535512E-01
       -2   -1    0    0    0  501  0.00000000000E+00  0.00000000000E+00  0.22540272741E+03  0.22540272742E+03  0.25500000920E-02 0. -1.
        2   -1    0    0  501    0  0.00000000000E+00  0.00000000000E+00 -0.74061102700E+03  0.74061102701E+03  0.25500000920E-02 0.  1.
    10030    2    1    2    0    0  0.00000000000E+00  0.00000000000E+00 -0.51520829960E+03  0.96601375443E+03  0.81715542082E+03 0.  0.
        1    1    3    3  502    0 -0.22987118845E+03  0.19798855012E+03  0.65919887165E+02  0.31046040135E+03  0.50400001928E-02 0. -1.
       -1    1    3    3    0  502  0.22987118845E+03 -0.19798855012E+03 -0.58112818676E+03  0.65555335308E+03  0.50400001928E-02 0.  1.
</event>
<event>
 5   0  0.6092779E-03  0.9040791E+03  0.7818609E-02  0.9420497E-01
       -1   -1    0    0    0  501  0.00000000000E+00  0.00000000000E+00  0.35492426632E+03  0.35492426636E+03  0.50400001928E-02 0.  1.
        1   -1    0    0  501    0  0.00000000000E+00  0.00000000000E+00 -0.57572772100E+03  0.57572772102E+03  0.50400001928E-02 0. -1.
    10030    2    1    2    0    0  0.00000000000E+00  0.00000000000E+00 -0.22080345468E+03  0.93065198738E+03  0.90407906514E+03 0.  0.
        2    1    3    3  502    0  0.53149357023E+02 -0.30247236100E+03  0.23104840616E+03  0.38431464885E+03  0.25500000920E-02 0.  1.
       -2    1    3    3    0  502 -0.53149357023E+02  0.30247236100E+03 -0.45185186084E+03  0.54633733853E+03  0.25500000920E-02 0. -1.
</event>
<event>
 5   0  0.1003252E-02  0.9024758E+03  0.7818609E-02  0.9422492E-01
        2   -1    0    0  501    0  0.00000000000E+00  0.00000000000E+00  0.48332606420E+03  0.48332606421E+03  0.25500000920E-02 0. -1.
       -2   -1    0    0    0  501  0.00000000000E+00  0.00000000000E+00 -0.42128007992E+03  0.42128007993E+03  0.25500000920E-02 0.  1.
    10030    2    1    2    0    0  0.00000000000E+00  0.00000000000E+00  0.62045984278E+02  0.90460614414E+03  0.90247580125E+03 0.  0.
        2    1    3    3  502    0 -0.42237103617E+03  0.75076128392E+02  0.17128875135E+03  0.46192375301E+03  0.25500000920E-02 0. -1.
       -2    1    3    3    0  502  0.42237103617E+03 -0.75076128392E+02 -0.10924276707E+03  0.44268239113E+03  0.25500000920E-02 0.  1.
</event>
<event>
 5   0  0.1017079E-02  0.8895193E+03  0.7818609E-02  0.9438778E-01
       -2   -1    0    0    0  501  0.00000000000E+00  0.00000000000E+00  0.16106449649E+03  0.16106449651E+03  0.25500000920E-02 0. -1.
        2   -1    0    0  501    0  0.00000000000E+00  0.00000000000E+00 -0.12281486306E+04  0.12281486306E+04  0.25500000920E-02 0.  1.
    10030    2    1    2    0    0  0.00000000000E+00  0.00000000000E+00 -0.10670841341E+04  0.13892131271E+04  0.88951928775E+03 0.  0.
        1    1    3    3  502    0 -0.90478465243E+02 -0.33607172527E+03 -0.10107184056E+03  0.36241698936E+03  0.50400001928E-02 0. -1.
       -1    1    3    3    0  502  0.90478465243E+02  0.33607172527E+03 -0.96601229355E+03  0.10267961378E+04  0.50400001928E-02 0.  1.
</event>
<event>
 5   0  0.6092779E-03  0.8993637E+03  0.7818609E-02  0.9426377E-01
        1   -1    0    0  501    0  0.00000000000E+00  0.00000000000E+00  0.57017883919E+03  0.57017883921E+03  0.50400001928E-02 0.  1.
       -1   -1    0    0    0  501  0.00000000000E+00  0.00000000000E+00 -0.35464975039E+03  0.35464975043E+03  0.50400001928E-02 0. -1.
    10030    2    1    2    0    0  0.00000000000E+00  0.00000000000E+00  0.21552908879E+03  0.92482858964E+03  0.89936373737E+03 0.  0.
        2    1    3    3  502    0 -0.18724795408E+03  0.15483685223E+03 -0.28133732388E+03  0.37173503592E+03  0.25500000920E-02 0. -1.
       -2    1    3    3    0  502  0.18724795408E+03 -0.15483685223E+03  0.49686641268E+03  0.55309355372E+03  0.25500000920E-02 0.  1.
</event>
<event>
 5   0  0.6137243E-03  0.8849273E+03  0.7818609E-02  0.9444622E-01
       -1   -1    0    0    0  501  0.00000000000E+00  0.00000000000E+00  0.15088527358E+03  0.15088527366E+03  0.50400001928E-02 0.  1.
        1   -1    0    0  501    0  0.00000000000E+00  0.00000000000E+00 -0.12975029393E+04  0.12975029393E+04  0.50400001928E-02 0. -1.
    10030    2    1    2    0    0  0.00000000000E+00  0.00000000000E+00 -0.11466176657E+04  0.14483882130E+04  0.88492731009E+03 0.  0.
        4    1    3    3  502    0  0.21306571497E+03 -0.32279728831E+03 -0.92502477253E+03  0.10026303062E+04  0.12699999809E+01 0. -1.
       -4    1    3    3    0  502 -0.21306571497E+03  0.32279728831E+03 -0.22159289320E+03  0.44575790677E+03  0.12699999809E+01 0.  1.
</event>
<event>
 5   0  0.1033749E-02  0.8970568E+03  0.7818609E-02  0.9429268E-01
       -2   -1    0    0    0  501  0.00000000000E+00  0.00000000000E+00  0.17153231560E+03  0.17153231562E+03  0.25500000920E-02 0.  1.
        2   -1    0    0  501    0  0.00000000000E+00  0.00000000000E+00 -0.11728270884E+04  0.11728270884E+04  0.25500000920E-02 0. -1.
    10030    2    1    2    0    0  0.00000000000E+00  0.00000000000E+00 -0.10012947728E+04  0.13443594040E+04  0.89705684610E+03 0.  0.
        5    1    3    3  502    0  0.39580689654E+03  0.40127452544E+02 -0.81098519218E+03  0.90332296756E+03  0.46999998093E+01 0. -1.
       -5    1    3    3    0  502 -0.39580689654E+03 -0.40127452544E+02 -0.19030958059E+03  0.44103643643E+03  0.46999998093E+01 0.  1.
</event>
<event>
 5   0  0.6015709E-03  0.8962958E+03  0.7818609E-02  0.9430224E-01
        1   -1    0    0  501    0  0.00000000000E+00  0.00000000000E+00  0.23477339571E+04  0.23477339571E+04  0.50400001928E-02 0.  1.
       -1   -1    0    0    0  501  0.00000000000E+00  0.00000000000E+00 -0.85544845287E+02  0.85544845436E+02  0.50400001928E-02 0. -1.
    10030    2    1    2    0    0  0.00000000000E+00  0.00000000000E+00  0.22621891119E+04  0.24332788026E+04  0.89629579565E+03 0.  0.
        3    1    3    3  502    0 -0.26225582966E+03  0.19163692201E+03  0.29286352626E+03  0.43734641336E+03  0.10100000352E+00 0. -1.
       -3    1    3    3    0  502  0.26225582966E+03 -0.19163692201E+03  0.19693255856E+04  0.19959323892E+04  0.10100000352E+00 0.  1.
</event>
<event>
 5   0  0.6015709E-03  0.8528213E+03  0.7818609E-02  0.9486558E-01
       -1   -1    0    0    0  501  0.00000000000E+00  0.00000000000E+00  0.12493893286E+04  0.12493893286E+04  0.50400001928E-02 0.  1.
        1   -1    0    0  501    0  0.00000000000E+00  0.00000000000E+00 -0.14553193103E+03  0.14553193112E+03  0.50400001928E-02 0. -1.
    10030    2    1    2    0    0  0.00000000000E+00  0.00000000000E+00  0.11038573975E+04  0.13949212597E+04  0.85282129820E+03 0.  0.
        3    1    3    3  502    0 -0.26793526576E+03 -0.14455979727E+03  0.10402728569E+04  0.10839070387E+04  0.10100000352E+00 0.  1.
       -3    1    3    3    0  502  0.26793526576E+03  0.14455979727E+03  0.63584540633E+02  0.31101422095E+03  0.10100000352E+00 0. -1.
</event>
<event>
 5   0  0.1028978E-02  0.9068662E+03  0.7818609E-02  0.9417039E-01
        2   -1    0    0  501    0  0.00000000000E+00  0.00000000000E+00  0.57434845044E+03  0.57434845044E+03  0.25500000920E-02 0. -1.
       -2   -1    0    0    0  501  0.00000000000E+00  0.00000000000E+00 -0.35797360782E+03  0.35797360782E+03  0.25500000920E-02 0.  1.
    10030    2    1    2    0    0  0.00000000000E+00  0.00000000000E+00  0.21637484262E+03  0.93232205827E+03  0.90686622377E+03 0.  0.
        3    1    3    3  502    0  0.12173169814E+03  0.73129869133E+02 -0.33452181043E+03  0.36341633968E+03  0.10100000352E+00 0.  1.
       -3    1    3    3    0  502 -0.12173169814E+03 -0.73129869133E+02  0.55089665305E+03  0.56890571858E+03  0.10100000352E+00 0. -1.
</event>
<event>
 5   0  0.1033749E-02  0.8974523E+03  0.7818609E-02  0.9428772E-01
        2   -1    0    0  501    0  0.00000000000E+00  0.00000000000E+00  0.40362178754E+03  0.40362178755E+03  0.25500000920E-02 0. -1.
       -2   -1    0    0    0  501  0.00000000000E+00  0.00000000000E+00 -0.49887084361E+03  0.49887084362E+03  0.25500000920E-02 0.  1.
    10030    2    1    2    0    0  0.00000000000E+00  0.00000000000E+00 -0.95249056073E+02  0.90249263117E+03  0.89745226426E+03 0.  0.
        5    1    3    3  502    0  0.24470375745E+03  0.37586829349E+03 -0.34277885611E+02  0.44983771118E+03  0.46999998093E+01 0. -1.
       -5    1    3    3    0  502 -0.24470375745E+03 -0.37586829349E+03 -0.60971170462E+02  0.45265491999E+03  0.46999998093E+01 0.  1.
</event>
<event>
 5   0  0.6211218E-03  0.8928194E+03  0.7818609E-02  0.9434602E-01
        1   -1    0    0  501    0  0.00000000000E+00  0.00000000000E+00  0.13145873026E+04  0.13145873026E+04  0.50400001928E-02 0.  1.
       -1   -1    0    0    0  501  0.00000000000E+00  0.00000000000E+00 -0.15159254671E+03  0.15159254680E+03  0.50400001928E-02 0. -1.
    10030    2    1    2    0    0  0.00000000000E+00  0.00000000000E+00  0.11629947558E+04  0.14661798494E+04  0.89281943783E+03 0.  0.
        5    1    3    3  502    0  0.60631077599E+02  0.28116915762E+02 -0.14328917144E+03  0.15817890242E+03  0.46999998093E+01 0. -1.
       -5    1    3    3    0  502 -0.60631077599E+02 -0.28116915762E+02  0.13062839273E+04  0.13080009469E+04  0.46999998093E+01 0.  1.
</event>
<event>
 5   0  0.6092779E-03  0.9041653E+03  0.7818609E-02  0.9420389E-01
        1   -1    0    0  501    0  0.00000000000E+00  0.00000000000E+00  0.38642319634E+03  0.38642319637E+03  0.50400001928E-02 0.  1.
       -1   -1    0    0    0  501  0.00000000000E+00  0.00000000000E+00 -0.52889873835E+03  0.52889873838E+03  0.50400001928E-02 0. -1.
    10030    2    1    2    0    0  0.00000000000E+00  0.00000000000E+00 -0.14247554201E+03  0.91532193475E+03  0.90416534116E+03 0.  0.
        2    1    3    3  502    0 -0.90430403097E+02 -0.25873543991E+03 -0.43519734113E+03  0.51431353414E+03  0.25500000920E-02 0. -1.
       -2    1    3    3    0  502  0.90430403097E+02  0.25873543991E+03  0.29272179911E+03  0.40100840060E+03  0.25500000920E-02 0.  1.
</event>
<event>
 5   0  0.1041727E-02  0.9046999E+03  0.7818609E-02  0.9419725E-01
        2   -1    0    0  501    0  0.00000000000E+00  0.00000000000E+00  0.65289599609E+03  0.65289599609E+03  0.25500000920E-02 0. -1.
       -2   -1    0    0    0  501  0.00000000000E+00  0.00000000000E+00 -0.31340438220E+03  0.31340438221E+03  0.25500000920E-02 0.  1.
    10030    2    1    2    0    0  0.00000000000E+00  0.00000000000E+00  0.33949161388E+03  0.96630037831E+03  0.90469987577E+03 0.  0.
        4    1    3    3  502    0 -0.38562944185E+03  0.21227427738E+03  0.58498161708E+02  0.44406540406E+03  0.12699999809E+01 0.  1.
       -4    1    3    3    0  502  0.38562944185E+03 -0.21227427738E+03  0.28099345217E+03  0.52223497424E+03  0.12699999809E+01 0. -1.
</event>
<event>
 5   0  0.1033749E-02  0.8954923E+03  0.7818609E-02  0.9431234E-01
        2   -1    0    0  501    0  0.00000000000E+00  0.00000000000E+00  0.35887123361E+03  0.35887123362E+03  0.25500000920E-02 0.  1.
       -2   -1    0    0    0  501  0.00000000000E+00  0.00000000000E+00 -0.55863103120E+03  0.55863103121E+03  0.25500000920E-02 0. -1.
    10030    2    1    2    0    0  0.00000000000E+00  0.00000000000E+00 -0.19975979760E+03  0.91750226482E+03  0.89549228317E+03 0.  0.
        5    1    3    3  502    0 -0.26612735548E+03 -0.30426292260E+03 -0.29710748627E+03  0.50169178168E+03  0.46999998093E+01 0. -1.
       -5    1    3    3    0  502  0.26612735548E+03  0.30426292260E+03  0.97347688674E+02  0.41581048315E+03  0.46999998093E+01 0.  1.
</event>
<event>
 5   0  0.6288003E-03  0.9068636E+03  0.7818609E-02  0.9417042E-01
       -1   -1    0    0    0  501  0.00000000000E+00  0.00000000000E+00  0.54760436945E+03  0.54760436947E+03  0.50400001928E-02 0.  1.
        1   -1    0    0  501    0  0.00000000000E+00  0.00000000000E+00 -0.37545422744E+03  0.37545422747E+03  0.50400001928E-02 0. -1.
    10030    2    1    2    0    0  0.00000000000E+00  0.00000000000E+00  0.17215014201E+03  0.92305859695E+03  0.90686355203E+03 0.  0.
        1    1    3    3  502    0  0.25893141406E+03 -0.87693999195E+02  0.45428756100E+03  0.53020081364E+03  0.50400001928E-02 0.  1.
       -1    1    3    3    0  502 -0.25893141406E+03  0.87693999195E+02 -0.28213741899E+03  0.39285778330E+03  0.50400001928E-02 0. -1.
</event>
<event>
 5   0  0.1003252E-02  0.9038843E+03  0.7818609E-02  0.9420739E-01
        2   -1    0    0  501    0  0.00000000000E+00  0.00000000000E+00  0.68002245604E+03  0.68002245604E+03  0.25500000920E-02 0. -1.
       -2   -1    0    0    0  501  0.00000000000E+00  0.00000000000E+00 -0.30036026185E+03  0.30036026187E+03  0.25500000920E-02 0.  1.
    10030    2    1    2    0    0  0.00000000000E+00  0.00000000000E+00  0.37966219418E+03  0.98038271791E+03  0.90388433546E+03 0.  0.
        2    1    3    3  502    0  0.15386589266E+03  0.32819612409E+03 -0.10294810823E+03  0.37680992793E+03  0.25500000920E-02 0.  1.
       -2    1    3    3    0  502 -0.15386589266E+03 -0.32819612409E+03  0.48261030241E+03  0.60357278998E+03  0.25500000920E-02 0. -1.
</event>
<event>
 5   0  0.6092779E-03  0.8948832E+03  0.7818609E-02  0.9432000E-01
        1   -1    0    0  501    0  0.00000000000E+00  0.00000000000E+00  0.40146840882E+03  0.40146840886E+03  0.50400001928E-02 0. -1.
       -1   -1    0    0    0  501  0.00000000000E+00  0.00000000000E+00 -0.49867934903E+03  0.49867934905E+03  0.50400001928E-02 0.  1.
    10030    2    1    2    0    0  0.00000000000E+00  0.00000000000E+00 -0.97210940202E+02  0.90014775791E+03  0.89488324332E+03 0.  0.
        2    1    3    3  502    0 -0.48141455959E+02  0.41621587683E+03 -0.20653468878E+03  0.46712935423E+03  0.25500000920E-02 0.  1.
       -2    1    3    3    0  502  0.48141455959E+02 -0.41621587683E+03  0.10932374858E+03  0.43301840367E+03  0.25500000920E-02 0. -1.
</event>
<event>
 5   0  0.1017079E-02  0.9020169E+03  0.7818609E-02  0.9423064E-01
       -2   -1    0    0    0  501  0.00000000000E+00  0.00000000000E+00  0.79669432934E+02  0.79669432975E+02  0.25500000920E-02 0.  1.
        2   -1    0    0  501    0  0.00000000000E+00  0.00000000000E+00 -0.25531574298E+04  0.25531574298E+04  0.25500000920E-02 0. -1.
    10030    2    1    2    0    0  0.00000000000E+00  0.00000000000E+00 -0.24734879969E+04  0.26328268628E+04  0.90201686166E+03 0.  0.
        1    1    3    3  502    0  0.29880733298E+03  0.26811556344E+02 -0.25381605125E+03  0.39297235233E+03  0.50400001928E-02 0.  1.
       -1    1    3    3    0  502 -0.29880733298E+03 -0.26811556344E+02 -0.22196719456E+04  0.22398545105E+04  0.50400001928E-02 0. -1.
</event>
<event>
 5   0  0.6015709E-03  0.8954887E+03  0.7818609E-02  0.9431238E-01
        1   -1    0    0  501    0  0.00000000000E+00  0.00000000000E+00  0.11058094812E+04  0.11058094812E+04  0.50400001928E-02 0. -1.
       -1   -1    0    0    0  501  0.00000000000E+00  0.00000000000E+00 -0.18129252706E+03  0.18129252713E+03  0.50400001928E-02 0.  1.
    10030    2    1    2    0    0  0.00000000000E+00  0.00000000000E+00  0.92451695417E+03  0.12871020084E+04  0.89548868303E+03 0.  0.
        3    1    3    3  502    0 -0.65045271218E+02  0.42592916050E+03  0.63728373117E+03  0.76927049942E+03  0.10100000352E+00 0. -1.
       -3    1    3    3    0  502  0.65045271218E+02 -0.42592916050E+03  0.28723322300E+03  0.51783150895E+03  0.10100000352E+00 0.  1.
</event>
<event>
 5   0  0.6015709E-03  0.8767468E+03  0.7818609E-02  0.9455125E-01
       -1   -1    0    0    0  501  0.00000000000E+00  0.00000000000E+00  0.37825066593E+03  0.37825066597E+03  0.50400001928E-02 0.  1.
        1   -1    0    0  501    0  0.00000000000E+00  0.00000000000E+00 -0.50805260633E+03  0.50805260636E+03  0.50400001928E-02 0. -1.
    10030    2    1    2    0    0  0.00000000000E+00  0.00000000000E+00 -0.12980194040E+03  0.88630327232E+03  0.87674679743E+03 0.  0.
        3    1    3    3  502    0  0.39084926932E+03 -0.11707150950E+03 -0.22696792428E+03  0.46688685837E+03  0.10100000352E+00 0. -1.
       -3    1    3    3    0  502 -0.39084926932E+03  0.11707150950E+03  0.97165983876E+02  0.41941641395E+03  0.10100000352E+00 0.  1.
</event>
<event>
 5   0  0.1041727E-02  0.8519260E+03  0.7818609E-02  0.9487756E-01
        2   -1    0    0  501    0  0.00000000000E+00  0.00000000000E+00  0.12483964482E+04  0.12483964482E+04  0.25500000920E-02 0. -1.
       -2   -1    0    0    0  501  0.00000000000E+00  0.00000000000E+00 -0.14534204448E+03  0.14534204450E+03  0.25500000920E-02 0.  1.
    10030    2    1    2    0    0  0.00000000000E+00  0.00000000000E+00  0.11030544037E+04  0.13937384927E+04  0.85192603462E+03 0.  0.
        4    1    3    3  502    0  0.26725235283E+03  0.32701621829E+03  0.64231262684E+03  0.76872007299E+03  0.12699999809E+01 0. -1.
       -4    1    3    3    0  502 -0.26725235283E+03 -0.32701621829E+03  0.46074177687E+03  0.62501841970E+03  0.12699999809E+01 0.  1.
</event>
<event>
 5   0  0.1017079E-02  0.9021620E+03  0.7818609E-02  0.9422883E-01
       -2   -1    0    0    0  501  0.00000000000E+00  0.00000000000E+00  0.26638352911E+03  0.26638352912E+03  0.25500000920E-02 0.  1.
        2   -1    0    0  501    0  0.00000000000E+00  0.00000000000E+00 -0.76383877626E+03  0.76383877626E+03  0.25500000920E-02 0. -1.
    10030    2    1    2    0    0  0.00000000000E+00  0.00000000000E+00 -0.49745524715E+03  0.10302223054E+04  0.90216200074E+03 0.  0.
        1    1    3    3  502    0  0.23284649595E+03 -0.37867121483E+03 -0.33617945742E+03  0.55733832385E+03  0.50400001928E-02 0.  1.
       -1    1    3    3    0  502 -0.23284649595E+03  0.37867121483E+03 -0.16127578973E+03  0.47288398153E+03  0.50400001928E-02 0. -1.
</event>
<event>
 5   0  0.3996375E-03  0.9355652E+03  0.7818609E-02  0.9382184E-01
       -4   -1    0    0    0  501  0.00000000000E+00  0.00000000000E+00  0.48964656909E+03  0.48964821609E+03  0.12699999809E+01 0. -1.
        4   -1    0    0  501    0  0.00000000000E+00  0.00000000000E+00 -0.44689156958E+03  0.44689337415E+03  0.12699999809E+01 0.  1.
    10030    2    1    2    0    0  0.00000000000E+00  0.00000000000E+00  0.42754999508E+02  0.93654159024E+03  0.93556515554E+03 0.  0.
        4    1    3    3  502    0 -0.19156662034E+03  0.61568943299E+02  0.44411010785E+03  0.48756938542E+03  0.12699999809E+01 0. -1.
       -4    1    3    3    0  502  0.19156662034E+03 -0.61568943299E+02 -0.40135510834E+03  0.44897220482E+03  0.12699999809E+01 0.  1.
</event>
<event>
 5   0  0.6137243E-03  0.9008213E+03  0.7818609E-02  0.9424555E-01
        1   -1    0    0  501    0  0.00000000000E+00  0.00000000000E+00  0.54783159012E+03  0.54783159015E+03  0.50400001928E-02 0.  1.
       -1   -1    0    0    0  501  0.00000000000E+00  0.00000000000E+00 -0.37031405397E+03  0.37031405400E+03  0.50400001928E-02 0. -1.
    10030    2    1    2    0    0  0.00000000000E+00  0.00000000000E+00  0.17751753616E+03  0.91814564415E+03  0.90082126319E+03 0.  0.
        4    1    3    3  502    0 -0.43848477950E+03 -0.61000595759E+02  0.17328835733E+03  0.47541607275E+03  0.12699999809E+01 0. -1.
       -4    1    3    3    0  502  0.43848477950E+03  0.61000595759E+02  0.42291788261E+01  0.44272957140E+03  0.12699999809E+01 0.  1.
</event>
<event>
 5   0  0.6211218E-03  0.8963950E+03  0.7818609E-02  0.9430099E-01
       -1   -1    0    0    0  501  0.00000000000E+00  0.00000000000E+00  0.75052839821E+03  0.75052839823E+03  0.50400001928E-02 0. -1.
        1   -1    0    0  501    0  0.00000000000E+00  0.00000000000E+00 -0.26765276327E+03  0.26765276332E+03  0.50400001928E-02 0.  1.
    10030    2    1    2    0    0  0.00000000000E+00  0.00000000000E+00  0.48287563494E+03  0.10181811615E+04  0.89639500161E+03 0.  0.
        5    1    3    3  502    0  0.42406132343E+03 -0.41047092293E+01  0.40609495614E+03  0.58717974937E+03  0.46999998093E+01 0.  1.
       -5    1    3    3    0  502 -0.42406132343E+03  0.41047092293E+01  0.76780678809E+02  0.43100141218E+03  0.46999998093E+01 0. -1.
</event>
<event>
 5   0  0.1003252E-02  0.9024989E+03  0.7818609E-02  0.9422463E-01
        2   -1    0    0  501    0  0.00000000000E+00  0.00000000000E+00  0.56721309261E+03  0.56721309262E+03  0.25500000920E-02 0.  1.
       -2   -1    0    0    0  501  0.00000000000E+00  0.00000000000E+00 -0.35899396827E+03  0.35899396828E+03  0.25500000920E-02 0. -1.
    10030    2    1    2    0    0  0.00000000000E+00  0.00000000000E+00  0.20821912434E+03  0.92620706090E+03  0.90249892849E+03 0.  0.
        2    1    3    3  502    0  0.37840623811E+03 -0.24567335766E+03  0.94964858347E+02  0.46104772425E+03  0.25500000920E-02 0.  1.
       -2    1    3    3    0  502 -0.37840623811E+03  0.24567335766E+03  0.11325426599E+03  0.46515933666E+03  0.25500000920E-02 0. -1.
</event>
<event>
 5   0  0.6137243E-03  0.9186673E+03  0.7818609E-02  0.9402543E-01
       -1   -1    0    0    0  501  0.00000000000E+00  0.00000000000E+00  0.13749454015E+03  0.13749454025E+03  0.50400001928E-02 0. -1.
        1   -1    0    0  501    0  0.00000000000E+00  0.00000000000E+00 -0.15345148574E+04  0.15345148574E+04  0.50400001928E-02 0.  1.
    10030    2    1    2    0    0  0.00000000000E+00  0.00000000000E+00 -0.13970203172E+04  0.16720093976E+04  0.91866732772E+03 0.  0.
        4    1    3    3  502    0 -0.36315657951E+02 -0.12954669164E+03 -0.14978459392E+04  0.15038767379E+04  0.12699999809E+01 0.  1.
       -4    1    3    3    0  502  0.36315657951E+02  0.12954669164E+03  0.10082562196E+03  0.16813265974E+03  0.12699999809E+01 0. -1.
</event>
<event>
 5   0  0.1033749E-02  0.8944131E+03  0.7818609E-02  0.9432592E-01
       -2   -1    0    0    0  501  0.00000000000E+00  0.00000000000E+00  0.59981590235E+03  0.59981590235E+03  0.25500000920E-02 0. -1.
        2   -1    0    0  501    0  0.00000000000E+00  0.00000000000E+00 -0.33342513239E+03  0.33342513240E+03  0.25500000920E-02 0.  1.
    10030    2    1    2    0    0  0.00000000000E+00  0.00000000000E+00  0.26639076995E+03  0.93324103476E+03  0.89441309619E+03 0.  0.
        5    1    3    3  502    0 -0.40797110028E+03  0.41372343564E+02 -0.52928654584E+02  0.41349198535E+03  0.46999998093E+01 0.  1.
       -5    1    3    3    0  502  0.40797110028E+03 -0.41372343564E+02  0.31931942454E+03  0.51974904941E+03  0.46999998093E+01 0. -1.
</event>
<event>
 5   0  0.6211218E-03  0.9044545E+03  0.7818609E-02  0.9420030E-01
        1   -1    0    0  501    0  0.00000000000E+00  0.00000000000E+00  0.75728717323E+03  0.75728717325E+03  0.50400001928E-02 0. -1.
       -1   -1    0    0    0  501  0.00000000000E+00  0.00000000000E+00 -0.27005537741E+03  0.27005537746E+03  0.50400001928E-02 0.  1.
    10030    2    1    2    0    0  0.00000000000E+00  0.00000000000E+00  0.48723179581E+03  0.10273425507E+04  0.90445447295E+03 0.  0.
        5    1    3    3  502    0 -0.25409129613E+03 -0.18589667994E+03 -0.12509140570E+03  0.33880659994E+03  0.46999998093E+01 0.  1.
       -5    1    3    3    0  502  0.25409129613E+03  0.18589667994E+03  0.61232320152E+03  0.68853595077E+03  0.46999998093E+01 0. -1.
</event>
<event>
 5   0  0.6288003E-03  0.9090949E+03  0.7818609E-02  0.9414283E-01
       -1   -1    0    0    0  501  0.00000000000E+00  0.00000000000E+00  0.13912467267E+03  0.13912467276E+03  0.50400001928E-02 0.  1.
        1   -1    0    0  501    0  0.00000000000E+00  0.00000000000E+00 -0.14850952017E+04  0.14850952017E+04  0.50400001928E-02 0. -1.
    10030    2    1    2    0    0  0.00000000000E+00  0.00000000000E+00 -0.13459705290E+04  0.16242198745E+04  0.90909489912E+03 0.  0.
        1    1    3    3  502    0 -0.15995071020E+03  0.14005757830E+03  0.44817113840E+02  0.21727615757E+03  0.50400001928E-02 0.  1.
       -1    1    3    3    0  502  0.15995071020E+03 -0.14005757830E+03 -0.13907876429E+04  0.14069437169E+04  0.50400001928E-02 0. -1.
</event>
<event>
 5   0  0.1003252E-02  0.9583976E+03  0.7818609E-02  0.9355389E-01
       -2   -1    0    0    0  501  0.00000000000E+00  0.00000000000E+00  0.64853671286E+03  0.64853671287E+03  0.25500000920E-02 0. -1.
        2   -1    0    0  501    0  0.00000000000E+00  0.00000000000E+00 -0.35407628389E+03  0.35407628390E+03  0.25500000920E-02 0.  1.
    10030    2    1    2    0    0  0.00000000000E+00  0.00000000000E+00  0.29446042897E+03  0.10026129968E+04  0.95839755689E+03 0.  0.
        2    1    3    3  502    0 -0.28026064522E+03  0.37581601777E+03  0.43416106331E+02  0.47081702047E+03  0.25500000920E-02 0.  1.
       -2    1    3    3    0  502  0.28026064522E+03 -0.37581601777E+03  0.25104432264E+03  0.53179597630E+03  0.25500000920E-02 0. -1.
</event>
<event>
 5   0  0.6211218E-03  0.7566123E+03  0.7818609E-02  0.9625033E-01
       -1   -1    0    0    0  501  0.00000000000E+00  0.00000000000E+00  0.96613811139E+02  0.96613811270E+02  0.50400001928E-02 0. -1.
        1   -1    0    0  501    0  0.00000000000E+00  0.00000000000E+00 -0.14813156398E+04  0.14813156398E+04  0.50400001928E-02 0.  1.
    10030    2    1    2    0    0  0.00000000000E+00  0.00000000000E+00 -0.13847018287E+04  0.15779294511E+04  0.75661231704E+03 0.  0.
        5    1    3    3  502    0  0.29097101139E+03 -0.16246667601E+03 -0.31908430148E+03  0.46140701310E+03  0.46999998093E+01 0. -1.
       -5    1    3    3    0  502 -0.29097101139E+03  0.16246667601E+03 -0.10656175272E+04  0.11165224380E+04  0.46999998093E+01 0.  1.
</event>
<event>
 5   0  0.1017079E-02  0.9016476E+03  0.7818609E-02  0.9423524E-01
       -2   -1    0    0    0  501  0.00000000000E+00  0.00000000000E+00  0.90405015740E+02  0.90405015776E+02  0.25500000920E-02 0.  1.
        2   -1    0    0  501    0  0.00000000000E+00  0.00000000000E+00 -0.22481286100E+04  0.22481286100E+04  0.25500000920E-02 0. -1.
    10030    2    1    2    0    0  0.00000000000E+00  0.00000000000E+00 -0.21577235942E+04  0.23385336258E+04  0.90164760836E+03 0.  0.
        1    1    3    3  502    0  0.25026606717E+03 -0.27961378779E+02 -0.20487072888E+04  0.20641260858E+04  0.50400001928E-02 0. -1.
       -1    1    3    3    0  502 -0.25026606717E+03  0.27961378779E+02 -0.10901630544E+03  0.27440753991E+03  0.50400001928E-02 0.  1.
</event>
<event>
 5   0  0.6288003E-03  0.8933812E+03  0.7818609E-02  0.9433893E-01
       -1   -1    0    0    0  501  0.00000000000E+00  0.00000000000E+00  0.13623144410E+03  0.13623144420E+03  0.50400001928E-02 0.  1.
        1   -1    0    0  501    0  0.00000000000E+00  0.00000000000E+00 -0.14646582421E+04  0.14646582421E+04  0.50400001928E-02 0. -1.
    10030    2    1    2    0    0  0.00000000000E+00  0.00000000000E+00 -0.13284267980E+04  0.16008896863E+04  0.89338123444E+03 0.  0.
        1    1    3    3  502    0 -0.22891630360E+03 -0.20185492293E+03 -0.12486852545E+04  0.12854427054E+04  0.50400001928E-02 0. -1.
       -1    1    3    3    0  502  0.22891630360E+03  0.20185492293E+03 -0.79741543439E+02  0.31544698087E+03  0.50400001928E-02 0.  1.
</event>
<event>
 5   0  0.6092779E-03  0.9202437E+03  0.7818609E-02  0.9400624E-01
        1   -1    0    0  501    0  0.00000000000E+00  0.00000000000E+00  0.29065513578E+03  0.29065513582E+03  0.50400001928E-02 0. -1.
       -1   -1    0    0    0  501  0.00000000000E+00  0.00000000000E+00 -0.72839624549E+03  0.72839624551E+03  0.50400001928E-02 0.  1.
    10030    2    1    2    0    0  0.00000000000E+00  0.00000000000E+00 -0.43774110971E+03  0.10190513813E+04  0.92024368440E+03 0.  0.
        2    1    3    3  502    0  0.22751337536E+03  0.11103869988E+03  0.20659666249E+03  0.32676307901E+03  0.25500000920E-02 0. -1.
       -2    1    3    3    0  502 -0.22751337536E+03 -0.11103869988E+03 -0.64433777221E+03  0.69228830233E+03  0.25500000920E-02 0.  1.
</event>
<event>
 5   0  0.1041727E-02  0.9056783E+03  0.7818609E-02  0.9418511E-01
       -2   -1    0    0    0  501  0.00000000000E+00  0.00000000000E+00  0.11286832851E+04  0.11286832851E+04  0.25500000920E-02 0. -1.
        2   -1    0    0  501    0  0.00000000000E+00  0.00000000000E+00 -0.18168366079E+03  0.18168366081E+03  0.25500000920E-02 0.  1.
    10030    2    1    2    0    0  0.00000000000E+00  0.00000000000E+00  0.94699962431E+03  0.13103669459E+04  0.90567833390E+03 0.  0.
        4    1    3    3  502    0  0.32598221996E+03 -0.15733008340E+03  0.86719985050E+03  0.93970971926E+03  0.12699999809E+01 0. -1.
       -4    1    3    3    0  502 -0.32598221996E+03  0.15733008340E+03  0.79799773818E+02  0.37065722666E+03  0.12699999809E+01 0.  1.
</event>
<event>
 5   0  0.1003252E-02  0.9052931E+03  0.7818609E-02  0.9418989E-01
       -2   -1    0    0    0  501  0.00000000000E+00  0.00000000000E+00  0.26364944595E+03  0.26364944596E+03  0.25500000920E-02 0. -1.
        2   -1    0    0  501    0  0.00000000000E+00  0.00000000000E+00 -0.77712615032E+03  0.77712615032E+03  0.25500000920E-02 0.  1.
    10030    2    1    2    0    0  0.00000000000E+00  0.00000000000E+00 -0.51347670437E+03  0.10407755963E+04  0.90529305525E+03 0.  0.
        2    1    3    3  502    0  0.23806459027E+03 -0.34761330581E+03 -0.44696775737E+03  0.61423931464E+03  0.25500000920E-02 0.  1.
       -2    1    3    3    0  502 -0.23806459027E+03  0.34761330581E+03 -0.66508947000E+02  0.42653628164E+03  0.25500000920E-02 0. -1.
</event>
<event>
 5   0  0.1041727E-02  0.8885950E+03  0.7818609E-02  0.9439952E-01
        2   -1    0    0  501    0  0.00000000000E+00  0.00000000000E+00  0.41865821661E+03  0.41865821662E+03  0.25500000920E-02 0. -1.
       -2   -1    0    0    0  501  0.00000000000E+00  0.00000000000E+00 -0.47150693485E+03  0.47150693485E+03  0.25500000920E-02 0.  1.
    10030    2    1    2    0    0  0.00000000000E+00  0.00000000000E+00 -0.52848718232E+02  0.89016515148E+03  0.88859496391E+03 0.  0.
        4    1    3    3  502    0 -0.22067193111E+03  0.35370741703E+03 -0.18029786926E+03  0.45421797917E+03  0.12699999809E+01 0. -1.
       -4    1    3    3    0  502  0.22067193111E+03 -0.35370741703E+03  0.12744915103E+03  0.43594717230E+03  0.12699999809E+01 0.  1.
</event>
<event>
 5   0  0.6092779E-03  0.8996694E+03  0.7818609E-02  0.9425995E-01
        1   -1    0    0  501    0  0.00000000000E+00  0.00000000000E+00  0.68006408657E+03  0.68006408659E+03  0.50400001928E-02 0.  1.
       -1   -1    0    0    0  501  0.00000000000E+00  0.00000000000E+00 -0.29754735502E+03  0.29754735506E+03  0.50400001928E-02 0. -1.
    10030    2    1    2    0    0  0.00000000000E+00  0.00000000000E+00  0.38251673155E+03  0.97761144165E+03  0.89966942869E+03 0.  0.
        2    1    3    3  502    0 -0.27865860682E+03 -0.98253676056E+02 -0.17731225090E+03  0.34459256861E+03  0.25500000920E-02 0. -1.
       -2    1    3    3    0  502  0.27865860682E+03  0.98253676056E+02  0.55982898245E+03  0.63301887303E+03  0.25500000920E-02 0.  1.
</event>
<event>
 5   0  0.1017079E-02  0.8981389E+03  0.7818609E-02  0.9427911E-01
       -2   -1    0    0    0  501  0.00000000000E+00  0.00000000000E+00  0.28657361409E+03  0.28657361410E+03  0.25500000920E-02 0. -1.
        2   -1    0    0  501    0  0.00000000000E+00  0.00000000000E+00 -0.70370530485E+03  0.70370530485E+03  0.25500000920E-02 0.  1.
    10030    2    1    2    0    0  0.00000000000E+00  0.00000000000E+00 -0.41713169076E+03  0.99027891895E+03  0.89813890345E+03 0.  0.
        1    1    3    3  502    0 -0.74800615876E+02  0.35600455089E+03  0.81750503598E+02  0.37285052937E+03  0.50400001928E-02 0. -1.
       -1    1    3    3    0  502  0.74800615876E+02 -0.35600455089E+03 -0.49888219436E+03  0.61742838958E+03  0.50400001928E-02 0.  1.
</event>
<event>
 5   0  0.6137243E-03  0.8982435E+03  0.7818609E-02  0.9427780E-01
        1   -1    0    0  501    0  0.00000000000E+00  0.00000000000E+00  0.19681111153E+03  0.19681111159E+03  0.50400001928E-02 0. -1.
       -1   -1    0    0    0  501  0.00000000000E+00  0.00000000000E+00 -0.10248931676E+04  0.10248931676E+04  0.50400001928E-02 0.  1.
    10030    2    1    2    0    0  0.00000000000E+00  0.00000000000E+00 -0.82808205609E+03  0.12217042792E+04  0.89824353839E+03 0.  0.
        4    1    3    3  502    0 -0.37482269154E+03  0.23875976765E+03 -0.50229565515E+03  0.67067191295E+03  0.12699999809E+01 0.  1.
       -4    1    3    3    0  502  0.37482269154E+03 -0.23875976765E+03 -0.32578640094E+03  0.55103236627E+03  0.12699999809E+01 0. -1.
</event>
<event>
 5   0  0.6092779E-03  0.9029685E+03  0.7818609E-02  0.9421878E-01
        1   -1    0    0  501    0  0.00000000000E+00  0.00000000000E+00  0.36879548209E+03  0.36879548213E+03  0.50400001928E-02 0. -1.
       -1   -1    0    0    0  501  0.00000000000E+00  0.00000000000E+00 -0.55271289815E+03  0.55271289818E+03  0.50400001928E-02 0.  1.
    10030    2    1    2    0    0  0.00000000000E+00  0.00000000000E+00 -0.18391741606E+03  0.92150838030E+03  0.90296848175E+03 0.  0.
        2    1    3    3  502    0  0.26368181140E+03 -0.25467901347E+03  0.17698302679E+03  0.40707798927E+03  0.25500000920E-02 0. -1.
       -2    1    3    3    0  502 -0.26368181140E+03  0.25467901347E+03 -0.36090044286E+03  0.51443039104E+03  0.25500000920E-02 0.  1.
</event>
<event>
 5   0  0.6288003E-03  0.8811813E+03  0.7818609E-02  0.9449416E-01
       -1   -1    0    0    0  501  0.00000000000E+00  0.00000000000E+00  0.22475391138E+03  0.22475391144E+03  0.50400001928E-02 0.  1.
        1   -1    0    0  501    0  0.00000000000E+00  0.00000000000E+00 -0.86370067921E+03  0.86370067922E+03  0.50400001928E-02 0. -1.
    10030    2    1    2    0    0  0.00000000000E+00  0.00000000000E+00 -0.63894676783E+03  0.10884545907E+04  0.88118126615E+03 0.  0.
        1    1    3    3  502    0  0.87447814585E+02 -0.42743499802E+03 -0.24360713024E+03  0.49969213696E+03  0.50400001928E-02 0.  1.
       -1    1    3    3    0  502 -0.87447814585E+02  0.42743499802E+03 -0.39533963759E+03  0.58876245370E+03  0.50400001928E-02 0. -1.
</event>
<event>
 5   0  0.1017079E-02  0.9027080E+03  0.7818609E-02  0.9422203E-01
       -2   -1    0    0    0  501  0.00000000000E+00  0.00000000000E+00  0.13057081012E+03  0.13057081015E+03  0.25500000920E-02 0. -1.
        2   -1    0    0  501    0  0.00000000000E+00  0.00000000000E+00 -0.15602295744E+04  0.15602295744E+04  0.25500000920E-02 0.  1.
    10030    2    1    2    0    0  0.00000000000E+00  0.00000000000E+00 -0.14296587642E+04  0.16908003845E+04  0.90270801375E+03 0.  0.
        1    1    3    3  502    0 -0.42153269251E+03  0.16133568297E+03 -0.71706609819E+03  0.84729145084E+03  0.50400001928E-02 0.  1.
       -1    1    3    3    0  502  0.42153269251E+03 -0.16133568297E+03 -0.71259266604E+03  0.84350893367E+03  0.50400001928E-02 0. -1.
</event>
<event>
 5   0  0.6015709E-03  0.9034506E+03  0.7818609E-02  0.9421278E-01
       -1   -1    0    0    0  501  0.00000000000E+00  0.00000000000E+00  0.63755906526E+03  0.63755906528E+03  0.50400001928E-02 0.  1.
        1   -1    0    0  501    0  0.00000000000E+00  0.00000000000E+00 -0.32005778548E+03  0.32005778552E+03  0.50400001928E-02 0. -1.
    10030    2    1    2    0    0  0.00000000000E+00  0.00000000000E+00  0.31750127979E+03  0.95761685080E+03  0.90345059094E+03 0.  0.
        3    1    3    3  502    0  0.33333207713E+03 -0.22420399867E+03  0.37772311814E+03  0.55140953097E+03  0.10100000352E+00 0.  1.
       -3    1    3    3    0  502 -0.33333207713E+03  0.22420399867E+03 -0.60221838355E+02  0.40620731983E+03  0.10100000352E+00 0. -1.
</event>
<event>
 5   0  0.6211218E-03  0.9142297E+03  0.7818609E-02  0.9407966E-01
        1   -1    0    0  501    0  0.00000000000E+00  0.00000000000E+00  0.95228953957E+03  0.95228953958E+03  0.50400001928E-02 0. -1.
       -1   -1    0    0    0  501  0.00000000000E+00  0.00000000000E+00 -0.21942276713E+03  0.21942276719E+03  0.50400001928E-02 0.  1.
    10030    2    1    2    0    0  0.00000000000E+00  0.00000000000E+00  0.73286677244E+03  0.11717123068E+04  0.91422974338E+03 0.  0.
        5    1    3    3  502    0  0.36481351190E+03  0.58229413619E+02  0.21454995638E+02  0.37008373365E+03  0.46999998093E+01 0.  1.
       -5    1    3    3    0  502 -0.36481351190E+03 -0.58229413619E+02  0.71141177680E+03  0.80162857312E+03  0.46999998093E+01 0. -1.
</event>
<event>
 5   0  0.6015709E-03  0.9011286E+03  0.7818609E-02  0.9424172E-01
       -1   -1    0    0    0  501  0.00000000000E+00  0.00000000000E+00  0.18183640181E+03  0.18183640188E+03  0.50400001928E-02 0. -1.
        1   -1    0    0  501    0  0.00000000000E+00  0.00000000000E+00 -0.11164330872E+04  0.11164330872E+04  0.50400001928E-02 0.  1.
    10030    2    1    2    0    0  0.00000000000E+00  0.00000000000E+00 -0.93459668538E+03  0.12982694891E+04  0.90112857126E+03 0.  0.
        3    1    3    3  502    0  0.37057598723E+03  0.79739497833E+02 -0.11639263490E+03  0.39652516375E+03  0.10100000352E+00 0. -1.
       -3    1    3    3    0  502 -0.37057598723E+03 -0.79739497833E+02 -0.81820405048E+03  0.90174432532E+03  0.10100000352E+00 0.  1.
</event>
<event>
 5   0  0.1003252E-02  0.9024548E+03  0.7818609E-02  0.9422518E-01
        2   -1    0    0  501    0  0.00000000000E+00  0.00000000000E+00  0.13073663861E+04  0.13073663862E+04  0.25500000920E-02 0. -1.
       -2   -1    0    0    0  501  0.00000000000E+00  0.00000000000E+00 -0.15573765070E+03  0.15573765072E+03  0.25500000920E-02 0.  1.
    10030    2    1    2    0    0  0.00000000000E+00  0.00000000000E+00  0.11516287354E+04  0.14631040369E+04  0.90245480686E+03 0.  0.
        2    1    3    3  502    0  0.19567629468E+03  0.15665055200E+03  0.11841124758E+04  0.12103515866E+04  0.25500000920E-02 0. -1.
       -2    1    3    3    0  502 -0.19567629468E+03 -0.15665055200E+03 -0.32483740358E+02  0.25275245031E+03  0.25500000920E-02 0.  1.
</event>
<event>
 5   0  0.1003252E-02  0.8978669E+03  0.7818609E-02  0.9428252E-01
       -2   -1    0    0    0  501  0.00000000000E+00  0.00000000000E+00  0.65164054609E+03  0.65164054610E+03  0.25500000920E-02 0.  1.
        2   -1    0    0  501    0  0.00000000000E+00  0.00000000000E+00 -0.30928281728E+03  0.30928281729E+03  0.25500000920E-02 0. -1.
    10030    2    1    2    0    0  0.00000000000E+00  0.00000000000E+00  0.34235772881E+03  0.96092336339E+03  0.89786685863E+03 0.  0.
        2    1    3    3  502    0  0.72283718133E+02 -0.24856879428E+03 -0.22136313315E+03  0.34060683804E+03  0.25500000920E-02 0. -1.
       -2    1    3    3    0  502 -0.72283718133E+02  0.24856879428E+03  0.56372086196E+03  0.62031652534E+03  0.25500000920E-02 0.  1.
</event>
<event>
 5   0  0.1041727E-02  0.9002913E+03  0.7818609E-02  0.9425217E-01
       -2   -1    0    0    0  501  0.00000000000E+00  0.00000000000E+00  0.13771173913E+03  0.13771173916E+03  0.25500000920E-02 0. -1.
        2   -1    0    0  501    0  0.00000000000E+00  0.00000000000E+00 -0.14714147534E+04  0.14714147534E+04  0.25500000920E-02 0.  1.
    10030    2    1    2    0    0  0.00000000000E+00  0.00000000000E+00 -0.13337030143E+04  0.16091264925E+04  0.90029125219E+03 0.  0.
        4    1    3    3  502    0 -0.39587505191E+03  0.20892631953E+03 -0.58184083914E+03  0.73410328886E+03  0.12699999809E+01 0.  1.
       -4    1    3    3    0  502  0.39587505191E+03 -0.20892631953E+03 -0.75186217512E+03  0.87502320369E+03  0.12699999809E+01 0. -1.
</event>
<event>
 5   0  0.3996375E-03  0.8842020E+03  0.7818609E-02  0.9445548E-01
       -3   -1    0    0    0  501  0.00000000000E+00  0.00000000000E+00  0.14846557600E+03  0.14846561035E+03  0.10100000352E+00 0.  1.
        3   -1    0    0  501    0  0.00000000000E+00  0.00000000000E+00 -0.13164887865E+04  0.13164887904E+04  0.10100000352E+00 0. -1.
    10030    2    1    2    0    0  0.00000000000E+00  0.00000000000E+00 -0.11680232105E+04  0.14649544007E+04  0.88420199951E+03 0.  0.
        2    1    3    3  502    0  0.32742054025E+03  0.55929926077E+02 -0.10673939531E+04  0.11178829178E+04  0.25500000920E-02 0. -1.
       -2    1    3    3    0  502 -0.32742054025E+03 -0.55929926077E+02 -0.10062925741E+03  0.34707148293E+03  0.25500000920E-02 0.  1.
</event>
<event>
 5   0  0.6015709E-03  0.9030029E+03  0.7818609E-02  0.9421835E-01
        1   -1    0    0  501    0  0.00000000000E+00  0.00000000000E+00  0.38945210520E+03  0.38945210523E+03  0.50400001928E-02 0.  1.
       -1   -1    0    0    0  501  0.00000000000E+00  0.00000000000E+00 -0.52343682253E+03  0.52343682256E+03  0.50400001928E-02 0. -1.
    10030    2    1    2    0    0  0.00000000000E+00  0.00000000000E+00 -0.13398471734E+03  0.91288892779E+03  0.90300292912E+03 0.  0.
        3    1    3    3  502    0 -0.28335065531E+03 -0.19440632429E+03 -0.36306748793E+03  0.49989941367E+03  0.10100000352E+00 0. -1.
       -3    1    3    3    0  502  0.28335065531E+03  0.19440632429E+03  0.22908277059E+03  0.41298951412E+03  0.10100000352E+00 0.  1.
</event>
<event>
 5   0  0.6137243E-03  0.8971302E+03  0.7818609E-02  0.9429176E-01
       -1   -1    0    0    0  501  0.00000000000E+00  0.00000000000E+00  0.63407149618E+03  0.63407149620E+03  0.50400001928E-02 0.  1.
        1   -1    0    0  501    0  0.00000000000E+00  0.00000000000E+00 -0.31733115216E+03  0.31733115220E+03  0.50400001928E-02 0. -1.
    10030    2    1    2    0    0  0.00000000000E+00  0.00000000000E+00  0.31674034402E+03  0.95140264840E+03  0.89713017665E+03 0.  0.
        4    1    3    3  502    0 -0.22767104082E+03 -0.24906095235E+03 -0.15504812549E+03  0.37135831071E+03  0.12699999809E+01 0. -1.
       -4    1    3    3    0  502  0.22767104082E+03  0.24906095235E+03  0.47178846952E+03  0.58004433769E+03  0.12699999809E+01 0.  1.
</event>
<event>
 5   0  0.1033749E-02  0.1000972E+04  0.7818609E-02  0.9307479E-01
        2   -1    0    0  501    0  0.00000000000E+00  0.00000000000E+00  0.73911178834E+03  0.73911178834E+03  0.25500000920E-02 0. -1.
       -2   -1    0    0    0  501  0.00000000000E+00  0.00000000000E+00 -0.33890195715E+03  0.33890195716E+03  0.25500000920E-02 0.  1.
    10030    2    1    2    0    0  0.00000000000E+00  0.00000000000E+00  0.40020983119E+03  0.10780137455E+04  0.10009723905E+04 0.  0.
        5    1    3    3  502    0 -0.16907848180E+03 -0.46054650401E+03  0.30657614910E+03  0.57853404443E+03  0.46999998093E+01 0. -1.
       -5    1    3    3    0  502  0.16907848180E+03  0.46054650401E+03  0.93633682084E+02  0.49947970108E+03  0.46999998093E+01 0.  1.
</event>
<event>
 5   0  0.6015709E-03  0.9062335E+03  0.7818609E-02  0.9417823E-01
        1   -1    0    0  501    0  0.00000000000E+00  0.00000000000E+00  0.94220866615E+03  0.94220866616E+03  0.50400001928E-02 0. -1.
       -1   -1    0    0    0  501  0.00000000000E+00  0.00000000000E+00 -0.21790796025E+03  0.21790796031E+03  0.50400001928E-02 0.  1.
    10030    2    1    2    0    0  0.00000000000E+00  0.00000000000E+00  0.72430070590E+03  0.11601166265E+04  0.90623345472E+03 0.  0.
        3    1    3    3  502    0  0.21709725098E+03  0.10066104774E+03 -0.13041865135E+03  0.27253054459E+03  0.10100000352E+00 0.  1.
       -3    1    3    3    0  502 -0.21709725098E+03 -0.10066104774E+03  0.85471935724E+03  0.88758608189E+03  0.10100000352E+00 0. -1.
</event>
<event>
 5   0  0.6092779E-03  0.8854696E+03  0.7818609E-02  0.9443930E-01
        1   -1    0    0  501    0  0.00000000000E+00  0.00000000000E+00  0.23968716986E+03  0.23968716992E+03  0.50400001928E-02 0.  1.
       -1   -1    0    0    0  501  0.00000000000E+00  0.00000000000E+00 -0.81779136284E+03  0.81779136285E+03  0.50400001928E-02 0. -1.
    10030    2    1    2    0    0  0.00000000000E+00  0.00000000000E+00 -0.57810419297E+03  0.10574785328E+04  0.88546958690E+03 0.  0.
        2    1    3    3  502    0 -0.14061945020E+03  0.40665673733E+03 -0.16453643505E+03  0.46066882927E+03  0.25500000920E-02 0.  1.
       -2    1    3    3    0  502  0.14061945020E+03 -0.40665673733E+03 -0.41356775792E+03  0.59680970350E+03  0.25500000920E-02 0. -1.
</event>
<event>
 5   0  0.1028978E-02  0.9005795E+03  0.7818609E-02  0.9424857E-01
        2   -1    0    0  501    0  0.00000000000E+00  0.00000000000E+00  0.11355258786E+04  0.11355258786E+04  0.25500000920E-02 0.  1.
       -2   -1    0    0    0  501  0.00000000000E+00  0.00000000000E+00 -0.17856120379E+03  0.17856120381E+03  0.25500000920E-02 0. -1.
    10030    2    1    2    0    0  0.00000000000E+00  0.00000000000E+00  0.95696467478E+03  0.13140870824E+04  0.90057951972E+03 0.  0.
        3    1    3    3  502    0  0.11876834012E+03 -0.28813863801E+03  0.42426369670E+01  0.31168542394E+03  0.10100000352E+00 0. -1.
       -3    1    3    3    0  502 -0.11876834012E+03  0.28813863801E+03  0.95272203782E+03  0.10024016585E+04  0.10100000352E+00 0.  1.
</event>
<event>
 5   0  0.6015709E-03  0.8918222E+03  0.7818609E-02  0.9435862E-01
       -1   -1    0    0    0  501  0.00000000000E+00  0.00000000000E+00  0.60238668557E+03  0.60238668559E+03  0.50400001928E-02 0.  1.
        1   -1    0    0  501    0  0.00000000000E+00  0.00000000000E+00 -0.33008148647E+03  0.33008148650E+03  0.50400001928E-02 0. -1.
    10030    2    1    2    0    0  0.00000000000E+00  0.00000000000E+00  0.27230519911E+03  0.93246817210E+03  0.89182216305E+03 0.  0.
        3    1    3    3  502    0  0.15781668201E+03 -0.98461712129E+02  0.55988313493E+03  0.58997453238E+03  0.10100000352E+00 0.  1.
       -3    1    3    3    0  502 -0.15781668201E+03  0.98461712129E+02 -0.28757793582E+03  0.34249363972E+03  0.10100000352E+00 0. -1.
</event>
<event>
 5   0  0.6015709E-03  0.8970877E+03  0.7818609E-02  0.9429229E-01
        1   -1    0    0  501    0  0.00000000000E+00  0.00000000000E+00  0.11163952544E+04  0.11163952545E+04  0.50400001928E-02 0.  1.
       -1   -1    0    0    0  501  0.00000000000E+00  0.00000000000E+00 -0.18021536243E+03  0.18021536250E+03  0.50400001928E-02 0. -1.
    10030    2    1    2    0    0  0.00000000000E+00  0.00000000000E+00  0.93617989202E+03  0.12966106170E+04  0.89708767787E+03 0.  0.
        3    1    3    3  502    0  0.24009961202E+03 -0.37603146053E+03  0.40116386387E+03  0.59998328217E+03  0.10100000352E+00 0. -1.
       -3    1    3    3    0  502 -0.24009961202E+03  0.37603146053E+03  0.53501602815E+03  0.69662733479E+03  0.10100000352E+00 0.  1.
</event>
<event>
 5   0  0.6015709E-03  0.8949002E+03  0.7818609E-02  0.9431979E-01
       -1   -1    0    0    0  501  0.00000000000E+00  0.00000000000E+00  0.34151787447E+03  0.34151787450E+03  0.50400001928E-02 0. -1.
        1   -1    0    0  501    0  0.00000000000E+00  0.00000000000E+00 -0.58624044099E+03  0.58624044101E+03  0.50400001928E-02 0.  1.
    10030    2    1    2    0    0  0.00000000000E+00  0.00000000000E+00 -0.24472256653E+03  0.92775831552E+03  0.89490019413E+03 0.  0.
        3    1    3    3  502    0  0.28615742060E+03 -0.19527993285E+03  0.17121689118E+03  0.38643958851E+03  0.10100000352E+00 0. -1.
       -3    1    3    3    0  502 -0.28615742060E+03  0.19527993285E+03 -0.41593945770E+03  0.54131872701E+03  0.10100000352E+00 0.  1.
</event>
<event>
 5   0  0.3996375E-03  0.9056240E+03  0.7818609E-02  0.9418578E-01
       -4   -1    0    0    0  501  0.00000000000E+00  0.00000000000E+00  0.19866817928E+03  0.19867223852E+03  0.12699999809E+01 0. -1.
        4   -1    0    0  501    0  0.00000000000E+00  0.00000000000E+00 -0.10320512292E+04  0.10320520106E+04  0.12699999809E+01 0.  1.
    10030    2    1    2    0    0  0.00000000000E+00  0.00000000000E+00 -0.83338304988E+03  0.12307242491E+04  0.90562402212E+03 0.  0.
        4    1    3    3  502    0  0.41569309783E+03  0.17731122037E+03 -0.45505914600E+03  0.64134270067E+03  0.12699999809E+01 0. -1.
       -4    1    3    3    0  502 -0.41569309783E+03 -0.17731122037E+03 -0.37832390388E+03  0.58938154840E+03  0.12699999809E+01 0.  1.
</event>
<event>
 5   0  0.6137243E-03  0.9924027E+03  0.7818609E-02  0.9316917E-01
        1   -1    0    0  501    0  0.00000000000E+00  0.00000000000E+00  0.32715176672E+03  0.32715176676E+03  0.50400001928E-02 0.  1.
       -1   -1    0    0    0  501  0.00000000000E+00  0.00000000000E+00 -0.75260423257E+03  0.75260423258E+03  0.50400001928E-02 0. -1.
    10030    2    1    2    0    0  0.00000000000E+00  0.00000000000E+00 -0.42545246585E+03  0.10797559993E+04  0.99240274960E+03 0.  0.
        4    1    3    3  502    0  0.91974403758E+02 -0.10325648166E+03 -0.73121522472E+03  0.74417639691E+03  0.12699999809E+01 0. -1.
       -4    1    3    3    0  502 -0.91974403758E+02  0.10325648166E+03  0.30576275887E+03  0.33557960243E+03  0.12699999809E+01 0.  1.
</event>
<event>
 5   0  0.6137243E-03  0.9010905E+03  0.7818609E-02  0.9424219E-01
       -1   -1    0    0    0  501  0.00000000000E+00  0.00000000000E+00  0.35482007192E+03  0.35482007196E+03  0.50400001928E-02 0.  1.
        1   -1    0    0  501    0  0.00000000000E+00  0.00000000000E+00 -0.57209563650E+03  0.57209563652E+03  0.50400001928E-02 0. -1.
    10030    2    1    2    0    0  0.00000000000E+00  0.00000000000E+00 -0.21727556458E+03  0.92691570848E+03  0.90109048362E+03 0.  0.
        4    1    3    3  502    0  0.92897055648E+02 -0.39481320185E+03  0.93152885863E+02  0.41615670167E+03  0.12699999809E+01 0.  1.
       -4    1    3    3    0  502 -0.92897055648E+02  0.39481320185E+03 -0.31042845044E+03  0.51075900682E+03  0.12699999809E+01 0. -1.
</event>
<event>
 5   0  0.1028978E-02  0.9052699E+03  0.7818609E-02  0.9419018E-01
       -2   -1    0    0    0  501  0.00000000000E+00  0.00000000000E+00  0.18917977228E+03  0.18917977230E+03  0.25500000920E-02 0.  1.
        2   -1    0    0  501    0  0.00000000000E+00  0.00000000000E+00 -0.10829826915E+04  0.10829826915E+04  0.25500000920E-02 0. -1.
    10030    2    1    2    0    0  0.00000000000E+00  0.00000000000E+00 -0.89380291924E+03  0.12721624638E+04  0.90526994644E+03 0.  0.
        3    1    3    3  502    0  0.40498610136E+03 -0.63763183796E+01 -0.16296425634E+03  0.43659106584E+03  0.10100000352E+00 0.  1.
       -3    1    3    3    0  502 -0.40498610136E+03  0.63763183796E+01 -0.73083866290E+03  0.83557139798E+03  0.10100000352E+00 0. -1.
</event>
<event>
 5   0  0.1041727E-02  0.8937976E+03  0.7818609E-02  0.9433368E-01
        2   -1    0    0  501    0  0.00000000000E+00  0.00000000000E+00  0.12257338862E+04  0.12257338862E+04  0.25500000920E-02 0. -1.
       -2   -1    0    0    0  501  0.00000000000E+00  0.00000000000E+00 -0.16293794316E+03  0.16293794318E+03  0.25500000920E-02 0.  1.
    10030    2    1    2    0    0  0.00000000000E+00  0.00000000000E+00  0.10627959430E+04  0.13886718294E+04  0.89379764665E+03 0.  0.
        4    1    3    3  502    0  0.32294471171E+03  0.20809671747E+02  0.52546561080E+02  0.32785527790E+03  0.12699999809E+01 0.  1.
       -4    1    3    3    0  502 -0.32294471171E+03 -0.20809671747E+02  0.10102493819E+04  0.10608165515E+04  0.12699999809E+01 0. -1.
</event>
<event>
 5   0  0.1041727E-02  0.8920085E+03  0.7818609E-02  0.9435627E-01
       -2   -1    0    0    0  501  0.00000000000E+00  0.00000000000E+00  0.12587204556E+03  0.12587204558E+03  0.25500000920E-02 0. -1.
        2   -1    0    0  501    0  0.00000000000E+00  0.00000000000E+00 -0.15803334065E+04  0.15803334065E+04  0.25500000920E-02 0.  1.
    10030    2    1    2    0    0  0.00000000000E+00  0.00000000000E+00 -0.14544613610E+04  0.17062054521E+04  0.89200851693E+03 0.  0.
        4    1    3    3  502    0  0.72143883442E+02  0.41709917193E+03 -0.45847670941E+03  0.62400237589E+03  0.12699999809E+01 0. -1.
       -4    1    3    3    0  502 -0.72143883442E+02 -0.41709917193E+03 -0.99598465156E+03  0.10822030762E+04  0.12699999809E+01 0.  1.
</event>
<event>
 5   0  0.6211218E-03  0.8992870E+03  0.7818609E-02  0.9426473E-01
       -1   -1    0    0    0  501  0.00000000000E+00  0.00000000000E+00  0.24728258743E+03  0.24728258748E+03  0.50400001928E-02 0. -1.
        1   -1    0    0  501    0  0.00000000000E+00  0.00000000000E+00 -0.81760416934E+03  0.81760416935E+03  0.50400001928E-02 0.  1.
    10030    2    1    2    0    0  0.00000000000E+00  0.00000000000E+00 -0.57032158191E+03  0.10648867568E+04  0.89928699428E+03 0.  0.
        5    1    3    3  502    0 -0.24639858996E+03  0.35841119668E+03 -0.15021840365E+03  0.46017226104E+03  0.46999998093E+01 0. -1.
       -5    1    3    3    0  502  0.24639858996E+03 -0.35841119668E+03 -0.42010317826E+03  0.60471449579E+03  0.46999998093E+01 0.  1.
</event>
<event>
 5   0  0.6015709E-03  0.8965376E+03  0.7818609E-02  0.9429920E-01
       -1   -1    0    0    0  501  0.00000000000E+00  0.00000000000E+00  0.34173752045E+03  0.34173752049E+03  0.50400001928E-02 0.  1.
        1   -1    0    0  501    0  0.00000000000E+00  0.00000000000E+00 -0.58800953663E+03  0.58800953665E+03  0.50400001928E-02 0. -1.
    10030    2    1    2    0    0  0.00000000000E+00  0.00000000000E+00 -0.24627201618E+03  0.92974705713E+03  0.89653760897E+03 0.  0.
        3    1    3    3  502    0  0.35289095075E+03  0.14113723043E+03 -0.36962315171E+03  0.53016320639E+03  0.10100000352E+00 0. -1.
       -3    1    3    3    0  502 -0.35289095075E+03 -0.14113723043E+03  0.12335113553E+03  0.39958385074E+03  0.10100000352E+00 0.  1.
</event>
<event>
 5   0  0.1041727E-02  0.8965343E+03  0.7818609E-02  0.9429924E-01
       -2   -1    0    0    0  501  0.00000000000E+00  0.00000000000E+00  0.29632217146E+03  0.29632217147E+03  0.25500000920E-02 0. -1.
        2   -1    0    0  501    0  0.00000000000E+00  0.00000000000E+00 -0.67812494289E+03  0.67812494289E+03  0.25500000920E-02 0.  1.
    10030    2    1    2    0    0  0.00000000000E+00  0.00000000000E+00 -0.38180277143E+03  0.97444711436E+03  0.89653433979E+03 0.  0.
        4    1    3    3  502    0  0.21693123984E+03  0.19493104749E+03  0.17910067717E+03  0.34225128423E+03  0.12699999809E+01 0. -1.
       -4    1    3    3    0  502 -0.21693123984E+03 -0.19493104749E+03 -0.56090344859E+03  0.63219583013E+03  0.12699999809E+01 0.  1.
</event>
<event>
 5   0  0.1033749E-02  0.9007101E+03  0.7818609E-02  0.9424694E-01
        2   -1    0    0  501    0  0.00000000000E+00  0.00000000000E+00  0.11284892097E+04  0.11284892097E+04  0.25500000920E-02 0.  1.
       -2   -1    0    0    0  501  0.00000000000E+00  0.00000000000E+00 -0.17972671893E+03  0.17972671895E+03  0.25500000920E-02 0. -1.
    10030    2    1    2    0    0  0.00000000000E+00  0.00000000000E+00  0.94876249078E+03  0.13082159287E+04  0.90071008217E+03 0.  0.
        5    1    3    3  502    0 -0.10350338996E+03 -0.20194548933E+03 -0.90578705554E+02  0.24437987702E+03  0.46999998093E+01 0. -1.
       -5    1    3    3    0  502  0.10350338996E+03  0.20194548933E+03  0.10393411963E+04  0.10638360517E+04  0.46999998093E+01 0.  1.
</event>
<event>
 5   0  0.6211218E-03  0.8956534E+03  0.7818609E-02  0.9431031E-01
        1   -1    0    0  501    0  0.00000000000E+00  0.00000000000E+00  0.12641673653E+04  0.12641673653E+04  0.50400001928E-02 0.  1.
       -1   -1    0    0    0  501  0.00000000000E+00  0.00000000000E+00 -0.15864099511E+03  0.15864099519E+03  0.50400001928E-02 0. -1.
    10030    2    1    2    0    0  0.00000000000E+00  0.00000000000E+00  0.11055263702E+04  0.14228083605E+04  0.89565343495E+03 0.  0.
        5    1    3    3  502    0 -0.19991359689E+03  0.32417182426E+03  0.92691737223E+03  0.10021231076E+04  0.46999998093E+01 0.  1.
       -5    1    3    3    0  502  0.19991359689E+03 -0.32417182426E+03  0.17860899799E+03  0.42068525292E+03  0.46999998093E+01 0. -1.
</event>
<event>
 5   0  0.6015709E-03  0.9083794E+03  0.7818609E-02  0.9415167E-01
       -1   -1    0    0    0  501  0.00000000000E+00  0.00000000000E+00  0.12141518284E+03  0.12141518294E+03  0.50400001928E-02 0. -1.
        1   -1    0    0  501    0  0.00000000000E+00  0.00000000000E+00 -0.16990320011E+04  0.16990320011E+04  0.50400001928E-02 0.  1.
    10030    2    1    2    0    0  0.00000000000E+00  0.00000000000E+00 -0.15776168182E+04  0.18204471840E+04  0.90837939466E+03 0.  0.
        3    1    3    3  502    0  0.25431578317E+03  0.24345235770E+03 -0.21373489164E+03  0.41185942037E+03  0.10100000352E+00 0. -1.
       -3    1    3    3    0  502 -0.25431578317E+03 -0.24345235770E+03 -0.13638819266E+04  0.14085877636E+04  0.10100000352E+00 0.  1.
</event>
<event>
 5   0  0.1003252E-02  0.8918485E+03  0.7818609E-02  0.9435829E-01
       -2   -1    0    0    0  501  0.00000000000E+00  0.00000000000E+00  0.12482798009E+03  0.12482798012E+03  0.25500000920E-02 0. -1.
        2   -1    0    0  501    0  0.00000000000E+00  0.00000000000E+00 -0.15929795682E+04  0.15929795682E+04  0.25500000920E-02 0.  1.
    10030    2    1    2    0    0  0.00000000000E+00  0.00000000000E+00 -0.14681515882E+04  0.17178075484E+04  0.89184846662E+03 0.  0.
        2    1    3    3  502    0 -0.14581346954E+03 -0.41339571740E+03 -0.57652391414E+03  0.72424954998E+03  0.25500000920E-02 0. -1.
       -2    1    3    3    0  502  0.14581346954E+03  0.41339571740E+03 -0.89162767402E+03  0.99355799838E+03  0.25500000920E-02 0.  1.
</event>
<event>
 5   0  0.1033749E-02  0.9774186E+03  0.7818609E-02  0.9333664E-01
       -2   -1    0    0    0  501  0.00000000000E+00  0.00000000000E+00  0.51402611772E+03  0.51402611773E+03  0.25500000920E-02 0.  1.
        2   -1    0    0  501    0  0.00000000000E+00  0.00000000000E+00 -0.46463937358E+03  0.46463937359E+03  0.25500000920E-02 0. -1.
    10030    2    1    2    0    0  0.00000000000E+00  0.00000000000E+00  0.49386744141E+02  0.97866549131E+03  0.97741858658E+03 0.  0.
        5    1    3    3  502    0  0.29312336184E+03 -0.38613551290E+03  0.86357193242E+02  0.49244450896E+03  0.46999998093E+01 0.  1.
       -5    1    3    3    0  502 -0.29312336184E+03  0.38613551290E+03 -0.36970449101E+02  0.48622098236E+03  0.46999998093E+01 0. -1.
</event>
<event>
 5   0  0.1017079E-02  0.9059720E+03  0.7818609E-02  0.9418147E-01
        2   -1    0    0  501    0  0.00000000000E+00  0.00000000000E+00  0.11638296280E+04  0.11638296280E+04  0.25500000920E-02 0. -1.
       -2   -1    0    0    0  501  0.00000000000E+00  0.00000000000E+00 -0.17631130916E+03  0.17631130917E+03  0.25500000920E-02 0.  1.
    10030    2    1    2    0    0  0.00000000000E+00  0.00000000000E+00  0.98751831880E+03  0.13401409371E+04  0.90597202022E+03 0.  0.
        1    1    3    3  502    0  0.42733749165E+03  0.44494292361E+01  0.71593534103E+03  0.83378686830E+03  0.50400001928E-02 0.  1.
       -1    1    3    3    0  502 -0.42733749165E+03 -0.44494292361E+01  0.27158297778E+03  0.50635406884E+03  0.50400001928E-02 0. -1.
</event>
<event>
 5   0  0.1041727E-02  0.9087692E+03  0.7818609E-02  0.9414685E-01
       -2   -1    0    0    0  501  0.00000000000E+00  0.00000000000E+00  0.24970526590E+03  0.24970526591E+03  0.25500000920E-02 0. -1.
        2   -1    0    0  501    0  0.00000000000E+00  0.00000000000E+00 -0.82683632095E+03  0.82683632095E+03  0.25500000920E-02 0.  1.
    10030    2    1    2    0    0  0.00000000000E+00  0.00000000000E+00 -0.57713105505E+03  0.10765415869E+04  0.90876924108E+03 0.  0.
        4    1    3    3  502    0  0.20176991155E+02 -0.17177741446E+02 -0.82591810974E+03  0.82634407039E+03  0.12699999809E+01 0.  1.
       -4    1    3    3    0  502 -0.20176991155E+02  0.17177741446E+02  0.24878705468E+03  0.25019751648E+03  0.12699999809E+01 0. -1.
</event>
<event>
 5   0  0.1033749E-02  0.9138173E+03  0.7818609E-02  0.9408472E-01
       -2   -1    0    0    0  501  0.00000000000E+00  0.00000000000E+00  0.57619374328E+03  0.57619374329E+03  0.25500000920E-02 0.  1.
        2   -1    0    0  501    0  0.00000000000E+00  0.00000000000E+00 -0.36231827691E+03  0.36231827692E+03  0.25500000920E-02 0. -1.
    10030    2    1    2    0    0  0.00000000000E+00  0.00000000000E+00  0.21387546637E+03  0.93851202021E+03  0.91381732144E+03 0.  0.
        5    1    3    3  502    0  0.11589257520E+03 -0.35708193622E+03 -0.16049267589E+03  0.40831187489E+03  0.46999998093E+01 0. -1.
       -5    1    3    3    0  502 -0.11589257520E+03  0.35708193622E+03  0.37436814226E+03  0.53020014532E+03  0.46999998093E+01 0.  1.
</event>
<event>
 5   0  0.1028978E-02  0.9017957E+03  0.7818609E-02  0.9423339E-01
       -2   -1    0    0    0  501  0.00000000000E+00  0.00000000000E+00  0.11379434664E+03  0.11379434667E+03  0.25500000920E-02 0.  1.
        2   -1    0    0  501    0  0.00000000000E+00  0.00000000000E+00 -0.17866342033E+04  0.17866342033E+04  0.25500000920E-02 0. -1.
    10030    2    1    2    0    0  0.00000000000E+00  0.00000000000E+00 -0.16728398566E+04  0.19004285499E+04  0.90179570164E+03 0.  0.
        3    1    3    3  502    0  0.45603700837E+02  0.19408184377E+03 -0.16887028727E+04  0.17004307872E+04  0.10100000352E+00 0. -1.
       -3    1    3    3    0  502 -0.45603700837E+02 -0.19408184377E+03  0.15863016085E+02  0.19999776272E+03  0.10100000352E+00 0.  1.
</event>
<event>
 5   0  0.6092779E-03  0.8862864E+03  0.7818609E-02  0.9442888E-01
        1   -1    0    0  501    0  0.00000000000E+00  0.00000000000E+00  0.43242491909E+03  0.43242491912E+03  0.50400001928E-02 0.  1.
       -1   -1    0    0    0  501  0.00000000000E+00  0.00000000000E+00 -0.45412714686E+03  0.45412714689E+03  0.50400001928E-02 0. -1.
    10030    2    1    2    0    0  0.00000000000E+00  0.00000000000E+00 -0.21702227772E+02  0.88655206601E+03  0.88628639787E+03 0.  0.
        2    1    3    3  502    0  0.10451584484E+03  0.39601814531E+03  0.15837986200E+03  0.43913336691E+03  0.25500000920E-02 0.  1.
       -2    1    3    3    0  502 -0.10451584484E+03 -0.39601814531E+03 -0.18008208977E+03  0.44741869910E+03  0.25500000920E-02 0. -1.
</event>
<event>
 5   0  0.1033749E-02  0.8793172E+03  0.7818609E-02  0.9451812E-01
       -2   -1    0    0    0  501  0.00000000000E+00  0.00000000000E+00  0.75819182604E+03  0.75819182605E+03  0.25500000920E-02 0. -1.
        2   -1    0    0  501    0  0.00000000000E+00  0.00000000000E+00 -0.25494824956E+03  0.25494824957E+03  0.25500000920E-02 0.  1.
    10030    2    1    2    0    0  0.00000000000E+00  0.00000000000E+00  0.50324357649E+03  0.10131400756E+04  0.87931718711E+03 0.  0.
        5    1    3    3  502    0  0.29024801507E+03 -0.24060362697E+03 -0.89452441230E+01  0.37714204612E+03  0.46999998093E+01 0. -1.
       -5    1    3    3    0  502 -0.29024801507E+03  0.24060362697E+03  0.51218882061E+03  0.63599802949E+03  0.46999998093E+01 0.  1.
</event>
<event>
 5   0  0.6211218E-03  0.8861937E+03  0.7818609E-02  0.9443006E-01
        1   -1    0    0  501    0  0.00000000000E+00  0.00000000000E+00  0.45616328756E+03  0.45616328758E+03  0.50400001928E-02 0.  1.
       -1   -1    0    0    0  501  0.00000000000E+00  0.00000000000E+00 -0.43040466797E+03  0.43040466800E+03  0.50400001928E-02 0. -1.
    10030    2    1    2    0    0  0.00000000000E+00  0.00000000000E+00  0.25758619583E+02  0.88656795559E+03  0.88619367713E+03 0.  0.
        5    1    3    3  502    0  0.20738519407E+02 -0.44078744020E+03  0.52759220428E+02  0.44444266105E+03  0.46999998093E+01 0.  1.
       -5    1    3    3    0  502 -0.20738519407E+02  0.44078744020E+03 -0.27000600845E+02  0.44212529453E+03  0.46999998093E+01 0. -1.
</event>
<event>
 5   0  0.6211218E-03  0.8818376E+03  0.7818609E-02  0.9448574E-01
        1   -1    0    0  501    0  0.00000000000E+00  0.00000000000E+00  0.16398059581E+04  0.16398059581E+04  0.50400001928E-02 0. -1.
       -1   -1    0    0    0  501  0.00000000000E+00  0.00000000000E+00 -0.11855633607E+03  0.11855633618E+03  0.50400001928E-02 0.  1.
    10030    2    1    2    0    0  0.00000000000E+00  0.00000000000E+00  0.15212496220E+04  0.17583622943E+04  0.88183759586E+03 0.  0.
        5    1    3    3  502    0 -0.32334483276E+03 -0.29655188066E+03  0.67388350775E+03  0.80413678613E+03  0.46999998093E+01 0.  1.
       -5    1    3    3    0  502  0.32334483276E+03  0.29655188066E+03  0.84736611429E+03  0.95422550817E+03  0.46999998093E+01 0. -1.
</event>
<event>
 5   0  0.6211218E-03  0.9080343E+03  0.7818609E-02  0.9415593E-01
        1   -1    0    0  501    0  0.00000000000E+00  0.00000000000E+00  0.64107135407E+03  0.64107135409E+03  0.50400001928E-02 0. -1.
       -1   -1    0    0    0  501  0.00000000000E+00  0.00000000000E+00 -0.32154234641E+03  0.32154234645E+03  0.50400001928E-02 0.  1.
    10030    2    1    2    0    0  0.00000000000E+00  0.00000000000E+00  0.31952900767E+03  0.96261370054E+03  0.90803433290E+03 0.  0.
        5    1    3    3  502    0  0.39909307479E+03  0.10664204067E+03  0.35939619458E+03  0.54757238961E+03  0.46999998093E+01 0. -1.
       -5    1    3    3    0  502 -0.39909307479E+03 -0.10664204067E+03 -0.39867186914E+02  0.41504131093E+03  0.46999998093E+01 0.  1.
</event>
<event>
 5   0  0.6137243E-03  0.8918276E+03  0.7818609E-02  0.9435855E-01
        1   -1    0    0  501    0  0.00000000000E+00  0.00000000000E+00  0.17411406356E+03  0.17411406363E+03  0.50400001928E-02 0.  1.
       -1   -1    0    0    0  501  0.00000000000E+00  0.00000000000E+00 -0.11420048461E+04  0.11420048461E+04  0.50400001928E-02 0. -1.
    10030    2    1    2    0    0  0.00000000000E+00  0.00000000000E+00 -0.96789078250E+03  0.13161189097E+04  0.89182757168E+03 0.  0.
        4    1    3    3  502    0 -0.36986273688E+02  0.10829438280E+03  0.15207215728E+03  0.19032396514E+03  0.12699999809E+01 0.  1.
       -4    1    3    3    0  502  0.36986273688E+02 -0.10829438280E+03 -0.11199629398E+04  0.11257949446E+04  0.12699999809E+01 0. -1.
</event>
<event>
 5   0  0.1028978E-02  0.8974448E+03  0.7818609E-02  0.9428781E-01
        2   -1    0    0  501    0  0.00000000000E+00  0.00000000000E+00  0.22209337968E+03  0.22209337970E+03  0.25500000920E-02 0.  1.
       -2   -1    0    0    0  501  0.00000000000E+00  0.00000000000E+00 -0.90660861375E+03  0.90660861376E+03  0.25500000920E-02 0. -1.
    10030    2    1    2    0    0  0.00000000000E+00  0.00000000000E+00 -0.68451523407E+03  0.11287019935E+04  0.89744475282E+03 0.  0.
        3    1    3    3  502    0 -0.16718646372E+01 -0.30932102122E+03 -0.75109098748E+03  0.81229303270E+03  0.10100000352E+00 0. -1.
       -3    1    3    3    0  502  0.16718646372E+01  0.30932102122E+03  0.66575753414E+02  0.31640896075E+03  0.10100000352E+00 0.  1.
</event>
<event>
 5   0  0.3996375E-03  0.9082482E+03  0.7818609E-02  0.9415329E-01
        4   -1    0    0  501    0  0.00000000000E+00  0.00000000000E+00  0.30483748081E+03  0.30484012630E+03  0.12699999809E+01 0. -1.
       -4   -1    0    0    0  501  0.00000000000E+00  0.00000000000E+00 -0.67651404099E+03  0.67651523305E+03  0.12699999809E+01 0.  1.
    10030    2    1    2    0    0  0.00000000000E+00  0.00000000000E+00 -0.37167656018E+03  0.98135535936E+03  0.90824824577E+03 0.  0.
        4    1    3    3  502    0 -0.37921576059E+03 -0.13495500392E+02 -0.45539978000E+03  0.59277086141E+03  0.12699999809E+01 0.  1.
       -4    1    3    3    0  502  0.37921576059E+03  0.13495500392E+02  0.83723219818E+02  0.38858449795E+03  0.12699999809E+01 0. -1.
</event>
<event>
 5   0  0.6137243E-03  0.8897441E+03  0.7818609E-02  0.9438493E-01
        1   -1    0    0  501    0  0.00000000000E+00  0.00000000000E+00  0.54785781437E+03  0.54785781440E+03  0.50400001928E-02 0. -1.
       -1   -1    0    0    0  501  0.00000000000E+00  0.00000000000E+00 -0.36124544899E+03  0.36124544903E+03  0.50400001928E-02 0.  1.
    10030    2    1    2    0    0  0.00000000000E+00  0.00000000000E+00  0.18661236538E+03  0.90910326342E+03  0.88974410290E+03 0.  0.
        4    1    3    3  502    0  0.32419641303E+03  0.29687632594E+03  0.23476941131E+02  0.44021772657E+03  0.12699999809E+01 0.  1.
       -4    1    3    3    0  502 -0.32419641303E+03 -0.29687632594E+03  0.16313542425E+03  0.46888553685E+03  0.12699999809E+01 0. -1.
</event>
<event>
 5   0  0.1003252E-02  0.8961328E+03  0.7818609E-02  0.9430429E-01
        2   -1    0    0  501    0  0.00000000000E+00  0.00000000000E+00  0.10944848974E+04  0.10944848974E+04  0.25500000920E-02 0. -1.
       -2   -1    0    0    0  501  0.00000000000E+00  0.00000000000E+00 -0.18343195740E+03  0.18343195742E+03  0.25500000920E-02 0.  1.
    10030    2    1    2    0    0  0.00000000000E+00  0.00000000000E+00  0.91105293998E+03  0.12779168548E+04  0.89613281848E+03 0.  0.
        2    1    3    3  502    0  0.41452529870E+03  0.10761774165E+03  0.64336677511E+03  0.77287360474E+03  0.25500000920E-02 0. -1.
       -2    1    3    3    0  502 -0.41452529870E+03 -0.10761774165E+03  0.26768616487E+03  0.50504325008E+03  0.25500000920E-02 0.  1.
</event>
<event>
 5   0  0.1003252E-02  0.9194183E+03  0.7818609E-02  0.9401628E-01
        2   -1    0    0  501    0  0.00000000000E+00  0.00000000000E+00  0.76820147058E+03  0.76820147059E+03  0.25500000920E-02 0. -1.
       -2   -1    0    0    0  501  0.00000000000E+00  0.00000000000E+00 -0.27510035967E+03  0.27510035968E+03  0.25500000920E-02 0.  1.
    10030    2    1    2    0    0  0.00000000000E+00  0.00000000000E+00  0.49310111091E+03  0.10433018303E+04  0.91941829624E+03 0.  0.
        2    1    3    3  502    0 -0.83924441174E+02 -0.32250042442E+03 -0.11279291796E+03  0.35181256079E+03  0.25500000920E-02 0.  1.
       -2    1    3    3    0  502  0.83924441174E+02  0.32250042442E+03  0.60589402888E+03  0.69148926948E+03  0.25500000920E-02 0. -1.
</event>
<event>
 5   0  0.6137243E-03  0.9020281E+03  0.7818609E-02  0.9423050E-01
        1   -1    0    0  501    0  0.00000000000E+00  0.00000000000E+00  0.85491285867E+03  0.85491285869E+03  0.50400001928E-02 0.  1.
       -1   -1    0    0    0  501  0.00000000000E+00  0.00000000000E+00 -0.23793496907E+03  0.23793496912E+03  0.50400001928E-02 0. -1.
    10030    2    1    2    0    0  0.00000000000E+00  0.00000000000E+00  0.61697788960E+03  0.10928478278E+04  0.90202808077E+03 0.  0.
        4    1    3    3  502    0 -0.37092594981E+03 -0.18637436480E+03  0.52211494102E+03  0.66702855158E+03  0.12699999809E+01 0.  1.
       -4    1    3    3    0  502  0.37092594981E+03  0.18637436480E+03  0.94862948585E+02  0.42581927623E+03  0.12699999809E+01 0. -1.
</event>
<event>
 5   0  0.1033749E-02  0.9001811E+03  0.7818609E-02  0.9425355E-01
        2   -1    0    0  501    0  0.00000000000E+00  0.00000000000E+00  0.55016641174E+03  0.55016641174E+03  0.25500000920E-02 0.  1.
       -2   -1    0    0    0  501  0.00000000000E+00  0.00000000000E+00 -0.36821862809E+03  0.36821862810E+03  0.25500000920E-02 0. -1.
    10030    2    1    2    0    0  0.00000000000E+00  0.00000000000E+00  0.18194778365E+03  0.91838503984E+03  0.90018114035E+03 0.  0.
        5    1    3    3  502    0 -0.25035718173E+03  0.23252181425E+03  0.38983869406E+03  0.51840274877E+03  0.46999998093E+01 0.  1.
       -5    1    3    3    0  502  0.25035718173E+03 -0.23252181425E+03 -0.20789091041E+03  0.39998229108E+03  0.46999998093E+01 0. -1.
</event>
<event>
 5   0  0.6015709E-03  0.9041006E+03  0.7818609E-02  0.9420470E-01
        1   -1    0    0  501    0  0.00000000000E+00  0.00000000000E+00  0.13851837996E+04  0.13851837996E+04  0.50400001928E-02 0. -1.
       -1   -1    0    0    0  501  0.00000000000E+00  0.00000000000E+00 -0.14752517557E+03  0.14752517566E+03  0.50400001928E-02 0.  1.
    10030    2    1    2    0    0  0.00000000000E+00  0.00000000000E+00  0.12376586240E+04  0.15327089752E+04  0.90410062119E+03 0.  0.
        3    1    3    3  502    0  0.34435321064E+03  0.18295281985E+03  0.10065223354E+04  0.10794156242E+04  0.10100000352E+00 0. -1.
       -3    1    3    3    0  502 -0.34435321064E+03 -0.18295281985E+03  0.23113628861E+03  0.45329335103E+03  0.10100000352E+00 0.  1.
</event>
<event>
 5   0  0.1041727E-02  0.8992069E+03  0.7818609E-02  0.9426573E-01
        2   -1    0    0  501    0  0.00000000000E+00  0.00000000000E+00  0.53792219800E+03  0.53792219801E+03  0.25500000920E-02 0.  1.
       -2   -1    0    0    0  501  0.00000000000E+00  0.00000000000E+00 -0.37578534669E+03  0.37578534670E+03  0.25500000920E-02 0. -1.
    10030    2    1    2    0    0  0.00000000000E+00  0.00000000000E+00  0.16213685131E+03  0.91370754470E+03  0.89920693875E+03 0.  0.
        4    1    3    3  502    0 -0.19114812816E+03 -0.10955823231E+03 -0.31717137224E+03  0.38618636102E+03  0.12699999809E+01 0. -1.
       -4    1    3    3    0  502  0.19114812816E+03  0.10955823231E+03  0.47930822356E+03  0.52752118368E+03  0.12699999809E+01 0.  1.
</event>
<event>
 5   0  0.3996375E-03  0.8955729E+03  0.7818609E-02  0.9431133E-01
       -3   -1    0    0    0  501  0.00000000000E+00  0.00000000000E+00  0.37140056799E+03  0.37140058172E+03  0.10100000352E+00 0. -1.
        3   -1    0    0  501    0  0.00000000000E+00  0.00000000000E+00 -0.53988255533E+03  0.53988256478E+03  0.10100000352E+00 0.  1.
    10030    2    1    2    0    0  0.00000000000E+00  0.00000000000E+00 -0.16848198734E+03  0.91128314650E+03  0.89557288538E+03 0.  0.
        1    1    3    3  502    0  0.28232168377E+03  0.11846667956E+03 -0.41673417262E+03  0.51711435674E+03  0.50400001928E-02 0.  1.
       -1    1    3    3    0  502 -0.28232168377E+03 -0.11846667956E+03  0.24825218528E+03  0.39416878975E+03  0.50400001928E-02 0. -1.
</event>
<event>
 5   0  0.3996375E-03  0.8995405E+03  0.7818609E-02  0.9426156E-01
        4   -1    0    0  501    0  0.00000000000E+00  0.00000000000E+00  0.11404006801E+04  0.11404013872E+04  0.12699999809E+01 0. -1.
       -4   -1    0    0    0  501  0.00000000000E+00  0.00000000000E+00 -0.17738486101E+03  0.17738940728E+03  0.12699999809E+01 0.  1.
    10030    2    1    2    0    0  0.00000000000E+00  0.00000000000E+00  0.96301581907E+03  0.13177907945E+04  0.89954049957E+03 0.  0.
        4    1    3    3  502    0  0.37665162695E+03  0.32779772231E+02  0.12461437322E+03  0.39808455944E+03  0.12699999809E+01 0.  1.
       -4    1    3    3    0  502 -0.37665162695E+03 -0.32779772231E+02  0.83840144585E+03  0.91970623509E+03  0.12699999809E+01 0. -1.
</event>
<event>
 5   0  0.6288003E-03  0.9336686E+03  0.7818609E-02  0.9384446E-01
        1   -1    0    0  501    0  0.00000000000E+00  0.00000000000E+00  0.17265364943E+03  0.17265364950E+03  0.50400001928E-02 0.  1.
       -1   -1    0    0    0  501  0.00000000000E+00  0.00000000000E+00 -0.12622626403E+04  0.12622626403E+04  0.50400001928E-02 0. -1.
    10030    2    1    2    0    0  0.00000000000E+00  0.00000000000E+00 -0.10896089909E+04  0.14349162898E+04  0.93366857385E+03 0.  0.
        1    1    3    3  502    0 -0.35824638214E+03  0.27255047186E+03 -0.35464337679E+03  0.57305859626E+03  0.50400001928E-02 0.  1.
       -1    1    3    3    0  502  0.35824638214E+03 -0.27255047186E+03 -0.73496561410E+03  0.86185769356E+03  0.50400001928E-02 0. -1.
</event>
<event>
 5   0  0.6288003E-03  0.9064544E+03  0.7818609E-02  0.9417549E-01
       -1   -1    0    0    0  501  0.00000000000E+00  0.00000000000E+00  0.16444571541E+03  0.16444571549E+03  0.50400001928E-02 0.  1.
        1   -1    0    0  501    0  0.00000000000E+00  0.00000000000E+00 -0.12491349471E+04  0.12491349471E+04  0.50400001928E-02 0. -1.
    10030    2    1    2    0    0  0.00000000000E+00  0.00000000000E+00 -0.10846892317E+04  0.14135806626E+04  0.90645438955E+03 0.  0.
        1    1    3    3  502    0 -0.18088406570E+03 -0.23190638056E+03 -0.10801107664E+04  0.11194368594E+04  0.50400001928E-02 0. -1.
       -1    1    3    3    0  502  0.18088406570E+03  0.23190638056E+03 -0.45784652934E+01  0.29414380316E+03  0.50400001928E-02 0.  1.
</event>
<event>
 5   0  0.6015709E-03  0.8884502E+03  0.7818609E-02  0.9440135E-01
       -1   -1    0    0    0  501  0.00000000000E+00  0.00000000000E+00  0.50802123042E+03  0.50802123044E+03  0.50400001928E-02 0.  1.
        1   -1    0    0  501    0  0.00000000000E+00  0.00000000000E+00 -0.38844035667E+03  0.38844035670E+03  0.50400001928E-02 0. -1.
    10030    2    1    2    0    0  0.00000000000E+00  0.00000000000E+00  0.11958087375E+03  0.89646158714E+03  0.88845021912E+03 0.  0.
        3    1    3    3  502    0 -0.95979962412E+02  0.19351943647E+03  0.45145814152E+03  0.50047616249E+03  0.10100000352E+00 0.  1.
       -3    1    3    3    0  502  0.95979962412E+02 -0.19351943647E+03 -0.33187726777E+03  0.39598542465E+03  0.10100000352E+00 0. -1.
</event>
<event>
 5   0  0.1041727E-02  0.9228228E+03  0.7818609E-02  0.9397493E-01
        2   -1    0    0  501    0  0.00000000000E+00  0.00000000000E+00  0.17013467732E+04  0.17013467732E+04  0.25500000920E-02 0. -1.
       -2   -1    0    0    0  501  0.00000000000E+00  0.00000000000E+00 -0.12513642903E+03  0.12513642906E+03  0.25500000920E-02 0.  1.
    10030    2    1    2    0    0  0.00000000000E+00  0.00000000000E+00  0.15762103441E+04  0.18264832022E+04  0.92282275603E+03 0.  0.
        4    1    3    3  502    0 -0.35091076987E+03 -0.14441459003E+03  0.13076493173E+04  0.13615954951E+04  0.12699999809E+01 0. -1.
       -4    1    3    3    0  502  0.35091076987E+03  0.14441459003E+03  0.26856102679E+03  0.46488770712E+03  0.12699999809E+01 0.  1.
</event>
<event>
 5   0  0.1017079E-02  0.8954998E+03  0.7818609E-02  0.9431224E-01
        2   -1    0    0  501    0  0.00000000000E+00  0.00000000000E+00  0.95958452755E+03  0.95958452755E+03  0.25500000920E-02 0. -1.
       -2   -1    0    0    0  501  0.00000000000E+00  0.00000000000E+00 -0.20892371505E+03  0.20892371506E+03  0.25500000920E-02 0.  1.
    10030    2    1    2    0    0  0.00000000000E+00  0.00000000000E+00  0.75066081250E+03  0.11685082426E+04  0.89549978093E+03 0.  0.
        1    1    3    3  502    0 -0.40277077127E+03 -0.75618559833E+01  0.12030151331E+03  0.42042113408E+03  0.50400001928E-02 0.  1.
       -1    1    3    3    0  502  0.40277077127E+03  0.75618559833E+01  0.63035929920E+03  0.74808710854E+03  0.50400001928E-02 0. -1.
</event>
<event>
 5   0  0.3996375E-03  0.9061510E+03  0.7818609E-02  0.9417925E-01
        4   -1    0    0  501    0  0.00000000000E+00  0.00000000000E+00  0.43621400382E+03  0.43621585256E+03  0.12699999809E+01 0. -1.
       -4   -1    0    0    0  501  0.00000000000E+00  0.00000000000E+00 -0.47058504396E+03  0.47058675768E+03  0.12699999809E+01 0.  1.
    10030    2    1    2    0    0  0.00000000000E+00  0.00000000000E+00 -0.34371040145E+02  0.90680261024E+03  0.90615098385E+03 0.  0.
        4    1    3    3  502    0 -0.19648562974E+03  0.39827505291E+03  0.72579419725E+02  0.44999889503E+03  0.12699999809E+01 0. -1.
       -4    1    3    3    0  502  0.19648562974E+03 -0.39827505291E+03 -0.10695045987E+03  0.45680371521E+03  0.12699999809E+01 0.  1.
</event>
<event>
 5   0  0.6092779E-03  0.9309959E+03  0.7818609E-02  0.9387644E-01
        1   -1    0    0  501    0  0.00000000000E+00  0.00000000000E+00  0.20695220004E+03  0.20695220010E+03  0.50400001928E-02 0.  1.
       -1   -1    0    0    0  501  0.00000000000E+00  0.00000000000E+00 -0.10470453065E+04  0.10470453065E+04  0.50400001928E-02 0. -1.
    10030    2    1    2    0    0  0.00000000000E+00  0.00000000000E+00 -0.84009310645E+03  0.12539975066E+04  0.93099587489E+03 0.  0.
        2    1    3    3  502    0  0.39667453233E+03 -0.14986760469E+03 -0.16138686686E+03  0.45371434222E+03  0.25500000920E-02 0.  1.
       -2    1    3    3    0  502 -0.39667453233E+03  0.14986760469E+03 -0.67870623959E+03  0.80028316438E+03  0.25500000920E-02 0. -1.
</event>
<event>
 5   0  0.6211218E-03  0.8966487E+03  0.7818609E-02  0.9429780E-01
       -1   -1    0    0    0  501  0.00000000000E+00  0.00000000000E+00  0.33159907151E+03  0.33159907155E+03  0.50400001928E-02 0.  1.
        1   -1    0    0  501    0  0.00000000000E+00  0.00000000000E+00 -0.60613775091E+03  0.60613775093E+03  0.50400001928E-02 0. -1.
    10030    2    1    2    0    0  0.00000000000E+00  0.00000000000E+00 -0.27453867940E+03  0.93773682248E+03  0.89664868357E+03 0.  0.
        5    1    3    3  502    0  0.41716756767E+03  0.10752626731E+03 -0.75620690683E+01  0.43089436358E+03  0.46999998093E+01 0. -1.
       -5    1    3    3    0  502 -0.41716756767E+03 -0.10752626731E+03 -0.26697661033E+03  0.50684245890E+03  0.46999998093E+01 0.  1.
</event>
<event>
 5   0  0.1041727E-02  0.8935046E+03  0.7818609E-02  0.9433738E-01
       -2   -1    0    0    0  501  0.00000000000E+00  0.00000000000E+00  0.37487081624E+03  0.37487081625E+03  0.25500000920E-02 0. -1.
        2   -1    0    0  501    0  0.00000000000E+00  0.00000000000E+00 -0.53241708544E+03  0.53241708544E+03  0.25500000920E-02 0.  1.
    10030    2    1    2    0    0  0.00000000000E+00  0.00000000000E+00 -0.15754626919E+03  0.90728790169E+03  0.89350462205E+03 0.  0.
        4    1    3    3  502    0  0.74982255074E+01 -0.39084192952E+02 -0.53061174858E+03  0.53210359720E+03  0.12699999809E+01 0.  1.
       -4    1    3    3    0  502 -0.74982255074E+01  0.39084192952E+02  0.37306547939E+03  0.37518430449E+03  0.12699999809E+01 0. -1.
</event>
<event>
 5   0  0.6015709E-03  0.8892069E+03  0.7818609E-02  0.9439175E-01
       -1   -1    0    0    0  501  0.00000000000E+00  0.00000000000E+00  0.48586124986E+03  0.48586124988E+03  0.50400001928E-02 0. -1.
        1   -1    0    0  501    0  0.00000000000E+00  0.00000000000E+00 -0.40684913572E+03  0.40684913575E+03  0.50400001928E-02 0.  1.
    10030    2    1    2    0    0  0.00000000000E+00  0.00000000000E+00  0.79012114138E+02  0.89271038563E+03  0.88920690417E+03 0.  0.
        3    1    3    3  502    0  0.13517581833E+03 -0.35571704949E+03 -0.19132395967E+03  0.42592486298E+03  0.10100000352E+00 0.  1.
       -3    1    3    3    0  502 -0.13517581833E+03  0.35571704949E+03  0.27033607380E+03  0.46678552265E+03  0.10100000352E+00 0. -1.
</event>
<event>
 5   0  0.1041727E-02  0.9016695E+03  0.7818609E-02  0.9423497E-01
        2   -1    0    0  501    0  0.00000000000E+00  0.00000000000E+00  0.37361210002E+03  0.37361210003E+03  0.25500000920E-02 0.  1.
       -2   -1    0    0    0  501  0.00000000000E+00  0.00000000000E+00 -0.54401868793E+03  0.54401868794E+03  0.25500000920E-02 0. -1.
    10030    2    1    2    0    0  0.00000000000E+00  0.00000000000E+00 -0.17040658791E+03  0.91763078797E+03  0.90166948369E+03 0.  0.
        4    1    3    3  502    0 -0.17611321269E+03 -0.16168001460E+03  0.30378531628E+03  0.38657912785E+03  0.12699999809E+01 0.  1.
       -4    1    3    3    0  502  0.17611321269E+03  0.16168001460E+03 -0.47419190419E+03  0.53105166011E+03  0.12699999809E+01 0. -1.
</event>
<event>
 5   0  0.6015709E-03  0.9061331E+03  0.7818609E-02  0.9417947E-01
        1   -1    0    0  501    0  0.00000000000E+00  0.00000000000E+00  0.29503736141E+03  0.29503736145E+03  0.50400001928E-02 0.  1.
       -1   -1    0    0    0  501  0.00000000000E+00  0.00000000000E+00 -0.69574008259E+03  0.69574008261E+03  0.50400001928E-02 0. -1.
    10030    2    1    2    0    0  0.00000000000E+00  0.00000000000E+00 -0.40070272118E+03  0.99077744407E+03  0.90613314304E+03 0.  0.
        3    1    3    3  502    0  0.40377496600E+03  0.22196912567E+02 -0.42374598018E+03  0.58573679415E+03  0.10100000352E+00 0. -1.
       -3    1    3    3    0  502 -0.40377496600E+03 -0.22196912567E+02  0.23043259000E+02  0.40504064992E+03  0.10100000352E+00 0.  1.
</event>
<event>
 5   0  0.6288003E-03  0.8974822E+03  0.7818609E-02  0.9428734E-01
        1   -1    0    0  501    0  0.00000000000E+00  0.00000000000E+00  0.39695076234E+03  0.39695076238E+03  0.50400001928E-02 0. -1.
       -1   -1    0    0    0  501  0.00000000000E+00  0.00000000000E+00 -0.50728856160E+03  0.50728856162E+03  0.50400001928E-02 0.  1.
    10030    2    1    2    0    0  0.00000000000E+00  0.00000000000E+00 -0.11033779925E+03  0.90423932400E+03  0.89748221437E+03 0.  0.
        1    1    3    3  502    0 -0.95301623656E+02  0.16744692343E+03 -0.46349505556E+03  0.50194475612E+03  0.50400001928E-02 0.  1.
       -1    1    3    3    0  502  0.95301623656E+02 -0.16744692343E+03  0.35315725631E+03  0.40229456788E+03  0.50400001928E-02 0. -1.
</event>
<event>
 5   0  0.1041727E-02  0.8955962E+03  0.7818609E-02  0.9431103E-01
       -2   -1    0    0    0  501  0.00000000000E+00  0.00000000000E+00  0.13936767332E+03  0.13936767334E+03  0.25500000920E-02 0. -1.
        2   -1    0    0  501    0  0.00000000000E+00  0.00000000000E+00 -0.14388067675E+04  0.14388067675E+04  0.25500000920E-02 0.  1.
    10030    2    1    2    0    0  0.00000000000E+00  0.00000000000E+00 -0.12994390941E+04  0.15781744408E+04  0.89559622947E+03 0.  0.
        4    1    3    3  502    0  0.38832665551E+03 -0.19022736113E+03 -0.85474697214E+03  0.95790293850E+03  0.12699999809E+01 0.  1.
       -4    1    3    3    0  502 -0.38832665551E+03  0.19022736113E+03 -0.44469212200E+03  0.62027150230E+03  0.12699999809E+01 0. -1.
</event>
<event>
 5   0  0.1017079E-02  0.8801675E+03  0.7818609E-02  0.9450718E-01
       -2   -1    0    0    0  501  0.00000000000E+00  0.00000000000E+00  0.32118695028E+03  0.32118695029E+03  0.25500000920E-02 0. -1.
        2   -1    0    0  501    0  0.00000000000E+00  0.00000000000E+00 -0.60299364132E+03  0.60299364132E+03  0.25500000920E-02 0.  1.
    10030    2    1    2    0    0  0.00000000000E+00  0.00000000000E+00 -0.28180669103E+03  0.92418059161E+03  0.88016745839E+03 0.  0.
        1    1    3    3  502    0 -0.33801189484E+03 -0.26701584386E+03 -0.46261873814E+02  0.43323165041E+03  0.50400001928E-02 0. -1.
       -1    1    3    3    0  502  0.33801189484E+03  0.26701584386E+03 -0.23554481722E+03  0.49094894120E+03  0.50400001928E-02 0.  1.
</event>
<event>
 5   0  0.1003252E-02  0.9066539E+03  0.7818609E-02  0.9417302E-01
        2   -1    0    0  501    0  0.00000000000E+00  0.00000000000E+00  0.45921568243E+03  0.45921568244E+03  0.25500000920E-02 0.  1.
       -2   -1    0    0    0  501  0.00000000000E+00  0.00000000000E+00 -0.44751376919E+03  0.44751376919E+03  0.25500000920E-02 0. -1.
    10030    2    1    2    0    0  0.00000000000E+00  0.00000000000E+00  0.11701913243E+02  0.90672945163E+03  0.90665393821E+03 0.  0.
        2    1    3    3  502    0  0.21860227854E+03  0.38742180181E+03 -0.81464574827E+02  0.45223786402E+03  0.25500000920E-02 0.  1.
       -2    1    3    3    0  502 -0.21860227854E+03 -0.38742180181E+03  0.93166488070E+02  0.45449158761E+03  0.25500000920E-02 0. -1.
</event>
<event>
 5   0  0.1041727E-02  0.8799489E+03  0.7818609E-02  0.9450999E-01
       -2   -1    0    0    0  501  0.00000000000E+00  0.00000000000E+00  0.95201133460E+02  0.95201133494E+02  0.25500000920E-02 0.  1.
        2   -1    0    0  501    0  0.00000000000E+00  0.00000000000E+00 -0.20333529650E+04  0.20333529650E+04  0.25500000920E-02 0. -1.
    10030    2    1    2    0    0  0.00000000000E+00  0.00000000000E+00 -0.19381518316E+04  0.21285540985E+04  0.87994887814E+03 0.  0.
        4    1    3    3  502    0 -0.19680512548E+03 -0.30143796875E+03 -0.35722550784E+03  0.50715755222E+03  0.12699999809E+01 0.  1.
       -4    1    3    3    0  502  0.19680512548E+03  0.30143796875E+03 -0.15809263237E+04  0.16213965463E+04  0.12699999809E+01 0. -1.
</event>
<event>
 5   0  0.6288003E-03  0.9063667E+03  0.7818609E-02  0.9417658E-01
       -1   -1    0    0    0  501  0.00000000000E+00  0.00000000000E+00  0.29981827920E+03  0.29981827925E+03  0.50400001928E-02 0. -1.
        1   -1    0    0  501    0  0.00000000000E+00  0.00000000000E+00 -0.68499880779E+03  0.68499880781E+03  0.50400001928E-02 0.  1.
    10030    2    1    2    0    0  0.00000000000E+00  0.00000000000E+00 -0.38518052859E+03  0.98481708705E+03  0.90636673337E+03 0.  0.
        1    1    3    3  502    0  0.51510969504E+02 -0.43599315156E+03 -0.70471197842E+02  0.44464547444E+03  0.50400001928E-02 0.  1.
       -1    1    3    3    0  502 -0.51510969504E+02  0.43599315156E+03 -0.31470933075E+03  0.54017161261E+03  0.50400001928E-02 0. -1.
</event>
<event>
 5   0  0.6015709E-03  0.9014502E+03  0.7818609E-02  0.9423770E-01
        1   -1    0    0  501    0  0.00000000000E+00  0.00000000000E+00  0.12145015514E+04  0.12145015514E+04  0.50400001928E-02 0. -1.
       -1   -1    0    0    0  501  0.00000000000E+00  0.00000000000E+00 -0.16727283960E+03  0.16727283968E+03  0.50400001928E-02 0.  1.
    10030    2    1    2    0    0  0.00000000000E+00  0.00000000000E+00  0.10472287118E+04  0.13817743910E+04  0.90145021661E+03 0.  0.
        3    1    3    3  502    0  0.35427007452E+03  0.75111398445E+00  0.96491437510E+02  0.36717633038E+03  0.10100000352E+00 0.  1.
       -3    1    3    3    0  502 -0.35427007452E+03 -0.75111398445E+00  0.95073727424E+03  0.10145980607E+04  0.10100000352E+00 0. -1.
</event>
<event>
 5   0  0.1003252E-02  0.8915548E+03  0.7818609E-02  0.9436200E-01
       -2   -1    0    0    0  501  0.00000000000E+00  0.00000000000E+00  0.18026414306E+03  0.18026414308E+03  0.25500000920E-02 0. -1.
        2   -1    0    0  501    0  0.00000000000E+00  0.00000000000E+00 -0.11023683881E+04  0.11023683881E+04  0.25500000920E-02 0.  1.
    10030    2    1    2    0    0  0.00000000000E+00  0.00000000000E+00 -0.92210424507E+03  0.12826325312E+04  0.89155480557E+03 0.  0.
        2    1    3    3  502    0  0.22245506425E+03  0.22988799043E+03 -0.90768826104E+03  0.96240985188E+03  0.25500000920E-02 0.  1.
       -2    1    3    3    0  502 -0.22245506425E+03 -0.22988799043E+03 -0.14415984027E+02  0.32022267933E+03  0.25500000920E-02 0. -1.
</event>
<event>
 5   0  0.6092779E-03  0.8994761E+03  0.7818609E-02  0.9426237E-01
       -1   -1    0    0    0  501  0.00000000000E+00  0.00000000000E+00  0.21663902400E+03  0.21663902405E+03  0.50400001928E-02 0. -1.
        1   -1    0    0  501    0  0.00000000000E+00  0.00000000000E+00 -0.93364662094E+03  0.93364662095E+03  0.50400001928E-02 0.  1.
    10030    2    1    2    0    0  0.00000000000E+00  0.00000000000E+00 -0.71700759694E+03  0.11502856450E+04  0.89947605362E+03 0.  0.
        2    1    3    3  502    0  0.13110755707E+03  0.38817165840E+03 -0.59568585869E+03  0.72298552555E+03  0.25500000920E-02 0.  1.
       -2    1    3    3    0  502 -0.13110755707E+03 -0.38817165840E+03 -0.12132173825E+03  0.42730011945E+03  0.25500000920E-02 0. -1.
</event>
<event>
 5   0  0.6137243E-03  0.9026357E+03  0.7818609E-02  0.9422293E-01
       -1   -1    0    0    0  501  0.00000000000E+00  0.00000000000E+00  0.16765248359E+03  0.16765248367E+03  0.50400001928E-02 0.  1.
        1   -1    0    0  501    0  0.00000000000E+00  0.00000000000E+00 -0.12149406497E+04  0.12149406497E+04  0.50400001928E-02 0. -1.
    10030    2    1    2    0    0  0.00000000000E+00  0.00000000000E+00 -0.10472881661E+04  0.13825931333E+04  0.90263573471E+03 0.  0.
        4    1    3    3  502    0 -0.40369066387E+03  0.11448113468E+03 -0.77817907435E+03  0.88410201162E+03  0.12699999809E+01 0.  1.
       -4    1    3    3    0  502  0.40369066387E+03 -0.11448113468E+03 -0.26910909173E+03  0.49849112173E+03  0.12699999809E+01 0. -1.
</event>
<event>
 5   0  0.6137243E-03  0.8922261E+03  0.7818609E-02  0.9435352E-01
       -1   -1    0    0    0  501  0.00000000000E+00  0.00000000000E+00  0.50998869619E+03  0.50998869622E+03  0.50400001928E-02 0. -1.
        1   -1    0    0  501    0  0.00000000000E+00  0.00000000000E+00 -0.39023779343E+03  0.39023779347E+03  0.50400001928E-02 0.  1.
    10030    2    1    2    0    0  0.00000000000E+00  0.00000000000E+00  0.11975090276E+03  0.90022648968E+03  0.89222612269E+03 0.  0.
        4    1    3    3  502    0 -0.20569864776E+03  0.12414062926E+03  0.43913479337E+03  0.50056349164E+03  0.12699999809E+01 0. -1.
       -4    1    3    3    0  502  0.20569864776E+03 -0.12414062926E+03 -0.31938389061E+03  0.39966299804E+03  0.12699999809E+01 0.  1.
</event>
<event>
 5   0  0.1003252E-02  0.9263899E+03  0.7818609E-02  0.9393181E-01
        2   -1    0    0  501    0  0.00000000000E+00  0.00000000000E+00  0.11314552837E+04  0.11314552837E+04  0.25500000920E-02 0.  1.
       -2   -1    0    0    0  501  0.00000000000E+00  0.00000000000E+00 -0.18962265491E+03  0.18962265493E+03  0.25500000920E-02 0. -1.
    10030    2    1    2    0    0  0.00000000000E+00  0.00000000000E+00  0.94183262875E+03  0.13210779386E+04  0.92638988513E+03 0.  0.
        2    1    3    3  502    0  0.32336830258E+03  0.32585199431E+03  0.38297432513E+03  0.59784271763E+03  0.25500000920E-02 0. -1.
       -2    1    3    3    0  502 -0.32336830258E+03 -0.32585199431E+03  0.55885830362E+03  0.72323522096E+03  0.25500000920E-02 0.  1.
</event>
<event>
 5   0  0.6288003E-03  0.9036965E+03  0.7818609E-02  0.9420972E-01
       -1   -1    0    0    0  501  0.00000000000E+00  0.00000000000E+00  0.31202867671E+03  0.31202867675E+03  0.50400001928E-02 0. -1.
        1   -1    0    0  501    0  0.00000000000E+00  0.00000000000E+00 -0.65432075587E+03  0.65432075589E+03  0.50400001928E-02 0.  1.
    10030    2    1    2    0    0  0.00000000000E+00  0.00000000000E+00 -0.34229207916E+03  0.96634943263E+03  0.90369649689E+03 0.  0.
        1    1    3    3  502    0 -0.22370772151E+03 -0.33148987946E+03 -0.39605164598E+03  0.56283886784E+03  0.50400001928E-02 0.  1.
       -1    1    3    3    0  502  0.22370772151E+03  0.33148987946E+03  0.53759566823E+02  0.40351056479E+03  0.50400001928E-02 0. -1.
</event>
<event>
 5   0  0.1003252E-02  0.8972288E+03  0.7818609E-02  0.9429052E-01
        2   -1    0    0  501    0  0.00000000000E+00  0.00000000000E+00  0.93598123712E+03  0.93598123713E+03  0.25500000920E-02 0.  1.
       -2   -1    0    0    0  501  0.00000000000E+00  0.00000000000E+00 -0.21502020809E+03  0.21502020811E+03  0.25500000920E-02 0. -1.
    10030    2    1    2    0    0  0.00000000000E+00  0.00000000000E+00  0.72096102903E+03  0.11510014452E+04  0.89722880112E+03 0.  0.
        2    1    3    3  502    0  0.35559768928E+03  0.34881783411E+02  0.70847905035E+03  0.79347906099E+03  0.25500000920E-02 0.  1.
       -2    1    3    3    0  502 -0.35559768928E+03 -0.34881783411E+02  0.12481978682E+02  0.35752238425E+03  0.25500000920E-02 0. -1.
</event>
<event>
 5   0  0.1003252E-02  0.9021737E+03  0.7818609E-02  0.9422868E-01
       -2   -1    0    0    0  501  0.00000000000E+00  0.00000000000E+00  0.11755368971E+03  0.11755368974E+03  0.25500000920E-02 0. -1.
        2   -1    0    0  501    0  0.00000000000E+00  0.00000000000E+00 -0.17309481707E+04  0.17309481707E+04  0.25500000920E-02 0.  1.
    10030    2    1    2    0    0  0.00000000000E+00  0.00000000000E+00 -0.16133944810E+04  0.18485018604E+04  0.90217369545E+03 0.  0.
        2    1    3    3  502    0 -0.10849481302E+02  0.29265144247E+03 -0.15096868293E+04  0.15378286317E+04  0.25500000920E-02 0.  1.
       -2    1    3    3    0  502  0.10849481302E+02 -0.29265144247E+03 -0.10370765173E+03  0.31067322875E+03  0.25500000920E-02 0. -1.
</event>
<event>
 5   0  0.1003252E-02  0.9053377E+03  0.7818609E-02  0.9418934E-01
        2   -1    0    0  501    0  0.00000000000E+00  0.00000000000E+00  0.39546891391E+03  0.39546891392E+03  0.25500000920E-02 0. -1.
       -2   -1    0    0    0  501  0.00000000000E+00  0.00000000000E+00 -0.51814205020E+03  0.51814205020E+03  0.25500000920E-02 0.  1.
    10030    2    1    2    0    0  0.00000000000E+00  0.00000000000E+00 -0.12267313628E+03  0.91361096412E+03  0.90533766927E+03 0.  0.
        2    1    3    3  502    0 -0.13678933433E+03 -0.42819670882E+03 -0.75074748277E+01  0.44957769698E+03  0.25500000920E-02 0. -1.
       -2    1    3    3    0  502  0.13678933433E+03  0.42819670882E+03 -0.11516566146E+03  0.46403326715E+03  0.25500000920E-02 0.  1.
</event>
<event>
 5   0  0.1017079E-02  0.9108341E+03  0.7818609E-02  0.9412139E-01
       -2   -1    0    0    0  501  0.00000000000E+00  0.00000000000E+00  0.13041613990E+03  0.13041613993E+03  0.25500000920E-02 0. -1.
        2   -1    0    0  501    0  0.00000000000E+00  0.00000000000E+00 -0.15903299519E+04  0.15903299519E+04  0.25500000920E-02 0.  1.
    10030    2    1    2    0    0  0.00000000000E+00  0.00000000000E+00 -0.14599138119E+04  0.17207460918E+04  0.91083410897E+03 0.  0.
        1    1    3    3  502    0 -0.37861071687E+02  0.17925515502E+03  0.57725040207E+02  0.19208865568E+03  0.50400001928E-02 0. -1.
       -1    1    3    3    0  502  0.37861071687E+02 -0.17925515502E+03 -0.15176388522E+04  0.15286574361E+04  0.50400001928E-02 0.  1.
</event>
<event>
 5   0  0.6092779E-03  0.8985783E+03  0.7818609E-02  0.9427360E-01
       -1   -1    0    0    0  501  0.00000000000E+00  0.00000000000E+00  0.21713337212E+03  0.21713337218E+03  0.50400001928E-02 0.  1.
        1   -1    0    0  501    0  0.00000000000E+00  0.00000000000E+00 -0.92966250986E+03  0.92966250988E+03  0.50400001928E-02 0. -1.
    10030    2    1    2    0    0  0.00000000000E+00  0.00000000000E+00 -0.71252913774E+03  0.11467958821E+04  0.89857833435E+03 0.  0.
        2    1    3    3  502    0 -0.24892271873E+03 -0.85469897406E+02 -0.82098385583E+03  0.86213810657E+03  0.25500000920E-02 0. -1.
       -2    1    3    3    0  502  0.24892271873E+03  0.85469897406E+02  0.10845471809E+03  0.28465777548E+03  0.25500000920E-02 0.  1.
</event>
<event>
 5   0  0.1041727E-02  0.9007576E+03  0.7818609E-02  0.9424635E-01
       -2   -1    0    0    0  501  0.00000000000E+00  0.00000000000E+00  0.32081917470E+03  0.32081917472E+03  0.25500000920E-02 0. -1.
        2   -1    0    0  501    0  0.00000000000E+00  0.00000000000E+00 -0.63225976317E+03  0.63225976317E+03  0.25500000920E-02 0.  1.
    10030    2    1    2    0    0  0.00000000000E+00  0.00000000000E+00 -0.31144058846E+03  0.95307893789E+03  0.90075758210E+03 0.  0.
        4    1    3    3  502    0  0.25468078378E+03  0.35863945796E+03 -0.25805903250E+03  0.50998101885E+03  0.12699999809E+01 0.  1.
       -4    1    3    3    0  502 -0.25468078378E+03 -0.35863945796E+03 -0.53381555961E+02  0.44309791903E+03  0.12699999809E+01 0. -1.
</event>
<event>
 5   0  0.1033749E-02  0.8982900E+03  0.7818609E-02  0.9427722E-01
       -2   -1    0    0    0  501  0.00000000000E+00  0.00000000000E+00  0.36074709353E+03  0.36074709353E+03  0.25500000920E-02 0. -1.
        2   -1    0    0  501    0  0.00000000000E+00  0.00000000000E+00 -0.55920406925E+03  0.55920406925E+03  0.25500000920E-02 0.  1.
    10030    2    1    2    0    0  0.00000000000E+00  0.00000000000E+00 -0.19845697572E+03  0.91995116279E+03  0.89829002594E+03 0.  0.
        5    1    3    3  502    0 -0.37705257605E+03  0.24394747480E+03 -0.93606382441E+02  0.45876274958E+03  0.46999998093E+01 0. -1.
       -5    1    3    3    0  502  0.37705257605E+03 -0.24394747480E+03 -0.10485059328E+03  0.46118841321E+03  0.46999998093E+01 0.  1.
</event>
<event>
 5   0  0.6015709E-03  0.8768177E+03  0.7818609E-02  0.9455034E-01
       -1   -1    0    0    0  501  0.00000000000E+00  0.00000000000E+00  0.13400747830E+04  0.13400747830E+04  0.50400001928E-02 0.  1.
        1   -1    0    0  501    0  0.00000000000E+00  0.00000000000E+00 -0.14342657177E+03  0.14342657185E+03  0.50400001928E-02 0. -1.
    10030    2    1    2    0    0  0.00000000000E+00  0.00000000000E+00  0.11966482112E+04  0.14835013548E+04  0.87681772816E+03 0.  0.
        3    1    3    3  502    0 -0.21158397998E+02  0.43764597592E+03  0.57319225054E+03  0.72147837412E+03  0.10100000352E+00 0.  1.
       -3    1    3    3    0  502  0.21158397998E+02 -0.43764597592E+03  0.62345596067E+03  0.76202298071E+03  0.10100000352E+00 0. -1.
</event>
<event>
 5   0  0.1033749E-02  0.9005208E+03  0.7818609E-02  0.9424931E-01
        2   -1    0    0  501    0  0.00000000000E+00  0.00000000000E+00  0.17640774637E+04  0.17640774637E+04  0.25500000920E-02 0. -1.
       -2   -1    0    0    0  501  0.00000000000E+00  0.00000000000E+00 -0.11492375991E+03  0.11492375994E+03  0.25500000920E-02 0.  1.
    10030    2    1    2    0    0  0.00000000000E+00  0.00000000000E+00  0.16491537038E+04  0.18790012237E+04  0.90052077141E+03 0.  0.
        5    1    3    3  502    0  0.19250586028E+03 -0.13871496588E+03  0.16229788784E+04  0.16402386649E+04  0.46999998093E+01 0. -1.
       -5    1    3    3    0  502 -0.19250586028E+03  0.13871496588E+03  0.26174825411E+02  0.23876255880E+03  0.46999998093E+01 0.  1.
</event>
<event>
 5   0  0.6211218E-03  0.9013302E+03  0.7818609E-02  0.9423920E-01
       -1   -1    0    0    0  501  0.00000000000E+00  0.00000000000E+00  0.14058531155E+03  0.14058531164E+03  0.50400001928E-02 0. -1.
        1   -1    0    0  501    0  0.00000000000E+00  0.00000000000E+00 -0.14446675430E+04  0.14446675430E+04  0.50400001928E-02 0.  1.
    10030    2    1    2    0    0  0.00000000000E+00  0.00000000000E+00 -0.13040822314E+04  0.15852528546E+04  0.90133020963E+03 0.  0.
        5    1    3    3  502    0  0.23458750030E+03  0.74286499605E+02 -0.13160340278E+04  0.13388492939E+04  0.46999998093E+01 0.  1.
       -5    1    3    3    0  502 -0.23458750030E+03 -0.74286499605E+02  0.11951796393E+02  0.24640356076E+03  0.46999998093E+01 0. -1.
</event>
<event>
 5   0  0.1033749E-02  0.9006653E+03  0.7818609E-02  0.9424750E-01
        2   -1    0    0  501    0  0.00000000000E+00  0.00000000000E+00  0.86748712769E+03  0.86748712769E+03  0.25500000920E-02 0. -1.
       -2   -1    0    0    0  501  0.00000000000E+00  0.00000000000E+00 -0.23377810904E+03  0.23377810905E+03  0.25500000920E-02 0.  1.
    10030    2    1    2    0    0  0.00000000000E+00  0.00000000000E+00  0.63370901865E+03  0.11012652367E+04  0.90066531040E+03 0.  0.
        5    1    3    3  502    0 -0.31142587610E+03 -0.23483337860E+03  0.59202074681E+03  0.70897351619E+03  0.46999998093E+01 0. -1.
       -5    1    3    3    0  502  0.31142587610E+03  0.23483337860E+03  0.41688271831E+02  0.39229172055E+03  0.46999998093E+01 0.  1.
</event>
<event>
 5   0  0.1003252E-02  0.8963025E+03  0.7818609E-02  0.9430215E-01
        2   -1    0    0  501    0  0.00000000000E+00  0.00000000000E+00  0.15542074544E+04  0.15542074544E+04  0.25500000920E-02 0.  1.
       -2   -1    0    0    0  501  0.00000000000E+00  0.00000000000E+00 -0.12922312720E+03  0.12922312722E+03  0.25500000920E-02 0. -1.
    10030    2    1    2    0    0  0.00000000000E+00  0.00000000000E+00  0.14249843272E+04  0.16834305816E+04  0.89630251051E+03 0.  0.
        2    1    3    3  502    0  0.78310158656E+02  0.17629972288E+03 -0.47249701914E+02  0.19861170050E+03  0.25500000920E-02 0. -1.
       -2    1    3    3    0  502 -0.78310158656E+02 -0.17629972288E+03  0.14722340291E+04  0.14848188811E+04  0.25500000920E-02 0.  1.
</event>
<event>
 5   0  0.6288003E-03  0.8977796E+03  0.7818609E-02  0.9428361E-01
       -1   -1    0    0    0  501  0.00000000000E+00  0.00000000000E+00  0.33519527700E+03  0.33519527704E+03  0.50400001928E-02 0. -1.
        1   -1    0    0  501    0  0.00000000000E+00  0.00000000000E+00 -0.60114822977E+03  0.60114822979E+03  0.50400001928E-02 0.  1.
    10030    2    1    2    0    0  0.00000000000E+00  0.00000000000E+00 -0.26595295276E+03  0.93634350683E+03  0.89777958859E+03 0.  0.
        1    1    3    3  502    0  0.19432056829E+03  0.15169058906E+03  0.25827967573E+03  0.35704188689E+03  0.50400001928E-02 0. -1.
       -1    1    3    3    0  502 -0.19432056829E+03 -0.15169058906E+03 -0.52423262849E+03  0.57930161994E+03  0.50400001928E-02 0.  1.
</event>
<event>
 5   0  0.6015709E-03  0.9108811E+03  0.7818609E-02  0.9412081E-01
       -1   -1    0    0    0  501  0.00000000000E+00  0.00000000000E+00  0.18390789017E+03  0.18390789023E+03  0.50400001928E-02 0. -1.
        1   -1    0    0  501    0  0.00000000000E+00  0.00000000000E+00 -0.11278803086E+04  0.11278803086E+04  0.50400001928E-02 0.  1.
    10030    2    1    2    0    0  0.00000000000E+00  0.00000000000E+00 -0.94397241845E+03  0.13117881989E+04  0.91088108548E+03 0.  0.
        3    1    3    3  502    0  0.80153092564E+02  0.10526139357E+03 -0.10995952833E+04  0.11075261968E+04  0.10100000352E+00 0.  1.
       -3    1    3    3    0  502 -0.80153092564E+02 -0.10526139357E+03  0.15562286488E+03  0.20426200209E+03  0.10100000352E+00 0. -1.
</event>
<event>
 5   0  0.1041727E-02  0.8957753E+03  0.7818609E-02  0.9430878E-01
        2   -1    0    0  501    0  0.00000000000E+00  0.00000000000E+00  0.36056661117E+03  0.36056661118E+03  0.25500000920E-02 0. -1.
       -2   -1    0    0    0  501  0.00000000000E+00  0.00000000000E+00 -0.55635583670E+03  0.55635583671E+03  0.25500000920E-02 0.  1.
    10030    2    1    2    0    0  0.00000000000E+00  0.00000000000E+00 -0.19578922553E+03  0.91692244788E+03  0.89577528130E+03 0.  0.
        4    1    3    3  502    0  0.35615191464E+03 -0.11192529997E+03 -0.35118377444E+03  0.51254572031E+03  0.12699999809E+01 0.  1.
       -4    1    3    3    0  502 -0.35615191464E+03  0.11192529997E+03  0.15539454890E+03  0.40437672758E+03  0.12699999809E+01 0. -1.
</event>
<event>
 5   0  0.1041727E-02  0.9000077E+03  0.7818609E-02  0.9425572E-01
       -2   -1    0    0    0  501  0.00000000000E+00  0.00000000000E+00  0.87346851249E+03  0.87346851249E+03  0.25500000920E-02 0. -1.
        2   -1    0    0  501    0  0.00000000000E+00  0.00000000000E+00 -0.23183832804E+03  0.23183832806E+03  0.25500000920E-02 0.  1.
    10030    2    1    2    0    0  0.00000000000E+00  0.00000000000E+00  0.64163018445E+03  0.11053068406E+04  0.90000773229E+03 0.  0.
        4    1    3    3  502    0 -0.33950588778E+03  0.23755668296E+03  0.10526744606E+03  0.42752809680E+03  0.12699999809E+01 0.  1.
       -4    1    3    3    0  502  0.33950588778E+03 -0.23755668296E+03  0.53636273839E+03  0.67777874375E+03  0.12699999809E+01 0. -1.
</event>
<event>
 5   0  0.1017079E-02  0.8909402E+03  0.7818609E-02  0.9436978E-01
       -2   -1    0    0    0  501  0.00000000000E+00  0.00000000000E+00  0.33244841969E+03  0.33244841970E+03  0.25500000920E-02 0. -1.
        2   -1    0    0  501    0  0.00000000000E+00  0.00000000000E+00 -0.59691552182E+03  0.59691552183E+03  0.25500000920E-02 0.  1.
    10030    2    1    2    0    0  0.00000000000E+00  0.00000000000E+00 -0.26446710213E+03  0.92936394153E+03  0.89094022679E+03 0.  0.
        1    1    3    3  502    0  0.74801972735E+02 -0.34582844844E+03 -0.41455504478E+03  0.54502159228E+03  0.50400001928E-02 0.  1.
       -1    1    3    3    0  502 -0.74801972735E+02  0.34582844844E+03  0.15008794265E+03  0.38434234925E+03  0.50400001928E-02 0. -1.
</event>
<event>
 5   0  0.1033749E-02  0.9142808E+03  0.7818609E-02  0.9407904E-01
       -2   -1    0    0    0  501  0.00000000000E+00  0.00000000000E+00  0.12911516380E+03  0.12911516382E+03  0.25500000920E-02 0. -1.
        2   -1    0    0  501    0  0.00000000000E+00  0.00000000000E+00 -0.16185345441E+04  0.16185345441E+04  0.25500000920E-02 0.  1.
    10030    2    1    2    0    0  0.00000000000E+00  0.00000000000E+00 -0.14894193803E+04  0.17476497079E+04  0.91428081637E+03 0.  0.
        5    1    3    3  502    0  0.15624424938E+03 -0.41144920103E+03 -0.50863684031E+03  0.67263380513E+03  0.46999998093E+01 0. -1.
       -5    1    3    3    0  502 -0.15624424938E+03  0.41144920103E+03 -0.98078254001E+03  0.10750159028E+04  0.46999998093E+01 0.  1.
</event>
<event>
 5   0  0.6015709E-03  0.8996431E+03  0.7818609E-02  0.9426028E-01
       -1   -1    0    0    0  501  0.00000000000E+00  0.00000000000E+00  0.20067512668E+03  0.20067512674E+03  0.50400001928E-02 0. -1.
        1   -1    0    0  501    0  0.00000000000E+00  0.00000000000E+00 -0.10082934649E+04  0.10082934649E+04  0.50400001928E-02 0.  1.
    10030    2    1    2    0    0  0.00000000000E+00  0.00000000000E+00 -0.80761833823E+03  0.12089685917E+04  0.89964308221E+03 0.  0.
        3    1    3    3  502    0 -0.25874148340E+03  0.26623923225E+03 -0.74512361869E+03  0.83249006081E+03  0.10100000352E+00 0.  1.
       -3    1    3    3    0  502  0.25874148340E+03 -0.26623923225E+03 -0.62494719537E+02  0.37647853085E+03  0.10100000352E+00 0. -1.
</event>
<event>
 5   0  0.6288003E-03  0.8976210E+03  0.7818609E-02  0.9428560E-01
        1   -1    0    0  501    0  0.00000000000E+00  0.00000000000E+00  0.10011171626E+04  0.10011171626E+04  0.50400001928E-02 0. -1.
       -1   -1    0    0    0  501  0.00000000000E+00  0.00000000000E+00 -0.20120606718E+03  0.20120606725E+03  0.50400001928E-02 0.  1.
    10030    2    1    2    0    0  0.00000000000E+00  0.00000000000E+00  0.79991109537E+03  0.12023232298E+04  0.89762096034E+03 0.  0.
        1    1    3    3  502    0  0.44351309286E+03 -0.67569665191E+02  0.41696841850E+03  0.61248035498E+03  0.50400001928E-02 0.  1.
       -1    1    3    3    0  502 -0.44351309286E+03  0.67569665191E+02  0.38294267687E+03  0.58984287483E+03  0.50400001928E-02 0. -1.
</event>
<event>
 5   0  0.1003252E-02  0.8839243E+03  0.7818609E-02  0.9445903E-01
        2   -1    0    0  501    0  0.00000000000E+00  0.00000000000E+00  0.86404514378E+03  0.86404514378E+03  0.25500000920E-02 0. -1.
       -2   -1    0    0    0  501  0.00000000000E+00  0.00000000000E+00 -0.22606521898E+03  0.22606521900E+03  0.25500000920E-02 0.  1.
    10030    2    1    2    0    0  0.00000000000E+00  0.00000000000E+00  0.63797992480E+03  0.10901103628E+04  0.88392432855E+03 0.  0.
        2    1    3    3  502    0  0.32429321768E+03 -0.11810942986E+03 -0.21476660360E+02  0.34579932822E+03  0.25500000920E-02 0. -1.
       -2    1    3    3    0  502 -0.32429321768E+03  0.11810942986E+03  0.65945658516E+03  0.74431103456E+03  0.25500000920E-02 0.  1.
</event>
<event>
 5   0  0.6211218E-03  0.8535429E+03  0.7818609E-02  0.9485594E-01
       -1   -1    0    0    0  501  0.00000000000E+00  0.00000000000E+00  0.26709235356E+03  0.26709235361E+03  0.50400001928E-02 0. -1.
        1   -1    0    0  501    0  0.00000000000E+00  0.00000000000E+00 -0.68191350332E+03  0.68191350334E+03  0.50400001928E-02 0.  1.
    10030    2    1    2    0    0  0.00000000000E+00  0.00000000000E+00 -0.41482114976E+03  0.94900585695E+03  0.85354292817E+03 0.  0.
        5    1    3    3  502    0  0.56834489560E+02  0.34383347880E+03 -0.48124960236E+03  0.59420105193E+03  0.46999998093E+01 0.  1.
       -5    1    3    3    0  502 -0.56834489560E+02 -0.34383347880E+03  0.66428452600E+02  0.35480480501E+03  0.46999998093E+01 0. -1.
</event>
<event>
 5   0  0.6288003E-03  0.9125022E+03  0.7818609E-02  0.9410087E-01
       -1   -1    0    0    0  501  0.00000000000E+00  0.00000000000E+00  0.57305216106E+03  0.57305216108E+03  0.50400001928E-02 0.  1.
        1   -1    0    0  501    0  0.00000000000E+00  0.00000000000E+00 -0.36325671685E+03  0.36325671689E+03  0.50400001928E-02 0. -1.
    10030    2    1    2    0    0  0.00000000000E+00  0.00000000000E+00  0.20979544421E+03  0.93630887797E+03  0.91250215701E+03 0.  0.
        1    1    3    3  502    0  0.30298654970E+03 -0.67459888550E+02  0.44800670798E+03  0.54503366527E+03  0.50400001928E-02 0.  1.
       -1    1    3    3    0  502 -0.30298654970E+03  0.67459888550E+02 -0.23821126377E+03  0.39127521270E+03  0.50400001928E-02 0. -1.
</event>
<event>
 5   0  0.6092779E-03  0.9005805E+03  0.7818609E-02  0.9424856E-01
       -1   -1    0    0    0  501  0.00000000000E+00  0.00000000000E+00  0.56208593197E+03  0.56208593200E+03  0.50400001928E-02 0. -1.
        1   -1    0    0  501    0  0.00000000000E+00  0.00000000000E+00 -0.36073005858E+03  0.36073005862E+03  0.50400001928E-02 0.  1.
    10030    2    1    2    0    0  0.00000000000E+00  0.00000000000E+00  0.20135587339E+03  0.92281599061E+03  0.90058045991E+03 0.  0.
        2    1    3    3  502    0  0.19037404699E+03 -0.77322506716E+02  0.51124541964E+03  0.55099267411E+03  0.25500000920E-02 0. -1.
       -2    1    3    3    0  502 -0.19037404699E+03  0.77322506716E+02 -0.30988954625E+03  0.37182331650E+03  0.25500000920E-02 0.  1.
</event>
<event>
 5   0  0.1003252E-02  0.8966384E+03  0.7818609E-02  0.9429793E-01
        2   -1    0    0  501    0  0.00000000000E+00  0.00000000000E+00  0.10103536769E+04  0.10103536769E+04  0.25500000920E-02 0. -1.
       -2   -1    0    0    0  501  0.00000000000E+00  0.00000000000E+00 -0.19893044309E+03  0.19893044310E+03  0.25500000920E-02 0.  1.
    10030    2    1    2    0    0  0.00000000000E+00  0.00000000000E+00  0.81142323383E+03  0.12092841200E+04  0.89663839899E+03 0.  0.
        2    1    3    3  502    0 -0.30068710764E+03  0.38573540097E+02 -0.39741899917E+02  0.30574511167E+03  0.25500000920E-02 0.  1.
       -2    1    3    3    0  502  0.30068710764E+03 -0.38573540097E+02  0.85116513375E+03  0.90353900835E+03  0.25500000920E-02 0. -1.
</event>
<event>
 5   0  0.1028978E-02  0.9132575E+03  0.7818609E-02  0.9409159E-01
        2   -1    0    0  501    0  0.00000000000E+00  0.00000000000E+00  0.86524888352E+03  0.86524888353E+03  0.25500000920E-02 0.  1.
       -2   -1    0    0    0  501  0.00000000000E+00  0.00000000000E+00 -0.24098248275E+03  0.24098248277E+03  0.25500000920E-02 0. -1.
    10030    2    1    2    0    0  0.00000000000E+00  0.00000000000E+00  0.62426640077E+03  0.11062313663E+04  0.91325751934E+03 0.  0.
        3    1    3    3  502    0 -0.43790929511E+03 -0.28297309765E+02  0.15918002024E+03  0.46680143265E+03  0.10100000352E+00 0. -1.
       -3    1    3    3    0  502  0.43790929511E+03  0.28297309765E+02  0.46508638053E+03  0.63942993364E+03  0.10100000352E+00 0.  1.
</event>
<event>
 5   0  0.6211218E-03  0.9103459E+03  0.7818609E-02  0.9412740E-01
       -1   -1    0    0    0  501  0.00000000000E+00  0.00000000000E+00  0.13674985612E+03  0.13674985622E+03  0.50400001928E-02 0. -1.
        1   -1    0    0  501    0  0.00000000000E+00  0.00000000000E+00 -0.15150466366E+04  0.15150466366E+04  0.50400001928E-02 0.  1.
    10030    2    1    2    0    0  0.00000000000E+00  0.00000000000E+00 -0.13782967805E+04  0.16517964928E+04  0.91034588955E+03 0.  0.
        5    1    3    3  502    0  0.20565042289E+03 -0.73475147848E+02 -0.14137329773E+04  0.14305082016E+04  0.46999998093E+01 0.  1.
       -5    1    3    3    0  502 -0.20565042289E+03  0.73475147848E+02  0.35436196813E+02  0.22128829122E+03  0.46999998093E+01 0. -1.
</event>
<event>
 5   0  0.6288003E-03  0.8992081E+03  0.7818609E-02  0.9426572E-01
       -1   -1    0    0    0  501  0.00000000000E+00  0.00000000000E+00  0.31459595938E+03  0.31459595942E+03  0.50400001928E-02 0. -1.
        1   -1    0    0  501    0  0.00000000000E+00  0.00000000000E+00 -0.64255051128E+03  0.64255051130E+03  0.50400001928E-02 0.  1.
    10030    2    1    2    0    0  0.00000000000E+00  0.00000000000E+00 -0.32795455191E+03  0.95714647072E+03  0.89920808398E+03 0.  0.
        1    1    3    3  502    0 -0.12350034837E+03 -0.12290288048E+03  0.27719936910E+03  0.32740944448E+03  0.50400001928E-02 0. -1.
       -1    1    3    3    0  502  0.12350034837E+03  0.12290288048E+03 -0.60515392101E+03  0.62973702624E+03  0.50400001928E-02 0.  1.
</event>
<event>
 5   0  0.6015709E-03  0.9051408E+03  0.7818609E-02  0.9419178E-01
        1   -1    0    0  501    0  0.00000000000E+00  0.00000000000E+00  0.91478413560E+03  0.91478413561E+03  0.50400001928E-02 0.  1.
       -1   -1    0    0    0  501  0.00000000000E+00  0.00000000000E+00 -0.22389979451E+03  0.22389979457E+03  0.50400001928E-02 0. -1.
    10030    2    1    2    0    0  0.00000000000E+00  0.00000000000E+00  0.69088434108E+03  0.11386839302E+04  0.90514082888E+03 0.  0.
        3    1    3    3  502    0  0.12942660289E+03  0.43199591311E+03  0.29756708025E+03  0.54029426420E+03  0.10100000352E+00 0. -1.
       -3    1    3    3    0  502 -0.12942660289E+03 -0.43199591311E+03  0.39331726083E+03  0.59838966598E+03  0.10100000352E+00 0.  1.
</event>
<event>
 5   0  0.1033749E-02  0.9032292E+03  0.7818609E-02  0.9421554E-01
        2   -1    0    0  501    0  0.00000000000E+00  0.00000000000E+00  0.93990000044E+03  0.93990000044E+03  0.25500000920E-02 0.  1.
       -2   -1    0    0    0  501  0.00000000000E+00  0.00000000000E+00 -0.21699729527E+03  0.21699729529E+03  0.25500000920E-02 0. -1.
    10030    2    1    2    0    0  0.00000000000E+00  0.00000000000E+00  0.72290270517E+03  0.11568972957E+04  0.90322922435E+03 0.  0.
        5    1    3    3  502    0 -0.30239578539E+03 -0.32798918466E+03  0.45123445084E+03  0.63455081428E+03  0.46999998093E+01 0.  1.
       -5    1    3    3    0  502  0.30239578539E+03  0.32798918466E+03  0.27166825432E+03  0.52234648145E+03  0.46999998093E+01 0. -1.
</event>
<event>
 5   0  0.3996375E-03  0.8981686E+03  0.7818609E-02  0.9427874E-01
       -3   -1    0    0    0  501  0.00000000000E+00  0.00000000000E+00  0.41436174849E+03  0.41436176080E+03  0.10100000352E+00 0. -1.
        3   -1    0    0  501    0  0.00000000000E+00  0.00000000000E+00 -0.48671645797E+03  0.48671646845E+03  0.10100000352E+00 0.  1.
    10030    2    1    2    0    0  0.00000000000E+00  0.00000000000E+00 -0.72354709485E+02  0.90107822925E+03  0.89816856505E+03 0.  0.
        4    1    3    3  502    0  0.29376880830E+03 -0.31383528403E+03  0.94175787072E+02  0.44007202820E+03  0.12699999809E+01 0. -1.
       -4    1    3    3    0  502 -0.29376880830E+03  0.31383528403E+03 -0.16653049656E+03  0.46100620106E+03  0.12699999809E+01 0.  1.
</event>
<event>
 5   0  0.1003252E-02  0.8955025E+03  0.7818609E-02  0.9431221E-01
        2   -1    0    0  501    0  0.00000000000E+00  0.00000000000E+00  0.18071434407E+04  0.18071434407E+04  0.25500000920E-02 0.  1.
       -2   -1    0    0    0  501  0.00000000000E+00  0.00000000000E+00 -0.11093817814E+03  0.11093817817E+03  0.25500000920E-02 0. -1.
    10030    2    1    2    0    0  0.00000000000E+00  0.00000000000E+00  0.16962052625E+04  0.19180816188E+04  0.89550254265E+03 0.  0.
        2    1    3    3  502    0  0.35148772667E+03  0.15493350718E+03  0.13408953507E+04  0.13948291491E+04  0.25500000920E-02 0.  1.
       -2    1    3    3    0  502 -0.35148772667E+03 -0.15493350718E+03  0.35530991185E+03  0.52325246976E+03  0.25500000920E-02 0. -1.
</event>
<event>
 5   0  0.1003252E-02  0.9055298E+03  0.7818609E-02  0.9418695E-01
        2   -1    0    0  501    0  0.00000000000E+00  0.00000000000E+00  0.13792144925E+04  0.13792144925E+04  0.25500000920E-02 0. -1.
       -2   -1    0    0    0  501  0.00000000000E+00  0.00000000000E+00 -0.14863246152E+03  0.14863246155E+03  0.25500000920E-02 0.  1.
    10030    2    1    2    0    0  0.00000000000E+00  0.00000000000E+00  0.12305820310E+04  0.15278469540E+04  0.90552977865E+03 0.  0.
        2    1    3    3  502    0  0.17362576239E+02 -0.20403030455E+03 -0.66041505516E+02  0.21515414169E+03  0.25500000920E-02 0.  1.
       -2    1    3    3    0  502 -0.17362576239E+02  0.20403030455E+03  0.12966235365E+04  0.13126928124E+04  0.25500000920E-02 0. -1.
</event>
<event>
 5   0  0.1033749E-02  0.9112330E+03  0.7818609E-02  0.9411648E-01
       -2   -1    0    0    0  501  0.00000000000E+00  0.00000000000E+00  0.60719203429E+03  0.60719203429E+03  0.25500000920E-02 0.  1.
        2   -1    0    0  501    0  0.00000000000E+00  0.00000000000E+00 -0.34187930968E+03  0.34187930969E+03  0.25500000920E-02 0. -1.
    10030    2    1    2    0    0  0.00000000000E+00  0.00000000000E+00  0.26531272460E+03  0.94907134398E+03  0.91123299662E+03 0.  0.
        5    1    3    3  502    0  0.23073255233E+03  0.23278666269E+03 -0.19692835357E+03  0.38240032357E+03  0.46999998093E+01 0. -1.
       -5    1    3    3    0  502 -0.23073255233E+03 -0.23278666269E+03  0.46224107817E+03  0.56667102041E+03  0.46999998093E+01 0.  1.
</event>
<event>
 5   0  0.1017079E-02  0.8992054E+03  0.7818609E-02  0.9426575E-01
        2   -1    0    0  501    0  0.00000000000E+00  0.00000000000E+00  0.75963889892E+03  0.75963889893E+03  0.25500000920E-02 0.  1.
       -2   -1    0    0    0  501  0.00000000000E+00  0.00000000000E+00 -0.26610350193E+03  0.26610350194E+03  0.25500000920E-02 0. -1.
    10030    2    1    2    0    0  0.00000000000E+00  0.00000000000E+00  0.49353539699E+03  0.10257424009E+04  0.89920536301E+03 0.  0.
        1    1    3    3  502    0  0.29105475678E+03  0.21984410153E+03 -0.53088485140E+02  0.36859556115E+03  0.50400001928E-02 0. -1.
       -1    1    3    3    0  502 -0.29105475678E+03 -0.21984410153E+03  0.54662388213E+03  0.65714683973E+03  0.50400001928E-02 0.  1.
</event>
<event>
 5   0  0.1003252E-02  0.8990863E+03  0.7818609E-02  0.9426724E-01
        2   -1    0    0  501    0  0.00000000000E+00  0.00000000000E+00  0.76051872083E+03  0.76051872084E+03  0.25500000920E-02 0.  1.
       -2   -1    0    0    0  501  0.00000000000E+00  0.00000000000E+00 -0.26572526092E+03  0.26572526093E+03  0.25500000920E-02 0. -1.
    10030    2    1    2    0    0  0.00000000000E+00  0.00000000000E+00  0.49479345991E+03  0.10262439818E+04  0.89908628181E+03 0.  0.
        2    1    3    3  502    0  0.23855806558E+03 -0.14714182971E+03 -0.15377710662E+03  0.31969996440E+03  0.25500000920E-02 0. -1.
       -2    1    3    3    0  502 -0.23855806558E+03  0.14714182971E+03  0.64857056653E+03  0.70654401737E+03  0.25500000920E-02 0.  1.
</event>
<event>
 5   0  0.1017079E-02  0.8900611E+03  0.7818609E-02  0.9438091E-01
        2   -1    0    0  501    0  0.00000000000E+00  0.00000000000E+00  0.11243260924E+04  0.11243260924E+04  0.25500000920E-02 0.  1.
       -2   -1    0    0    0  501  0.00000000000E+00  0.00000000000E+00 -0.17615192233E+03  0.17615192235E+03  0.25500000920E-02 0. -1.
    10030    2    1    2    0    0  0.00000000000E+00  0.00000000000E+00  0.94817417005E+03  0.13004780147E+04  0.89006112714E+03 0.  0.
        1    1    3    3  502    0 -0.17143939649E+03 -0.12096969882E+03 -0.99344624239E+02  0.23215186644E+03  0.50400001928E-02 0. -1.
       -1    1    3    3    0  502  0.17143939649E+03  0.12096969882E+03  0.10475187943E+04  0.10683261483E+04  0.50400001928E-02 0.  1.
</event>
<event>
 5   0  0.6137243E-03  0.9026231E+03  0.7818609E-02  0.9422308E-01
       -1   -1    0    0    0  501  0.00000000000E+00  0.00000000000E+00  0.13980822309E+03  0.13980822318E+03  0.50400001928E-02 0. -1.
        1   -1    0    0  501    0  0.00000000000E+00  0.00000000000E+00 -0.14568680538E+04  0.14568680538E+04  0.50400001928E-02 0.  1.
    10030    2    1    2    0    0  0.00000000000E+00  0.00000000000E+00 -0.13170598307E+04  0.15966762770E+04  0.90262314163E+03 0.  0.
        4    1    3    3  502    0 -0.19000555521E+03  0.34288531085E+03 -0.26295342626E+03  0.47203661372E+03  0.12699999809E+01 0. -1.
       -4    1    3    3    0  502  0.19000555521E+03 -0.34288531085E+03 -0.10541064044E+04  0.11246396632E+04  0.12699999809E+01 0.  1.
</event>
<event>
 5   0  0.6137243E-03  0.8963302E+03  0.7818609E-02  0.9430181E-01
       -1   -1    0    0    0  501  0.00000000000E+00  0.00000000000E+00  0.48058431273E+03  0.48058431276E+03  0.50400001928E-02 0.  1.
        1   -1    0    0  501    0  0.00000000000E+00  0.00000000000E+00 -0.41793280949E+03  0.41793280952E+03  0.50400001928E-02 0. -1.
    10030    2    1    2    0    0  0.00000000000E+00  0.00000000000E+00  0.62651503242E+02  0.89851712228E+03  0.89633018926E+03 0.  0.
        4    1    3    3  502    0 -0.19085963341E+02 -0.43979817251E+02  0.47800450182E+03  0.48040442856E+03  0.12699999809E+01 0.  1.
       -4    1    3    3    0  502  0.19085963341E+02  0.43979817251E+02 -0.41535299858E+03  0.41811269372E+03  0.12699999809E+01 0. -1.
</event>
<event>
 5   0  0.6137243E-03  0.9053810E+03  0.7818609E-02  0.9418880E-01
       -1   -1    0    0    0  501  0.00000000000E+00  0.00000000000E+00  0.24106793170E+03  0.24106793175E+03  0.50400001928E-02 0. -1.
        1   -1    0    0  501    0  0.00000000000E+00  0.00000000000E+00 -0.85008684221E+03  0.85008684222E+03  0.50400001928E-02 0.  1.
    10030    2    1    2    0    0  0.00000000000E+00  0.00000000000E+00 -0.60901891051E+03  0.10911547740E+04  0.90538097362E+03 0.  0.
        4    1    3    3  502    0  0.79278718924E+02 -0.20176351448E+03 -0.78346149944E+03  0.81290046442E+03  0.12699999809E+01 0.  1.
       -4    1    3    3    0  502 -0.79278718924E+02  0.20176351448E+03  0.17444258893E+03  0.27825430955E+03  0.12699999809E+01 0. -1.
</event>
<event>
 5   0  0.1041727E-02  0.9294425E+03  0.7818609E-02  0.9389507E-01
        2   -1    0    0  501    0  0.00000000000E+00  0.00000000000E+00  0.15654573232E+04  0.15654573232E+04  0.25500000920E-02 0. -1.
       -2   -1    0    0    0  501  0.00000000000E+00  0.00000000000E+00 -0.13795702001E+03  0.13795702004E+03  0.25500000920E-02 0.  1.
    10030    2    1    2    0    0  0.00000000000E+00  0.00000000000E+00  0.14275003031E+04  0.17034143432E+04  0.92944247220E+03 0.  0.
        4    1    3    3  502    0  0.43192529652E+03 -0.82139560676E+02  0.98962181144E+03  0.10828939522E+04  0.12699999809E+01 0.  1.
       -4    1    3    3    0  502 -0.43192529652E+03  0.82139560676E+02  0.43787849170E+03  0.62052039096E+03  0.12699999809E+01 0. -1.
</event>
<event>
 5   0  0.6211218E-03  0.8976184E+03  0.7818609E-02  0.9428563E-01
       -1   -1    0    0    0  501  0.00000000000E+00  0.00000000000E+00  0.87284153377E+03  0.87284153379E+03  0.50400001928E-02 0.  1.
        1   -1    0    0  501    0  0.00000000000E+00  0.00000000000E+00 -0.23077466652E+03  0.23077466658E+03  0.50400001928E-02 0. -1.
    10030    2    1    2    0    0  0.00000000000E+00  0.00000000000E+00  0.64206686725E+03  0.11036162004E+04  0.89761843546E+03 0.  0.
        5    1    3    3  502    0  0.93503024311E+02 -0.40956676768E+03  0.51512166379E+03  0.66472563607E+03  0.46999998093E+01 0. -1.
       -5    1    3    3    0  502 -0.93503024311E+02  0.40956676768E+03  0.12694520346E+03  0.43889056429E+03  0.46999998093E+01 0.  1.
</event>
<event>
 5   0  0.6092779E-03  0.8930098E+03  0.7818609E-02  0.9434362E-01
        1   -1    0    0  501    0  0.00000000000E+00  0.00000000000E+00  0.78171305106E+03  0.78171305108E+03  0.50400001928E-02 0.  1.
       -1   -1    0    0    0  501  0.00000000000E+00  0.00000000000E+00 -0.25503810400E+03  0.25503810405E+03  0.50400001928E-02 0. -1.
    10030    2    1    2    0    0  0.00000000000E+00  0.00000000000E+00  0.52667494706E+03  0.10367511551E+04  0.89300977475E+03 0.  0.
        2    1    3    3  502    0  0.17193169819E+03  0.40976598403E+03  0.21275966538E+03  0.49268178953E+03  0.25500000920E-02 0. -1.
       -2    1    3    3    0  502 -0.17193169819E+03 -0.40976598403E+03  0.31391528168E+03  0.54406936560E+03  0.25500000920E-02 0.  1.
</event>
<event>
 5   0  0.6137243E-03  0.8847062E+03  0.7818609E-02  0.9444904E-01
       -1   -1    0    0    0  501  0.00000000000E+00  0.00000000000E+00  0.18725611755E+03  0.18725611762E+03  0.50400001928E-02 0. -1.
        1   -1    0    0  501    0  0.00000000000E+00  0.00000000000E+00 -0.10449659586E+04  0.10449659586E+04  0.50400001928E-02 0.  1.
    10030    2    1    2    0    0  0.00000000000E+00  0.00000000000E+00 -0.85770984100E+03  0.12322220762E+04  0.88470620756E+03 0.  0.
        4    1    3    3  502    0 -0.34735849673E+02  0.20405896921E+03 -0.97334678426E+03  0.99511417309E+03  0.12699999809E+01 0.  1.
       -4    1    3    3    0  502  0.34735849673E+02 -0.20405896921E+03  0.11563694325E+03  0.23710790310E+03  0.12699999809E+01 0. -1.
</event>
<event>
 5   0  0.6137243E-03  0.8977920E+03  0.7818609E-02  0.9428346E-01
       -1   -1    0    0    0  501  0.00000000000E+00  0.00000000000E+00  0.21832057732E+03  0.21832057738E+03  0.50400001928E-02 0.  1.
        1   -1    0    0  501    0  0.00000000000E+00  0.00000000000E+00 -0.92298963300E+03  0.92298963301E+03  0.50400001928E-02 0. -1.
    10030    2    1    2    0    0  0.00000000000E+00  0.00000000000E+00 -0.70466905568E+03  0.11413102104E+04  0.89779202397E+03 0.  0.
        4    1    3    3  502    0 -0.27428866372E+03  0.14983578223E+03  0.57275452737E+02  0.31775324242E+03  0.12699999809E+01 0.  1.
       -4    1    3    3    0  502  0.27428866372E+03 -0.14983578223E+03 -0.76194450841E+03  0.82355696797E+03  0.12699999809E+01 0. -1.
</event>
<event>
 5   0  0.1028978E-02  0.8996518E+03  0.7818609E-02  0.9426017E-01
       -2   -1    0    0    0  501  0.00000000000E+00  0.00000000000E+00  0.11432230575E+03  0.11432230578E+03  0.25500000920E-02 0. -1.
        2   -1    0    0  501    0  0.00000000000E+00  0.00000000000E+00 -0.17699376773E+04  0.17699376773E+04  0.25500000920E-02 0.  1.
    10030    2    1    2    0    0  0.00000000000E+00  0.00000000000E+00 -0.16556153715E+04  0.18842599831E+04  0.89965183562E+03 0.  0.
        3    1    3    3  502    0 -0.10589473985E+03 -0.23853470193E+03 -0.60459415534E+02  0.26789522407E+03  0.10100000352E+00 0. -1.
       -3    1    3    3    0  502  0.10589473985E+03  0.23853470193E+03 -0.15951559560E+04  0.16163647590E+04  0.10100000352E+00 0.  1.
</event>
<event>
 5   0  0.6092779E-03  0.8959918E+03  0.7818609E-02  0.9430606E-01
        1   -1    0    0  501    0  0.00000000000E+00  0.00000000000E+00  0.42686521306E+03  0.42686521309E+03  0.50400001928E-02 0.  1.
       -1   -1    0    0    0  501  0.00000000000E+00  0.00000000000E+00 -0.47017260509E+03  0.47017260512E+03  0.50400001928E-02 0. -1.
    10030    2    1    2    0    0  0.00000000000E+00  0.00000000000E+00 -0.43307392028E+02  0.89703781821E+03  0.89599180638E+03 0.  0.
        2    1    3    3  502    0 -0.23621348364E+03  0.31768370513E+03 -0.23161400597E+03  0.45865541982E+03  0.25500000920E-02 0. -1.
       -2    1    3    3    0  502  0.23621348364E+03 -0.31768370513E+03  0.18830661394E+03  0.43838239839E+03  0.25500000920E-02 0.  1.
</event>
<event>
 5   0  0.1028978E-02  0.9272489E+03  0.7818609E-02  0.9392146E-01
       -2   -1    0    0    0  501  0.00000000000E+00  0.00000000000E+00  0.11078549466E+03  0.11078549469E+03  0.25500000920E-02 0.  1.
        2   -1    0    0  501    0  0.00000000000E+00  0.00000000000E+00 -0.19402144601E+04  0.19402144601E+04  0.25500000920E-02 0. -1.
    10030    2    1    2    0    0  0.00000000000E+00  0.00000000000E+00 -0.18294289654E+04  0.20509999548E+04  0.92724887431E+03 0.  0.
        3    1    3    3  502    0 -0.49639823050E+02  0.44553930579E+03 -0.65320025242E+03  0.79223731608E+03  0.10100000352E+00 0.  1.
       -3    1    3    3    0  502  0.49639823050E+02 -0.44553930579E+03 -0.11762287130E+04  0.12587626387E+04  0.10100000352E+00 0. -1.
</event>
<event>
 5   0  0.6211218E-03  0.9014101E+03  0.7818609E-02  0.9423820E-01
       -1   -1    0    0    0  501  0.00000000000E+00  0.00000000000E+00  0.82883103701E+02  0.82883103854E+02  0.50400001928E-02 0.  1.
        1   -1    0    0  501    0  0.00000000000E+00  0.00000000000E+00 -0.24508621004E+04  0.24508621004E+04  0.50400001928E-02 0. -1.
    10030    2    1    2    0    0  0.00000000000E+00  0.00000000000E+00 -0.23679789967E+04  0.25337452042E+04  0.90141013490E+03 0.  0.
        5    1    3    3  502    0 -0.37242678517E+03 -0.24338223631E+03 -0.98175646704E+03  0.10778703418E+04  0.46999998093E+01 0.  1.
       -5    1    3    3    0  502  0.37242678517E+03  0.24338223631E+03 -0.13862225296E+04  0.14558748624E+04  0.46999998093E+01 0. -1.
</event>
<event>
 5   0  0.1028978E-02  0.9098733E+03  0.7818609E-02  0.9413323E-01
       -2   -1    0    0    0  501  0.00000000000E+00  0.00000000000E+00  0.10826187585E+03  0.10826187588E+03  0.25500000920E-02 0. -1.
        2   -1    0    0  501    0  0.00000000000E+00  0.00000000000E+00 -0.19117290488E+04  0.19117290488E+04  0.25500000920E-02 0.  1.
    10030    2    1    2    0    0  0.00000000000E+00  0.00000000000E+00 -0.18034671729E+04  0.20199909247E+04  0.90987333837E+03 0.  0.
        3    1    3    3  502    0 -0.19979446529E+03  0.12400434910E+03 -0.37120432724E+02  0.23806058826E+03  0.10100000352E+00 0. -1.
       -3    1    3    3    0  502  0.19979446529E+03 -0.12400434910E+03 -0.17663467402E+04  0.17819303364E+04  0.10100000352E+00 0.  1.
</event>
<event>
 5   0  0.6015709E-03  0.9202735E+03  0.7818609E-02  0.9400587E-01
        1   -1    0    0  501    0  0.00000000000E+00  0.00000000000E+00  0.39098302501E+03  0.39098302504E+03  0.50400001928E-02 0.  1.
       -1   -1    0    0    0  501  0.00000000000E+00  0.00000000000E+00 -0.54152184584E+03  0.54152184586E+03  0.50400001928E-02 0. -1.
    10030    2    1    2    0    0  0.00000000000E+00  0.00000000000E+00 -0.15053882083E+03  0.93250487090E+03  0.92027354503E+03 0.  0.
        3    1    3    3  502    0  0.31690398181E+03 -0.72107227253E+02  0.25478708845E+03  0.41296980102E+03  0.10100000352E+00 0.  1.
       -3    1    3    3    0  502 -0.31690398181E+03  0.72107227253E+02 -0.40532590928E+03  0.51953506989E+03  0.10100000352E+00 0. -1.
</event>
<event>
 5   0  0.6211218E-03  0.9077020E+03  0.7818609E-02  0.9416004E-01
        1   -1    0    0  501    0  0.00000000000E+00  0.00000000000E+00  0.26173451498E+03  0.26173451502E+03  0.50400001928E-02 0. -1.
       -1   -1    0    0    0  501  0.00000000000E+00  0.00000000000E+00 -0.78698352887E+03  0.78698352889E+03  0.50400001928E-02 0.  1.
    10030    2    1    2    0    0  0.00000000000E+00  0.00000000000E+00 -0.52524901389E+03  0.10487180439E+04  0.90770204860E+03 0.  0.
        5    1    3    3  502    0 -0.13531419759E+03 -0.36703343654E+03  0.31954902926E+01  0.39122343586E+03  0.46999998093E+01 0.  1.
       -5    1    3    3    0  502  0.13531419759E+03  0.36703343654E+03 -0.52844450419E+03  0.65749460805E+03  0.46999998093E+01 0. -1.
</event>
<event>
 5   0  0.1033749E-02  0.9018264E+03  0.7818609E-02  0.9423301E-01
        2   -1    0    0  501    0  0.00000000000E+00  0.00000000000E+00  0.13834734417E+04  0.13834734417E+04  0.25500000920E-02 0. -1.
       -2   -1    0    0    0  501  0.00000000000E+00  0.00000000000E+00 -0.14696537895E+03  0.14696537898E+03  0.25500000920E-02 0.  1.
    10030    2    1    2    0    0  0.00000000000E+00  0.00000000000E+00  0.12365080628E+04  0.15304388207E+04  0.90182636611E+03 0.  0.
        5    1    3    3  502    0  0.33622076942E+03 -0.27783559051E+03  0.42428862778E+03  0.60850632766E+03  0.46999998093E+01 0.  1.
       -5    1    3    3    0  502 -0.33622076942E+03  0.27783559051E+03  0.81221943499E+03  0.92193249303E+03  0.46999998093E+01 0. -1.
</event>
<event>
 5   0  0.6288003E-03  0.8955646E+03  0.7818609E-02  0.9431143E-01
        1   -1    0    0  501    0  0.00000000000E+00  0.00000000000E+00  0.37874776753E+03  0.37874776756E+03  0.50400001928E-02 0.  1.
       -1   -1    0    0    0  501  0.00000000000E+00  0.00000000000E+00 -0.52939977234E+03  0.52939977237E+03  0.50400001928E-02 0. -1.
    10030    2    1    2    0    0  0.00000000000E+00  0.00000000000E+00 -0.15065200482E+03  0.90814753993E+03  0.89556458601E+03 0.  0.
        1    1    3    3  502    0 -0.28833336075E+03  0.31124042279E+03  0.69871887900E+02  0.42998698637E+03  0.50400001928E-02 0.  1.
       -1    1    3    3    0  502  0.28833336075E+03 -0.31124042279E+03 -0.22052389272E+03  0.47816055356E+03  0.50400001928E-02 0. -1.
</event>
<event>
 5   0  0.6092779E-03  0.9006233E+03  0.7818609E-02  0.9424803E-01
        1   -1    0    0  501    0  0.00000000000E+00  0.00000000000E+00  0.22872464901E+03  0.22872464907E+03  0.50400001928E-02 0. -1.
       -1   -1    0    0    0  501  0.00000000000E+00  0.00000000000E+00 -0.88657073004E+03  0.88657073005E+03  0.50400001928E-02 0.  1.
    10030    2    1    2    0    0  0.00000000000E+00  0.00000000000E+00 -0.65784608102E+03  0.11152953791E+04  0.90062329327E+03 0.  0.
        2    1    3    3  502    0  0.18603493502E+03  0.69404677463E+02  0.17158651792E+03  0.26242701736E+03  0.25500000920E-02 0. -1.
       -2    1    3    3    0  502 -0.18603493502E+03 -0.69404677463E+02 -0.82943259895E+03  0.85286836177E+03  0.25500000920E-02 0.  1.
</event>
<event>
 5   0  0.1003252E-02  0.8966347E+03  0.7818609E-02  0.9429798E-01
       -2   -1    0    0    0  501  0.00000000000E+00  0.00000000000E+00  0.82538412592E+03  0.82538412593E+03  0.25500000920E-02 0. -1.
        2   -1    0    0  501    0  0.00000000000E+00  0.00000000000E+00 -0.24350898429E+03  0.24350898430E+03  0.25500000920E-02 0.  1.
    10030    2    1    2    0    0  0.00000000000E+00  0.00000000000E+00  0.58187514163E+03  0.10688931102E+04  0.89663470859E+03 0.  0.
        2    1    3    3  502    0  0.35312318994E+03 -0.10325048189E+03 -0.14467252683E+02  0.36819281727E+03  0.25500000920E-02 0.  1.
       -2    1    3    3    0  502 -0.35312318994E+03  0.10325048189E+03  0.59634239432E+03  0.70070029296E+03  0.25500000920E-02 0. -1.
</event>
<event>
 5   0  0.1003252E-02  0.9020114E+03  0.7818609E-02  0.9423071E-01
       -2   -1    0    0    0  501  0.00000000000E+00  0.00000000000E+00  0.38290564432E+03  0.38290564433E+03  0.25500000920E-02 0.  1.
        2   -1    0    0  501    0  0.00000000000E+00  0.00000000000E+00 -0.53121739238E+03  0.53121739239E+03  0.25500000920E-02 0. -1.
    10030    2    1    2    0    0  0.00000000000E+00  0.00000000000E+00 -0.14831174806E+03  0.91412303672E+03  0.90201139219E+03 0.  0.
        2    1    3    3  502    0 -0.14178495858E+03 -0.39665803664E+03  0.89146133201E+02  0.43056660992E+03  0.25500000920E-02 0.  1.
       -2    1    3    3    0  502  0.14178495858E+03  0.39665803664E+03 -0.23745788126E+03  0.48355642679E+03  0.25500000920E-02 0. -1.
</event>
<event>
 5   0  0.1041727E-02  0.8661664E+03  0.7818609E-02  0.9468892E-01
        2   -1    0    0  501    0  0.00000000000E+00  0.00000000000E+00  0.54242292865E+03  0.54242292865E+03  0.25500000920E-02 0. -1.
       -2   -1    0    0    0  501  0.00000000000E+00  0.00000000000E+00 -0.34578378641E+03  0.34578378642E+03  0.25500000920E-02 0.  1.
    10030    2    1    2    0    0  0.00000000000E+00  0.00000000000E+00  0.19663914224E+03  0.88820671507E+03  0.86616639073E+03 0.  0.
        4    1    3    3  502    0  0.25984459424E+03 -0.59808768746E+02  0.44827035467E+03  0.52157859020E+03  0.12699999809E+01 0. -1.
       -4    1    3    3    0  502 -0.25984459424E+03  0.59808768746E+02 -0.25163121244E+03  0.36662812487E+03  0.12699999809E+01 0.  1.
</event>
<event>
 5   0  0.1017079E-02  0.8933957E+03  0.7818609E-02  0.9433875E-01
        2   -1    0    0  501    0  0.00000000000E+00  0.00000000000E+00  0.49637940961E+03  0.49637940962E+03  0.25500000920E-02 0.  1.
       -2   -1    0    0    0  501  0.00000000000E+00  0.00000000000E+00 -0.40198882815E+03  0.40198882815E+03  0.25500000920E-02 0. -1.
    10030    2    1    2    0    0  0.00000000000E+00  0.00000000000E+00  0.94390581464E+02  0.89836823777E+03  0.89339571790E+03 0.  0.
        1    1    3    3  502    0  0.42473111098E+03 -0.13385062226E+03  0.82411227393E+02  0.45288421935E+03  0.50400001928E-02 0. -1.
       -1    1    3    3    0  502 -0.42473111098E+03  0.13385062226E+03  0.11979354071E+02  0.44548401842E+03  0.50400001928E-02 0.  1.
</event>
<event>
 5   0  0.3996375E-03  0.9023843E+03  0.7818609E-02  0.9422606E-01
        4   -1    0    0  501    0  0.00000000000E+00  0.00000000000E+00  0.89712484316E+03  0.89712574209E+03  0.12699999809E+01 0.  1.
       -4   -1    0    0    0  501  0.00000000000E+00  0.00000000000E+00 -0.22691584052E+03  0.22691939445E+03  0.12699999809E+01 0. -1.
    10030    2    1    2    0    0  0.00000000000E+00  0.00000000000E+00  0.67020900265E+03  0.11240451365E+04  0.90238426501E+03 0.  0.
        4    1    3    3  502    0 -0.25152408027E+03  0.35787373441E+03  0.47288567249E+03  0.64417423488E+03  0.12699999809E+01 0.  1.
       -4    1    3    3    0  502  0.25152408027E+03 -0.35787373441E+03  0.19732333016E+03  0.47987090166E+03  0.12699999809E+01 0. -1.
</event>
<event>
 5   0  0.1003252E-02  0.8960690E+03  0.7818609E-02  0.9430509E-01
       -2   -1    0    0    0  501  0.00000000000E+00  0.00000000000E+00  0.40083967182E+03  0.40083967183E+03  0.25500000920E-02 0.  1.
        2   -1    0    0  501    0  0.00000000000E+00  0.00000000000E+00 -0.50078602088E+03  0.50078602089E+03  0.25500000920E-02 0. -1.
    10030    2    1    2    0    0  0.00000000000E+00  0.00000000000E+00 -0.99946349059E+02  0.90162569271E+03  0.89606898009E+03 0.  0.
        2    1    3    3  502    0  0.23128017458E+03  0.24575850432E+03 -0.34649905408E+03  0.48368311536E+03  0.25500000920E-02 0. -1.
       -2    1    3    3    0  502 -0.23128017458E+03 -0.24575850432E+03  0.24655270502E+03  0.41794257735E+03  0.25500000920E-02 0.  1.
</event>
<event>
 5   0  0.1028978E-02  0.9028570E+03  0.7818609E-02  0.9422017E-01
        2   -1    0    0  501    0  0.00000000000E+00  0.00000000000E+00  0.18499213818E+04  0.18499213818E+04  0.25500000920E-02 0. -1.
       -2   -1    0    0    0  501  0.00000000000E+00  0.00000000000E+00 -0.11016019155E+03  0.11016019158E+03  0.25500000920E-02 0.  1.
    10030    2    1    2    0    0  0.00000000000E+00  0.00000000000E+00  0.17397611903E+04  0.19600815734E+04  0.90285700707E+03 0.  0.
        3    1    3    3  502    0  0.43927338460E+03  0.84261674505E+01  0.10950306346E+04  0.11798831331E+04  0.10100000352E+00 0.  1.
       -3    1    3    3    0  502 -0.43927338460E+03 -0.84261674505E+01  0.64473055561E+03  0.78019844031E+03  0.10100000352E+00 0. -1.
</event>
<event>
 5   0  0.3996375E-03  0.9152226E+03  0.7818609E-02  0.9406750E-01
        3   -1    0    0  501    0  0.00000000000E+00  0.00000000000E+00  0.69955451646E+03  0.69955452375E+03  0.10100000352E+00 0. -1.
       -3   -1    0    0    0  501  0.00000000000E+00  0.00000000000E+00 -0.29934494493E+03  0.29934496197E+03  0.10100000352E+00 0.  1.
    10030    2    1    2    0    0  0.00000000000E+00  0.00000000000E+00  0.40020957153E+03  0.99889948572E+03  0.91522264036E+03 0.  0.
        4    1    3    3  502    0  0.37530976152E+03  0.25827022626E+03  0.15321680372E+03  0.48066404973E+03  0.12699999809E+01 0.  1.
       -4    1    3    3    0  502 -0.37530976152E+03 -0.25827022626E+03  0.24699276781E+03  0.51823543599E+03  0.12699999809E+01 0. -1.
</event>
<event>
 5   0  0.3996375E-03  0.8977136E+03  0.7818609E-02  0.9428444E-01
       -3   -1    0    0    0  501  0.00000000000E+00  0.00000000000E+00  0.32090336813E+03  0.32090338402E+03  0.10100000352E+00 0.  1.
        3   -1    0    0  501    0  0.00000000000E+00  0.00000000000E+00 -0.62782897681E+03  0.62782898494E+03  0.10100000352E+00 0. -1.
    10030    2    1    2    0    0  0.00000000000E+00  0.00000000000E+00 -0.30692560869E+03  0.94873236896E+03  0.89771363956E+03 0.  0.
        4    1    3    3  502    0 -0.37309399271E+03 -0.94774623187E+02 -0.39742729335E+03  0.55329144490E+03  0.12699999809E+01 0. -1.
       -4    1    3    3    0  502  0.37309399271E+03  0.94774623187E+02  0.90501684669E+02  0.39544092406E+03  0.12699999809E+01 0.  1.
</event>
<event>
 5   0  0.6015709E-03  0.9164705E+03  0.7818609E-02  0.9405223E-01
        1   -1    0    0  501    0  0.00000000000E+00  0.00000000000E+00  0.19005724158E+03  0.19005724164E+03  0.50400001928E-02 0.  1.
       -1   -1    0    0    0  501  0.00000000000E+00  0.00000000000E+00 -0.11048227038E+04  0.11048227038E+04  0.50400001928E-02 0. -1.
    10030    2    1    2    0    0  0.00000000000E+00  0.00000000000E+00 -0.91476546222E+03  0.12948799455E+04  0.91647052449E+03 0.  0.
        3    1    3    3  502    0  0.13086308438E+03 -0.10545598323E+02  0.16291547183E+03  0.20923149299E+03  0.10100000352E+00 0.  1.
       -3    1    3    3    0  502 -0.13086308438E+03  0.10545598323E+02 -0.10776809341E+04  0.10856484525E+04  0.10100000352E+00 0. -1.
</event>
<event>
 5   0  0.1033749E-02  0.9054650E+03  0.7818609E-02  0.9418776E-01
        2   -1    0    0  501    0  0.00000000000E+00  0.00000000000E+00  0.65489443998E+03  0.65489443998E+03  0.25500000920E-02 0.  1.
       -2   -1    0    0    0  501  0.00000000000E+00  0.00000000000E+00 -0.31297669493E+03  0.31297669494E+03  0.25500000920E-02 0. -1.
    10030    2    1    2    0    0  0.00000000000E+00  0.00000000000E+00  0.34191774505E+03  0.96787113492E+03  0.90546495759E+03 0.  0.
        5    1    3    3  502    0 -0.36854712795E+03 -0.25958045649E+03  0.12642691679E+03  0.46820385966E+03  0.46999998093E+01 0.  1.
       -5    1    3    3    0  502  0.36854712795E+03  0.25958045649E+03  0.21549082826E+03  0.49966727526E+03  0.46999998093E+01 0. -1.
</event>
<event>
 5   0  0.6137243E-03  0.9074567E+03  0.7818609E-02  0.9416308E-01
        1   -1    0    0  501    0  0.00000000000E+00  0.00000000000E+00  0.68536729121E+03  0.68536729123E+03  0.50400001928E-02 0. -1.
       -1   -1    0    0    0  501  0.00000000000E+00  0.00000000000E+00 -0.30037821038E+03  0.30037821042E+03  0.50400001928E-02 0.  1.
    10030    2    1    2    0    0  0.00000000000E+00  0.00000000000E+00  0.38498908083E+03  0.98574550165E+03  0.90745666654E+03 0.  0.
        4    1    3    3  502    0  0.23518850461E+03 -0.38192498336E+03  0.26686625327E+03  0.52191908918E+03  0.12699999809E+01 0. -1.
       -4    1    3    3    0  502 -0.23518850461E+03  0.38192498336E+03  0.11812282757E+03  0.46382641247E+03  0.12699999809E+01 0.  1.
</event>
<event>
 5   0  0.1017079E-02  0.8994194E+03  0.7818609E-02  0.9426308E-01
       -2   -1    0    0    0  501  0.00000000000E+00  0.00000000000E+00  0.75486357338E+02  0.75486357381E+02  0.25500000920E-02 0. -1.
        2   -1    0    0  501    0  0.00000000000E+00  0.00000000000E+00 -0.26791437210E+04  0.26791437210E+04  0.25500000920E-02 0.  1.
    10030    2    1    2    0    0  0.00000000000E+00  0.00000000000E+00 -0.26036573637E+04  0.27546300784E+04  0.89941936903E+03 0.  0.
        1    1    3    3  502    0 -0.11573746405E+03 -0.43362736305E+03 -0.12146123088E+04  0.12948787246E+04  0.50400001928E-02 0. -1.
       -1    1    3    3    0  502  0.11573746405E+03  0.43362736305E+03 -0.13890450549E+04  0.14597513539E+04  0.50400001928E-02 0.  1.
</event>
<event>
 5   0  0.3996375E-03  0.9069896E+03  0.7818609E-02  0.9416886E-01
       -3   -1    0    0    0  501  0.00000000000E+00  0.00000000000E+00  0.12580392880E+04  0.12580392920E+04  0.10100000352E+00 0. -1.
        3   -1    0    0  501    0  0.00000000000E+00  0.00000000000E+00 -0.16347464696E+03  0.16347467816E+03  0.10100000352E+00 0.  1.
    10030    2    1    2    0    0  0.00000000000E+00  0.00000000000E+00  0.10945646410E+04  0.14215139702E+04  0.90698964387E+03 0.  0.
        3    1    3    3  502    0  0.52351388242E+02 -0.73370743457E+02 -0.14929495715E+03  0.17439302818E+03  0.10100000352E+00 0.  1.
       -3    1    3    3    0  502 -0.52351388242E+02  0.73370743457E+02  0.12438595982E+04  0.12471209420E+04  0.10100000352E+00 0. -1.
</event>
<event>
 5   0  0.1003252E-02  0.8987214E+03  0.7818609E-02  0.9427181E-01
       -2   -1    0    0    0  501  0.00000000000E+00  0.00000000000E+00  0.21034805385E+03  0.21034805386E+03  0.25500000920E-02 0.  1.
        2   -1    0    0  501    0  0.00000000000E+00  0.00000000000E+00 -0.95995668150E+03  0.95995668151E+03  0.25500000920E-02 0. -1.
    10030    2    1    2    0    0  0.00000000000E+00  0.00000000000E+00 -0.74960862765E+03  0.11703047354E+04  0.89872135781E+03 0.  0.
        2    1    3    3  502    0  0.67069734088E+02 -0.36411944058E+03 -0.43209442169E+02  0.37275779286E+03  0.25500000920E-02 0.  1.
       -2    1    3    3    0  502 -0.67069734088E+02  0.36411944058E+03 -0.70639918549E+03  0.79754694251E+03  0.25500000920E-02 0. -1.
</event>
<event>
 5   0  0.6211218E-03  0.9058439E+03  0.7818609E-02  0.9418306E-01
        1   -1    0    0  501    0  0.00000000000E+00  0.00000000000E+00  0.67089264710E+03  0.67089264712E+03  0.50400001928E-02 0.  1.
       -1   -1    0    0    0  501  0.00000000000E+00  0.00000000000E+00 -0.30576916279E+03  0.30576916283E+03  0.50400001928E-02 0. -1.
    10030    2    1    2    0    0  0.00000000000E+00  0.00000000000E+00  0.36512348431E+03  0.97666180995E+03  0.90584387850E+03 0.  0.
        5    1    3    3  502    0  0.35674571447E+03  0.21202824505E+03 -0.12980544979E+02  0.41522772793E+03  0.46999998093E+01 0. -1.
       -5    1    3    3    0  502 -0.35674571447E+03 -0.21202824505E+03  0.37810402929E+03  0.56143408202E+03  0.46999998093E+01 0.  1.
</event>
<event>
 5   0  0.1041727E-02  0.9036562E+03  0.7818609E-02  0.9421023E-01
        2   -1    0    0  501    0  0.00000000000E+00  0.00000000000E+00  0.30047232735E+03  0.30047232736E+03  0.25500000920E-02 0.  1.
       -2   -1    0    0    0  501  0.00000000000E+00  0.00000000000E+00 -0.67942570303E+03  0.67942570303E+03  0.25500000920E-02 0. -1.
    10030    2    1    2    0    0  0.00000000000E+00  0.00000000000E+00 -0.37895337568E+03  0.97989803039E+03  0.90365617854E+03 0.  0.
        4    1    3    3  502    0  0.10676221154E+03 -0.38632929065E+03  0.36682843961E+02  0.40248693714E+03  0.12699999809E+01 0.  1.
       -4    1    3    3    0  502 -0.10676221154E+03  0.38632929065E+03 -0.41563621964E+03  0.57741109325E+03  0.12699999809E+01 0. -1.
</event>
<event>
 5   0  0.1033749E-02  0.9028041E+03  0.7818609E-02  0.9422083E-01
       -2   -1    0    0    0  501  0.00000000000E+00  0.00000000000E+00  0.18769097510E+03  0.18769097511E+03  0.25500000920E-02 0.  1.
        2   -1    0    0  501    0  0.00000000000E+00  0.00000000000E+00 -0.10856345407E+04  0.10856345407E+04  0.25500000920E-02 0. -1.
    10030    2    1    2    0    0  0.00000000000E+00  0.00000000000E+00 -0.89794356559E+03  0.12733255158E+04  0.90280408850E+03 0.  0.
        5    1    3    3  502    0  0.38404479303E+03 -0.23716169066E+03 -0.45232280377E+03  0.63902588318E+03  0.46999998093E+01 0.  1.
       -5    1    3    3    0  502 -0.38404479303E+03  0.23716169066E+03 -0.44562076183E+03  0.63429963262E+03  0.46999998093E+01 0. -1.
</event>
<event>
 5   0  0.6137243E-03  0.9000440E+03  0.7818609E-02  0.9425526E-01
        1   -1    0    0  501    0  0.00000000000E+00  0.00000000000E+00  0.72880812567E+03  0.72880812568E+03  0.50400001928E-02 0.  1.
       -1   -1    0    0    0  501  0.00000000000E+00  0.00000000000E+00 -0.27787809090E+03  0.27787809095E+03  0.50400001928E-02 0. -1.
    10030    2    1    2    0    0  0.00000000000E+00  0.00000000000E+00  0.45093003477E+03  0.10066862166E+04  0.90004402254E+03 0.  0.
        4    1    3    3  502    0  0.31067376216E+03  0.32543543198E+03  0.21474908286E+03  0.49854306571E+03  0.12699999809E+01 0. -1.
       -4    1    3    3    0  502 -0.31067376216E+03 -0.32543543198E+03  0.23618095191E+03  0.50814315092E+03  0.12699999809E+01 0.  1.
</event>
<event>
 5   0  0.1028978E-02  0.8960806E+03  0.7818609E-02  0.9430494E-01
        2   -1    0    0  501    0  0.00000000000E+00  0.00000000000E+00  0.88760049437E+03  0.88760049437E+03  0.25500000920E-02 0. -1.
       -2   -1    0    0    0  501  0.00000000000E+00  0.00000000000E+00 -0.22616045058E+03  0.22616045060E+03  0.25500000920E-02 0.  1.
    10030    2    1    2    0    0  0.00000000000E+00  0.00000000000E+00  0.66144004378E+03  0.11137609450E+04  0.89608063868E+03 0.  0.
        3    1    3    3  502    0  0.52576303693E+02  0.31714969627E+03 -0.57167987769E+02  0.32652164795E+03  0.10100000352E+00 0.  1.
       -3    1    3    3    0  502 -0.52576303693E+02 -0.31714969627E+03  0.71860803155E+03  0.78723929702E+03  0.10100000352E+00 0. -1.
</event>
<event>
 5   0  0.6211218E-03  0.8945578E+03  0.7818609E-02  0.9432410E-01
       -1   -1    0    0    0  501  0.00000000000E+00  0.00000000000E+00  0.94041700239E+03  0.94041700240E+03  0.50400001928E-02 0. -1.
        1   -1    0    0  501    0  0.00000000000E+00  0.00000000000E+00 -0.21273374126E+03  0.21273374132E+03  0.50400001928E-02 0.  1.
    10030    2    1    2    0    0  0.00000000000E+00  0.00000000000E+00  0.72768326112E+03  0.11531507437E+04  0.89455782889E+03 0.  0.
        5    1    3    3  502    0 -0.36275799907E+03  0.14082096227E+03  0.64805946040E+03  0.75592794863E+03  0.46999998093E+01 0.  1.
       -5    1    3    3    0  502  0.36275799907E+03 -0.14082096227E+03  0.79623800725E+02  0.39722279510E+03  0.46999998093E+01 0. -1.
</event>
<event>
 5   0  0.6015709E-03  0.8969982E+03  0.7818609E-02  0.9429342E-01
        1   -1    0    0  501    0  0.00000000000E+00  0.00000000000E+00  0.35847147863E+03  0.35847147866E+03  0.50400001928E-02 0.  1.
       -1   -1    0    0    0  501  0.00000000000E+00  0.00000000000E+00 -0.56113658057E+03  0.56113658059E+03  0.50400001928E-02 0. -1.
    10030    2    1    2    0    0  0.00000000000E+00  0.00000000000E+00 -0.20266510194E+03  0.91960805925E+03  0.89699823807E+03 0.  0.
        3    1    3    3  502    0 -0.28155247268E+03  0.13714419604E+03  0.22780670658E+03  0.38726764794E+03  0.10100000352E+00 0.  1.
       -3    1    3    3    0  502  0.28155247268E+03 -0.13714419604E+03 -0.43047180852E+03  0.53234041131E+03  0.10100000352E+00 0. -1.
</event>
<event>
 5   0  0.6015709E-03  0.9151028E+03  0.7818609E-02  0.9406897E-01
       -1   -1    0    0    0  501  0.00000000000E+00  0.00000000000E+00  0.59919613762E+03  0.59919613764E+03  0.50400001928E-02 0.  1.
        1   -1    0    0  501    0  0.00000000000E+00  0.00000000000E+00 -0.34939022473E+03  0.34939022477E+03  0.50400001928E-02 0. -1.
    10030    2    1    2    0    0  0.00000000000E+00  0.00000000000E+00  0.24980591289E+03  0.94858636241E+03  0.91510277720E+03 0.  0.
        3    1    3    3  502    0  0.36134492965E+03  0.89358176474E+02  0.40071814369E+03  0.54692785884E+03  0.10100000352E+00 0.  1.
       -3    1    3    3    0  502 -0.36134492965E+03 -0.89358176474E+02 -0.15091223080E+03  0.40165850357E+03  0.10100000352E+00 0. -1.
</event>
<event>
 5   0  0.6137243E-03  0.9392791E+03  0.7818609E-02  0.9377770E-01
        1   -1    0    0  501    0  0.00000000000E+00  0.00000000000E+00  0.76373484485E+03  0.76373484486E+03  0.50400001928E-02 0. -1.
       -1   -1    0    0    0  501  0.00000000000E+00  0.00000000000E+00 -0.28879301814E+03  0.28879301819E+03  0.50400001928E-02 0.  1.
    10030    2    1    2    0    0  0.00000000000E+00  0.00000000000E+00  0.47494182671E+03  0.10525278631E+04  0.93927906596E+03 0.  0.
        4    1    3    3  502    0  0.18829815068E+03  0.11724613419E+03 -0.22639201584E+03  0.31695079629E+03  0.12699999809E+01 0.  1.
       -4    1    3    3    0  502 -0.18829815068E+03 -0.11724613419E+03  0.70133384255E+03  0.73557706676E+03  0.12699999809E+01 0. -1.
</event>
<event>
 5   0  0.1028978E-02  0.8785388E+03  0.7818609E-02  0.9452814E-01
        2   -1    0    0  501    0  0.00000000000E+00  0.00000000000E+00  0.52904642105E+03  0.52904642106E+03  0.25500000920E-02 0.  1.
       -2   -1    0    0    0  501  0.00000000000E+00  0.00000000000E+00 -0.36472714384E+03  0.36472714384E+03  0.25500000920E-02 0. -1.
    10030    2    1    2    0    0  0.00000000000E+00  0.00000000000E+00  0.16431927722E+03  0.89377356490E+03  0.87853876434E+03 0.  0.
        3    1    3    3  502    0  0.21462225762E+03 -0.26433534163E+03 -0.20018081524E+03  0.39497880360E+03  0.10100000352E+00 0. -1.
       -3    1    3    3    0  502 -0.21462225762E+03  0.26433534163E+03  0.36450009246E+03  0.49879476131E+03  0.10100000352E+00 0.  1.
</event>
<event>
 5   0  0.3996375E-03  0.9032809E+03  0.7818609E-02  0.9421489E-01
        3   -1    0    0  501    0  0.00000000000E+00  0.00000000000E+00  0.76855925470E+03  0.76855926133E+03  0.10100000352E+00 0. -1.
       -3   -1    0    0    0  501  0.00000000000E+00  0.00000000000E+00 -0.26540447912E+03  0.26540449834E+03  0.10100000352E+00 0.  1.
    10030    2    1    2    0    0  0.00000000000E+00  0.00000000000E+00  0.50315477557E+03  0.10339637597E+04  0.90328086891E+03 0.  0.
        2    1    3    3  502    0  0.36627606785E+02 -0.24568954463E+03 -0.18018569091E+03  0.30687426927E+03  0.25500000920E-02 0.  1.
       -2    1    3    3    0  502 -0.36627606785E+02  0.24568954463E+03  0.68334046649E+03  0.72708949041E+03  0.25500000920E-02 0. -1.
</event>
<event>
 5   0  0.1028978E-02  0.8918835E+03  0.7818609E-02  0.9435785E-01
       -2   -1    0    0    0  501  0.00000000000E+00  0.00000000000E+00  0.46098634128E+03  0.46098634129E+03  0.25500000920E-02 0. -1.
        2   -1    0    0  501    0  0.00000000000E+00  0.00000000000E+00 -0.43138818590E+03  0.43138818591E+03  0.25500000920E-02 0.  1.
    10030    2    1    2    0    0  0.00000000000E+00  0.00000000000E+00  0.29598155378E+02  0.89237452720E+03  0.89188353835E+03 0.  0.
        3    1    3    3  502    0 -0.55877724467E+02  0.44030666540E+03 -0.28488715346E+02  0.44475150004E+03  0.10100000352E+00 0. -1.
       -3    1    3    3    0  502  0.55877724467E+02 -0.44030666540E+03  0.58086870724E+02  0.44762302715E+03  0.10100000352E+00 0.  1.
</event>
<event>
 5   0  0.1033749E-02  0.8822557E+03  0.7818609E-02  0.9448039E-01
       -2   -1    0    0    0  501  0.00000000000E+00  0.00000000000E+00  0.34998343873E+03  0.34998343874E+03  0.25500000920E-02 0. -1.
        2   -1    0    0  501    0  0.00000000000E+00  0.00000000000E+00 -0.55600858972E+03  0.55600858972E+03  0.25500000920E-02 0.  1.
    10030    2    1    2    0    0  0.00000000000E+00  0.00000000000E+00 -0.20602515099E+03  0.90599202846E+03  0.88225574115E+03 0.  0.
        5    1    3    3  502    0 -0.37139445651E+03 -0.14312201668E+03 -0.29827010278E+03  0.49739812846E+03  0.46999998093E+01 0.  1.
       -5    1    3    3    0  502  0.37139445651E+03  0.14312201668E+03  0.92244951792E+02  0.40859390000E+03  0.46999998093E+01 0. -1.
</event>
<event>
 5   0  0.6092779E-03  0.9189235E+03  0.7818609E-02  0.9402231E-01
       -1   -1    0    0    0  501  0.00000000000E+00  0.00000000000E+00  0.17941547711E+03  0.17941547718E+03  0.50400001928E-02 0.  1.
        1   -1    0    0  501    0  0.00000000000E+00  0.00000000000E+00 -0.11766269426E+04  0.11766269427E+04  0.50400001928E-02 0. -1.
    10030    2    1    2    0    0  0.00000000000E+00  0.00000000000E+00 -0.99721146554E+03  0.13560424198E+04  0.91892346656E+03 0.  0.
        2    1    3    3  502    0  0.38523045947E+02 -0.62462791319E+02 -0.11679223692E+04  0.11702257414E+04  0.25500000920E-02 0. -1.
       -2    1    3    3    0  502 -0.38523045947E+02  0.62462791319E+02  0.17071090363E+03  0.18581667846E+03  0.25500000920E-02 0.  1.
</event>
<event>
 5   0  0.6137243E-03  0.8964517E+03  0.7818609E-02  0.9430028E-01
        1   -1    0    0  501    0  0.00000000000E+00  0.00000000000E+00  0.66797089506E+03  0.66797089508E+03  0.50400001928E-02 0.  1.
       -1   -1    0    0    0  501  0.00000000000E+00  0.00000000000E+00 -0.30077121616E+03  0.30077121620E+03  0.50400001928E-02 0. -1.
    10030    2    1    2    0    0  0.00000000000E+00  0.00000000000E+00  0.36719967890E+03  0.96874211129E+03  0.89645171314E+03 0.  0.
        4    1    3    3  502    0 -0.38271310171E+03  0.21710523195E+03  0.91264771973E+02  0.44937164070E+03  0.12699999809E+01 0. -1.
       -4    1    3    3    0  502  0.38271310171E+03 -0.21710523195E+03  0.27593490693E+03  0.51937047059E+03  0.12699999809E+01 0.  1.
</event>
<event>
 5   0  0.1003252E-02  0.8860971E+03  0.7818609E-02  0.9443130E-01
       -2   -1    0    0    0  501  0.00000000000E+00  0.00000000000E+00  0.15659219571E+03  0.15659219573E+03  0.25500000920E-02 0. -1.
        2   -1    0    0  501    0  0.00000000000E+00  0.00000000000E+00 -0.12535236243E+04  0.12535236243E+04  0.25500000920E-02 0.  1.
    10030    2    1    2    0    0  0.00000000000E+00  0.00000000000E+00 -0.10969314286E+04  0.14101158200E+04  0.88609709787E+03 0.  0.
        2    1    3    3  502    0  0.52248215176E+02 -0.21432054921E+03 -0.11599130806E+04  0.11807038275E+04  0.25500000920E-02 0.  1.
       -2    1    3    3    0  502 -0.52248215176E+02  0.21432054921E+03  0.62981652007E+02  0.22941199249E+03  0.25500000920E-02 0. -1.
</event>
<event>
 5   0  0.1028978E-02  0.9463036E+03  0.7818609E-02  0.9369482E-01
        2   -1    0    0  501    0  0.00000000000E+00  0.00000000000E+00  0.17856853580E+04  0.17856853580E+04  0.25500000920E-02 0.  1.
       -2   -1    0    0    0  501  0.00000000000E+00  0.00000000000E+00 -0.12537069468E+03  0.12537069471E+03  0.25500000920E-02 0. -1.
    10030    2    1    2    0    0  0.00000000000E+00  0.00000000000E+00  0.16603146633E+04  0.19110560527E+04  0.94630357463E+03 0.  0.
        3    1    3    3  502    0  0.34479127057E+03 -0.31909322653E+03  0.94388015960E+03  0.10543297745E+04  0.10100000352E+00 0. -1.
       -3    1    3    3    0  502 -0.34479127057E+03  0.31909322653E+03  0.71643450370E+03  0.85672627821E+03  0.10100000352E+00 0.  1.
</event>
<event>
 5   0  0.6288003E-03  0.9049412E+03  0.7818609E-02  0.9419426E-01
       -1   -1    0    0    0  501  0.00000000000E+00  0.00000000000E+00  0.10758180760E+04  0.10758180760E+04  0.50400001928E-02 0. -1.
        1   -1    0    0  501    0  0.00000000000E+00  0.00000000000E+00 -0.19030137910E+03  0.19030137917E+03  0.50400001928E-02 0.  1.
    10030    2    1    2    0    0  0.00000000000E+00  0.00000000000E+00  0.88551669690E+03  0.12661194552E+04  0.90494124356E+03 0.  0.
        1    1    3    3  502    0 -0.69513536792E+02  0.88638422938E+02  0.10558861514E+04  0.10618778021E+04  0.50400001928E-02 0. -1.
       -1    1    3    3    0  502  0.69513536792E+02 -0.88638422938E+02 -0.17036945449E+03  0.20424165311E+03  0.50400001928E-02 0.  1.
</event>
<event>
 5   0  0.1033749E-02  0.9075017E+03  0.7818609E-02  0.9416252E-01
       -2   -1    0    0    0  501  0.00000000000E+00  0.00000000000E+00  0.13692483257E+03  0.13692483259E+03  0.25500000920E-02 0.  1.
        2   -1    0    0  501    0  0.00000000000E+00  0.00000000000E+00 -0.15036705378E+04  0.15036705378E+04  0.25500000920E-02 0. -1.
    10030    2    1    2    0    0  0.00000000000E+00  0.00000000000E+00 -0.13667457052E+04  0.16405953704E+04  0.90750170610E+03 0.  0.
        5    1    3    3  502    0  0.28580762218E+03  0.27193177130E+03 -0.27818479545E+03  0.48274398552E+03  0.46999998093E+01 0.  1.
       -5    1    3    3    0  502 -0.28580762218E+03 -0.27193177130E+03 -0.10885609098E+04  0.11578513849E+04  0.46999998093E+01 0. -1.
</event>
<event>
 5   0  0.6137243E-03  0.8882541E+03  0.7818609E-02  0.9440385E-01
        1   -1    0    0  501    0  0.00000000000E+00  0.00000000000E+00  0.60155938127E+03  0.60155938130E+03  0.50400001928E-02 0.  1.
       -1   -1    0    0    0  501  0.00000000000E+00  0.00000000000E+00 -0.32789584478E+03  0.32789584482E+03  0.50400001928E-02 0. -1.
    10030    2    1    2    0    0  0.00000000000E+00  0.00000000000E+00  0.27366353649E+03  0.92945522612E+03  0.88825406622E+03 0.  0.
        4    1    3    3  502    0  0.32013705927E+03 -0.13024609217E+03  0.42868755251E+03  0.55065997841E+03  0.12699999809E+01 0.  1.
       -4    1    3    3    0  502 -0.32013705927E+03  0.13024609217E+03 -0.15502401602E+03  0.37879524771E+03  0.12699999809E+01 0. -1.
</event>
<event>
 5   0  0.6211218E-03  0.9052008E+03  0.7818609E-02  0.9419103E-01
       -1   -1    0    0    0  501  0.00000000000E+00  0.00000000000E+00  0.32427071780E+03  0.32427071784E+03  0.50400001928E-02 0. -1.
        1   -1    0    0  501    0  0.00000000000E+00  0.00000000000E+00 -0.63171633890E+03  0.63171633892E+03  0.50400001928E-02 0.  1.
    10030    2    1    2    0    0  0.00000000000E+00  0.00000000000E+00 -0.30744562110E+03  0.95598705676E+03  0.90520077483E+03 0.  0.
        5    1    3    3  502    0 -0.18231307930E+03  0.10231119541E+03 -0.57763996158E+03  0.61432536558E+03  0.46999998093E+01 0.  1.
       -5    1    3    3    0  502  0.18231307930E+03 -0.10231119541E+03  0.27019434048E+03  0.34166169117E+03  0.46999998093E+01 0. -1.
</event>
<event>
 5   0  0.1003252E-02  0.9169096E+03  0.7818609E-02  0.9404687E-01
        2   -1    0    0  501    0  0.00000000000E+00  0.00000000000E+00  0.18064329423E+04  0.18064329423E+04  0.25500000920E-02 0.  1.
       -2   -1    0    0    0  501  0.00000000000E+00  0.00000000000E+00 -0.11635128548E+03  0.11635128551E+03  0.25500000920E-02 0. -1.
    10030    2    1    2    0    0  0.00000000000E+00  0.00000000000E+00  0.16900816568E+04  0.19227842278E+04  0.91690958115E+03 0.  0.
        2    1    3    3  502    0  0.12186083608E+03 -0.43836329108E+03  0.72700303773E+03  0.85763970012E+03  0.25500000920E-02 0.  1.
       -2    1    3    3    0  502 -0.12186083608E+03  0.43836329108E+03  0.96307861905E+03  0.10651445277E+04  0.25500000920E-02 0. -1.
</event>
<event>
 5   0  0.6288003E-03  0.9051265E+03  0.7818609E-02  0.9419196E-01
       -1   -1    0    0    0  501  0.00000000000E+00  0.00000000000E+00  0.29876991466E+03  0.29876991470E+03  0.50400001928E-02 0. -1.
        1   -1    0    0  501    0  0.00000000000E+00  0.00000000000E+00 -0.68552246649E+03  0.68552246651E+03  0.50400001928E-02 0.  1.
    10030    2    1    2    0    0  0.00000000000E+00  0.00000000000E+00 -0.38675255183E+03  0.98429238121E+03  0.90512648584E+03 0.  0.
        1    1    3    3  502    0 -0.84729309440E+02 -0.33820262796E+02 -0.67541925819E+03  0.68155266885E+03  0.50400001928E-02 0.  1.
       -1    1    3    3    0  502  0.84729309440E+02  0.33820262796E+02  0.28866670636E+03  0.30273971236E+03  0.50400001928E-02 0. -1.
</event>
<event>
 5   0  0.6092779E-03  0.8463531E+03  0.7818609E-02  0.9495245E-01
        1   -1    0    0  501    0  0.00000000000E+00  0.00000000000E+00  0.13619710566E+04  0.13619710566E+04  0.50400001928E-02 0.  1.
       -1   -1    0    0    0  501  0.00000000000E+00  0.00000000000E+00 -0.13148471230E+03  0.13148471240E+03  0.50400001928E-02 0. -1.
    10030    2    1    2    0    0  0.00000000000E+00  0.00000000000E+00  0.12304863443E+04  0.14934557690E+04  0.84635305310E+03 0.  0.
        2    1    3    3  502    0 -0.11841625557E+03 -0.25350463651E+02 -0.10025626305E+03  0.15721442007E+03  0.25500000920E-02 0. -1.
       -2    1    3    3    0  502  0.11841625557E+03  0.25350463651E+02  0.13307426074E+04  0.13362413490E+04  0.25500000920E-02 0.  1.
</event>
<event>
 5   0  0.1033749E-02  0.8781479E+03  0.7818609E-02  0.9453318E-01
        2   -1    0    0  501    0  0.00000000000E+00  0.00000000000E+00  0.64845501619E+03  0.64845501619E+03  0.25500000920E-02 0.  1.
       -2   -1    0    0    0  501  0.00000000000E+00  0.00000000000E+00 -0.29730037192E+03  0.29730037194E+03  0.25500000920E-02 0. -1.
    10030    2    1    2    0    0  0.00000000000E+00  0.00000000000E+00  0.35115464426E+03  0.94575538813E+03  0.87814786339E+03 0.  0.
        5    1    3    3  502    0  0.10622215017E+03 -0.30765278382E+03 -0.14177902849E+03  0.35504473450E+03  0.46999998093E+01 0. -1.
       -5    1    3    3    0  502 -0.10622215017E+03  0.30765278382E+03  0.49293367275E+03  0.59071065363E+03  0.46999998093E+01 0.  1.
</event>
<event>
 5   0  0.1041727E-02  0.9375803E+03  0.7818609E-02  0.9379786E-01
       -2   -1    0    0    0  501  0.00000000000E+00  0.00000000000E+00  0.25308961157E+03  0.25308961158E+03  0.25500000920E-02 0. -1.
        2   -1    0    0  501    0  0.00000000000E+00  0.00000000000E+00 -0.86832559216E+03  0.86832559216E+03  0.25500000920E-02 0.  1.
    10030    2    1    2    0    0  0.00000000000E+00  0.00000000000E+00 -0.61523598058E+03  0.11214152037E+04  0.93758026183E+03 0.  0.
        4    1    3    3  502    0  0.19747019600E+03 -0.38173088433E+03 -0.83694483009E+02  0.43785765466E+03  0.12699999809E+01 0. -1.
       -4    1    3    3    0  502 -0.19747019600E+03  0.38173088433E+03 -0.53154149758E+03  0.68355754908E+03  0.12699999809E+01 0.  1.
</event>
<event>
 5   0  0.6092779E-03  0.9065639E+03  0.7818609E-02  0.9417413E-01
        1   -1    0    0  501    0  0.00000000000E+00  0.00000000000E+00  0.37988610051E+03  0.37988610055E+03  0.50400001928E-02 0. -1.
       -1   -1    0    0    0  501  0.00000000000E+00  0.00000000000E+00 -0.54085824926E+03  0.54085824928E+03  0.50400001928E-02 0.  1.
    10030    2    1    2    0    0  0.00000000000E+00  0.00000000000E+00 -0.16097214874E+03  0.92074434983E+03  0.90656391119E+03 0.  0.
        2    1    3    3  502    0 -0.25966033426E+03 -0.19244489234E+02  0.29635773320E+03  0.39448922113E+03  0.25500000920E-02 0. -1.
       -2    1    3    3    0  502  0.25966033426E+03  0.19244489234E+02 -0.45732988194E+03  0.52625512870E+03  0.25500000920E-02 0.  1.
</event>
<event>
 5   0  0.6015709E-03  0.9103027E+03  0.7818609E-02  0.9412793E-01
        1   -1    0    0  501    0  0.00000000000E+00  0.00000000000E+00  0.79077393511E+03  0.79077393513E+03  0.50400001928E-02 0.  1.
       -1   -1    0    0    0  501  0.00000000000E+00  0.00000000000E+00 -0.26197467124E+03  0.26197467129E+03  0.50400001928E-02 0. -1.
    10030    2    1    2    0    0  0.00000000000E+00  0.00000000000E+00  0.52879926387E+03  0.10527486064E+04  0.91030267870E+03 0.  0.
        3    1    3    3  502    0  0.16334091124E+03 -0.15463973495E+03  0.72200571163E+03  0.75623141878E+03  0.10100000352E+00 0.  1.
       -3    1    3    3    0  502 -0.16334091124E+03  0.15463973495E+03 -0.19320644776E+03  0.29651718764E+03  0.10100000352E+00 0. -1.
</event>
<event>
 5   0  0.6092779E-03  0.8881101E+03  0.7818609E-02  0.9440568E-01
        1   -1    0    0  501    0  0.00000000000E+00  0.00000000000E+00  0.21030212476E+04  0.21030212476E+04  0.50400001928E-02 0.  1.
       -1   -1    0    0    0  501  0.00000000000E+00  0.00000000000E+00 -0.93762668957E+02  0.93762669092E+02  0.50400001928E-02 0. -1.
    10030    2    1    2    0    0  0.00000000000E+00  0.00000000000E+00  0.20092585786E+04  0.21967839167E+04  0.88811009498E+03 0.  0.
        2    1    3    3  502    0  0.20027589527E+03  0.30012454580E+03  0.16448902008E+04  0.16839979068E+04  0.25500000920E-02 0.  1.
       -2    1    3    3    0  502 -0.20027589527E+03 -0.30012454580E+03  0.36436837780E+03  0.51278600991E+03  0.25500000920E-02 0. -1.
</event>
<event>
 5   0  0.1028978E-02  0.8964643E+03  0.7818609E-02  0.9430012E-01
        2   -1    0    0  501    0  0.00000000000E+00  0.00000000000E+00  0.44983747747E+03  0.44983747747E+03  0.25500000920E-02 0. -1.
       -2   -1    0    0    0  501  0.00000000000E+00  0.00000000000E+00 -0.44663258740E+03  0.44663258741E+03  0.25500000920E-02 0.  1.
    10030    2    1    2    0    0  0.00000000000E+00  0.00000000000E+00  0.32048900635E+01  0.89647006488E+03  0.89646433611E+03 0.  0.
        3    1    3    3  502    0  0.24243529397E+03 -0.33176403461E+03  0.18068407373E+03  0.44887525118E+03  0.10100000352E+00 0. -1.
       -3    1    3    3    0  502 -0.24243529397E+03  0.33176403461E+03 -0.17747918367E+03  0.44759481370E+03  0.10100000352E+00 0.  1.
</event>
<event>
 5   0  0.6211218E-03  0.9110588E+03  0.7818609E-02  0.9411862E-01
        1   -1    0    0  501    0  0.00000000000E+00  0.00000000000E+00  0.36829045984E+03  0.36829045988E+03  0.50400001928E-02 0.  1.
       -1   -1    0    0    0  501  0.00000000000E+00  0.00000000000E+00 -0.56343309737E+03  0.56343309740E+03  0.50400001928E-02 0. -1.
    10030    2    1    2    0    0  0.00000000000E+00  0.00000000000E+00 -0.19514263753E+03  0.93172355728E+03  0.91105880063E+03 0.  0.
        5    1    3    3  502    0  0.37471780562E+03 -0.79805559939E+00  0.16728336082E+03  0.41038991648E+03  0.46999998093E+01 0.  1.
       -5    1    3    3    0  502 -0.37471780562E+03  0.79805559939E+00 -0.36242599835E+03  0.52133364079E+03  0.46999998093E+01 0. -1.
</event>
<event>
 5   0  0.6137243E-03  0.9182344E+03  0.7818609E-02  0.9403070E-01
        1   -1    0    0  501    0  0.00000000000E+00  0.00000000000E+00  0.39016921201E+03  0.39016921204E+03  0.50400001928E-02 0. -1.
       -1   -1    0    0    0  501  0.00000000000E+00  0.00000000000E+00 -0.54024920249E+03  0.54024920252E+03  0.50400001928E-02 0.  1.
    10030    2    1    2    0    0  0.00000000000E+00  0.00000000000E+00 -0.15007999049E+03  0.93041841456E+03  0.91823440504E+03 0.  0.
        4    1    3    3  502    0 -0.19053870384E+03 -0.28597118856E+03 -0.38355081466E+03  0.51497316306E+03  0.12699999809E+01 0.  1.
       -4    1    3    3    0  502  0.19053870384E+03  0.28597118856E+03  0.23347082418E+03  0.41544525149E+03  0.12699999809E+01 0. -1.
</event>
<event>
 5   0  0.6015709E-03  0.8978476E+03  0.7818609E-02  0.9428276E-01
       -1   -1    0    0    0  501  0.00000000000E+00  0.00000000000E+00  0.16462027889E+03  0.16462027896E+03  0.50400001928E-02 0.  1.
        1   -1    0    0  501    0  0.00000000000E+00  0.00000000000E+00 -0.12242269407E+04  0.12242269407E+04  0.50400001928E-02 0. -1.
    10030    2    1    2    0    0  0.00000000000E+00  0.00000000000E+00 -0.10596066618E+04  0.13888472197E+04  0.89784760502E+03 0.  0.
        3    1    3    3  502    0 -0.70492275617E+02 -0.10674063122E+03  0.13583294027E+03  0.18658328205E+03  0.10100000352E+00 0.  1.
       -3    1    3    3    0  502  0.70492275617E+02  0.10674063122E+03 -0.11954396021E+04  0.12022639376E+04  0.10100000352E+00 0. -1.
</event>
<event>
 5   0  0.1017079E-02  0.8037356E+03  0.7818609E-02  0.9554626E-01
       -2   -1    0    0    0  501  0.00000000000E+00  0.00000000000E+00  0.16409741951E+03  0.16409741953E+03  0.25500000920E-02 0.  1.
        2   -1    0    0  501    0  0.00000000000E+00  0.00000000000E+00 -0.98415761994E+03  0.98415761994E+03  0.25500000920E-02 0. -1.
    10030    2    1    2    0    0  0.00000000000E+00  0.00000000000E+00 -0.82006020043E+03  0.11482550395E+04  0.80373559293E+03 0.  0.
        1    1    3    3  502    0  0.35187387913E+03 -0.94395364992E+02 -0.65236183477E+03  0.74719587474E+03  0.50400001928E-02 0. -1.
       -1    1    3    3    0  502 -0.35187387913E+03  0.94395364992E+02 -0.16769836566E+03  0.40105916473E+03  0.50400001928E-02 0.  1.
</event>
<event>
 5   0  0.6288003E-03  0.8978421E+03  0.7818609E-02  0.9428283E-01
       -1   -1    0    0    0  501  0.00000000000E+00  0.00000000000E+00  0.67931876363E+02  0.67931876550E+02  0.50400001928E-02 0.  1.
        1   -1    0    0  501    0  0.00000000000E+00  0.00000000000E+00 -0.29666500267E+04  0.29666500267E+04  0.50400001928E-02 0. -1.
    10030    2    1    2    0    0  0.00000000000E+00  0.00000000000E+00 -0.28987181503E+04  0.30345819033E+04  0.89784208660E+03 0.  0.
        1    1    3    3  502    0 -0.36384794088E+03  0.24457252139E+03 -0.11229081786E+04  0.12054558556E+04  0.50400001928E-02 0. -1.
       -1    1    3    3    0  502  0.36384794088E+03 -0.24457252139E+03 -0.17758099718E+04  0.18291260476E+04  0.50400001928E-02 0.  1.
</event>
<event>
 5   0  0.1028978E-02  0.9144915E+03  0.7818609E-02  0.9407646E-01
        2   -1    0    0  501    0  0.00000000000E+00  0.00000000000E+00  0.14588946228E+04  0.14588946228E+04  0.25500000920E-02 0.  1.
       -2   -1    0    0    0  501  0.00000000000E+00  0.00000000000E+00 -0.14330963399E+03  0.14330963401E+03  0.25500000920E-02 0. -1.
    10030    2    1    2    0    0  0.00000000000E+00  0.00000000000E+00  0.13155849888E+04  0.16022042568E+04  0.91449145310E+03 0.  0.
        3    1    3    3  502    0 -0.18938699087E+03  0.10730631290E+03  0.13622939837E+04  0.13795749292E+04  0.10100000352E+00 0.  1.
       -3    1    3    3    0  502  0.18938699087E+03 -0.10730631290E+03 -0.46708994893E+02  0.22262932760E+03  0.10100000352E+00 0. -1.
</event>
<event>
 5   0  0.1028978E-02  0.9040444E+03  0.7818609E-02  0.9420540E-01
        2   -1    0    0  501    0  0.00000000000E+00  0.00000000000E+00  0.13601811570E+04  0.13601811570E+04  0.25500000920E-02 0. -1.
       -2   -1    0    0    0  501  0.00000000000E+00  0.00000000000E+00 -0.15021828996E+03  0.15021828998E+03  0.25500000920E-02 0.  1.
    10030    2    1    2    0    0  0.00000000000E+00  0.00000000000E+00  0.12099628670E+04  0.15103994470E+04  0.90404444018E+03 0.  0.
        3    1    3    3  502    0 -0.45971301810E+02  0.38626262979E+03  0.22031108314E+03  0.44704492315E+03  0.10100000352E+00 0. -1.
       -3    1    3    3    0  502  0.45971301810E+02 -0.38626262979E+03  0.98965178388E+03  0.10633545238E+04  0.10100000352E+00 0.  1.
</event>
<event>
 5   0  0.1041727E-02  0.9203582E+03  0.7818609E-02  0.9400485E-01
        2   -1    0    0  501    0  0.00000000000E+00  0.00000000000E+00  0.78256354139E+03  0.78256354139E+03  0.25500000920E-02 0.  1.
       -2   -1    0    0    0  501  0.00000000000E+00  0.00000000000E+00 -0.27060394462E+03  0.27060394463E+03  0.25500000920E-02 0. -1.
    10030    2    1    2    0    0  0.00000000000E+00  0.00000000000E+00  0.51195959677E+03  0.10531674860E+04  0.92035815034E+03 0.  0.
        4    1    3    3  502    0  0.22115266728E+03  0.31546960541E+03  0.54395669523E+03  0.66657338184E+03  0.12699999809E+01 0.  1.
       -4    1    3    3    0  502 -0.22115266728E+03 -0.31546960541E+03 -0.31997098465E+02  0.38659410419E+03  0.12699999809E+01 0. -1.
</event>
<event>
 5   0  0.6015709E-03  0.9005732E+03  0.7818609E-02  0.9424865E-01
        1   -1    0    0  501    0  0.00000000000E+00  0.00000000000E+00  0.14752191424E+04  0.14752191424E+04  0.50400001928E-02 0.  1.
       -1   -1    0    0    0  501  0.00000000000E+00  0.00000000000E+00 -0.13744263682E+03  0.13744263691E+03  0.50400001928E-02 0. -1.
    10030    2    1    2    0    0  0.00000000000E+00  0.00000000000E+00  0.13377765056E+04  0.16126617793E+04  0.90057317059E+03 0.  0.
        3    1    3    3  502    0 -0.30976195625E+02  0.32624222512E+03  0.11589781522E+03  0.34760009770E+03  0.10100000352E+00 0. -1.
       -3    1    3    3    0  502  0.30976195625E+02 -0.32624222512E+03  0.12218786904E+04  0.12650616816E+04  0.10100000352E+00 0.  1.
</event>
<event>
 5   0  0.1041727E-02  0.8985530E+03  0.7818609E-02  0.9427392E-01
       -2   -1    0    0    0  501  0.00000000000E+00  0.00000000000E+00  0.39218302065E+03  0.39218302066E+03  0.25500000920E-02 0. -1.
        2   -1    0    0  501    0  0.00000000000E+00  0.00000000000E+00 -0.51468161841E+03  0.51468161841E+03  0.25500000920E-02 0.  1.
    10030    2    1    2    0    0  0.00000000000E+00  0.00000000000E+00 -0.12249859776E+03  0.90686463907E+03  0.89855304081E+03 0.  0.
        4    1    3    3  502    0  0.40687249787E+03 -0.18891252420E+03 -0.36228700067E+02  0.45005255574E+03  0.12699999809E+01 0. -1.
       -4    1    3    3    0  502 -0.40687249787E+03  0.18891252420E+03 -0.86269897691E+02  0.45681208332E+03  0.12699999809E+01 0.  1.
</event>
<event>
 5   0  0.6211218E-03  0.8955044E+03  0.7818609E-02  0.9431219E-01
        1   -1    0    0  501    0  0.00000000000E+00  0.00000000000E+00  0.49705102856E+03  0.49705102859E+03  0.50400001928E-02 0.  1.
       -1   -1    0    0    0  501  0.00000000000E+00  0.00000000000E+00 -0.40334297291E+03  0.40334297294E+03  0.50400001928E-02 0. -1.
    10030    2    1    2    0    0  0.00000000000E+00  0.00000000000E+00  0.93708055653E+02  0.90039400153E+03  0.89550441556E+03 0.  0.
        5    1    3    3  502    0 -0.17091710455E+03  0.41197315611E+03  0.86123800084E+02  0.45428398268E+03  0.46999998093E+01 0.  1.
       -5    1    3    3    0  502  0.17091710455E+03 -0.41197315611E+03  0.75842555685E+01  0.44611001885E+03  0.46999998093E+01 0. -1.
</event>
<event>
 5   0  0.1017079E-02  0.9049428E+03  0.7818609E-02  0.9419424E-01
       -2   -1    0    0    0  501  0.00000000000E+00  0.00000000000E+00  0.17235944928E+03  0.17235944930E+03  0.25500000920E-02 0. -1.
        2   -1    0    0  501    0  0.00000000000E+00  0.00000000000E+00 -0.11878104370E+04  0.11878104370E+04  0.25500000920E-02 0.  1.
    10030    2    1    2    0    0  0.00000000000E+00  0.00000000000E+00 -0.10154509877E+04  0.13601698863E+04  0.90494276678E+03 0.  0.
        1    1    3    3  502    0  0.12548258926E+02 -0.42745544933E+03 -0.72992587163E+03  0.84597127496E+03  0.50400001928E-02 0. -1.
       -1    1    3    3    0  502 -0.12548258926E+02  0.42745544933E+03 -0.28552511611E+03  0.51419861136E+03  0.50400001928E-02 0.  1.
</event>
<event>
 5   0  0.6092779E-03  0.8441856E+03  0.7818609E-02  0.9498174E-01
        1   -1    0    0  501    0  0.00000000000E+00  0.00000000000E+00  0.71585879606E+03  0.71585879608E+03  0.50400001928E-02 0. -1.
       -1   -1    0    0    0  501  0.00000000000E+00  0.00000000000E+00 -0.24887916890E+03  0.24887916895E+03  0.50400001928E-02 0.  1.
    10030    2    1    2    0    0  0.00000000000E+00  0.00000000000E+00  0.46697962716E+03  0.96473796503E+03  0.84418562472E+03 0.  0.
        2    1    3    3  502    0  0.16757070138E+03 -0.36985057088E+03  0.36524940065E+03  0.54614696687E+03  0.25500000920E-02 0. -1.
       -2    1    3    3    0  502 -0.16757070138E+03  0.36985057088E+03  0.10173022652E+03  0.41859099816E+03  0.25500000920E-02 0.  1.
</event>
<event>
 5   0  0.1033749E-02  0.8965629E+03  0.7818609E-02  0.9429888E-01
        2   -1    0    0  501    0  0.00000000000E+00  0.00000000000E+00  0.79968249059E+03  0.79968249059E+03  0.25500000920E-02 0. -1.
       -2   -1    0    0    0  501  0.00000000000E+00  0.00000000000E+00 -0.25129504922E+03  0.25129504924E+03  0.25500000920E-02 0.  1.
    10030    2    1    2    0    0  0.00000000000E+00  0.00000000000E+00  0.54838744137E+03  0.10509775398E+04  0.89656288312E+03 0.  0.
        5    1    3    3  502    0  0.66428729892E+02  0.15802993614E+03 -0.21132436572E+03  0.27215127121E+03  0.46999998093E+01 0.  1.
       -5    1    3    3    0  502 -0.66428729892E+02 -0.15802993614E+03  0.75971180709E+03  0.77882626863E+03  0.46999998093E+01 0. -1.
</event>
<event>
 5   0  0.6015709E-03  0.9013958E+03  0.7818609E-02  0.9423838E-01
       -1   -1    0    0    0  501  0.00000000000E+00  0.00000000000E+00  0.16056190304E+03  0.16056190312E+03  0.50400001928E-02 0. -1.
        1   -1    0    0  501    0  0.00000000000E+00  0.00000000000E+00 -0.12651109129E+04  0.12651109130E+04  0.50400001928E-02 0.  1.
    10030    2    1    2    0    0  0.00000000000E+00  0.00000000000E+00 -0.11045490099E+04  0.14256728161E+04  0.90139584158E+03 0.  0.
        3    1    3    3  502    0 -0.11762284565E+03  0.12932814412E+03  0.10475379728E+03  0.20379958519E+03  0.10100000352E+00 0. -1.
       -3    1    3    3    0  502  0.11762284565E+03 -0.12932814412E+03 -0.12093028072E+04  0.12218732309E+04  0.10100000352E+00 0.  1.
</event>
<event>
 5   0  0.6015709E-03  0.8916522E+03  0.7818609E-02  0.9436077E-01
        1   -1    0    0  501    0  0.00000000000E+00  0.00000000000E+00  0.71973857706E+03  0.71973857707E+03  0.50400001928E-02 0. -1.
       -1   -1    0    0    0  501  0.00000000000E+00  0.00000000000E+00 -0.27615711103E+03  0.27615711108E+03  0.50400001928E-02 0.  1.
    10030    2    1    2    0    0  0.00000000000E+00  0.00000000000E+00  0.44358146602E+03  0.99589568815E+03  0.89165223304E+03 0.  0.
        3    1    3    3  502    0  0.88961914728E+02  0.43671002932E+03  0.23457650346E+03  0.50364274854E+03  0.10100000352E+00 0.  1.
       -3    1    3    3    0  502 -0.88961914728E+02 -0.43671002932E+03  0.20900496256E+03  0.49225293961E+03  0.10100000352E+00 0. -1.
</event>
<event>
 5   0  0.3996375E-03  0.8851144E+03  0.7818609E-02  0.9444383E-01
        3   -1    0    0  501    0  0.00000000000E+00  0.00000000000E+00  0.22934591046E+03  0.22934593270E+03  0.10100000352E+00 0. -1.
       -3   -1    0    0    0  501  0.00000000000E+00  0.00000000000E+00 -0.85398008330E+03  0.85398008927E+03  0.10100000352E+00 0.  1.
    10030    2    1    2    0    0  0.00000000000E+00  0.00000000000E+00 -0.62463417284E+03  0.10833260220E+04  0.88511435420E+03 0.  0.
        4    1    3    3  502    0 -0.31260142786E+03 -0.30613825483E+03 -0.23099226922E+03  0.49477199306E+03  0.12699999809E+01 0. -1.
       -4    1    3    3    0  502  0.31260142786E+03  0.30613825483E+03 -0.39364190362E+03  0.58855402892E+03  0.12699999809E+01 0.  1.
</event>
<event>
 5   0  0.6288003E-03  0.8997416E+03  0.7818609E-02  0.9425904E-01
        1   -1    0    0  501    0  0.00000000000E+00  0.00000000000E+00  0.11814150365E+04  0.11814150365E+04  0.50400001928E-02 0. -1.
       -1   -1    0    0    0  501  0.00000000000E+00  0.00000000000E+00 -0.17130623081E+03  0.17130623089E+03  0.50400001928E-02 0.  1.
    10030    2    1    2    0    0  0.00000000000E+00  0.00000000000E+00  0.10101088057E+04  0.13527212674E+04  0.89974164513E+03 0.  0.
        1    1    3    3  502    0  0.15892377741E+03  0.41444412155E+03  0.61515681299E+03  0.75857669454E+03  0.50400001928E-02 0. -1.
       -1    1    3    3    0  502 -0.15892377741E+03 -0.41444412155E+03  0.39495199273E+03  0.59414457289E+03  0.50400001928E-02 0.  1.
</event>
<event>
 5   0  0.6092779E-03  0.9090103E+03  0.7818609E-02  0.9414388E-01
        1   -1    0    0  501    0  0.00000000000E+00  0.00000000000E+00  0.24220081603E+03  0.24220081609E+03  0.50400001928E-02 0.  1.
       -1   -1    0    0    0  501  0.00000000000E+00  0.00000000000E+00 -0.85290768999E+03  0.85290769000E+03  0.50400001928E-02 0. -1.
    10030    2    1    2    0    0  0.00000000000E+00  0.00000000000E+00 -0.61070687395E+03  0.10951085061E+04  0.90901031579E+03 0.  0.
        2    1    3    3  502    0  0.32619981006E+03  0.17326970466E+03 -0.62442677360E+03  0.72549121444E+03  0.25500000920E-02 0. -1.
       -2    1    3    3    0  502 -0.32619981006E+03 -0.17326970466E+03  0.13719899645E+02  0.36961729165E+03  0.25500000920E-02 0.  1.
</event>
<event>
 5   0  0.6211218E-03  0.9061230E+03  0.7818609E-02  0.9417960E-01
       -1   -1    0    0    0  501  0.00000000000E+00  0.00000000000E+00  0.50264421939E+03  0.50264421941E+03  0.50400001928E-02 0.  1.
        1   -1    0    0  501    0  0.00000000000E+00  0.00000000000E+00 -0.40836977556E+03  0.40836977559E+03  0.50400001928E-02 0. -1.
    10030    2    1    2    0    0  0.00000000000E+00  0.00000000000E+00  0.94274443825E+02  0.91101399500E+03  0.90612296535E+03 0.  0.
        5    1    3    3  502    0 -0.23018367465E+03 -0.31479407102E+03 -0.18467790739E+03  0.43151807691E+03  0.46999998093E+01 0. -1.
       -5    1    3    3    0  502  0.23018367465E+03  0.31479407102E+03  0.27895235122E+03  0.47949591810E+03  0.46999998093E+01 0.  1.
</event>
<event>
 5   0  0.1033749E-02  0.9101891E+03  0.7818609E-02  0.9412933E-01
        2   -1    0    0  501    0  0.00000000000E+00  0.00000000000E+00  0.10253863517E+04  0.10253863517E+04  0.25500000920E-02 0.  1.
       -2   -1    0    0    0  501  0.00000000000E+00  0.00000000000E+00 -0.20198342425E+03  0.20198342426E+03  0.25500000920E-02 0. -1.
    10030    2    1    2    0    0  0.00000000000E+00  0.00000000000E+00  0.82340292745E+03  0.12273697760E+04  0.91018909355E+03 0.  0.
        5    1    3    3  502    0 -0.34667735052E+03 -0.25375059325E+03  0.20936504488E+03  0.47794388892E+03  0.46999998093E+01 0. -1.
       -5    1    3    3    0  502  0.34667735052E+03  0.25375059325E+03  0.61403788257E+03  0.74942588704E+03  0.46999998093E+01 0.  1.
</event>
<event>
 5   0  0.6211218E-03  0.8993410E+03  0.7818609E-02  0.9426406E-01
        1   -1    0    0  501    0  0.00000000000E+00  0.00000000000E+00  0.84375485332E+03  0.84375485333E+03  0.50400001928E-02 0. -1.
       -1   -1    0    0    0  501  0.00000000000E+00  0.00000000000E+00 -0.23964728550E+03  0.23964728555E+03  0.50400001928E-02 0.  1.
    10030    2    1    2    0    0  0.00000000000E+00  0.00000000000E+00  0.60410756782E+03  0.10834021389E+04  0.89934100376E+03 0.  0.
        5    1    3    3  502    0  0.11424098125E+03 -0.31813635624E+03  0.65925132463E+03  0.74087525400E+03  0.46999998093E+01 0. -1.
       -5    1    3    3    0  502 -0.11424098125E+03  0.31813635624E+03 -0.55143756815E+02  0.34252688489E+03  0.46999998093E+01 0.  1.
</event>
<event>
 5   0  0.1017079E-02  0.8515003E+03  0.7818609E-02  0.9488326E-01
        2   -1    0    0  501    0  0.00000000000E+00  0.00000000000E+00  0.15956636218E+04  0.15956636218E+04  0.25500000920E-02 0.  1.
       -2   -1    0    0    0  501  0.00000000000E+00  0.00000000000E+00 -0.11359735867E+03  0.11359735869E+03  0.25500000920E-02 0. -1.
    10030    2    1    2    0    0  0.00000000000E+00  0.00000000000E+00  0.14820662631E+04  0.17092609805E+04  0.85150025903E+03 0.  0.
        1    1    3    3  502    0 -0.46648131601E+02 -0.38331077455E+03  0.11010156768E+04  0.11667642087E+04  0.50400001928E-02 0. -1.
       -1    1    3    3    0  502  0.46648131601E+02  0.38331077455E+03  0.38105058637E+03  0.54249677185E+03  0.50400001928E-02 0.  1.
</event>
<event>
 5   0  0.6288003E-03  0.8630920E+03  0.7818609E-02  0.9472932E-01
       -1   -1    0    0    0  501  0.00000000000E+00  0.00000000000E+00  0.11850888927E+03  0.11850888938E+03  0.50400001928E-02 0.  1.
        1   -1    0    0  501    0  0.00000000000E+00  0.00000000000E+00 -0.15714597606E+04  0.15714597606E+04  0.50400001928E-02 0. -1.
    10030    2    1    2    0    0  0.00000000000E+00  0.00000000000E+00 -0.14529508713E+04  0.16899686500E+04  0.86309200173E+03 0.  0.
        1    1    3    3  502    0  0.27388423669E+03 -0.33241878074E+03 -0.77891034051E+03  0.89006524450E+03  0.50400001928E-02 0.  1.
       -1    1    3    3    0  502 -0.27388423669E+03  0.33241878074E+03 -0.67404053080E+03  0.79990340547E+03  0.50400001928E-02 0. -1.
</event>
<event>
 5   0  0.1041727E-02  0.8594204E+03  0.7818609E-02  0.9477780E-01
       -2   -1    0    0    0  501  0.00000000000E+00  0.00000000000E+00  0.59660589423E+03  0.59660589424E+03  0.25500000920E-02 0. -1.
        2   -1    0    0  501    0  0.00000000000E+00  0.00000000000E+00 -0.30950219924E+03  0.30950219925E+03  0.25500000920E-02 0.  1.
    10030    2    1    2    0    0  0.00000000000E+00  0.00000000000E+00  0.28710369500E+03  0.90610809349E+03  0.85942035431E+03 0.  0.
        4    1    3    3  502    0  0.34753966277E+03 -0.16009277395E+03  0.34971400659E+03  0.51837728805E+03  0.12699999809E+01 0.  1.
       -4    1    3    3    0  502 -0.34753966277E+03  0.16009277395E+03 -0.62610311593E+02  0.38773080544E+03  0.12699999809E+01 0. -1.
</event>
<event>
 5   0  0.1028978E-02  0.8975889E+03  0.7818609E-02  0.9428600E-01
       -2   -1    0    0    0  501  0.00000000000E+00  0.00000000000E+00  0.24564630562E+03  0.24564630564E+03  0.25500000920E-02 0. -1.
        2   -1    0    0  501    0  0.00000000000E+00  0.00000000000E+00 -0.81994495351E+03  0.81994495352E+03  0.25500000920E-02 0.  1.
    10030    2    1    2    0    0  0.00000000000E+00  0.00000000000E+00 -0.57429864789E+03  0.10655912592E+04  0.89758887839E+03 0.  0.
        3    1    3    3  502    0 -0.26750873326E+03 -0.66076916813E+00 -0.71495117341E+03  0.76335872926E+03  0.10100000352E+00 0.  1.
       -3    1    3    3    0  502  0.26750873326E+03  0.66076916813E+00  0.14065252552E+03  0.30223252989E+03  0.10100000352E+00 0. -1.
</event>
<event>
 5   0  0.6015709E-03  0.8695032E+03  0.7818609E-02  0.9464528E-01
        1   -1    0    0  501    0  0.00000000000E+00  0.00000000000E+00  0.24227415847E+03  0.24227415852E+03  0.50400001928E-02 0.  1.
       -1   -1    0    0    0  501  0.00000000000E+00  0.00000000000E+00 -0.78014488634E+03  0.78014488635E+03  0.50400001928E-02 0. -1.
    10030    2    1    2    0    0  0.00000000000E+00  0.00000000000E+00 -0.53787072787E+03  0.10224190449E+04  0.86950318195E+03 0.  0.
        3    1    3    3  502    0 -0.19270265277E+03 -0.10828449362E+03  0.17126753547E+03  0.27962908084E+03  0.10100000352E+00 0.  1.
       -3    1    3    3    0  502  0.19270265277E+03  0.10828449362E+03 -0.70913826333E+03  0.74278996403E+03  0.10100000352E+00 0. -1.
</event>
<event>
 5   0  0.6211218E-03  0.8945088E+03  0.7818609E-02  0.9432472E-01
        1   -1    0    0  501    0  0.00000000000E+00  0.00000000000E+00  0.12004069062E+04  0.12004069062E+04  0.50400001928E-02 0. -1.
       -1   -1    0    0    0  501  0.00000000000E+00  0.00000000000E+00 -0.16664057682E+03  0.16664057690E+03  0.50400001928E-02 0.  1.
    10030    2    1    2    0    0  0.00000000000E+00  0.00000000000E+00  0.10337663294E+04  0.13670474831E+04  0.89450880225E+03 0.  0.
        5    1    3    3  502    0  0.38863198583E+03  0.19649549357E+03  0.36126162048E+03  0.56584215806E+03  0.46999998093E+01 0. -1.
       -5    1    3    3    0  502 -0.38863198583E+03 -0.19649549357E+03  0.67250470888E+03  0.80120532504E+03  0.46999998093E+01 0.  1.
</event>
<event>
 5   0  0.3996375E-03  0.9013420E+03  0.7818609E-02  0.9423905E-01
       -3   -1    0    0    0  501  0.00000000000E+00  0.00000000000E+00  0.14620425749E+03  0.14620429237E+03  0.10100000352E+00 0. -1.
        3   -1    0    0  501    0  0.00000000000E+00  0.00000000000E+00 -0.13891820680E+04  0.13891820717E+04  0.10100000352E+00 0.  1.
    10030    2    1    2    0    0  0.00000000000E+00  0.00000000000E+00 -0.12429778105E+04  0.15353863641E+04  0.90134202692E+03 0.  0.
        1    1    3    3  502    0 -0.38678631853E+03 -0.87281561529E+02 -0.98637073258E+03  0.10630846388E+04  0.50400001928E-02 0.  1.
       -1    1    3    3    0  502  0.38678631853E+03  0.87281561529E+02 -0.25660707796E+03  0.47230172524E+03  0.50400001928E-02 0. -1.
</event>
<event>
 5   0  0.6092779E-03  0.8943143E+03  0.7818609E-02  0.9432717E-01
       -1   -1    0    0    0  501  0.00000000000E+00  0.00000000000E+00  0.31816420692E+03  0.31816420696E+03  0.50400001928E-02 0. -1.
        1   -1    0    0  501    0  0.00000000000E+00  0.00000000000E+00 -0.62844760855E+03  0.62844760857E+03  0.50400001928E-02 0.  1.
    10030    2    1    2    0    0  0.00000000000E+00  0.00000000000E+00 -0.31028340163E+03  0.94661181553E+03  0.89431434069E+03 0.  0.
        2    1    3    3  502    0 -0.43820866379E+03 -0.88555974395E+02 -0.16464099248E+03  0.47641961550E+03  0.25500000920E-02 0.  1.
       -2    1    3    3    0  502  0.43820866379E+03  0.88555974395E+02 -0.14564240914E+03  0.47019220003E+03  0.25500000920E-02 0. -1.
</event>
<event>
 5   0  0.1033749E-02  0.8147933E+03  0.7818609E-02  0.9538848E-01
        2   -1    0    0  501    0  0.00000000000E+00  0.00000000000E+00  0.23610547030E+04  0.23610547030E+04  0.25500000920E-02 0.  1.
       -2   -1    0    0    0  501  0.00000000000E+00  0.00000000000E+00 -0.70295716775E+02  0.70295716822E+02  0.25500000920E-02 0. -1.
    10030    2    1    2    0    0  0.00000000000E+00  0.00000000000E+00  0.22907589862E+04  0.24313504198E+04  0.81479330570E+03 0.  0.
        5    1    3    3  502    0 -0.24047295326E+03  0.15691397030E+03  0.28310571059E+03  0.40326191078E+03  0.46999998093E+01 0. -1.
       -5    1    3    3    0  502  0.24047295326E+03 -0.15691397030E+03  0.20076532756E+04  0.20280885090E+04  0.46999998093E+01 0.  1.
</event>
<event>
 5   0  0.1003252E-02  0.9044795E+03  0.7818609E-02  0.9419999E-01
        2   -1    0    0  501    0  0.00000000000E+00  0.00000000000E+00  0.35842897087E+03  0.35842897088E+03  0.25500000920E-02 0.  1.
       -2   -1    0    0    0  501  0.00000000000E+00  0.00000000000E+00 -0.57060346791E+03  0.57060346792E+03  0.25500000920E-02 0. -1.
    10030    2    1    2    0    0  0.00000000000E+00  0.00000000000E+00 -0.21217449704E+03  0.92903243879E+03  0.90447954932E+03 0.  0.
        2    1    3    3  502    0  0.38850967594E+03  0.69593620807E+02  0.12067197907E+03  0.41272844208E+03  0.25500000920E-02 0.  1.
       -2    1    3    3    0  502 -0.38850967594E+03 -0.69593620807E+02 -0.33284647611E+03  0.51630399672E+03  0.25500000920E-02 0. -1.
</event>
<event>
 5   0  0.1028978E-02  0.9111698E+03  0.7818609E-02  0.9411725E-01
       -2   -1    0    0    0  501  0.00000000000E+00  0.00000000000E+00  0.18035301633E+03  0.18035301635E+03  0.25500000920E-02 0.  1.
        2   -1    0    0  501    0  0.00000000000E+00  0.00000000000E+00 -0.11508407188E+04  0.11508407188E+04  0.25500000920E-02 0. -1.
    10030    2    1    2    0    0  0.00000000000E+00  0.00000000000E+00 -0.97048770246E+03  0.13311937351E+04  0.91116978652E+03 0.  0.
        3    1    3    3  502    0 -0.87991159790E+02  0.26776892214E+03  0.37684094599E+02  0.28436374778E+03  0.10100000352E+00 0.  1.
       -3    1    3    3    0  502  0.87991159790E+02 -0.26776892214E+03 -0.10081717971E+04  0.10468299874E+04  0.10100000352E+00 0. -1.
</event>
<event>
 5   0  0.1003252E-02  0.9065634E+03  0.7818609E-02  0.9417414E-01
        2   -1    0    0  501    0  0.00000000000E+00  0.00000000000E+00  0.85234675483E+03  0.85234675484E+03  0.25500000920E-02 0.  1.
       -2   -1    0    0    0  501  0.00000000000E+00  0.00000000000E+00 -0.24105716834E+03  0.24105716835E+03  0.25500000920E-02 0. -1.
    10030    2    1    2    0    0  0.00000000000E+00  0.00000000000E+00  0.61128958649E+03  0.10934039232E+04  0.90656339033E+03 0.  0.
        2    1    3    3  502    0  0.21954708931E+03  0.21371837776E+03 -0.97249261311E+02  0.32145588850E+03  0.25500000920E-02 0. -1.
       -2    1    3    3    0  502 -0.21954708931E+03 -0.21371837776E+03  0.70853884780E+03  0.77194803469E+03  0.25500000920E-02 0.  1.
</event>
<event>
 5   0  0.1028978E-02  0.9902635E+03  0.7818609E-02  0.9319289E-01
        2   -1    0    0  501    0  0.00000000000E+00  0.00000000000E+00  0.76878837795E+03  0.76878837795E+03  0.25500000920E-02 0.  1.
       -2   -1    0    0    0  501  0.00000000000E+00  0.00000000000E+00 -0.31888545825E+03  0.31888545826E+03  0.25500000920E-02 0. -1.
    10030    2    1    2    0    0  0.00000000000E+00  0.00000000000E+00  0.44990291970E+03  0.10876738362E+04  0.99026346838E+03 0.  0.
        3    1    3    3  502    0  0.37539067946E+03 -0.30307722394E+03  0.34716907923E+03  0.59439073485E+03  0.10100000352E+00 0.  1.
       -3    1    3    3    0  502 -0.37539067946E+03  0.30307722394E+03  0.10273384047E+03  0.49328310135E+03  0.10100000352E+00 0. -1.
</event>
<event>
 5   0  0.1033749E-02  0.9037356E+03  0.7818609E-02  0.9420924E-01
        2   -1    0    0  501    0  0.00000000000E+00  0.00000000000E+00  0.20732789449E+03  0.20732789450E+03  0.25500000920E-02 0. -1.
       -2   -1    0    0    0  501  0.00000000000E+00  0.00000000000E+00 -0.98483862633E+03  0.98483862634E+03  0.25500000920E-02 0.  1.
    10030    2    1    2    0    0  0.00000000000E+00  0.00000000000E+00 -0.77751073185E+03  0.11921665208E+04  0.90373562244E+03 0.  0.
        5    1    3    3  502    0 -0.76116671912E+02  0.31616984025E+03 -0.80256899895E+03  0.86596547489E+03  0.46999998093E+01 0.  1.
       -5    1    3    3    0  502  0.76116671912E+02 -0.31616984025E+03  0.25058267101E+02  0.32620104595E+03  0.46999998093E+01 0. -1.
</event>
<event>
 5   0  0.1041727E-02  0.9104314E+03  0.7818609E-02  0.9412635E-01
        2   -1    0    0  501    0  0.00000000000E+00  0.00000000000E+00  0.56931069578E+03  0.56931069579E+03  0.25500000920E-02 0.  1.
       -2   -1    0    0    0  501  0.00000000000E+00  0.00000000000E+00 -0.36398638122E+03  0.36398638123E+03  0.25500000920E-02 0. -1.
    10030    2    1    2    0    0  0.00000000000E+00  0.00000000000E+00  0.20532431456E+03  0.93329707702E+03  0.91043141413E+03 0.  0.
        4    1    3    3  502    0  0.27911229391E+03 -0.22552531469E+03 -0.18446963879E+03  0.40347986407E+03  0.12699999809E+01 0. -1.
       -4    1    3    3    0  502 -0.27911229391E+03  0.22552531469E+03  0.38979395335E+03  0.52981721295E+03  0.12699999809E+01 0.  1.
</event>
<event>
 5   0  0.1041727E-02  0.8774773E+03  0.7818609E-02  0.9454182E-01
       -2   -1    0    0    0  501  0.00000000000E+00  0.00000000000E+00  0.14029316085E+03  0.14029316087E+03  0.25500000920E-02 0. -1.
        2   -1    0    0  501    0  0.00000000000E+00  0.00000000000E+00 -0.13720668494E+04  0.13720668494E+04  0.25500000920E-02 0.  1.
    10030    2    1    2    0    0  0.00000000000E+00  0.00000000000E+00 -0.12317736886E+04  0.15123600103E+04  0.87747728226E+03 0.  0.
        4    1    3    3  502    0 -0.76802135410E+02 -0.99950310701E+02 -0.13401832216E+04  0.13460985525E+04  0.12699999809E+01 0.  1.
       -4    1    3    3    0  502  0.76802135410E+02  0.99950310701E+02  0.10840953302E+03  0.16626145784E+03  0.12699999809E+01 0. -1.
</event>
<event>
 5   0  0.6288003E-03  0.8946091E+03  0.7818609E-02  0.9432346E-01
        1   -1    0    0  501    0  0.00000000000E+00  0.00000000000E+00  0.63856671582E+03  0.63856671584E+03  0.50400001928E-02 0.  1.
       -1   -1    0    0    0  501  0.00000000000E+00  0.00000000000E+00 -0.31332881087E+03  0.31332881091E+03  0.50400001928E-02 0. -1.
    10030    2    1    2    0    0  0.00000000000E+00  0.00000000000E+00  0.32523790496E+03  0.95189552675E+03  0.89460907609E+03 0.  0.
        1    1    3    3  502    0 -0.11329327379E+03 -0.17980111152E+03 -0.25618067610E+03  0.33285483987E+03  0.50400001928E-02 0. -1.
       -1    1    3    3    0  502  0.11329327379E+03  0.17980111152E+03  0.58141858106E+03  0.61904068688E+03  0.50400001928E-02 0.  1.
</event>
<event>
 5   0  0.1003252E-02  0.9073157E+03  0.7818609E-02  0.9416482E-01
        2   -1    0    0  501    0  0.00000000000E+00  0.00000000000E+00  0.15382117882E+04  0.15382117882E+04  0.25500000920E-02 0. -1.
       -2   -1    0    0    0  501  0.00000000000E+00  0.00000000000E+00 -0.13379525509E+03  0.13379525511E+03  0.25500000920E-02 0.  1.
    10030    2    1    2    0    0  0.00000000000E+00  0.00000000000E+00  0.14044165331E+04  0.16720070433E+04  0.90731568619E+03 0.  0.
        2    1    3    3  502    0  0.30208916507E+03  0.23673393952E+03  0.11479412301E+04  0.12104007145E+04  0.25500000920E-02 0. -1.
       -2    1    3    3    0  502 -0.30208916507E+03 -0.23673393952E+03  0.25647530299E+03  0.46160632884E+03  0.25500000920E-02 0.  1.
</event>
<event>
 5   0  0.6211218E-03  0.9005620E+03  0.7818609E-02  0.9424879E-01
       -1   -1    0    0    0  501  0.00000000000E+00  0.00000000000E+00  0.54248420204E+03  0.54248420207E+03  0.50400001928E-02 0.  1.
        1   -1    0    0  501    0  0.00000000000E+00  0.00000000000E+00 -0.37374905372E+03  0.37374905375E+03  0.50400001928E-02 0. -1.
    10030    2    1    2    0    0  0.00000000000E+00  0.00000000000E+00  0.16873514833E+03  0.91623325582E+03  0.90056195166E+03 0.  0.
        5    1    3    3  502    0 -0.12417069018E+02  0.36722247960E+03 -0.18040001951E+03  0.40935655627E+03  0.46999998093E+01 0. -1.
       -5    1    3    3    0  502  0.12417069018E+02 -0.36722247960E+03  0.34913516783E+03  0.50687669955E+03  0.46999998093E+01 0.  1.
</event>
<event>
 5   0  0.6137243E-03  0.9002154E+03  0.7818609E-02  0.9425312E-01
       -1   -1    0    0    0  501  0.00000000000E+00  0.00000000000E+00  0.15462512916E+03  0.15462512924E+03  0.50400001928E-02 0.  1.
        1   -1    0    0  501    0  0.00000000000E+00  0.00000000000E+00 -0.13102459974E+04  0.13102459974E+04  0.50400001928E-02 0. -1.
    10030    2    1    2    0    0  0.00000000000E+00  0.00000000000E+00 -0.11556208683E+04  0.14648711267E+04  0.90021543345E+03 0.  0.
        4    1    3    3  502    0 -0.42405004515E+03 -0.15069805682E+03 -0.59112987313E+03  0.74294312362E+03  0.12699999809E+01 0. -1.
       -4    1    3    3    0  502  0.42405004515E+03  0.15069805682E+03 -0.56449099514E+03  0.72192800307E+03  0.12699999809E+01 0.  1.
</event>
<event>
 5   0  0.6211218E-03  0.8936226E+03  0.7818609E-02  0.9433589E-01
       -1   -1    0    0    0  501  0.00000000000E+00  0.00000000000E+00  0.27507354259E+03  0.27507354264E+03  0.50400001928E-02 0.  1.
        1   -1    0    0  501    0  0.00000000000E+00  0.00000000000E+00 -0.72577082778E+03  0.72577082779E+03  0.50400001928E-02 0. -1.
    10030    2    1    2    0    0  0.00000000000E+00  0.00000000000E+00 -0.45069728518E+03  0.10008443704E+04  0.89362263342E+03 0.  0.
        5    1    3    3  502    0 -0.30215971206E+03  0.32866845750E+03 -0.24457903098E+03  0.50908195700E+03  0.46999998093E+01 0. -1.
       -5    1    3    3    0  502  0.30215971206E+03 -0.32866845750E+03 -0.20611825421E+03  0.49176241343E+03  0.46999998093E+01 0.  1.
</event>
<event>
 5   0  0.1017079E-02  0.8984207E+03  0.7818609E-02  0.9427558E-01
       -2   -1    0    0    0  501  0.00000000000E+00  0.00000000000E+00  0.17798391142E+03  0.17798391144E+03  0.25500000920E-02 0. -1.
        2   -1    0    0  501    0  0.00000000000E+00  0.00000000000E+00 -0.11337538770E+04  0.11337538770E+04  0.25500000920E-02 0.  1.
    10030    2    1    2    0    0  0.00000000000E+00  0.00000000000E+00 -0.95576996554E+03  0.13117377884E+04  0.89842072467E+03 0.  0.
        1    1    3    3  502    0  0.71321006053E+02  0.41464613246E+03 -0.70768310530E+03  0.82330643058E+03  0.50400001928E-02 0.  1.
       -1    1    3    3    0  502 -0.71321006053E+02 -0.41464613246E+03 -0.24808686024E+03  0.48843135784E+03  0.50400001928E-02 0. -1.
</event>
<event>
 5   0  0.1028978E-02  0.8954481E+03  0.7818609E-02  0.9431289E-01
       -2   -1    0    0    0  501  0.00000000000E+00  0.00000000000E+00  0.11842384737E+03  0.11842384740E+03  0.25500000920E-02 0. -1.
        2   -1    0    0  501    0  0.00000000000E+00  0.00000000000E+00 -0.16927064978E+04  0.16927064978E+04  0.25500000920E-02 0.  1.
    10030    2    1    2    0    0  0.00000000000E+00  0.00000000000E+00 -0.15742826504E+04  0.18111303452E+04  0.89544807995E+03 0.  0.
        3    1    3    3  502    0 -0.42476870510E+03 -0.97252533143E+02 -0.57919420625E+03  0.72481200789E+03  0.10100000352E+00 0. -1.
       -3    1    3    3    0  502  0.42476870510E+03  0.97252533143E+02 -0.99508844418E+03  0.10863183373E+04  0.10100000352E+00 0.  1.
</event>
<event>
 5   0  0.1033749E-02  0.9026806E+03  0.7818609E-02  0.9422237E-01
        2   -1    0    0  501    0  0.00000000000E+00  0.00000000000E+00  0.24965209495E+03  0.24965209496E+03  0.25500000920E-02 0.  1.
       -2   -1    0    0    0  501  0.00000000000E+00  0.00000000000E+00 -0.81596769501E+03  0.81596769501E+03  0.25500000920E-02 0. -1.
    10030    2    1    2    0    0  0.00000000000E+00  0.00000000000E+00 -0.56631560006E+03  0.10656197900E+04  0.90268055142E+03 0.  0.
        5    1    3    3  502    0  0.10773311647E+02  0.38159362001E+03 -0.56735391767E+03  0.68384377819E+03  0.46999998093E+01 0. -1.
       -5    1    3    3    0  502 -0.10773311647E+02 -0.38159362001E+03  0.10383176130E+01  0.38177601178E+03  0.46999998093E+01 0.  1.
</event>
<event>
 5   0  0.6211218E-03  0.8863319E+03  0.7818609E-02  0.9442830E-01
        1   -1    0    0  501    0  0.00000000000E+00  0.00000000000E+00  0.99411850056E+03  0.99411850057E+03  0.50400001928E-02 0. -1.
       -1   -1    0    0    0  501  0.00000000000E+00  0.00000000000E+00 -0.19755800931E+03  0.19755800938E+03  0.50400001928E-02 0.  1.
    10030    2    1    2    0    0  0.00000000000E+00  0.00000000000E+00  0.79656049125E+03  0.11916765099E+04  0.88633192887E+03 0.  0.
        5    1    3    3  502    0  0.26671986156E+03 -0.27935264535E+03  0.10618981609E+03  0.40059424866E+03  0.46999998093E+01 0.  1.
       -5    1    3    3    0  502 -0.26671986156E+03  0.27935264535E+03  0.69037067515E+03  0.79108226129E+03  0.46999998093E+01 0. -1.
</event>
<event>
 5   0  0.1028978E-02  0.9011082E+03  0.7818609E-02  0.9424197E-01
        2   -1    0    0  501    0  0.00000000000E+00  0.00000000000E+00  0.20245602465E+04  0.20245602465E+04  0.25500000920E-02 0. -1.
       -2   -1    0    0    0  501  0.00000000000E+00  0.00000000000E+00 -0.10026819243E+03  0.10026819246E+03  0.25500000920E-02 0.  1.
    10030    2    1    2    0    0  0.00000000000E+00  0.00000000000E+00  0.19242920541E+04  0.21248284390E+04  0.90110819865E+03 0.  0.
        3    1    3    3  502    0 -0.84641369771E+01 -0.34641652451E+03  0.16411686829E+04  0.16773522903E+04  0.10100000352E+00 0. -1.
       -3    1    3    3    0  502  0.84641369771E+01  0.34641652451E+03  0.28312337120E+03  0.44747614863E+03  0.10100000352E+00 0.  1.
</event>
<event>
 5   0  0.1041727E-02  0.9021180E+03  0.7818609E-02  0.9422938E-01
        2   -1    0    0  501    0  0.00000000000E+00  0.00000000000E+00  0.39144139253E+03  0.39144139254E+03  0.25500000920E-02 0. -1.
       -2   -1    0    0    0  501  0.00000000000E+00  0.00000000000E+00 -0.51975648853E+03  0.51975648854E+03  0.25500000920E-02 0.  1.
    10030    2    1    2    0    0  0.00000000000E+00  0.00000000000E+00 -0.12831509601E+03  0.91119788108E+03  0.90211796048E+03 0.  0.
        4    1    3    3  502    0 -0.47548076630E+02 -0.31413635282E+03 -0.38755213702E+03  0.50113944123E+03  0.12699999809E+01 0.  1.
       -4    1    3    3    0  502  0.47548076630E+02  0.31413635282E+03  0.25923704101E+03  0.41005843984E+03  0.12699999809E+01 0. -1.
</event>
<event>
 5   0  0.1033749E-02  0.8923754E+03  0.7818609E-02  0.9435163E-01
       -2   -1    0    0    0  501  0.00000000000E+00  0.00000000000E+00  0.89910855115E+03  0.89910855115E+03  0.25500000920E-02 0.  1.
        2   -1    0    0  501    0  0.00000000000E+00  0.00000000000E+00 -0.22142315320E+03  0.22142315321E+03  0.25500000920E-02 0. -1.
    10030    2    1    2    0    0  0.00000000000E+00  0.00000000000E+00  0.67768539795E+03  0.11205317044E+04  0.89237537051E+03 0.  0.
        5    1    3    3  502    0  0.11502138210E+03 -0.10803948938E+02  0.87997035929E+03  0.88753398069E+03  0.46999998093E+01 0.  1.
       -5    1    3    3    0  502 -0.11502138210E+03  0.10803948938E+02 -0.20228496134E+03  0.23299772367E+03  0.46999998093E+01 0. -1.
</event>
<event>
 5   0  0.6211218E-03  0.8983249E+03  0.7818609E-02  0.9427678E-01
       -1   -1    0    0    0  501  0.00000000000E+00  0.00000000000E+00  0.55298107785E+03  0.55298107787E+03  0.50400001928E-02 0.  1.
        1   -1    0    0  501    0  0.00000000000E+00  0.00000000000E+00 -0.36483509051E+03  0.36483509054E+03  0.50400001928E-02 0. -1.
    10030    2    1    2    0    0  0.00000000000E+00  0.00000000000E+00  0.18814598734E+03  0.91781616842E+03  0.89832488914E+03 0.  0.
        5    1    3    3  502    0  0.28725994699E+03  0.28644642846E+03 -0.10286557463E+03  0.41853703535E+03  0.46999998093E+01 0.  1.
       -5    1    3    3    0  502 -0.28725994699E+03 -0.28644642846E+03  0.29101156197E+03  0.49927913307E+03  0.46999998093E+01 0. -1.
</event>
<event>
 5   0  0.1028978E-02  0.9524501E+03  0.7818609E-02  0.9362291E-01
       -2   -1    0    0    0  501  0.00000000000E+00  0.00000000000E+00  0.40881978333E+03  0.40881978334E+03  0.25500000920E-02 0.  1.
        2   -1    0    0  501    0  0.00000000000E+00  0.00000000000E+00 -0.55474397640E+03  0.55474397641E+03  0.25500000920E-02 0. -1.
    10030    2    1    2    0    0  0.00000000000E+00  0.00000000000E+00 -0.14592419307E+03  0.96356375975E+03  0.95245012939E+03 0.  0.
        3    1    3    3  502    0  0.67786012744E+02  0.56400627827E+02 -0.54641248349E+03  0.55348223699E+03  0.10100000352E+00 0. -1.
       -3    1    3    3    0  502 -0.67786012744E+02 -0.56400627827E+02  0.40048829042E+03  0.41008152276E+03  0.10100000352E+00 0.  1.
</event>
<event>
 5   0  0.1017079E-02  0.8905849E+03  0.7818609E-02  0.9437428E-01
        2   -1    0    0  501    0  0.00000000000E+00  0.00000000000E+00  0.40453602251E+03  0.40453602252E+03  0.25500000920E-02 0.  1.
       -2   -1    0    0    0  501  0.00000000000E+00  0.00000000000E+00 -0.49015507106E+03  0.49015507106E+03  0.25500000920E-02 0. -1.
    10030    2    1    2    0    0  0.00000000000E+00  0.00000000000E+00 -0.85619048544E+02  0.89469109358E+03  0.89058493782E+03 0.  0.
        1    1    3    3  502    0 -0.36863432139E+02 -0.20068512293E+03 -0.44042719171E+03  0.48539627359E+03  0.50400001928E-02 0. -1.
       -1    1    3    3    0  502  0.36863432139E+02  0.20068512293E+03  0.35480814316E+03  0.40929481999E+03  0.50400001928E-02 0.  1.
</event>
<event>
 5   0  0.1041727E-02  0.8961316E+03  0.7818609E-02  0.9430430E-01
       -2   -1    0    0    0  501  0.00000000000E+00  0.00000000000E+00  0.23852404454E+03  0.23852404456E+03  0.25500000920E-02 0.  1.
        2   -1    0    0  501    0  0.00000000000E+00  0.00000000000E+00 -0.84168861793E+03  0.84168861793E+03  0.25500000920E-02 0. -1.
    10030    2    1    2    0    0  0.00000000000E+00  0.00000000000E+00 -0.60316457339E+03  0.10802126625E+04  0.89613162740E+03 0.  0.
        4    1    3    3  502    0  0.18942666032E+03 -0.65027722849E+02  0.18156353029E+03  0.27032941536E+03  0.12699999809E+01 0.  1.
       -4    1    3    3    0  502 -0.18942666032E+03  0.65027722849E+02 -0.78472810368E+03  0.80988324713E+03  0.12699999809E+01 0. -1.
</event>
<event>
 5   0  0.1017079E-02  0.8963060E+03  0.7818609E-02  0.9430211E-01
        2   -1    0    0  501    0  0.00000000000E+00  0.00000000000E+00  0.14925736941E+04  0.14925736941E+04  0.25500000920E-02 0.  1.
       -2   -1    0    0    0  501  0.00000000000E+00  0.00000000000E+00 -0.13456026518E+03  0.13456026520E+03  0.25500000920E-02 0. -1.
    10030    2    1    2    0    0  0.00000000000E+00  0.00000000000E+00  0.13580134289E+04  0.16271339593E+04  0.89630600152E+03 0.  0.
        1    1    3    3  502    0 -0.27210483353E+03 -0.32237654830E+03  0.95356381381E+03  0.10427135879E+04  0.50400001928E-02 0.  1.
       -1    1    3    3    0  502  0.27210483353E+03  0.32237654830E+03  0.40444961508E+03  0.58442037139E+03  0.50400001928E-02 0. -1.
</event>
<event>
 5   0  0.1028978E-02  0.9017184E+03  0.7818609E-02  0.9423436E-01
        2   -1    0    0  501    0  0.00000000000E+00  0.00000000000E+00  0.18821973971E+04  0.18821973971E+04  0.25500000920E-02 0.  1.
       -2   -1    0    0    0  501  0.00000000000E+00  0.00000000000E+00 -0.10799823867E+03  0.10799823870E+03  0.25500000920E-02 0. -1.
    10030    2    1    2    0    0  0.00000000000E+00  0.00000000000E+00  0.17741991584E+04  0.19901956358E+04  0.90171836790E+03 0.  0.
        3    1    3    3  502    0  0.40082112534E+03 -0.22616661989E+02  0.43421117362E+03  0.59136151500E+03  0.10100000352E+00 0. -1.
       -3    1    3    3    0  502 -0.40082112534E+03  0.22616661989E+02  0.13399879848E+04  0.13988341208E+04  0.10100000352E+00 0.  1.
</event>
<event>
 5   0  0.1003252E-02  0.9337447E+03  0.7818609E-02  0.9384355E-01
        2   -1    0    0  501    0  0.00000000000E+00  0.00000000000E+00  0.26655053285E+03  0.26655053286E+03  0.25500000920E-02 0. -1.
       -2   -1    0    0    0  501  0.00000000000E+00  0.00000000000E+00 -0.81774276976E+03  0.81774276977E+03  0.25500000920E-02 0.  1.
    10030    2    1    2    0    0  0.00000000000E+00  0.00000000000E+00 -0.55119223691E+03  0.10842933026E+04  0.93374465680E+03 0.  0.
        2    1    3    3  502    0  0.32847231348E+03 -0.10426893521E+03  0.90152403347E+02  0.35622117765E+03  0.25500000920E-02 0. -1.
       -2    1    3    3    0  502 -0.32847231348E+03  0.10426893521E+03 -0.64134464026E+03  0.72807212498E+03  0.25500000920E-02 0.  1.
</event>
<event>
 5   0  0.1017079E-02  0.8972386E+03  0.7818609E-02  0.9429040E-01
        2   -1    0    0  501    0  0.00000000000E+00  0.00000000000E+00  0.22744103173E+04  0.22744103173E+04  0.25500000920E-02 0. -1.
       -2   -1    0    0    0  501  0.00000000000E+00  0.00000000000E+00 -0.88488556368E+02  0.88488556405E+02  0.25500000920E-02 0.  1.
    10030    2    1    2    0    0  0.00000000000E+00  0.00000000000E+00  0.21859217609E+04  0.23628988737E+04  0.89723862068E+03 0.  0.
        1    1    3    3  502    0  0.65643079025E+02  0.84916900351E+02 -0.54177811288E+02  0.12022948495E+03  0.50400001928E-02 0.  1.
       -1    1    3    3    0  502 -0.65643079025E+02 -0.84916900351E+02  0.22400995722E+04  0.22426693888E+04  0.50400001928E-02 0. -1.
</event>
<event>
 5   0  0.1003252E-02  0.8731340E+03  0.7818609E-02  0.9459803E-01
       -2   -1    0    0    0  501  0.00000000000E+00  0.00000000000E+00  0.66424083562E+02  0.66424083611E+02  0.25500000920E-02 0. -1.
        2   -1    0    0  501    0  0.00000000000E+00  0.00000000000E+00 -0.28693017983E+04  0.28693017983E+04  0.25500000920E-02 0.  1.
    10030    2    1    2    0    0  0.00000000000E+00  0.00000000000E+00 -0.28028777148E+04  0.29357258819E+04  0.87313399313E+03 0.  0.
        2    1    3    3  502    0 -0.33903929777E+03 -0.27462775133E+03 -0.13512635451E+04  0.14199581739E+04  0.25500000920E-02 0.  1.
       -2    1    3    3    0  502  0.33903929777E+03  0.27462775133E+03 -0.14516141696E+04  0.15157677080E+04  0.25500000920E-02 0. -1.
</event>
<event>
 5   0  0.6288003E-03  0.9060642E+03  0.7818609E-02  0.9418032E-01
        1   -1    0    0  501    0  0.00000000000E+00  0.00000000000E+00  0.36064576598E+03  0.36064576602E+03  0.50400001928E-02 0. -1.
       -1   -1    0    0    0  501  0.00000000000E+00  0.00000000000E+00 -0.56908499628E+03  0.56908499630E+03  0.50400001928E-02 0.  1.
    10030    2    1    2    0    0  0.00000000000E+00  0.00000000000E+00 -0.20843923030E+03  0.92973076232E+03  0.90606422382E+03 0.  0.
        1    1    3    3  502    0 -0.42292130825E+03 -0.72045541755E+01  0.62264248134E+02  0.42754084623E+03  0.50400001928E-02 0. -1.
       -1    1    3    3    0  502  0.42292130825E+03  0.72045541755E+01 -0.27070347843E+03  0.50218991610E+03  0.50400001928E-02 0.  1.
</event>
<event>
 5   0  0.6092779E-03  0.8933785E+03  0.7818609E-02  0.9433897E-01
        1   -1    0    0  501    0  0.00000000000E+00  0.00000000000E+00  0.10466706922E+04  0.10466706922E+04  0.50400001928E-02 0. -1.
       -1   -1    0    0    0  501  0.00000000000E+00  0.00000000000E+00 -0.19063427009E+03  0.19063427015E+03  0.50400001928E-02 0.  1.
    10030    2    1    2    0    0  0.00000000000E+00  0.00000000000E+00  0.85603642208E+03  0.12373049623E+04  0.89337853896E+03 0.  0.
        2    1    3    3  502    0  0.26508367553E+02  0.28784483440E+03 -0.43633576613E+02  0.29233752967E+03  0.25500000920E-02 0.  1.
       -2    1    3    3    0  502 -0.26508367553E+02 -0.28784483440E+03  0.89966999869E+03  0.94496743266E+03  0.25500000920E-02 0. -1.
</event>
<event>
 5   0  0.6137243E-03  0.8980595E+03  0.7818609E-02  0.9428010E-01
       -1   -1    0    0    0  501  0.00000000000E+00  0.00000000000E+00  0.21317145385E+03  0.21317145391E+03  0.50400001928E-02 0.  1.
        1   -1    0    0  501    0  0.00000000000E+00  0.00000000000E+00 -0.94584762181E+03  0.94584762183E+03  0.50400001928E-02 0. -1.
    10030    2    1    2    0    0  0.00000000000E+00  0.00000000000E+00 -0.73267616796E+03  0.11590190757E+04  0.89805949180E+03 0.  0.
        4    1    3    3  502    0  0.36180587221E+03  0.26496175303E+03 -0.33696834592E+03  0.56094340070E+03  0.12699999809E+01 0.  1.
       -4    1    3    3    0  502 -0.36180587221E+03 -0.26496175303E+03 -0.39570782204E+03  0.59807567503E+03  0.12699999809E+01 0. -1.
</event>
<event>
 5   0  0.6211218E-03  0.9001170E+03  0.7818609E-02  0.9425435E-01
        1   -1    0    0  501    0  0.00000000000E+00  0.00000000000E+00  0.55633676357E+03  0.55633676359E+03  0.50400001928E-02 0.  1.
       -1   -1    0    0    0  501  0.00000000000E+00  0.00000000000E+00 -0.36408284034E+03  0.36408284037E+03  0.50400001928E-02 0. -1.
    10030    2    1    2    0    0  0.00000000000E+00  0.00000000000E+00  0.19225392323E+03  0.92041960397E+03  0.90011703482E+03 0.  0.
        5    1    3    3  502    0 -0.33299669923E+03  0.18839416147E+02  0.40508233745E+03  0.52474328525E+03  0.46999998093E+01 0.  1.
       -5    1    3    3    0  502  0.33299669923E+03 -0.18839416147E+02 -0.21282841422E+03  0.39567631872E+03  0.46999998093E+01 0. -1.
</event>
<event>
 5   0  0.1028978E-02  0.8917535E+03  0.7818609E-02  0.9435949E-01
       -2   -1    0    0    0  501  0.00000000000E+00  0.00000000000E+00  0.95320308116E+02  0.95320308150E+02  0.25500000920E-02 0. -1.
        2   -1    0    0  501    0  0.00000000000E+00  0.00000000000E+00 -0.20856635734E+04  0.20856635734E+04  0.25500000920E-02 0.  1.
    10030    2    1    2    0    0  0.00000000000E+00  0.00000000000E+00 -0.19903432653E+04  0.21809838815E+04  0.89175354102E+03 0.  0.
        3    1    3    3  502    0  0.67434322629E+02  0.20746578050E+03 -0.44112731708E+02  0.22256545385E+03  0.10100000352E+00 0. -1.
       -3    1    3    3    0  502 -0.67434322629E+02 -0.20746578050E+03 -0.19462305336E+04  0.19584184277E+04  0.10100000352E+00 0.  1.
</event>
<event>
 5   0  0.3996375E-03  0.9058415E+03  0.7818609E-02  0.9418309E-01
       -3   -1    0    0    0  501  0.00000000000E+00  0.00000000000E+00  0.40333137162E+03  0.40333138426E+03  0.10100000352E+00 0. -1.
        3   -1    0    0  501    0  0.00000000000E+00  0.00000000000E+00 -0.50860714139E+03  0.50860715142E+03  0.10100000352E+00 0.  1.
    10030    2    1    2    0    0  0.00000000000E+00  0.00000000000E+00 -0.10527576977E+03  0.91193853568E+03  0.90584154528E+03 0.  0.
        1    1    3    3  502    0 -0.85934098897E+02  0.75459997252E+02 -0.49383221720E+03  0.50690150849E+03  0.50400001928E-02 0.  1.
       -1    1    3    3    0  502  0.85934098897E+02 -0.75459997252E+02  0.38855644742E+03  0.40503702720E+03  0.50400001928E-02 0. -1.
</event>
<event>
 5   0  0.1028978E-02  0.8739706E+03  0.7818609E-02  0.9458717E-01
       -2   -1    0    0    0  501  0.00000000000E+00  0.00000000000E+00  0.65173380111E+03  0.65173380112E+03  0.25500000920E-02 0. -1.
        2   -1    0    0  501    0  0.00000000000E+00  0.00000000000E+00 -0.29299717431E+03  0.29299717433E+03  0.25500000920E-02 0.  1.
    10030    2    1    2    0    0  0.00000000000E+00  0.00000000000E+00  0.35873662680E+03  0.94473097544E+03  0.87397062225E+03 0.  0.
        3    1    3    3  502    0 -0.77702485435E+02  0.14324336189E+03 -0.25892211135E+03  0.30593627918E+03  0.10100000352E+00 0.  1.
       -3    1    3    3    0  502  0.77702485435E+02 -0.14324336189E+03  0.61765873815E+03  0.63879469627E+03  0.10100000352E+00 0. -1.
</event>
<event>
 5   0  0.6015709E-03  0.8976872E+03  0.7818609E-02  0.9428477E-01
        1   -1    0    0  501    0  0.00000000000E+00  0.00000000000E+00  0.94269681195E+03  0.94269681196E+03  0.50400001928E-02 0. -1.
       -1   -1    0    0    0  501  0.00000000000E+00  0.00000000000E+00 -0.21370664352E+03  0.21370664358E+03  0.50400001928E-02 0.  1.
    10030    2    1    2    0    0  0.00000000000E+00  0.00000000000E+00  0.72899016843E+03  0.11564034555E+04  0.89768718734E+03 0.  0.
        3    1    3    3  502    0  0.14191452525E+03  0.25013297056E+02 -0.18309757661E+03  0.23300242545E+03  0.10100000352E+00 0.  1.
       -3    1    3    3    0  502 -0.14191452525E+03 -0.25013297056E+02  0.91208774504E+03  0.92340103009E+03  0.10100000352E+00 0. -1.
</event>
<event>
 5   0  0.6137243E-03  0.8874199E+03  0.7818609E-02  0.9441445E-01
       -1   -1    0    0    0  501  0.00000000000E+00  0.00000000000E+00  0.36676361844E+03  0.36676361847E+03  0.50400001928E-02 0.  1.
        1   -1    0    0  501    0  0.00000000000E+00  0.00000000000E+00 -0.53679951146E+03  0.53679951148E+03  0.50400001928E-02 0. -1.
    10030    2    1    2    0    0  0.00000000000E+00  0.00000000000E+00 -0.17003589302E+03  0.90356312995E+03  0.88741992590E+03 0.  0.
        4    1    3    3  502    0  0.21425834957E+03  0.45606919639E+02 -0.47790028709E+03  0.52571563490E+03  0.12699999809E+01 0. -1.
       -4    1    3    3    0  502 -0.21425834957E+03 -0.45606919639E+02  0.30786439407E+03  0.37784749505E+03  0.12699999809E+01 0.  1.
</event>
<event>
 5   0  0.6211218E-03  0.9026693E+03  0.7818609E-02  0.9422251E-01
        1   -1    0    0  501    0  0.00000000000E+00  0.00000000000E+00  0.80937238467E+03  0.80937238468E+03  0.50400001928E-02 0. -1.
       -1   -1    0    0    0  501  0.00000000000E+00  0.00000000000E+00 -0.25168015559E+03  0.25168015564E+03  0.50400001928E-02 0.  1.
    10030    2    1    2    0    0  0.00000000000E+00  0.00000000000E+00  0.55769222908E+03  0.10610525403E+04  0.90266930320E+03 0.  0.
        5    1    3    3  502    0  0.36581876933E+03 -0.51415664772E+02  0.58359201849E+03  0.69070158290E+03  0.46999998093E+01 0. -1.
       -5    1    3    3    0  502 -0.36581876933E+03  0.51415664772E+02 -0.25899789410E+02  0.37035095742E+03  0.46999998093E+01 0.  1.
</event>
<event>
 5   0  0.1041727E-02  0.9266821E+03  0.7818609E-02  0.9392829E-01
        2   -1    0    0  501    0  0.00000000000E+00  0.00000000000E+00  0.16817313590E+04  0.16817313590E+04  0.25500000920E-02 0.  1.
       -2   -1    0    0    0  501  0.00000000000E+00  0.00000000000E+00 -0.12765708519E+03  0.12765708522E+03  0.25500000920E-02 0. -1.
    10030    2    1    2    0    0  0.00000000000E+00  0.00000000000E+00  0.15540742738E+04  0.18093884442E+04  0.92668208871E+03 0.  0.
        4    1    3    3  502    0  0.37739911036E+02  0.32309011756E-01 -0.12464763752E+03  0.13024188408E+03  0.12699999809E+01 0. -1.
       -4    1    3    3    0  502 -0.37739911036E+02 -0.32309011756E-01  0.16787219113E+04  0.16791465601E+04  0.12699999809E+01 0.  1.
</event>
<event>
 5   0  0.1041727E-02  0.8993278E+03  0.7818609E-02  0.9426422E-01
        2   -1    0    0  501    0  0.00000000000E+00  0.00000000000E+00  0.21764688492E+04  0.21764688492E+04  0.25500000920E-02 0. -1.
       -2   -1    0    0    0  501  0.00000000000E+00  0.00000000000E+00 -0.92901692798E+02  0.92901692833E+02  0.25500000920E-02 0.  1.
    10030    2    1    2    0    0  0.00000000000E+00  0.00000000000E+00  0.20835671564E+04  0.22693705421E+04  0.89932783890E+03 0.  0.
        4    1    3    3  502    0 -0.34462683779E+02  0.44808920982E+03  0.10039820399E+04  0.10999787115E+04  0.12699999809E+01 0. -1.
       -4    1    3    3    0  502  0.34462683779E+02 -0.44808920982E+03  0.10795851165E+04  0.11693918305E+04  0.12699999809E+01 0.  1.
</event>
<event>
 5   0  0.1028978E-02  0.9053302E+03  0.7818609E-02  0.9418943E-01
        2   -1    0    0  501    0  0.00000000000E+00  0.00000000000E+00  0.65757880095E+03  0.65757880096E+03  0.25500000920E-02 0. -1.
       -2   -1    0    0    0  501  0.00000000000E+00  0.00000000000E+00 -0.31160626996E+03  0.31160626997E+03  0.25500000920E-02 0.  1.
    10030    2    1    2    0    0  0.00000000000E+00  0.00000000000E+00  0.34597253099E+03  0.96918507093E+03  0.90533016603E+03 0.  0.
        3    1    3    3  502    0 -0.32682746894E+03  0.20523532636E+03 -0.80275342714E+02  0.39418507644E+03  0.10100000352E+00 0.  1.
       -3    1    3    3    0  502  0.32682746894E+03 -0.20523532636E+03  0.42624787370E+03  0.57499999450E+03  0.10100000352E+00 0. -1.
</event>
<event>
 5   0  0.6288003E-03  0.9224934E+03  0.7818609E-02  0.9397892E-01
        1   -1    0    0  501    0  0.00000000000E+00  0.00000000000E+00  0.10510658654E+04  0.10510658654E+04  0.50400001928E-02 0. -1.
       -1   -1    0    0    0  501  0.00000000000E+00  0.00000000000E+00 -0.20241217439E+03  0.20241217445E+03  0.50400001928E-02 0.  1.
    10030    2    1    2    0    0  0.00000000000E+00  0.00000000000E+00  0.84865369099E+03  0.12534780398E+04  0.92249341956E+03 0.  0.
        1    1    3    3  502    0 -0.35390340677E+03 -0.23871879411E+03  0.66168532707E+03  0.78744000157E+03  0.50400001928E-02 0. -1.
       -1    1    3    3    0  502  0.35390340677E+03  0.23871879411E+03  0.18696836391E+03  0.46603803827E+03  0.50400001928E-02 0.  1.
</event>
<event>
 5   0  0.1041727E-02  0.8893188E+03  0.7818609E-02  0.9439033E-01
       -2   -1    0    0    0  501  0.00000000000E+00  0.00000000000E+00  0.63253458839E+03  0.63253458839E+03  0.25500000920E-02 0. -1.
        2   -1    0    0  501    0  0.00000000000E+00  0.00000000000E+00 -0.31258684941E+03  0.31258684942E+03  0.25500000920E-02 0.  1.
    10030    2    1    2    0    0  0.00000000000E+00  0.00000000000E+00  0.31994773898E+03  0.94512143781E+03  0.88931882726E+03 0.  0.
        4    1    3    3  502    0 -0.14738724955E+03 -0.18438737566E+03  0.56044597811E+03  0.60813075314E+03  0.12699999809E+01 0. -1.
       -4    1    3    3    0  502  0.14738724955E+03  0.18438737566E+03 -0.24049823913E+03  0.33699068467E+03  0.12699999809E+01 0.  1.
</event>
<event>
 5   0  0.6137243E-03  0.9664936E+03  0.7818609E-02  0.9346077E-01
        1   -1    0    0  501    0  0.00000000000E+00  0.00000000000E+00  0.13098859413E+04  0.13098859413E+04  0.50400001928E-02 0. -1.
       -1   -1    0    0    0  501  0.00000000000E+00  0.00000000000E+00 -0.17828075658E+03  0.17828075665E+03  0.50400001928E-02 0.  1.
    10030    2    1    2    0    0  0.00000000000E+00  0.00000000000E+00  0.11316051847E+04  0.14881666979E+04  0.96649357307E+03 0.  0.
        4    1    3    3  502    0 -0.27576079100E+03 -0.35414191269E+03  0.84152401220E+03  0.95374251462E+03  0.12699999809E+01 0. -1.
       -4    1    3    3    0  502  0.27576079100E+03  0.35414191269E+03  0.29008117250E+03  0.53442418332E+03  0.12699999809E+01 0.  1.
</event>
<event>
 5   0  0.1017079E-02  0.8921964E+03  0.7818609E-02  0.9435389E-01
        2   -1    0    0  501    0  0.00000000000E+00  0.00000000000E+00  0.58592247446E+03  0.58592247446E+03  0.25500000920E-02 0.  1.
       -2   -1    0    0    0  501  0.00000000000E+00  0.00000000000E+00 -0.33964149075E+03  0.33964149076E+03  0.25500000920E-02 0. -1.
    10030    2    1    2    0    0  0.00000000000E+00  0.00000000000E+00  0.24628098370E+03  0.92556396523E+03  0.89219635215E+03 0.  0.
        1    1    3    3  502    0 -0.25220747225E+03  0.36769111459E+03  0.10853495937E+03  0.45889563327E+03  0.50400001928E-02 0. -1.
       -1    1    3    3    0  502  0.25220747225E+03 -0.36769111459E+03  0.13774602433E+03  0.46666833196E+03  0.50400001928E-02 0.  1.
</event>
<event>
 5   0  0.1033749E-02  0.8885856E+03  0.7818609E-02  0.9439964E-01
       -2   -1    0    0    0  501  0.00000000000E+00  0.00000000000E+00  0.92624865568E+02  0.92624865603E+02  0.25500000920E-02 0.  1.
        2   -1    0    0  501    0  0.00000000000E+00  0.00000000000E+00 -0.21311350350E+04  0.21311350350E+04  0.25500000920E-02 0. -1.
    10030    2    1    2    0    0  0.00000000000E+00  0.00000000000E+00 -0.20385101695E+04  0.22237599006E+04  0.88858560908E+03 0.  0.
        5    1    3    3  502    0  0.27946945859E+03 -0.32651117308E+03 -0.73765845308E+03  0.85374165169E+03  0.46999998093E+01 0. -1.
       -5    1    3    3    0  502 -0.27946945859E+03  0.32651117308E+03 -0.13008517164E+04  0.13700182489E+04  0.46999998093E+01 0.  1.
</event>
<event>
 5   0  0.6137243E-03  0.8605097E+03  0.7818609E-02  0.9476339E-01
        1   -1    0    0  501    0  0.00000000000E+00  0.00000000000E+00  0.16395637920E+03  0.16395637928E+03  0.50400001928E-02 0.  1.
       -1   -1    0    0    0  501  0.00000000000E+00  0.00000000000E+00 -0.11290762285E+04  0.11290762285E+04  0.50400001928E-02 0. -1.
    10030    2    1    2    0    0  0.00000000000E+00  0.00000000000E+00 -0.96511984928E+03  0.12930326078E+04  0.86050973340E+03 0.  0.
        4    1    3    3  502    0 -0.17450589867E+03  0.38765844951E+03 -0.38304215331E+03  0.57223621544E+03  0.12699999809E+01 0.  1.
       -4    1    3    3    0  502  0.17450589867E+03 -0.38765844951E+03 -0.58207769597E+03  0.72079639233E+03  0.12699999809E+01 0. -1.
</event>
<event>
 5   0  0.6288003E-03  0.9067405E+03  0.7818609E-02  0.9417194E-01
       -1   -1    0    0    0  501  0.00000000000E+00  0.00000000000E+00  0.72918002692E+03  0.72918002693E+03  0.50400001928E-02 0.  1.
        1   -1    0    0  501    0  0.00000000000E+00  0.00000000000E+00 -0.28188454191E+03  0.28188454196E+03  0.50400001928E-02 0. -1.
    10030    2    1    2    0    0  0.00000000000E+00  0.00000000000E+00  0.44729548500E+03  0.10110645689E+04  0.90674048744E+03 0.  0.
        1    1    3    3  502    0  0.80561251131E+02  0.20878293125E+03  0.66330172571E+03  0.70003543261E+03  0.50400001928E-02 0.  1.
       -1    1    3    3    0  502 -0.80561251131E+02 -0.20878293125E+03 -0.21600624070E+03  0.31102913628E+03  0.50400001928E-02 0. -1.
</event>
<event>
 5   0  0.6137243E-03  0.9095678E+03  0.7818609E-02  0.9413700E-01
        1   -1    0    0  501    0  0.00000000000E+00  0.00000000000E+00  0.58391258713E+03  0.58391258715E+03  0.50400001928E-02 0. -1.
       -1   -1    0    0    0  501  0.00000000000E+00  0.00000000000E+00 -0.35421125100E+03  0.35421125104E+03  0.50400001928E-02 0.  1.
    10030    2    1    2    0    0  0.00000000000E+00  0.00000000000E+00  0.22970133613E+03  0.93812383819E+03  0.90956782702E+03 0.  0.
        4    1    3    3  502    0  0.30357932544E+03  0.14319625694E+03 -0.20164015408E+03  0.39156856293E+03  0.12699999809E+01 0.  1.
       -4    1    3    3    0  502 -0.30357932544E+03 -0.14319625694E+03  0.43134149021E+03  0.54655527526E+03  0.12699999809E+01 0. -1.
</event>
<event>
 5   0  0.1041727E-02  0.8947263E+03  0.7818609E-02  0.9432198E-01
       -2   -1    0    0    0  501  0.00000000000E+00  0.00000000000E+00  0.23042418454E+03  0.23042418456E+03  0.25500000920E-02 0.  1.
        2   -1    0    0  501    0  0.00000000000E+00  0.00000000000E+00 -0.86854502616E+03  0.86854502616E+03  0.25500000920E-02 0. -1.
    10030    2    1    2    0    0  0.00000000000E+00  0.00000000000E+00 -0.63812084162E+03  0.10989692107E+04  0.89472628083E+03 0.  0.
        4    1    3    3  502    0 -0.13763391437E+03 -0.22994815018E+03 -0.75903797971E+03  0.80495932425E+03  0.12699999809E+01 0. -1.
       -4    1    3    3    0  502  0.13763391437E+03  0.22994815018E+03  0.12091713809E+03  0.29400988647E+03  0.12699999809E+01 0.  1.
</event>
<event>
 5   0  0.6288003E-03  0.8946783E+03  0.7818609E-02  0.9432258E-01
       -1   -1    0    0    0  501  0.00000000000E+00  0.00000000000E+00  0.26149949611E+03  0.26149949615E+03  0.50400001928E-02 0. -1.
        1   -1    0    0  501    0  0.00000000000E+00  0.00000000000E+00 -0.76524935755E+03  0.76524935757E+03  0.50400001928E-02 0.  1.
    10030    2    1    2    0    0  0.00000000000E+00  0.00000000000E+00 -0.50374986144E+03  0.10267488537E+04  0.89467831410E+03 0.  0.
        1    1    3    3  502    0 -0.35900843311E+03  0.10706753988E+03 -0.53242422520E+03  0.65101925374E+03  0.50400001928E-02 0.  1.
       -1    1    3    3    0  502  0.35900843311E+03 -0.10706753988E+03  0.28674363757E+02  0.37572959998E+03  0.50400001928E-02 0. -1.
</event>
<event>
 5   0  0.1017079E-02  0.9438198E+03  0.7818609E-02  0.9372404E-01
       -2   -1    0    0    0  501  0.00000000000E+00  0.00000000000E+00  0.40451781772E+03  0.40451781772E+03  0.25500000920E-02 0. -1.
        2   -1    0    0  501    0  0.00000000000E+00  0.00000000000E+00 -0.55052944837E+03  0.55052944837E+03  0.25500000920E-02 0.  1.
    10030    2    1    2    0    0  0.00000000000E+00  0.00000000000E+00 -0.14601163065E+03  0.95504726610E+03  0.94381983672E+03 0.  0.
        1    1    3    3  502    0  0.19471101249E+03  0.41710418658E+03 -0.17821713676E+03  0.49360878103E+03  0.50400001928E-02 0.  1.
       -1    1    3    3    0  502 -0.19471101249E+03 -0.41710418658E+03  0.32205506108E+02  0.46143848507E+03  0.50400001928E-02 0. -1.
</event>
<event>
 5   0  0.3996375E-03  0.8895107E+03  0.7818609E-02  0.9438789E-01
        3   -1    0    0  501    0  0.00000000000E+00  0.00000000000E+00  0.27021003967E+03  0.27021005855E+03  0.10100000352E+00 0. -1.
       -3   -1    0    0    0  501  0.00000000000E+00  0.00000000000E+00 -0.73205020018E+03  0.73205020715E+03  0.10100000352E+00 0.  1.
    10030    2    1    2    0    0  0.00000000000E+00  0.00000000000E+00 -0.46184016051E+03  0.10022602657E+04  0.88951071176E+03 0.  0.
        4    1    3    3  502    0  0.34343098811E+03  0.21195160327E+03 -0.44152792662E+03  0.59817794059E+03  0.12699999809E+01 0.  1.
       -4    1    3    3    0  502 -0.34343098811E+03 -0.21195160327E+03 -0.20312233891E+02  0.40408232511E+03  0.12699999809E+01 0. -1.
</event>
<event>
 5   0  0.6211218E-03  0.8901198E+03  0.7818609E-02  0.9438017E-01
       -1   -1    0    0    0  501  0.00000000000E+00  0.00000000000E+00  0.38125828809E+03  0.38125828812E+03  0.50400001928E-02 0. -1.
        1   -1    0    0  501    0  0.00000000000E+00  0.00000000000E+00 -0.51953832638E+03  0.51953832641E+03  0.50400001928E-02 0.  1.
    10030    2    1    2    0    0  0.00000000000E+00  0.00000000000E+00 -0.13828003829E+03  0.90079661453E+03  0.89011975136E+03 0.  0.
        5    1    3    3  502    0 -0.73912127853E+02 -0.63614330210E+02 -0.50856773910E+03  0.51785424678E+03  0.46999998093E+01 0.  1.
       -5    1    3    3    0  502  0.73912127853E+02  0.63614330210E+02  0.37028770081E+03  0.38294236775E+03  0.46999998093E+01 0. -1.
</event>
<event>
 5   0  0.1028978E-02  0.9018474E+03  0.7818609E-02  0.9423275E-01
        2   -1    0    0  501    0  0.00000000000E+00  0.00000000000E+00  0.48438569392E+03  0.48438569393E+03  0.25500000920E-02 0. -1.
       -2   -1    0    0    0  501  0.00000000000E+00  0.00000000000E+00 -0.41977329942E+03  0.41977329943E+03  0.25500000920E-02 0.  1.
    10030    2    1    2    0    0  0.00000000000E+00  0.00000000000E+00  0.64612394501E+02  0.90415899336E+03  0.90184739493E+03 0.  0.
        3    1    3    3  502    0 -0.21377536937E+02 -0.14985865738E+02  0.48362735488E+03  0.48433150202E+03  0.10100000352E+00 0. -1.
       -3    1    3    3    0  502  0.21377536937E+02  0.14985865738E+02 -0.41901496038E+03  0.41982749134E+03  0.10100000352E+00 0.  1.
</event>
<event>
 5   0  0.6288003E-03  0.9012053E+03  0.7818609E-02  0.9424076E-01
        1   -1    0    0  501    0  0.00000000000E+00  0.00000000000E+00  0.26173625384E+03  0.26173625388E+03  0.50400001928E-02 0.  1.
       -1   -1    0    0    0  501  0.00000000000E+00  0.00000000000E+00 -0.77575317726E+03  0.77575317728E+03  0.50400001928E-02 0. -1.
    10030    2    1    2    0    0  0.00000000000E+00  0.00000000000E+00 -0.51401692342E+03  0.10374894312E+04  0.90120526086E+03 0.  0.
        1    1    3    3  502    0  0.37293777986E+03  0.27002386127E+02  0.32475852449E+02  0.37532172536E+03  0.50400001928E-02 0. -1.
       -1    1    3    3    0  502 -0.37293777986E+03 -0.27002386127E+02 -0.54649277587E+03  0.66216770581E+03  0.50400001928E-02 0.  1.
</event>
<event>
 5   0  0.6211218E-03  0.8970629E+03  0.7818609E-02  0.9429260E-01
        1   -1    0    0  501    0  0.00000000000E+00  0.00000000000E+00  0.12139135486E+04  0.12139135486E+04  0.50400001928E-02 0. -1.
       -1   -1    0    0    0  501  0.00000000000E+00  0.00000000000E+00 -0.16572882976E+03  0.16572882984E+03  0.50400001928E-02 0.  1.
    10030    2    1    2    0    0  0.00000000000E+00  0.00000000000E+00  0.10481847188E+04  0.13796423784E+04  0.89706292287E+03 0.  0.
        5    1    3    3  502    0 -0.85914074716E+02 -0.42718196453E+03  0.36065815477E+03  0.56565188381E+03  0.46999998093E+01 0.  1.
       -5    1    3    3    0  502  0.85914074716E+02  0.42718196453E+03  0.68752656402E+03  0.81399049459E+03  0.46999998093E+01 0. -1.
</event>
<event>
 5   0  0.3996375E-03  0.8840804E+03  0.7818609E-02  0.9445703E-01
        3   -1    0    0  501    0  0.00000000000E+00  0.00000000000E+00  0.40088880395E+03  0.40088881667E+03  0.10100000352E+00 0. -1.
       -3   -1    0    0    0  501  0.00000000000E+00  0.00000000000E+00 -0.48741579346E+03  0.48741580393E+03  0.10100000352E+00 0.  1.
    10030    2    1    2    0    0  0.00000000000E+00  0.00000000000E+00 -0.86526989517E+02  0.88830462060E+03  0.88408041436E+03 0.  0.
        3    1    3    3  502    0  0.19698638663E+03 -0.12601379771E+03  0.33365074191E+03  0.40743826711E+03  0.10100000352E+00 0. -1.
       -3    1    3    3    0  502 -0.19698638663E+03  0.12601379771E+03 -0.42017773142E+03  0.48086635349E+03  0.10100000352E+00 0.  1.
</event>
<event>
 5   0  0.1033749E-02  0.8999912E+03  0.7818609E-02  0.9425592E-01
       -2   -1    0    0    0  501  0.00000000000E+00  0.00000000000E+00  0.13724614347E+03  0.13724614350E+03  0.25500000920E-02 0.  1.
        2   -1    0    0  501    0  0.00000000000E+00  0.00000000000E+00 -0.14754224445E+04  0.14754224445E+04  0.25500000920E-02 0. -1.
    10030    2    1    2    0    0  0.00000000000E+00  0.00000000000E+00 -0.13381763010E+04  0.16126685880E+04  0.89999120111E+03 0.  0.
        5    1    3    3  502    0  0.20418409121E+02  0.29045771034E+03 -0.12838107072E+04  0.13164249371E+04  0.46999998093E+01 0. -1.
       -5    1    3    3    0  502 -0.20418409121E+02 -0.29045771034E+03 -0.54365593782E+02  0.29624365092E+03  0.46999998093E+01 0.  1.
</event>
<event>
 5   0  0.6288003E-03  0.8884173E+03  0.7818609E-02  0.9440177E-01
        1   -1    0    0  501    0  0.00000000000E+00  0.00000000000E+00  0.62940336700E+03  0.62940336702E+03  0.50400001928E-02 0. -1.
       -1   -1    0    0    0  501  0.00000000000E+00  0.00000000000E+00 -0.31350536265E+03  0.31350536269E+03  0.50400001928E-02 0.  1.
    10030    2    1    2    0    0  0.00000000000E+00  0.00000000000E+00  0.31589800435E+03  0.94290872972E+03  0.88841731378E+03 0.  0.
        1    1    3    3  502    0 -0.53152767920E+02  0.19215223698E+03 -0.26335386578E+03  0.33030736831E+03  0.50400001928E-02 0.  1.
       -1    1    3    3    0  502  0.53152767920E+02 -0.19215223698E+03  0.57925187014E+03  0.61260136140E+03  0.50400001928E-02 0. -1.
</event>
<event>
 5   0  0.6211218E-03  0.9046100E+03  0.7818609E-02  0.9419837E-01
        1   -1    0    0  501    0  0.00000000000E+00  0.00000000000E+00  0.10795437181E+04  0.10795437181E+04  0.50400001928E-02 0.  1.
       -1   -1    0    0    0  501  0.00000000000E+00  0.00000000000E+00 -0.18950582164E+03  0.18950582171E+03  0.50400001928E-02 0. -1.
    10030    2    1    2    0    0  0.00000000000E+00  0.00000000000E+00  0.89003789648E+03  0.12690495398E+04  0.90461001399E+03 0.  0.
        5    1    3    3  502    0  0.42557768978E+03  0.71419847610E+02  0.63500579570E+03  0.76777054856E+03  0.46999998093E+01 0.  1.
       -5    1    3    3    0  502 -0.42557768978E+03 -0.71419847610E+02  0.25503210078E+03  0.50127899128E+03  0.46999998093E+01 0. -1.
</event>
<event>
 5   0  0.6015709E-03  0.9023919E+03  0.7818609E-02  0.9422596E-01
       -1   -1    0    0    0  501  0.00000000000E+00  0.00000000000E+00  0.17522164679E+03  0.17522164686E+03  0.50400001928E-02 0. -1.
        1   -1    0    0  501    0  0.00000000000E+00  0.00000000000E+00 -0.11618302196E+04  0.11618302196E+04  0.50400001928E-02 0.  1.
    10030    2    1    2    0    0  0.00000000000E+00  0.00000000000E+00 -0.98660857284E+03  0.13370518665E+04  0.90239194241E+03 0.  0.
        3    1    3    3  502    0 -0.22302483480E+03  0.30057075085E+03 -0.11994873958E+03  0.39302743356E+03  0.10100000352E+00 0. -1.
       -3    1    3    3    0  502  0.22302483480E+03 -0.30057075085E+03 -0.86665983326E+03  0.94402443294E+03  0.10100000352E+00 0.  1.
</event>
<event>
 5   0  0.1041727E-02  0.9530459E+03  0.7818609E-02  0.9361597E-01
       -2   -1    0    0    0  501  0.00000000000E+00  0.00000000000E+00  0.68132420798E+03  0.68132420798E+03  0.25500000920E-02 0. -1.
        2   -1    0    0  501    0  0.00000000000E+00  0.00000000000E+00 -0.33328350725E+03  0.33328350726E+03  0.25500000920E-02 0.  1.
    10030    2    1    2    0    0  0.00000000000E+00  0.00000000000E+00  0.34804070072E+03  0.10146077152E+04  0.95304589946E+03 0.  0.
        4    1    3    3  502    0 -0.90066377537E+02  0.45812799182E+03  0.72580052947E+02  0.47250681078E+03  0.12699999809E+01 0.  1.
       -4    1    3    3    0  502  0.90066377537E+02 -0.45812799182E+03  0.27546064778E+03  0.54210090446E+03  0.12699999809E+01 0. -1.
</event>
<event>
 5   0  0.6092779E-03  0.9048329E+03  0.7818609E-02  0.9419560E-01
        1   -1    0    0  501    0  0.00000000000E+00  0.00000000000E+00  0.96891484672E+03  0.96891484673E+03  0.50400001928E-02 0.  1.
       -1   -1    0    0    0  501  0.00000000000E+00  0.00000000000E+00 -0.21124727928E+03  0.21124727934E+03  0.50400001928E-02 0. -1.
    10030    2    1    2    0    0  0.00000000000E+00  0.00000000000E+00  0.75766756744E+03  0.11801621261E+04  0.90483285808E+03 0.  0.
        2    1    3    3  502    0 -0.41234655300E+02 -0.43628082430E+03  0.23219932598E+03  0.49594130847E+03  0.25500000920E-02 0. -1.
       -2    1    3    3    0  502  0.41234655300E+02  0.43628082430E+03  0.52546824146E+03  0.68422081760E+03  0.25500000920E-02 0.  1.
</event>
<event>
 5   0  0.3996375E-03  0.8866008E+03  0.7818609E-02  0.9442488E-01
       -3   -1    0    0    0  501  0.00000000000E+00  0.00000000000E+00  0.47232416957E+03  0.47232418037E+03  0.10100000352E+00 0. -1.
        3   -1    0    0  501    0  0.00000000000E+00  0.00000000000E+00 -0.41606006956E+03  0.41606008182E+03  0.10100000352E+00 0.  1.
    10030    2    1    2    0    0  0.00000000000E+00  0.00000000000E+00  0.56264100004E+02  0.88838426219E+03  0.88660078297E+03 0.  0.
        4    1    3    3  502    0 -0.29786288339E+03  0.11188333358E+03 -0.28115282632E+03  0.42460417130E+03  0.12699999809E+01 0.  1.
       -4    1    3    3    0  502  0.29786288339E+03 -0.11188333358E+03  0.33741692633E+03  0.46378009089E+03  0.12699999809E+01 0. -1.
</event>
<event>
 5   0  0.1017079E-02  0.9012278E+03  0.7818609E-02  0.9424048E-01
        2   -1    0    0  501    0  0.00000000000E+00  0.00000000000E+00  0.61205008691E+03  0.61205008692E+03  0.25500000920E-02 0. -1.
       -2   -1    0    0    0  501  0.00000000000E+00  0.00000000000E+00 -0.33175857903E+03  0.33175857904E+03  0.25500000920E-02 0.  1.
    10030    2    1    2    0    0  0.00000000000E+00  0.00000000000E+00  0.28029150788E+03  0.94380866595E+03  0.90122775620E+03 0.  0.
        1    1    3    3  502    0 -0.24565101588E+03  0.15421435536E+03 -0.22100497707E+03  0.36465009107E+03  0.50400001928E-02 0.  1.
       -1    1    3    3    0  502  0.24565101588E+03 -0.15421435536E+03  0.50129648495E+03  0.57915857488E+03  0.50400001928E-02 0. -1.
</event>
<event>
 5   0  0.1041727E-02  0.7922359E+03  0.7818609E-02  0.9571324E-01
       -2   -1    0    0    0  501  0.00000000000E+00  0.00000000000E+00  0.42715008746E+03  0.42715008747E+03  0.25500000920E-02 0.  1.
        2   -1    0    0  501    0  0.00000000000E+00  0.00000000000E+00 -0.36734027363E+03  0.36734027364E+03  0.25500000920E-02 0. -1.
    10030    2    1    2    0    0  0.00000000000E+00  0.00000000000E+00  0.59809813833E+02  0.79449036110E+03  0.79223589925E+03 0.  0.
        4    1    3    3  502    0  0.44676991103E+02 -0.25962074044E+01 -0.36479488123E+03  0.36753189263E+03  0.12699999809E+01 0. -1.
       -4    1    3    3    0  502 -0.44676991103E+02  0.25962074044E+01  0.42460469507E+03  0.42695846847E+03  0.12699999809E+01 0.  1.
</event>
<event>
 5   0  0.1041727E-02  0.9082673E+03  0.7818609E-02  0.9415306E-01
        2   -1    0    0  501    0  0.00000000000E+00  0.00000000000E+00  0.18430424263E+04  0.18430424263E+04  0.25500000920E-02 0. -1.
       -2   -1    0    0    0  501  0.00000000000E+00  0.00000000000E+00 -0.11190050136E+03  0.11190050139E+03  0.25500000920E-02 0.  1.
    10030    2    1    2    0    0  0.00000000000E+00  0.00000000000E+00  0.17311419249E+04  0.19549429277E+04  0.90826729888E+03 0.  0.
        4    1    3    3  502    0 -0.44838928181E+03  0.71203043880E+02  0.88844478859E+03  0.99772670445E+03  0.12699999809E+01 0. -1.
       -4    1    3    3    0  502  0.44838928181E+03 -0.71203043880E+02  0.84269713632E+03  0.95721622320E+03  0.12699999809E+01 0.  1.
</event>
<event>
 5   0  0.1003252E-02  0.9496442E+03  0.7818609E-02  0.9365566E-01
        2   -1    0    0  501    0  0.00000000000E+00  0.00000000000E+00  0.19264483534E+04  0.19264483534E+04  0.25500000920E-02 0. -1.
       -2   -1    0    0    0  501  0.00000000000E+00  0.00000000000E+00 -0.11703197168E+03  0.11703197171E+03  0.25500000920E-02 0.  1.
    10030    2    1    2    0    0  0.00000000000E+00  0.00000000000E+00  0.18094163817E+04  0.20434803251E+04  0.94964424744E+03 0.  0.
        2    1    3    3  502    0  0.17645378297E+03  0.30884575253E+03  0.15815438150E+04  0.16210498065E+04  0.25500000920E-02 0. -1.
       -2    1    3    3    0  502 -0.17645378297E+03 -0.30884575253E+03  0.22787256671E+03  0.42243051861E+03  0.25500000920E-02 0.  1.
</event>
<event>
 5   0  0.1028978E-02  0.9030579E+03  0.7818609E-02  0.9421767E-01
        2   -1    0    0  501    0  0.00000000000E+00  0.00000000000E+00  0.76295857451E+03  0.76295857452E+03  0.25500000920E-02 0.  1.
       -2   -1    0    0    0  501  0.00000000000E+00  0.00000000000E+00 -0.26722076374E+03  0.26722076375E+03  0.25500000920E-02 0. -1.
    10030    2    1    2    0    0  0.00000000000E+00  0.00000000000E+00  0.49573781078E+03  0.10301793383E+04  0.90305785637E+03 0.  0.
        3    1    3    3  502    0 -0.10404875541E+03 -0.25058634321E+03  0.65958764655E+03  0.71321492734E+03  0.10100000352E+00 0.  1.
       -3    1    3    3    0  502  0.10404875541E+03  0.25058634321E+03 -0.16384983577E+03  0.31696441092E+03  0.10100000352E+00 0. -1.
</event>
<event>
 5   0  0.6015709E-03  0.8980210E+03  0.7818609E-02  0.9428059E-01
       -1   -1    0    0    0  501  0.00000000000E+00  0.00000000000E+00  0.13000484692E+03  0.13000484702E+03  0.50400001928E-02 0. -1.
        1   -1    0    0  501    0  0.00000000000E+00  0.00000000000E+00 -0.15507915388E+04  0.15507915388E+04  0.50400001928E-02 0.  1.
    10030    2    1    2    0    0  0.00000000000E+00  0.00000000000E+00 -0.14207866918E+04  0.16807963858E+04  0.89802097235E+03 0.  0.
        3    1    3    3  502    0 -0.91169432842E+02  0.10494107758E+03  0.88714101318E+02  0.16490814783E+03  0.10100000352E+00 0. -1.
       -3    1    3    3    0  502  0.91169432842E+02 -0.10494107758E+03 -0.15095007931E+04  0.15158882380E+04  0.10100000352E+00 0.  1.
</event>
<event>
 5   0  0.6137243E-03  0.9022408E+03  0.7818609E-02  0.9422785E-01
       -1   -1    0    0    0  501  0.00000000000E+00  0.00000000000E+00  0.56674618167E+03  0.56674618169E+03  0.50400001928E-02 0. -1.
        1   -1    0    0  501    0  0.00000000000E+00  0.00000000000E+00 -0.35908425313E+03  0.35908425317E+03  0.50400001928E-02 0.  1.
    10030    2    1    2    0    0  0.00000000000E+00  0.00000000000E+00  0.20766192854E+03  0.92583043486E+03  0.90224083124E+03 0.  0.
        4    1    3    3  502    0  0.16574497480E+02  0.39073175970E+03 -0.12690807200E+03  0.41116090967E+03  0.12699999809E+01 0.  1.
       -4    1    3    3    0  502 -0.16574497480E+02 -0.39073175970E+03  0.33457000054E+03  0.51466952519E+03  0.12699999809E+01 0. -1.
</event>
<event>
 5   0  0.1028978E-02  0.8973113E+03  0.7818609E-02  0.9428949E-01
       -2   -1    0    0    0  501  0.00000000000E+00  0.00000000000E+00  0.33397876915E+03  0.33397876916E+03  0.25500000920E-02 0. -1.
        2   -1    0    0  501    0  0.00000000000E+00  0.00000000000E+00 -0.60270868405E+03  0.60270868406E+03  0.25500000920E-02 0.  1.
    10030    2    1    2    0    0  0.00000000000E+00  0.00000000000E+00 -0.26872991490E+03  0.93668745322E+03  0.89731132716E+03 0.  0.
        3    1    3    3  502    0  0.12739429099E+03 -0.61501460627E+02 -0.57881882518E+03  0.59585482932E+03  0.10100000352E+00 0.  1.
       -3    1    3    3    0  502 -0.12739429099E+03  0.61501460627E+02  0.31008891028E+03  0.34083262390E+03  0.10100000352E+00 0. -1.
</event>
<event>
 5   0  0.1003252E-02  0.9029779E+03  0.7818609E-02  0.9421867E-01
        2   -1    0    0  501    0  0.00000000000E+00  0.00000000000E+00  0.12075589436E+04  0.12075589436E+04  0.25500000920E-02 0. -1.
       -2   -1    0    0    0  501  0.00000000000E+00  0.00000000000E+00 -0.16880524437E+03  0.16880524439E+03  0.25500000920E-02 0.  1.
    10030    2    1    2    0    0  0.00000000000E+00  0.00000000000E+00  0.10387536993E+04  0.13763641880E+04  0.90297792351E+03 0.  0.
        2    1    3    3  502    0  0.32286655170E+02 -0.26339118158E+03  0.10761454561E+04  0.11083800726E+04  0.25500000920E-02 0. -1.
       -2    1    3    3    0  502 -0.32286655170E+02  0.26339118158E+03 -0.37391756838E+02  0.26798411543E+03  0.25500000920E-02 0.  1.
</event>
<event>
 5   0  0.6288003E-03  0.9337855E+03  0.7818609E-02  0.9384306E-01
       -1   -1    0    0    0  501  0.00000000000E+00  0.00000000000E+00  0.40710033068E+03  0.40710033071E+03  0.50400001928E-02 0. -1.
        1   -1    0    0  501    0  0.00000000000E+00  0.00000000000E+00 -0.53546713653E+03  0.53546713655E+03  0.50400001928E-02 0.  1.
    10030    2    1    2    0    0  0.00000000000E+00  0.00000000000E+00 -0.12836680584E+03  0.94256746727E+03  0.93378551794E+03 0.  0.
        1    1    3    3  502    0 -0.18801722134E+03  0.42415859410E+03 -0.11690351700E+03  0.47846360445E+03  0.50400001928E-02 0.  1.
       -1    1    3    3    0  502  0.18801722134E+03 -0.42415859410E+03 -0.11463288840E+02  0.46410386282E+03  0.50400001928E-02 0. -1.
</event>
<event>
 5   0  0.1017079E-02  0.9027917E+03  0.7818609E-02  0.9422098E-01
        2   -1    0    0  501    0  0.00000000000E+00  0.00000000000E+00  0.65559375726E+03  0.65559375727E+03  0.25500000920E-02 0. -1.
       -2   -1    0    0    0  501  0.00000000000E+00  0.00000000000E+00 -0.31079951491E+03  0.31079951492E+03  0.25500000920E-02 0.  1.
    10030    2    1    2    0    0  0.00000000000E+00  0.00000000000E+00  0.34479424236E+03  0.96639327218E+03  0.90279171848E+03 0.  0.
        1    1    3    3  502    0  0.69933709317E+02  0.17310991144E+03  0.61232526175E+03  0.64015622417E+03  0.50400001928E-02 0. -1.
       -1    1    3    3    0  502 -0.69933709317E+02 -0.17310991144E+03 -0.26753101939E+03  0.32623704802E+03  0.50400001928E-02 0.  1.
</event>
<event>
 5   0  0.6092779E-03  0.9003687E+03  0.7818609E-02  0.9425121E-01
        1   -1    0    0  501    0  0.00000000000E+00  0.00000000000E+00  0.53006320982E+03  0.53006320985E+03  0.50400001928E-02 0. -1.
       -1   -1    0    0    0  501  0.00000000000E+00  0.00000000000E+00 -0.38234294604E+03  0.38234294607E+03  0.50400001928E-02 0.  1.
    10030    2    1    2    0    0  0.00000000000E+00  0.00000000000E+00  0.14772026379E+03  0.91240615592E+03  0.90036865617E+03 0.  0.
        2    1    3    3  502    0 -0.11323719641E+03 -0.93229683400E+02 -0.35744914312E+03  0.38637329934E+03  0.25500000920E-02 0.  1.
       -2    1    3    3    0  502  0.11323719641E+03  0.93229683400E+02  0.50516940691E+03  0.52603285658E+03  0.25500000920E-02 0. -1.
</event>
<event>
 5   0  0.1033749E-02  0.9038760E+03  0.7818609E-02  0.9420749E-01
       -2   -1    0    0    0  501  0.00000000000E+00  0.00000000000E+00  0.17876544224E+03  0.17876544226E+03  0.25500000920E-02 0. -1.
        2   -1    0    0  501    0  0.00000000000E+00  0.00000000000E+00 -0.11425473081E+04  0.11425473081E+04  0.25500000920E-02 0.  1.
    10030    2    1    2    0    0  0.00000000000E+00  0.00000000000E+00 -0.96378186590E+03  0.13213127504E+04  0.90387604202E+03 0.  0.
        5    1    3    3  502    0  0.12408664041E+03 -0.25358929381E+03  0.33952382824E+02  0.28439387926E+03  0.46999998093E+01 0. -1.
       -5    1    3    3    0  502 -0.12408664041E+03  0.25358929381E+03 -0.99773424873E+03  0.10369188711E+04  0.46999998093E+01 0.  1.
</event>
<event>
 5   0  0.6092779E-03  0.8919679E+03  0.7818609E-02  0.9435678E-01
        1   -1    0    0  501    0  0.00000000000E+00  0.00000000000E+00  0.13024397110E+04  0.13024397111E+04  0.50400001928E-02 0. -1.
       -1   -1    0    0    0  501  0.00000000000E+00  0.00000000000E+00 -0.15271470086E+03  0.15271470095E+03  0.50400001928E-02 0.  1.
    10030    2    1    2    0    0  0.00000000000E+00  0.00000000000E+00  0.11497250102E+04  0.14551544120E+04  0.89196791631E+03 0.  0.
        2    1    3    3  502    0 -0.28724389557E+03  0.18174740144E+03  0.10458832642E+04  0.10997331385E+04  0.25500000920E-02 0.  1.
       -2    1    3    3    0  502  0.28724389557E+03 -0.18174740144E+03  0.10384174597E+03  0.35542127354E+03  0.25500000920E-02 0. -1.
</event>
<event>
 5   0  0.6015709E-03  0.1022763E+04  0.7818609E-02  0.9283925E-01
       -1   -1    0    0    0  501  0.00000000000E+00  0.00000000000E+00  0.35812034135E+03  0.35812034138E+03  0.50400001928E-02 0. -1.
        1   -1    0    0  501    0  0.00000000000E+00  0.00000000000E+00 -0.73023197923E+03  0.73023197925E+03  0.50400001928E-02 0.  1.
    10030    2    1    2    0    0  0.00000000000E+00  0.00000000000E+00 -0.37211163788E+03  0.10883523206E+04  0.10227627793E+04 0.  0.
        3    1    3    3  502    0 -0.41915282127E+03 -0.16094952931E+03 -0.44653313120E+03  0.63323430579E+03  0.10100000352E+00 0.  1.
       -3    1    3    3    0  502  0.41915282127E+03  0.16094952931E+03  0.74421493319E+02  0.45511801484E+03  0.10100000352E+00 0. -1.
</event>
<event>
 5   0  0.6211218E-03  0.9093024E+03  0.7818609E-02  0.9414027E-01
        1   -1    0    0  501    0  0.00000000000E+00  0.00000000000E+00  0.24980065514E+03  0.24980065519E+03  0.50400001928E-02 0. -1.
       -1   -1    0    0    0  501  0.00000000000E+00  0.00000000000E+00 -0.82749074330E+03  0.82749074331E+03  0.50400001928E-02 0.  1.
    10030    2    1    2    0    0  0.00000000000E+00  0.00000000000E+00 -0.57769008816E+03  0.10772913985E+04  0.90930243556E+03 0.  0.
        5    1    3    3  502    0  0.13451112861E+03 -0.39499345687E+03 -0.50266627167E+03  0.65330585897E+03  0.46999998093E+01 0. -1.
       -5    1    3    3    0  502 -0.13451112861E+03  0.39499345687E+03 -0.75023816492E+02  0.42398553953E+03  0.46999998093E+01 0.  1.
</event>
<event>
 5   0  0.1017079E-02  0.8975192E+03  0.7818609E-02  0.9428688E-01
        2   -1    0    0  501    0  0.00000000000E+00  0.00000000000E+00  0.85694547301E+03  0.85694547302E+03  0.25500000920E-02 0. -1.
       -2   -1    0    0    0  501  0.00000000000E+00  0.00000000000E+00 -0.23500348539E+03  0.23500348540E+03  0.25500000920E-02 0.  1.
    10030    2    1    2    0    0  0.00000000000E+00  0.00000000000E+00  0.62194198762E+03  0.10919489584E+04  0.89751918744E+03 0.  0.
        1    1    3    3  502    0  0.58751961286E+01  0.46598768618E+02  0.85394695032E+03  0.85523760274E+03  0.50400001928E-02 0. -1.
       -1    1    3    3    0  502 -0.58751961286E+01 -0.46598768618E+02 -0.23200496269E+03  0.23671135567E+03  0.50400001928E-02 0.  1.
</event>
<event>
 5   0  0.6015709E-03  0.8468584E+03  0.7818609E-02  0.9494563E-01
       -1   -1    0    0    0  501  0.00000000000E+00  0.00000000000E+00  0.41202104848E+03  0.41202104851E+03  0.50400001928E-02 0.  1.
        1   -1    0    0  501    0  0.00000000000E+00  0.00000000000E+00 -0.43515322386E+03  0.43515322389E+03  0.50400001928E-02 0. -1.
    10030    2    1    2    0    0  0.00000000000E+00  0.00000000000E+00 -0.23132175377E+02  0.84717427241E+03  0.84685840038E+03 0.  0.
        3    1    3    3  502    0  0.22325367521E+03  0.31628667184E+03 -0.18313170404E+03  0.42827175194E+03  0.10100000352E+00 0.  1.
       -3    1    3    3    0  502 -0.22325367521E+03 -0.31628667184E+03  0.15999952867E+03  0.41890252047E+03  0.10100000352E+00 0. -1.
</event>
<event>
 5   0  0.1003252E-02  0.9006496E+03  0.7818609E-02  0.9424770E-01
        2   -1    0    0  501    0  0.00000000000E+00  0.00000000000E+00  0.81033522275E+03  0.81033522275E+03  0.25500000920E-02 0.  1.
       -2   -1    0    0    0  501  0.00000000000E+00  0.00000000000E+00 -0.25025747375E+03  0.25025747377E+03  0.25500000920E-02 0. -1.
    10030    2    1    2    0    0  0.00000000000E+00  0.00000000000E+00  0.56007774899E+03  0.10605926965E+04  0.90064964497E+03 0.  0.
        2    1    3    3  502    0  0.42730979337E+03  0.54984852739E+02  0.12571012398E+03  0.44879842782E+03  0.25500000920E-02 0. -1.
       -2    1    3    3    0  502 -0.42730979337E+03 -0.54984852739E+02  0.43436762501E+03  0.61179426869E+03  0.25500000920E-02 0.  1.
</event>
<event>
 5   0  0.6137243E-03  0.8414536E+03  0.7818609E-02  0.9501880E-01
        1   -1    0    0  501    0  0.00000000000E+00  0.00000000000E+00  0.18818212644E+04  0.18818212644E+04  0.50400001928E-02 0. -1.
       -1   -1    0    0    0  501  0.00000000000E+00  0.00000000000E+00 -0.94063690691E+02  0.94063690826E+02  0.50400001928E-02 0.  1.
    10030    2    1    2    0    0  0.00000000000E+00  0.00000000000E+00  0.17877575737E+04  0.19758849553E+04  0.84145363150E+03 0.  0.
        4    1    3    3  502    0 -0.14537463204E+03  0.29920970400E+03  0.28902647711E+03  0.44067918941E+03  0.12699999809E+01 0.  1.
       -4    1    3    3    0  502  0.14537463204E+03 -0.29920970400E+03  0.14987310966E+04  0.15352057658E+04  0.12699999809E+01 0. -1.
</event>
<event>
 5   0  0.6211218E-03  0.9068470E+03  0.7818609E-02  0.9417063E-01
        1   -1    0    0  501    0  0.00000000000E+00  0.00000000000E+00  0.27448224992E+03  0.27448224997E+03  0.50400001928E-02 0. -1.
       -1   -1    0    0    0  501  0.00000000000E+00  0.00000000000E+00 -0.74902067942E+03  0.74902067944E+03  0.50400001928E-02 0.  1.
    10030    2    1    2    0    0  0.00000000000E+00  0.00000000000E+00 -0.47453842950E+03  0.10235029294E+04  0.90684702427E+03 0.  0.
        5    1    3    3  502    0  0.28387718058E+03 -0.22596297035E+03 -0.54413716217E+03  0.65402817897E+03  0.46999998093E+01 0.  1.
       -5    1    3    3    0  502 -0.28387718058E+03  0.22596297035E+03  0.69598732669E+02  0.36947475044E+03  0.46999998093E+01 0. -1.
</event>
<event>
 5   0  0.1033749E-02  0.8866978E+03  0.7818609E-02  0.9442364E-01
       -2   -1    0    0    0  501  0.00000000000E+00  0.00000000000E+00  0.37632116745E+03  0.37632116746E+03  0.25500000920E-02 0. -1.
        2   -1    0    0  501    0  0.00000000000E+00  0.00000000000E+00 -0.52231520053E+03  0.52231520054E+03  0.25500000920E-02 0.  1.
    10030    2    1    2    0    0  0.00000000000E+00  0.00000000000E+00 -0.14599403308E+03  0.89863636800E+03  0.88669784267E+03 0.  0.
        5    1    3    3  502    0  0.20179645534E+03  0.95747715759E+02 -0.46109782514E+03  0.51236971886E+03  0.46999998093E+01 0.  1.
       -5    1    3    3    0  502 -0.20179645534E+03 -0.95747715759E+02  0.31510379206E+03  0.38626664913E+03  0.46999998093E+01 0. -1.
</event>
<event>
 5   0  0.6211218E-03  0.9067791E+03  0.7818609E-02  0.9417147E-01
       -1   -1    0    0    0  501  0.00000000000E+00  0.00000000000E+00  0.34252413457E+03  0.34252413461E+03  0.50400001928E-02 0.  1.
        1   -1    0    0  501    0  0.00000000000E+00  0.00000000000E+00 -0.60013896043E+03  0.60013896046E+03  0.50400001928E-02 0. -1.
    10030    2    1    2    0    0  0.00000000000E+00  0.00000000000E+00 -0.25761482586E+03  0.94266309507E+03  0.90677908682E+03 0.  0.
        5    1    3    3  502    0 -0.16866066776E+03 -0.22716815479E+03  0.23945419810E+03  0.37069150838E+03  0.46999998093E+01 0.  1.
       -5    1    3    3    0  502  0.16866066776E+03  0.22716815479E+03 -0.49706902396E+03  0.57197158669E+03  0.46999998093E+01 0. -1.
</event>
<event>
 5   0  0.6092779E-03  0.8630797E+03  0.7818609E-02  0.9472948E-01
       -1   -1    0    0    0  501  0.00000000000E+00  0.00000000000E+00  0.44683044395E+03  0.44683044398E+03  0.50400001928E-02 0. -1.
        1   -1    0    0  501    0  0.00000000000E+00  0.00000000000E+00 -0.41677246585E+03  0.41677246588E+03  0.50400001928E-02 0.  1.
    10030    2    1    2    0    0  0.00000000000E+00  0.00000000000E+00  0.30057978101E+02  0.86360290986E+03  0.86307966253E+03 0.  0.
        2    1    3    3  502    0  0.13446619797E+03 -0.38530726998E+03  0.15541292445E+03  0.43668756313E+03  0.25500000920E-02 0. -1.
       -2    1    3    3    0  502 -0.13446619797E+03  0.38530726998E+03 -0.12535494635E+03  0.42691534673E+03  0.25500000920E-02 0.  1.
</event>
<event>
 5   0  0.1017079E-02  0.8877061E+03  0.7818609E-02  0.9441081E-01
        2   -1    0    0  501    0  0.00000000000E+00  0.00000000000E+00  0.84610541304E+03  0.84610541304E+03  0.25500000920E-02 0. -1.
       -2   -1    0    0    0  501  0.00000000000E+00  0.00000000000E+00 -0.23283802377E+03  0.23283802379E+03  0.25500000920E-02 0.  1.
    10030    2    1    2    0    0  0.00000000000E+00  0.00000000000E+00  0.61326738926E+03  0.10789434368E+04  0.88770606010E+03 0.  0.
        1    1    3    3  502    0  0.44180893015E+03 -0.25949191370E+02  0.34761763675E+03  0.56276683689E+03  0.50400001928E-02 0. -1.
       -1    1    3    3    0  502 -0.44180893015E+03  0.25949191370E+02  0.26564975251E+03  0.51617659994E+03  0.50400001928E-02 0.  1.
</event>
<event>
 5   0  0.6137243E-03  0.8993979E+03  0.7818609E-02  0.9426334E-01
        1   -1    0    0  501    0  0.00000000000E+00  0.00000000000E+00  0.48658829634E+03  0.48658829637E+03  0.50400001928E-02 0. -1.
       -1   -1    0    0    0  501  0.00000000000E+00  0.00000000000E+00 -0.41560630209E+03  0.41560630212E+03  0.50400001928E-02 0.  1.
    10030    2    1    2    0    0  0.00000000000E+00  0.00000000000E+00  0.70981994256E+02  0.90219459849E+03  0.89939793753E+03 0.  0.
        4    1    3    3  502    0 -0.14068157997E+03  0.38686873125E+03 -0.14609350767E+03  0.43681076915E+03  0.12699999809E+01 0.  1.
       -4    1    3    3    0  502  0.14068157997E+03 -0.38686873125E+03  0.21707550193E+03  0.46538382933E+03  0.12699999809E+01 0. -1.
</event>
<event>
 5   0  0.1017079E-02  0.8951115E+03  0.7818609E-02  0.9431713E-01
       -2   -1    0    0    0  501  0.00000000000E+00  0.00000000000E+00  0.17708405501E+03  0.17708405503E+03  0.25500000920E-02 0.  1.
        2   -1    0    0  501    0  0.00000000000E+00  0.00000000000E+00 -0.11311360199E+04  0.11311360199E+04  0.25500000920E-02 0. -1.
    10030    2    1    2    0    0  0.00000000000E+00  0.00000000000E+00 -0.95405196491E+03  0.13082200749E+04  0.89511150855E+03 0.  0.
        1    1    3    3  502    0  0.61308438148E+02  0.42241318268E+03 -0.67373180868E+03  0.79756264427E+03  0.50400001928E-02 0. -1.
       -1    1    3    3    0  502 -0.61308438148E+02 -0.42241318268E+03 -0.28032015622E+03  0.51065743067E+03  0.50400001928E-02 0.  1.
</event>
<event>
 5   0  0.1017079E-02  0.9026944E+03  0.7818609E-02  0.9422220E-01
        2   -1    0    0  501    0  0.00000000000E+00  0.00000000000E+00  0.19609098493E+04  0.19609098493E+04  0.25500000920E-02 0.  1.
       -2   -1    0    0    0  501  0.00000000000E+00  0.00000000000E+00 -0.10388764676E+03  0.10388764679E+03  0.25500000920E-02 0. -1.
    10030    2    1    2    0    0  0.00000000000E+00  0.00000000000E+00  0.18570222026E+04  0.20647974961E+04  0.90269443289E+03 0.  0.
        1    1    3    3  502    0  0.23972807152E+03  0.31045721131E+03  0.41775031404E+03  0.57303451313E+03  0.50400001928E-02 0. -1.
       -1    1    3    3    0  502 -0.23972807152E+03 -0.31045721131E+03  0.14392718885E+04  0.14917629830E+04  0.50400001928E-02 0.  1.
</event>
<event>
 5   0  0.6137243E-03  0.8925604E+03  0.7818609E-02  0.9434929E-01
        1   -1    0    0  501    0  0.00000000000E+00  0.00000000000E+00  0.93163825270E+03  0.93163825271E+03  0.50400001928E-02 0.  1.
       -1   -1    0    0    0  501  0.00000000000E+00  0.00000000000E+00 -0.21378040223E+03  0.21378040229E+03  0.50400001928E-02 0. -1.
    10030    2    1    2    0    0  0.00000000000E+00  0.00000000000E+00  0.71785785047E+03  0.11454186550E+04  0.89256036309E+03 0.  0.
        4    1    3    3  502    0 -0.18956060769E+03  0.40043829064E+03  0.42780183836E+03  0.61587342402E+03  0.12699999809E+01 0.  1.
       -4    1    3    3    0  502  0.18956060769E+03 -0.40043829064E+03  0.29005601211E+03  0.52954523099E+03  0.12699999809E+01 0. -1.
</event>
<event>
 5   0  0.6015709E-03  0.8879516E+03  0.7818609E-02  0.9440769E-01
        1   -1    0    0  501    0  0.00000000000E+00  0.00000000000E+00  0.21870614672E+04  0.21870614672E+04  0.50400001928E-02 0. -1.
       -1   -1    0    0    0  501  0.00000000000E+00  0.00000000000E+00 -0.90127567802E+02  0.90127567943E+02  0.50400001928E-02 0.  1.
    10030    2    1    2    0    0  0.00000000000E+00  0.00000000000E+00  0.20969338994E+04  0.22771890351E+04  0.88795164471E+03 0.  0.
        3    1    3    3  502    0 -0.38749622521E+03 -0.17049132267E+03  0.70541307304E+03  0.82269570892E+03  0.10100000352E+00 0. -1.
       -3    1    3    3    0  502  0.38749622521E+03  0.17049132267E+03  0.13915208263E+04  0.14544933262E+04  0.10100000352E+00 0.  1.
</event>
<event>
 5   0  0.1041727E-02  0.8465299E+03  0.7818609E-02  0.9495006E-01
       -2   -1    0    0    0  501  0.00000000000E+00  0.00000000000E+00  0.19709786262E+03  0.19709786263E+03  0.25500000920E-02 0.  1.
        2   -1    0    0  501    0  0.00000000000E+00  0.00000000000E+00 -0.90895558444E+03  0.90895558444E+03  0.25500000920E-02 0. -1.
    10030    2    1    2    0    0  0.00000000000E+00  0.00000000000E+00 -0.71185772182E+03  0.11060534471E+04  0.84652986461E+03 0.  0.
        4    1    3    3  502    0  0.16691513236E+03 -0.67871285244E+02 -0.85633867596E+03  0.87509126016E+03  0.12699999809E+01 0. -1.
       -4    1    3    3    0  502 -0.16691513236E+03  0.67871285244E+02  0.14448095414E+03  0.23096218691E+03  0.12699999809E+01 0.  1.
</event>
<event>
 5   0  0.6137243E-03  0.9022055E+03  0.7818609E-02  0.9422829E-01
        1   -1    0    0  501    0  0.00000000000E+00  0.00000000000E+00  0.10034239625E+04  0.10034239625E+04  0.50400001928E-02 0. -1.
       -1   -1    0    0    0  501  0.00000000000E+00  0.00000000000E+00 -0.20279932716E+03  0.20279932722E+03  0.50400001928E-02 0.  1.
    10030    2    1    2    0    0  0.00000000000E+00  0.00000000000E+00  0.80062463531E+03  0.12062232897E+04  0.90220552978E+03 0.  0.
        4    1    3    3  502    0 -0.44157465916E+03  0.66437788588E+02  0.48581510652E+03  0.65986369046E+03  0.12699999809E+01 0. -1.
       -4    1    3    3    0  502  0.44157465916E+03 -0.66437788588E+02  0.31480952880E+03  0.54635959925E+03  0.12699999809E+01 0.  1.
</event>
<event>
 5   0  0.6288003E-03  0.9030733E+03  0.7818609E-02  0.9421748E-01
        1   -1    0    0  501    0  0.00000000000E+00  0.00000000000E+00  0.78824071491E+03  0.78824071492E+03  0.50400001928E-02 0. -1.
       -1   -1    0    0    0  501  0.00000000000E+00  0.00000000000E+00 -0.25865870739E+03  0.25865870744E+03  0.50400001928E-02 0.  1.
    10030    2    1    2    0    0  0.00000000000E+00  0.00000000000E+00  0.52958200751E+03  0.10468994224E+04  0.90307325166E+03 0.  0.
        1    1    3    3  502    0 -0.22429276768E+03  0.24641787524E+03 -0.88463486427E+02  0.34475324992E+03  0.50400001928E-02 0.  1.
       -1    1    3    3    0  502  0.22429276768E+03 -0.24641787524E+03  0.61804549394E+03  0.70214617245E+03  0.50400001928E-02 0. -1.
</event>
<event>
 5   0  0.6211218E-03  0.8965691E+03  0.7818609E-02  0.9429880E-01
       -1   -1    0    0    0  501  0.00000000000E+00  0.00000000000E+00  0.32219894085E+03  0.32219894089E+03  0.50400001928E-02 0. -1.
        1   -1    0    0  501    0  0.00000000000E+00  0.00000000000E+00 -0.62371105909E+03  0.62371105911E+03  0.50400001928E-02 0.  1.
    10030    2    1    2    0    0  0.00000000000E+00  0.00000000000E+00 -0.30151211824E+03  0.94590999999E+03  0.89656911091E+03 0.  0.
        5    1    3    3  502    0 -0.33965807951E+03 -0.23181678275E+03 -0.33898506702E+03  0.53295365408E+03  0.46999998093E+01 0.  1.
       -5    1    3    3    0  502  0.33965807951E+03  0.23181678275E+03  0.37472948785E+02  0.41295634591E+03  0.46999998093E+01 0. -1.
</event>
<event>
 5   0  0.1041727E-02  0.9275959E+03  0.7818609E-02  0.9391728E-01
        2   -1    0    0  501    0  0.00000000000E+00  0.00000000000E+00  0.62820252765E+03  0.62820252766E+03  0.25500000920E-02 0.  1.
       -2   -1    0    0    0  501  0.00000000000E+00  0.00000000000E+00 -0.34241909771E+03  0.34241909772E+03  0.25500000920E-02 0. -1.
    10030    2    1    2    0    0  0.00000000000E+00  0.00000000000E+00  0.28578342994E+03  0.97062162538E+03  0.92759590923E+03 0.  0.
        4    1    3    3  502    0 -0.11445512588E+03 -0.48680275183E+02 -0.32464084010E+03  0.34765361064E+03  0.12699999809E+01 0. -1.
       -4    1    3    3    0  502  0.11445512588E+03  0.48680275183E+02  0.61042427004E+03  0.62296801474E+03  0.12699999809E+01 0.  1.
</event>
<event>
 5   0  0.1003252E-02  0.9002473E+03  0.7818609E-02  0.9425272E-01
       -2   -1    0    0    0  501  0.00000000000E+00  0.00000000000E+00  0.36602200764E+03  0.36602200765E+03  0.25500000920E-02 0. -1.
        2   -1    0    0  501    0  0.00000000000E+00  0.00000000000E+00 -0.55354956379E+03  0.55354956379E+03  0.25500000920E-02 0.  1.
    10030    2    1    2    0    0  0.00000000000E+00  0.00000000000E+00 -0.18752755615E+03  0.91957157144E+03  0.90024734973E+03 0.  0.
        2    1    3    3  502    0 -0.16549226288E+03 -0.41767094502E+03 -0.65334442272E+02  0.45398821212E+03  0.25500000920E-02 0.  1.
       -2    1    3    3    0  502  0.16549226288E+03  0.41767094502E+03 -0.12219311388E+03  0.46558335932E+03  0.25500000920E-02 0. -1.
</event>
<event>
 5   0  0.6211218E-03  0.9027436E+03  0.7818609E-02  0.9422158E-01
       -1   -1    0    0    0  501  0.00000000000E+00  0.00000000000E+00  0.12838357616E+03  0.12838357626E+03  0.50400001928E-02 0. -1.
        1   -1    0    0  501    0  0.00000000000E+00  0.00000000000E+00 -0.15869357475E+04  0.15869357475E+04  0.50400001928E-02 0.  1.
    10030    2    1    2    0    0  0.00000000000E+00  0.00000000000E+00 -0.14585521714E+04  0.17153193238E+04  0.90274356601E+03 0.  0.
        5    1    3    3  502    0 -0.17829567948E+03 -0.10610005959E+03 -0.14909078267E+04  0.15052823023E+04  0.46999998093E+01 0.  1.
       -5    1    3    3    0  502  0.17829567948E+03  0.10610005959E+03  0.32355655313E+02  0.21003702149E+03  0.46999998093E+01 0. -1.
</event>
<event>
 5   0  0.6288003E-03  0.9081544E+03  0.7818609E-02  0.9415445E-01
        1   -1    0    0  501    0  0.00000000000E+00  0.00000000000E+00  0.12011520904E+04  0.12011520905E+04  0.50400001928E-02 0.  1.
       -1   -1    0    0    0  501  0.00000000000E+00  0.00000000000E+00 -0.17165695301E+03  0.17165695309E+03  0.50400001928E-02 0. -1.
    10030    2    1    2    0    0  0.00000000000E+00  0.00000000000E+00  0.10294951374E+04  0.13728090435E+04  0.90815440980E+03 0.  0.
        1    1    3    3  502    0  0.15813004968E+03  0.33149091338E+03  0.91837369571E+03  0.98909129167E+03  0.50400001928E-02 0.  1.
       -1    1    3    3    0  502 -0.15813004968E+03 -0.33149091338E+03  0.11112144172E+03  0.38371775187E+03  0.50400001928E-02 0. -1.
</event>
<event>
 5   0  0.1028978E-02  0.9021256E+03  0.7818609E-02  0.9422928E-01
       -2   -1    0    0    0  501  0.00000000000E+00  0.00000000000E+00  0.24246656902E+03  0.24246656903E+03  0.25500000920E-02 0.  1.
        2   -1    0    0  501    0  0.00000000000E+00  0.00000000000E+00 -0.83911623393E+03  0.83911623394E+03  0.25500000920E-02 0. -1.
    10030    2    1    2    0    0  0.00000000000E+00  0.00000000000E+00 -0.59664966492E+03  0.10815828030E+04  0.90212556611E+03 0.  0.
        3    1    3    3  502    0 -0.14111645324E+03 -0.32456259812E+03  0.36952494668E+02  0.35583736529E+03  0.10100000352E+00 0. -1.
       -3    1    3    3    0  502  0.14111645324E+03  0.32456259812E+03 -0.63360215959E+03  0.72574543768E+03  0.10100000352E+00 0.  1.
</event>
<event>
 5   0  0.1041727E-02  0.8840260E+03  0.7818609E-02  0.9445773E-01
        2   -1    0    0  501    0  0.00000000000E+00  0.00000000000E+00  0.13754933610E+04  0.13754933610E+04  0.25500000920E-02 0. -1.
       -2   -1    0    0    0  501  0.00000000000E+00  0.00000000000E+00 -0.14204028581E+03  0.14204028583E+03  0.25500000920E-02 0.  1.
    10030    2    1    2    0    0  0.00000000000E+00  0.00000000000E+00  0.12334530752E+04  0.15175336468E+04  0.88402595016E+03 0.  0.
        4    1    3    3  502    0 -0.33584654495E+03  0.24345222232E+03  0.87882399733E+03  0.97179993697E+03  0.12699999809E+01 0. -1.
       -4    1    3    3    0  502  0.33584654495E+03 -0.24345222232E+03  0.35462907785E+03  0.54573370985E+03  0.12699999809E+01 0.  1.
</event>
<event>
 5   0  0.1041727E-02  0.9023995E+03  0.7818609E-02  0.9422587E-01
        2   -1    0    0  501    0  0.00000000000E+00  0.00000000000E+00  0.31299583298E+04  0.31299583298E+04  0.25500000920E-02 0. -1.
       -2   -1    0    0    0  501  0.00000000000E+00  0.00000000000E+00 -0.65042780741E+02  0.65042780791E+02  0.25500000920E-02 0.  1.
    10030    2    1    2    0    0  0.00000000000E+00  0.00000000000E+00  0.30649155491E+04  0.31950011106E+04  0.90239945359E+03 0.  0.
        4    1    3    3  502    0 -0.26029559504E+02  0.14800401826E+03  0.26170864791E+02  0.15254263159E+03  0.12699999809E+01 0.  1.
       -4    1    3    3    0  502  0.26029559504E+02 -0.14800401826E+03  0.30387446843E+04  0.30424584790E+04  0.12699999809E+01 0. -1.
</event>
<event>
 5   0  0.6015709E-03  0.8862171E+03  0.7818609E-02  0.9442977E-01
        1   -1    0    0  501    0  0.00000000000E+00  0.00000000000E+00  0.12577673588E+04  0.12577673588E+04  0.50400001928E-02 0. -1.
       -1   -1    0    0    0  501  0.00000000000E+00  0.00000000000E+00 -0.15610611243E+03  0.15610611251E+03  0.50400001928E-02 0.  1.
    10030    2    1    2    0    0  0.00000000000E+00  0.00000000000E+00  0.11016612463E+04  0.14138734713E+04  0.88621706772E+03 0.  0.
        3    1    3    3  502    0  0.77401892314E+02 -0.11066490329E+03 -0.12247370194E+03  0.18231179782E+03  0.10100000352E+00 0.  1.
       -3    1    3    3    0  502 -0.77401892314E+02  0.11066490329E+03  0.12241349483E+04  0.12315616735E+04  0.10100000352E+00 0. -1.
</event>
<event>
 5   0  0.6015709E-03  0.9156562E+03  0.7818609E-02  0.9406219E-01
       -1   -1    0    0    0  501  0.00000000000E+00  0.00000000000E+00  0.70391115666E+03  0.70391115668E+03  0.50400001928E-02 0.  1.
        1   -1    0    0  501    0  0.00000000000E+00  0.00000000000E+00 -0.29777414988E+03  0.29777414992E+03  0.50400001928E-02 0. -1.
    10030    2    1    2    0    0  0.00000000000E+00  0.00000000000E+00  0.40613700678E+03  0.10016853066E+04  0.91565615008E+03 0.  0.
        3    1    3    3  502    0 -0.34196765662E+02  0.23996776512E+03 -0.22182028423E+03  0.32856992524E+03  0.10100000352E+00 0. -1.
       -3    1    3    3    0  502  0.34196765662E+02 -0.23996776512E+03  0.62795729102E+03  0.67311538136E+03  0.10100000352E+00 0.  1.
</event>
<event>
 5   0  0.6288003E-03  0.8985832E+03  0.7818609E-02  0.9427354E-01
        1   -1    0    0  501    0  0.00000000000E+00  0.00000000000E+00  0.48105011102E+03  0.48105011105E+03  0.50400001928E-02 0.  1.
       -1   -1    0    0    0  501  0.00000000000E+00  0.00000000000E+00 -0.41962973857E+03  0.41962973861E+03  0.50400001928E-02 0. -1.
    10030    2    1    2    0    0  0.00000000000E+00  0.00000000000E+00  0.61420372449E+02  0.90067984965E+03  0.89858317891E+03 0.  0.
        1    1    3    3  502    0 -0.33621142492E+03 -0.23510364502E+00 -0.26802004209E+03  0.42996851106E+03  0.50400001928E-02 0. -1.
       -1    1    3    3    0  502  0.33621142492E+03  0.23510364502E+00  0.32944041454E+03  0.47071133859E+03  0.50400001928E-02 0.  1.
</event>
<event>
 5   0  0.3996375E-03  0.7884338E+03  0.7818609E-02  0.9576911E-01
       -4   -1    0    0    0  501  0.00000000000E+00  0.00000000000E+00  0.18352555371E+03  0.18352994787E+03  0.12699999809E+01 0.  1.
        4   -1    0    0  501    0  0.00000000000E+00  0.00000000000E+00 -0.84677152347E+03  0.84677247586E+03  0.12699999809E+01 0. -1.
    10030    2    1    2    0    0  0.00000000000E+00  0.00000000000E+00 -0.66324596976E+03  0.10303024237E+04  0.78843380694E+03 0.  0.
        5    1    3    3  502    0 -0.37966812616E+03  0.25808902302E+02 -0.46597843605E+03  0.60164107100E+03  0.46999998093E+01 0. -1.
       -5    1    3    3    0  502  0.37966812616E+03 -0.25808902302E+02 -0.19726753372E+03  0.42866135272E+03  0.46999998093E+01 0.  1.
</event>
<event>
 5   0  0.1028978E-02  0.9129248E+03  0.7818609E-02  0.9409567E-01
        2   -1    0    0  501    0  0.00000000000E+00  0.00000000000E+00  0.45493498216E+03  0.45493498216E+03  0.25500000920E-02 0. -1.
       -2   -1    0    0    0  501  0.00000000000E+00  0.00000000000E+00 -0.45799496311E+03  0.45799496312E+03  0.25500000920E-02 0.  1.
    10030    2    1    2    0    0  0.00000000000E+00  0.00000000000E+00 -0.30599809550E+01  0.91292994528E+03  0.91292481701E+03 0.  0.
        3    1    3    3  502    0 -0.19993735701E+03 -0.16266098352E+03  0.37520064590E+03  0.45520223766E+03  0.10100000352E+00 0. -1.
       -3    1    3    3    0  502  0.19993735701E+03  0.16266098352E+03 -0.37826062686E+03  0.45772770762E+03  0.10100000352E+00 0.  1.
</event>
<event>
 5   0  0.1028978E-02  0.8953162E+03  0.7818609E-02  0.9431455E-01
        2   -1    0    0  501    0  0.00000000000E+00  0.00000000000E+00  0.15374475324E+04  0.15374475324E+04  0.25500000920E-02 0.  1.
       -2   -1    0    0    0  501  0.00000000000E+00  0.00000000000E+00 -0.13034446459E+03  0.13034446461E+03  0.25500000920E-02 0. -1.
    10030    2    1    2    0    0  0.00000000000E+00  0.00000000000E+00  0.14071030678E+04  0.16677919970E+04  0.89531620216E+03 0.  0.
        3    1    3    3  502    0 -0.31118185680E+03  0.21203934906E+03  0.11544981301E+04  0.12143561159E+04  0.10100000352E+00 0.  1.
       -3    1    3    3    0  502  0.31118185680E+03 -0.21203934906E+03  0.25260493772E+03  0.45343588115E+03  0.10100000352E+00 0. -1.
</event>
<event>
 5   0  0.6015709E-03  0.1067642E+04  0.7818609E-02  0.9237317E-01
       -1   -1    0    0    0  501  0.00000000000E+00  0.00000000000E+00  0.34251608036E+03  0.34251608039E+03  0.50400001928E-02 0.  1.
        1   -1    0    0  501    0  0.00000000000E+00  0.00000000000E+00 -0.83197483481E+03  0.83197483483E+03  0.50400001928E-02 0. -1.
    10030    2    1    2    0    0  0.00000000000E+00  0.00000000000E+00 -0.48945875446E+03  0.11744909152E+04  0.10676418115E+04 0.  0.
        3    1    3    3  502    0 -0.50851557897E+03  0.15406855382E+03 -0.30124751881E+03  0.61079889580E+03  0.10100000352E+00 0. -1.
       -3    1    3    3    0  502  0.50851557897E+03 -0.15406855382E+03 -0.18821123565E+03  0.56369201942E+03  0.10100000352E+00 0.  1.
</event>
<event>
 5   0  0.1003252E-02  0.9007088E+03  0.7818609E-02  0.9424696E-01
        2   -1    0    0  501    0  0.00000000000E+00  0.00000000000E+00  0.86325740961E+03  0.86325740962E+03  0.25500000920E-02 0.  1.
       -2   -1    0    0    0  501  0.00000000000E+00  0.00000000000E+00 -0.23494626012E+03  0.23494626014E+03  0.25500000920E-02 0. -1.
    10030    2    1    2    0    0  0.00000000000E+00  0.00000000000E+00  0.62831114949E+03  0.10982036698E+04  0.90070883181E+03 0.  0.
        2    1    3    3  502    0  0.32969534339E+03 -0.20602190871E+03  0.59132092573E+03  0.70767540831E+03  0.25500000920E-02 0.  1.
       -2    1    3    3    0  502 -0.32969534339E+03  0.20602190871E+03  0.36990223763E+02  0.39052826144E+03  0.25500000920E-02 0. -1.
</event>
<event>
 5   0  0.1017079E-02  0.9197649E+03  0.7818609E-02  0.9401206E-01
        2   -1    0    0  501    0  0.00000000000E+00  0.00000000000E+00  0.18280118330E+04  0.18280118330E+04  0.25500000920E-02 0. -1.
       -2   -1    0    0    0  501  0.00000000000E+00  0.00000000000E+00 -0.11569502661E+03  0.11569502664E+03  0.25500000920E-02 0.  1.
    10030    2    1    2    0    0  0.00000000000E+00  0.00000000000E+00  0.17123168064E+04  0.19437068597E+04  0.91976492147E+03 0.  0.
        1    1    3    3  502    0 -0.53823877943E+02 -0.43356539810E+03  0.55273070970E+03  0.70454751560E+03  0.50400001928E-02 0.  1.
       -1    1    3    3    0  502  0.53823877943E+02  0.43356539810E+03  0.11595860967E+04  0.12391593441E+04  0.50400001928E-02 0. -1.
</event>
<event>
 5   0  0.1041727E-02  0.8934438E+03  0.7818609E-02  0.9433814E-01
       -2   -1    0    0    0  501  0.00000000000E+00  0.00000000000E+00  0.23929038681E+03  0.23929038683E+03  0.25500000920E-02 0.  1.
        2   -1    0    0  501    0  0.00000000000E+00  0.00000000000E+00 -0.83396771075E+03  0.83396771076E+03  0.25500000920E-02 0. -1.
    10030    2    1    2    0    0  0.00000000000E+00  0.00000000000E+00 -0.59467732394E+03  0.10732580976E+04  0.89344380037E+03 0.  0.
        4    1    3    3  502    0 -0.32762663263E+03  0.21623593830E+03 -0.41209198448E+02  0.39471128987E+03  0.12699999809E+01 0.  1.
       -4    1    3    3    0  502  0.32762663263E+03 -0.21623593830E+03 -0.55346812549E+03  0.67854680771E+03  0.12699999809E+01 0. -1.
</event>
<event>
 5   0  0.6211218E-03  0.8968698E+03  0.7818609E-02  0.9429503E-01
        1   -1    0    0  501    0  0.00000000000E+00  0.00000000000E+00  0.67511206794E+03  0.67511206796E+03  0.50400001928E-02 0. -1.
       -1   -1    0    0    0  501  0.00000000000E+00  0.00000000000E+00 -0.29786738646E+03  0.29786738650E+03  0.50400001928E-02 0.  1.
    10030    2    1    2    0    0  0.00000000000E+00  0.00000000000E+00  0.37724468148E+03  0.97297945446E+03  0.89686981725E+03 0.  0.
        5    1    3    3  502    0  0.87509872944E+02  0.28444529281E+03  0.55250347965E+03  0.62757412908E+03  0.46999998093E+01 0. -1.
       -5    1    3    3    0  502 -0.87509872944E+02 -0.28444529281E+03 -0.17525879817E+03  0.34540532538E+03  0.46999998093E+01 0.  1.
</event>
<event>
 5   0  0.1017079E-02  0.8907292E+03  0.7818609E-02  0.9437245E-01
        2   -1    0    0  501    0  0.00000000000E+00  0.00000000000E+00  0.10734505749E+04  0.10734505749E+04  0.25500000920E-02 0.  1.
       -2   -1    0    0    0  501  0.00000000000E+00  0.00000000000E+00 -0.18477759178E+03  0.18477759180E+03  0.25500000920E-02 0. -1.
    10030    2    1    2    0    0  0.00000000000E+00  0.00000000000E+00  0.88867298311E+03  0.12582281667E+04  0.89072916678E+03 0.  0.
        1    1    3    3  502    0  0.80302259995E+02 -0.72079536843E+02  0.10547055609E+04  0.10602111737E+04  0.50400001928E-02 0.  1.
       -1    1    3    3    0  502 -0.80302259995E+02  0.72079536843E+02 -0.16603257781E+03  0.19801699299E+03  0.50400001928E-02 0. -1.
</event>
<event>
 5   0  0.1028978E-02  0.9047519E+03  0.7818609E-02  0.9419661E-01
       -2   -1    0    0    0  501  0.00000000000E+00  0.00000000000E+00  0.48792957297E+03  0.48792957298E+03  0.25500000920E-02 0. -1.
        2   -1    0    0  501    0  0.00000000000E+00  0.00000000000E+00 -0.41941295076E+03  0.41941295077E+03  0.25500000920E-02 0.  1.
    10030    2    1    2    0    0  0.00000000000E+00  0.00000000000E+00  0.68516622211E+02  0.90734252375E+03  0.90475185984E+03 0.  0.
        3    1    3    3  502    0  0.10029142972E+03 -0.43202754390E+03 -0.55091145811E+02  0.44692417043E+03  0.10100000352E+00 0.  1.
       -3    1    3    3    0  502 -0.10029142972E+03  0.43202754390E+03  0.12360776802E+03  0.46041835333E+03  0.10100000352E+00 0. -1.
</event>
<event>
 5   0  0.6137243E-03  0.9053809E+03  0.7818609E-02  0.9418880E-01
        1   -1    0    0  501    0  0.00000000000E+00  0.00000000000E+00  0.11046103738E+04  0.11046103739E+04  0.50400001928E-02 0.  1.
       -1   -1    0    0    0  501  0.00000000000E+00  0.00000000000E+00 -0.18552118482E+03  0.18552118489E+03  0.50400001928E-02 0. -1.
    10030    2    1    2    0    0  0.00000000000E+00  0.00000000000E+00  0.91908918903E+03  0.12901315587E+04  0.90538085990E+03 0.  0.
        4    1    3    3  502    0  0.83852632515E+00  0.28005045525E+03  0.96635393276E+03  0.10061165424E+04  0.12699999809E+01 0.  1.
       -4    1    3    3    0  502 -0.83852632515E+00 -0.28005045525E+03 -0.47264743733E+02  0.28401501635E+03  0.12699999809E+01 0. -1.
</event>
<event>
 5   0  0.1033749E-02  0.8925941E+03  0.7818609E-02  0.9434887E-01
       -2   -1    0    0    0  501  0.00000000000E+00  0.00000000000E+00  0.24591753866E+03  0.24591753867E+03  0.25500000920E-02 0. -1.
        2   -1    0    0  501    0  0.00000000000E+00  0.00000000000E+00 -0.80995068305E+03  0.80995068306E+03  0.25500000920E-02 0.  1.
    10030    2    1    2    0    0  0.00000000000E+00  0.00000000000E+00 -0.56403314439E+03  0.10558682217E+04  0.89259414836E+03 0.  0.
        5    1    3    3  502    0 -0.33181157239E+03  0.14772126833E-01  0.71001709383E+02  0.33935564313E+03  0.46999998093E+01 0. -1.
       -5    1    3    3    0  502  0.33181157239E+03 -0.14772126833E-01 -0.63503485378E+03  0.71651257860E+03  0.46999998093E+01 0.  1.
</event>
<event>
 5   0  0.1003252E-02  0.8624135E+03  0.7818609E-02  0.9473826E-01
       -2   -1    0    0    0  501  0.00000000000E+00  0.00000000000E+00  0.45165615967E+03  0.45165615968E+03  0.25500000920E-02 0.  1.
        2   -1    0    0  501    0  0.00000000000E+00  0.00000000000E+00 -0.41168321842E+03  0.41168321843E+03  0.25500000920E-02 0. -1.
    10030    2    1    2    0    0  0.00000000000E+00  0.00000000000E+00  0.39972941249E+02  0.86333937810E+03  0.86241350045E+03 0.  0.
        2    1    3    3  502    0 -0.15379116869E+03  0.34134650742E+03 -0.19418268925E+03  0.42175357557E+03  0.25500000920E-02 0. -1.
       -2    1    3    3    0  502  0.15379116869E+03 -0.34134650742E+03  0.23415563050E+03  0.44158580253E+03  0.25500000920E-02 0.  1.
</event>
<event>
 5   0  0.1003252E-02  0.8986394E+03  0.7818609E-02  0.9427284E-01
       -2   -1    0    0    0  501  0.00000000000E+00  0.00000000000E+00  0.99271722153E+02  0.99271722186E+02  0.25500000920E-02 0. -1.
        2   -1    0    0  501    0  0.00000000000E+00  0.00000000000E+00 -0.20336930661E+04  0.20336930661E+04  0.25500000920E-02 0.  1.
    10030    2    1    2    0    0  0.00000000000E+00  0.00000000000E+00 -0.19344213440E+04  0.21329647883E+04  0.89863944503E+03 0.  0.
        2    1    3    3  502    0  0.27889647898E+03 -0.16298392245E+03 -0.22591361930E+03  0.39418773238E+03  0.25500000920E-02 0. -1.
       -2    1    3    3    0  502 -0.27889647898E+03  0.16298392245E+03 -0.17085077247E+04  0.17387770559E+04  0.25500000920E-02 0.  1.
</event>
<event>
 5   0  0.6015709E-03  0.8969432E+03  0.7818609E-02  0.9429411E-01
       -1   -1    0    0    0  501  0.00000000000E+00  0.00000000000E+00  0.65664704254E+03  0.65664704256E+03  0.50400001928E-02 0.  1.
        1   -1    0    0  501    0  0.00000000000E+00  0.00000000000E+00 -0.30629358241E+03  0.30629358246E+03  0.50400001928E-02 0. -1.
    10030    2    1    2    0    0  0.00000000000E+00  0.00000000000E+00  0.35035346013E+03  0.96294062502E+03  0.89694319792E+03 0.  0.
        3    1    3    3  502    0  0.30027620100E+03  0.28345944049E+03  0.36301253888E+03  0.54981193591E+03  0.10100000352E+00 0.  1.
       -3    1    3    3    0  502 -0.30027620100E+03 -0.28345944049E+03 -0.12659078758E+02  0.41312868910E+03  0.10100000352E+00 0. -1.
</event>
<event>
 5   0  0.6092779E-03  0.8940304E+03  0.7818609E-02  0.9433075E-01
        1   -1    0    0  501    0  0.00000000000E+00  0.00000000000E+00  0.19083135821E+04  0.19083135821E+04  0.50400001928E-02 0.  1.
       -1   -1    0    0    0  501  0.00000000000E+00  0.00000000000E+00 -0.10471162176E+03  0.10471162188E+03  0.50400001928E-02 0. -1.
    10030    2    1    2    0    0  0.00000000000E+00  0.00000000000E+00  0.18036019604E+04  0.20130252040E+04  0.89403044721E+03 0.  0.
        2    1    3    3  502    0  0.25823415710E+03 -0.18319383226E+03  0.19127811623E+03  0.36990833706E+03  0.25500000920E-02 0. -1.
       -2    1    3    3    0  502 -0.25823415710E+03  0.18319383226E+03  0.16123238441E+04  0.16431168670E+04  0.25500000920E-02 0.  1.
</event>
<event>
 5   0  0.1017079E-02  0.9120972E+03  0.7818609E-02  0.9410584E-01
        2   -1    0    0  501    0  0.00000000000E+00  0.00000000000E+00  0.14720098215E+04  0.14720098215E+04  0.25500000920E-02 0. -1.
       -2   -1    0    0    0  501  0.00000000000E+00  0.00000000000E+00 -0.14129002585E+03  0.14129002588E+03  0.25500000920E-02 0.  1.
    10030    2    1    2    0    0  0.00000000000E+00  0.00000000000E+00  0.13307197956E+04  0.16132998473E+04  0.91209715656E+03 0.  0.
        1    1    3    3  502    0  0.36402528507E+03  0.43447329473E+01  0.11512018785E+04  0.12073934943E+04  0.50400001928E-02 0. -1.
       -1    1    3    3    0  502 -0.36402528507E+03 -0.43447329473E+01  0.17951791707E+03  0.40590635305E+03  0.50400001928E-02 0.  1.
</event>
<event>
 5   0  0.3996375E-03  0.9222033E+03  0.7818609E-02  0.9398244E-01
        4   -1    0    0  501    0  0.00000000000E+00  0.00000000000E+00  0.43268330232E+03  0.43268516615E+03  0.12699999809E+01 0. -1.
       -4   -1    0    0    0  501  0.00000000000E+00  0.00000000000E+00 -0.49138279917E+03  0.49138444036E+03  0.12699999809E+01 0.  1.
    10030    2    1    2    0    0  0.00000000000E+00  0.00000000000E+00 -0.58699496850E+02  0.92406960651E+03  0.92220334349E+03 0.  0.
        3    1    3    3  502    0  0.10044001895E+03 -0.33880759685E+03 -0.32615173332E+03  0.48088849897E+03  0.10100000352E+00 0.  1.
       -3    1    3    3    0  502 -0.10044001895E+03  0.33880759685E+03  0.26745223647E+03  0.44318110754E+03  0.10100000352E+00 0. -1.
</event>
<event>
 5   0  0.6211218E-03  0.8613780E+03  0.7818609E-02  0.9475192E-01
       -1   -1    0    0    0  501  0.00000000000E+00  0.00000000000E+00  0.20083049909E+03  0.20083049916E+03  0.50400001928E-02 0.  1.
        1   -1    0    0  501    0  0.00000000000E+00  0.00000000000E+00 -0.92362980556E+03  0.92362980558E+03  0.50400001928E-02 0. -1.
    10030    2    1    2    0    0  0.00000000000E+00  0.00000000000E+00 -0.72279930647E+03  0.11244603047E+04  0.86137804679E+03 0.  0.
        5    1    3    3  502    0  0.14012071822E+03 -0.31350349690E+03 -0.70069010865E+03  0.78032491732E+03  0.46999998093E+01 0. -1.
       -5    1    3    3    0  502 -0.14012071822E+03  0.31350349690E+03 -0.22109197822E+02  0.34413538741E+03  0.46999998093E+01 0.  1.
</event>
<event>
 5   0  0.1033749E-02  0.9041260E+03  0.7818609E-02  0.9420438E-01
        2   -1    0    0  501    0  0.00000000000E+00  0.00000000000E+00  0.44195522269E+03  0.44195522270E+03  0.25500000920E-02 0.  1.
       -2   -1    0    0    0  501  0.00000000000E+00  0.00000000000E+00 -0.46240195236E+03  0.46240195236E+03  0.25500000920E-02 0. -1.
    10030    2    1    2    0    0  0.00000000000E+00  0.00000000000E+00 -0.20446729663E+02  0.90435717506E+03  0.90412600412E+03 0.  0.
        5    1    3    3  502    0  0.27510279812E+03 -0.15018618013E+03 -0.33603879342E+03  0.45954499117E+03  0.46999998093E+01 0. -1.
       -5    1    3    3    0  502 -0.27510279812E+03  0.15018618013E+03  0.31559206375E+03  0.44481218389E+03  0.46999998093E+01 0.  1.
</event>
<event>
 5   0  0.3996375E-03  0.9151527E+03  0.7818609E-02  0.9406836E-01
       -4   -1    0    0    0  501  0.00000000000E+00  0.00000000000E+00  0.27642864790E+03  0.27643156527E+03  0.12699999809E+01 0. -1.
        4   -1    0    0  501    0  0.00000000000E+00  0.00000000000E+00 -0.75742528011E+03  0.75742634484E+03  0.12699999809E+01 0.  1.
    10030    2    1    2    0    0  0.00000000000E+00  0.00000000000E+00 -0.48099663221E+03  0.10338579101E+04  0.91515267475E+03 0.  0.
        5    1    3    3  502    0 -0.43680039033E+03  0.86277958070E+01 -0.39409327656E+03  0.58838815460E+03  0.46999998093E+01 0.  1.
       -5    1    3    3    0  502  0.43680039033E+03 -0.86277958070E+01 -0.86903355653E+02  0.44546975551E+03  0.46999998093E+01 0. -1.
</event>
<event>
 5   0  0.6015709E-03  0.9325649E+03  0.7818609E-02  0.9385765E-01
        1   -1    0    0  501    0  0.00000000000E+00  0.00000000000E+00  0.35269288719E+03  0.35269288722E+03  0.50400001928E-02 0. -1.
       -1   -1    0    0    0  501  0.00000000000E+00  0.00000000000E+00 -0.61645504763E+03  0.61645504765E+03  0.50400001928E-02 0.  1.
    10030    2    1    2    0    0  0.00000000000E+00  0.00000000000E+00 -0.26376216044E+03  0.96914793487E+03  0.93256487301E+03 0.  0.
        3    1    3    3  502    0  0.44213931904E+03 -0.97610643625E+02 -0.24762465551E+03  0.51607460256E+03  0.10100000352E+00 0.  1.
       -3    1    3    3    0  502 -0.44213931904E+03  0.97610643625E+02 -0.16137504932E+02  0.45307333231E+03  0.10100000352E+00 0. -1.
</event>
<event>
 5   0  0.6211218E-03  0.9094897E+03  0.7818609E-02  0.9413796E-01
       -1   -1    0    0    0  501  0.00000000000E+00  0.00000000000E+00  0.13513621764E+03  0.13513621774E+03  0.50400001928E-02 0. -1.
        1   -1    0    0  501    0  0.00000000000E+00  0.00000000000E+00 -0.15302549876E+04  0.15302549876E+04  0.50400001928E-02 0.  1.
    10030    2    1    2    0    0  0.00000000000E+00  0.00000000000E+00 -0.13951187700E+04  0.16653912054E+04  0.90948968360E+03 0.  0.
        5    1    3    3  502    0  0.33800037130E+03 -0.91508694359E+02 -0.16636620722E+03  0.38770852073E+03  0.46999998093E+01 0. -1.
       -5    1    3    3    0  502 -0.33800037130E+03  0.91508694359E+02 -0.12287525627E+04  0.12776826846E+04  0.46999998093E+01 0.  1.
</event>
<event>
 5   0  0.1003252E-02  0.8637906E+03  0.7818609E-02  0.9472012E-01
        2   -1    0    0  501    0  0.00000000000E+00  0.00000000000E+00  0.15581106653E+03  0.15581106655E+03  0.25500000920E-02 0. -1.
       -2   -1    0    0    0  501  0.00000000000E+00  0.00000000000E+00 -0.11971778390E+04  0.11971778390E+04  0.25500000920E-02 0.  1.
    10030    2    1    2    0    0  0.00000000000E+00  0.00000000000E+00 -0.10413667725E+04  0.13529889055E+04  0.86379061336E+03 0.  0.
        2    1    3    3  502    0  0.46794534890E+02 -0.32712683418E+03 -0.95626043507E+03  0.10117488393E+04  0.25500000920E-02 0.  1.
       -2    1    3    3    0  502 -0.46794534890E+02  0.32712683418E+03 -0.85106337386E+02  0.34124006624E+03  0.25500000920E-02 0. -1.
</event>
<event>
 5   0  0.1017079E-02  0.8967535E+03  0.7818609E-02  0.9429649E-01
        2   -1    0    0  501    0  0.00000000000E+00  0.00000000000E+00  0.25819146501E+04  0.25819146501E+04  0.25500000920E-02 0.  1.
       -2   -1    0    0    0  501  0.00000000000E+00  0.00000000000E+00 -0.77865361227E+02  0.77865361269E+02  0.25500000920E-02 0. -1.
    10030    2    1    2    0    0  0.00000000000E+00  0.00000000000E+00  0.25040492889E+04  0.26597800114E+04  0.89675351562E+03 0.  0.
        1    1    3    3  502    0 -0.22577518426E+03  0.20329031586E+03  0.27395911197E+03  0.40909043182E+03  0.50400001928E-02 0. -1.
       -1    1    3    3    0  502  0.22577518426E+03 -0.20329031586E+03  0.22300901769E+04  0.22506895796E+04  0.50400001928E-02 0.  1.
</event>
<event>
 5   0  0.6015709E-03  0.9074898E+03  0.7818609E-02  0.9416267E-01
        1   -1    0    0  501    0  0.00000000000E+00  0.00000000000E+00  0.10080389979E+04  0.10080389979E+04  0.50400001928E-02 0. -1.
       -1   -1    0    0    0  501  0.00000000000E+00  0.00000000000E+00 -0.20424254392E+03  0.20424254398E+03  0.50400001928E-02 0.  1.
    10030    2    1    2    0    0  0.00000000000E+00  0.00000000000E+00  0.80379645399E+03  0.12122815419E+04  0.90748983321E+03 0.  0.
        3    1    3    3  502    0  0.38518345501E+03  0.61205929056E+02  0.92127955670E+02  0.40074933584E+03  0.10100000352E+00 0.  1.
       -3    1    3    3    0  502 -0.38518345501E+03 -0.61205929056E+02  0.71166849832E+03  0.81153220605E+03  0.10100000352E+00 0. -1.
</event>
<event>
 5   0  0.1017079E-02  0.8974007E+03  0.7818609E-02  0.9428837E-01
        2   -1    0    0  501    0  0.00000000000E+00  0.00000000000E+00  0.41170157175E+03  0.41170157176E+03  0.25500000920E-02 0.  1.
       -2   -1    0    0    0  501  0.00000000000E+00  0.00000000000E+00 -0.48902411279E+03  0.48902411280E+03  0.25500000920E-02 0. -1.
    10030    2    1    2    0    0  0.00000000000E+00  0.00000000000E+00 -0.77322541040E+02  0.90072568456E+03  0.89740068168E+03 0.  0.
        1    1    3    3  502    0  0.59675856772E+02 -0.26038344354E+03 -0.40051228979E+03  0.48142584045E+03  0.50400001928E-02 0. -1.
       -1    1    3    3    0  502 -0.59675856772E+02  0.26038344354E+03  0.32318974875E+03  0.41929984411E+03  0.50400001928E-02 0.  1.
</event>
<event>
 5   0  0.1017079E-02  0.9007594E+03  0.7818609E-02  0.9424633E-01
       -2   -1    0    0    0  501  0.00000000000E+00  0.00000000000E+00  0.29179852126E+04  0.29179852126E+04  0.25500000920E-02 0. -1.
        2   -1    0    0  501    0  0.00000000000E+00  0.00000000000E+00 -0.69514364668E+02  0.69514364714E+02  0.25500000920E-02 0.  1.
    10030    2    1    2    0    0  0.00000000000E+00  0.00000000000E+00  0.28484708480E+04  0.29874995774E+04  0.90075943123E+03 0.  0.
        1    1    3    3  502    0  0.66718411732E+02  0.44033968813E+03  0.16465125514E+04  0.17056828454E+04  0.50400001928E-02 0. -1.
       -1    1    3    3    0  502 -0.66718411732E+02 -0.44033968813E+03  0.12019582966E+04  0.12818167319E+04  0.50400001928E-02 0.  1.
</event>
<event>
 5   0  0.1033749E-02  0.8922621E+03  0.7818609E-02  0.9435306E-01
       -2   -1    0    0    0  501  0.00000000000E+00  0.00000000000E+00  0.21838116989E+03  0.21838116991E+03  0.25500000920E-02 0. -1.
        2   -1    0    0  501    0  0.00000000000E+00  0.00000000000E+00 -0.91140148388E+03  0.91140148388E+03  0.25500000920E-02 0.  1.
    10030    2    1    2    0    0  0.00000000000E+00  0.00000000000E+00 -0.69302031399E+03  0.11297826538E+04  0.89226211912E+03 0.  0.
        5    1    3    3  502    0 -0.91835157976E+02 -0.41552157248E+02  0.20374177863E+03  0.22736112326E+03  0.46999998093E+01 0. -1.
       -5    1    3    3    0  502  0.91835157976E+02  0.41552157248E+02 -0.89676209262E+03  0.90242153053E+03  0.46999998093E+01 0.  1.
</event>
<event>
 5   0  0.1028978E-02  0.8976967E+03  0.7818609E-02  0.9428465E-01
       -2   -1    0    0    0  501  0.00000000000E+00  0.00000000000E+00  0.20525968137E+03  0.20525968138E+03  0.25500000920E-02 0.  1.
        2   -1    0    0  501    0  0.00000000000E+00  0.00000000000E+00 -0.98151208340E+03  0.98151208341E+03  0.25500000920E-02 0. -1.
    10030    2    1    2    0    0  0.00000000000E+00  0.00000000000E+00 -0.77625240204E+03  0.11867717648E+04  0.89769673611E+03 0.  0.
        3    1    3    3  502    0  0.25833074982E+03  0.26011083534E+03 -0.45745275810E+02  0.36943884937E+03  0.10100000352E+00 0.  1.
       -3    1    3    3    0  502 -0.25833074982E+03 -0.26011083534E+03 -0.73050712623E+03  0.81733291542E+03  0.10100000352E+00 0. -1.
</event>
<event>
 5   0  0.6137243E-03  0.8995614E+03  0.7818609E-02  0.9426130E-01
        1   -1    0    0  501    0  0.00000000000E+00  0.00000000000E+00  0.88403865881E+03  0.88403865882E+03  0.50400001928E-02 0.  1.
       -1   -1    0    0    0  501  0.00000000000E+00  0.00000000000E+00 -0.22883915866E+03  0.22883915872E+03  0.50400001928E-02 0. -1.
    10030    2    1    2    0    0  0.00000000000E+00  0.00000000000E+00  0.65519950015E+03  0.11128778175E+04  0.89956136633E+03 0.  0.
        4    1    3    3  502    0  0.23816433970E+03  0.37463514720E+03  0.23815485435E+03  0.50377881434E+03  0.12699999809E+01 0.  1.
       -4    1    3    3    0  502 -0.23816433970E+03 -0.37463514720E+03  0.41704464579E+03  0.60909900321E+03  0.12699999809E+01 0. -1.
</event>
<event>
 5   0  0.6288003E-03  0.8731952E+03  0.7818609E-02  0.9459723E-01
        1   -1    0    0  501    0  0.00000000000E+00  0.00000000000E+00  0.46711243979E+03  0.46711243982E+03  0.50400001928E-02 0.  1.
       -1   -1    0    0    0  501  0.00000000000E+00  0.00000000000E+00 -0.40807621768E+03  0.40807621771E+03  0.50400001928E-02 0. -1.
    10030    2    1    2    0    0  0.00000000000E+00  0.00000000000E+00  0.59036222113E+02  0.87518865753E+03  0.87319523060E+03 0.  0.
        1    1    3    3  502    0 -0.22678146811E+03 -0.19156318537E+03 -0.29135519736E+03  0.41594968364E+03  0.50400001928E-02 0. -1.
       -1    1    3    3    0  502  0.22678146811E+03  0.19156318537E+03  0.35039141947E+03  0.45923897388E+03  0.50400001928E-02 0.  1.
</event>
<event>
 5   0  0.6288003E-03  0.8978382E+03  0.7818609E-02  0.9428288E-01
       -1   -1    0    0    0  501  0.00000000000E+00  0.00000000000E+00  0.23535203616E+03  0.23535203621E+03  0.50400001928E-02 0. -1.
        1   -1    0    0  501    0  0.00000000000E+00  0.00000000000E+00 -0.85628479404E+03  0.85628479405E+03  0.50400001928E-02 0.  1.
    10030    2    1    2    0    0  0.00000000000E+00  0.00000000000E+00 -0.62093275788E+03  0.10916368303E+04  0.89783822562E+03 0.  0.
        1    1    3    3  502    0 -0.40520018985E+03 -0.11131682203E+03 -0.50251584752E+03  0.65505786443E+03  0.50400001928E-02 0.  1.
       -1    1    3    3    0  502  0.40520018985E+03  0.11131682203E+03 -0.11841691036E+03  0.43657896583E+03  0.50400001928E-02 0. -1.
</event>
<event>
 5   0  0.1033749E-02  0.8988881E+03  0.7818609E-02  0.9426972E-01
        2   -1    0    0  501    0  0.00000000000E+00  0.00000000000E+00  0.14358801192E+04  0.14358801192E+04  0.25500000920E-02 0.  1.
       -2   -1    0    0    0  501  0.00000000000E+00  0.00000000000E+00 -0.14068022879E+03  0.14068022881E+03  0.25500000920E-02 0. -1.
    10030    2    1    2    0    0  0.00000000000E+00  0.00000000000E+00  0.12951998904E+04  0.15765603480E+04  0.89888807692E+03 0.  0.
        5    1    3    3  502    0 -0.24250379219E+03  0.27721918809E+03  0.19592614323E+03  0.41721422684E+03  0.46999998093E+01 0. -1.
       -5    1    3    3    0  502  0.24250379219E+03 -0.27721918809E+03  0.10992737472E+04  0.11593461212E+04  0.46999998093E+01 0.  1.
</event>
<event>
 5   0  0.1017079E-02  0.9023429E+03  0.7818609E-02  0.9422657E-01
       -2   -1    0    0    0  501  0.00000000000E+00  0.00000000000E+00  0.16630956891E+03  0.16630956893E+03  0.25500000920E-02 0. -1.
        2   -1    0    0  501    0  0.00000000000E+00  0.00000000000E+00 -0.12239565915E+04  0.12239565915E+04  0.25500000920E-02 0.  1.
    10030    2    1    2    0    0  0.00000000000E+00  0.00000000000E+00 -0.10576470226E+04  0.13902661604E+04  0.90234293507E+03 0.  0.
        1    1    3    3  502    0  0.17801320163E+03 -0.23540702190E+03 -0.10545950332E+04  0.10951145374E+04  0.50400001928E-02 0.  1.
       -1    1    3    3    0  502 -0.17801320163E+03  0.23540702190E+03 -0.30519893732E+01  0.29515162304E+03  0.50400001928E-02 0. -1.
</event>
<event>
 5   0  0.6211218E-03  0.9019042E+03  0.7818609E-02  0.9423204E-01
        1   -1    0    0  501    0  0.00000000000E+00  0.00000000000E+00  0.78857982712E+03  0.78857982714E+03  0.50400001928E-02 0. -1.
       -1   -1    0    0    0  501  0.00000000000E+00  0.00000000000E+00 -0.25787851478E+03  0.25787851483E+03  0.50400001928E-02 0.  1.
    10030    2    1    2    0    0  0.00000000000E+00  0.00000000000E+00  0.53070131234E+03  0.10464583420E+04  0.90190419589E+03 0.  0.
        5    1    3    3  502    0  0.14811985184E+03  0.39406872545E+03  0.77880495768E+02  0.42815547702E+03  0.46999998093E+01 0.  1.
       -5    1    3    3    0  502 -0.14811985184E+03 -0.39406872545E+03  0.45282081658E+03  0.61830286495E+03  0.46999998093E+01 0. -1.
</event>
<event>
 5   0  0.6015709E-03  0.9055415E+03  0.7818609E-02  0.9418681E-01
       -1   -1    0    0    0  501  0.00000000000E+00  0.00000000000E+00  0.26941052814E+03  0.26941052819E+03  0.50400001928E-02 0.  1.
        1   -1    0    0  501    0  0.00000000000E+00  0.00000000000E+00 -0.76092555935E+03  0.76092555937E+03  0.50400001928E-02 0. -1.
    10030    2    1    2    0    0  0.00000000000E+00  0.00000000000E+00 -0.49151503121E+03  0.10303360876E+04  0.90554151060E+03 0.  0.
        3    1    3    3  502    0 -0.44749951815E+03  0.65968839170E+02 -0.22318290588E+03  0.50439897518E+03  0.10100000352E+00 0. -1.
       -3    1    3    3    0  502  0.44749951815E+03 -0.65968839170E+02 -0.26833212533E+03  0.52593711238E+03  0.10100000352E+00 0.  1.
</event>
<event>
 5   0  0.1017079E-02  0.9262482E+03  0.7818609E-02  0.9393352E-01
       -2   -1    0    0    0  501  0.00000000000E+00  0.00000000000E+00  0.14670121626E+03  0.14670121628E+03  0.25500000920E-02 0. -1.
        2   -1    0    0  501    0  0.00000000000E+00  0.00000000000E+00 -0.14620460696E+04  0.14620460696E+04  0.25500000920E-02 0.  1.
    10030    2    1    2    0    0  0.00000000000E+00  0.00000000000E+00 -0.13153448533E+04  0.16087472858E+04  0.92624821005E+03 0.  0.
        1    1    3    3  502    0  0.20184698173E+03 -0.10114801257E+03 -0.13599902391E+04  0.13786031245E+04  0.50400001928E-02 0.  1.
       -1    1    3    3    0  502 -0.20184698173E+03  0.10114801257E+03  0.44645385821E+02  0.23014416130E+03  0.50400001928E-02 0. -1.
</event>
<event>
 5   0  0.6288003E-03  0.8876505E+03  0.7818609E-02  0.9441152E-01
       -1   -1    0    0    0  501  0.00000000000E+00  0.00000000000E+00  0.16612488809E+03  0.16612488816E+03  0.50400001928E-02 0. -1.
        1   -1    0    0  501    0  0.00000000000E+00  0.00000000000E+00 -0.11857395747E+04  0.11857395747E+04  0.50400001928E-02 0.  1.
    10030    2    1    2    0    0  0.00000000000E+00  0.00000000000E+00 -0.10196146866E+04  0.13518644629E+04  0.88765050376E+03 0.  0.
        1    1    3    3  502    0 -0.36479922521E+02 -0.30051837981E+03 -0.15513415780E+02  0.30312167102E+03  0.50400001928E-02 0. -1.
       -1    1    3    3    0  502  0.36479922521E+02  0.30051837981E+03 -0.10041012708E+04  0.10487427919E+04  0.50400001928E-02 0.  1.
</event>
<event>
 5   0  0.6092779E-03  0.8416696E+03  0.7818609E-02  0.9501586E-01
       -1   -1    0    0    0  501  0.00000000000E+00  0.00000000000E+00  0.28421315003E+03  0.28421315008E+03  0.50400001928E-02 0. -1.
        1   -1    0    0  501    0  0.00000000000E+00  0.00000000000E+00 -0.62313064460E+03  0.62313064462E+03  0.50400001928E-02 0.  1.
    10030    2    1    2    0    0  0.00000000000E+00  0.00000000000E+00 -0.33891749456E+03  0.90734379469E+03  0.84166958698E+03 0.  0.
        2    1    3    3  502    0 -0.12301900189E+03 -0.39691336361E+03 -0.24119447923E+03  0.48046713713E+03  0.25500000920E-02 0.  1.
       -2    1    3    3    0  502  0.12301900189E+03  0.39691336361E+03 -0.97723015334E+02  0.42687665757E+03  0.25500000920E-02 0. -1.
</event>
<event>
 5   0  0.6137243E-03  0.8925901E+03  0.7818609E-02  0.9434892E-01
        1   -1    0    0  501    0  0.00000000000E+00  0.00000000000E+00  0.10406012793E+04  0.10406012793E+04  0.50400001928E-02 0.  1.
       -1   -1    0    0    0  501  0.00000000000E+00  0.00000000000E+00 -0.19140787088E+03  0.19140787094E+03  0.50400001928E-02 0. -1.
    10030    2    1    2    0    0  0.00000000000E+00  0.00000000000E+00  0.84919340843E+03  0.12320091503E+04  0.89259010829E+03 0.  0.
        4    1    3    3  502    0  0.28434605507E+03 -0.18310018983E+03  0.22659685083E+02  0.33895933795E+03  0.12699999809E+01 0. -1.
       -4    1    3    3    0  502 -0.28434605507E+03  0.18310018983E+03  0.82653372334E+03  0.89304981231E+03  0.12699999809E+01 0.  1.
</event>
<event>
 5   0  0.6092779E-03  0.8791405E+03  0.7818609E-02  0.9452039E-01
        1   -1    0    0  501    0  0.00000000000E+00  0.00000000000E+00  0.59720484280E+03  0.59720484282E+03  0.50400001928E-02 0. -1.
       -1   -1    0    0    0  501  0.00000000000E+00  0.00000000000E+00 -0.32354391624E+03  0.32354391628E+03  0.50400001928E-02 0.  1.
    10030    2    1    2    0    0  0.00000000000E+00  0.00000000000E+00  0.27366092656E+03  0.92074875910E+03  0.87914047493E+03 0.  0.
        2    1    3    3  502    0 -0.37846355906E+03 -0.43654903163E+02  0.36648351525E+03  0.52863085708E+03  0.25500000920E-02 0. -1.
       -2    1    3    3    0  502  0.37846355906E+03  0.43654903163E+02 -0.92822588688E+02  0.39211790202E+03  0.25500000920E-02 0.  1.
</event>
<event>
 5   0  0.6288003E-03  0.9042829E+03  0.7818609E-02  0.9420243E-01
        1   -1    0    0  501    0  0.00000000000E+00  0.00000000000E+00  0.34415077201E+03  0.34415077205E+03  0.50400001928E-02 0. -1.
       -1   -1    0    0    0  501  0.00000000000E+00  0.00000000000E+00 -0.59401838824E+03  0.59401838827E+03  0.50400001928E-02 0.  1.
    10030    2    1    2    0    0  0.00000000000E+00  0.00000000000E+00 -0.24986761624E+03  0.93816916031E+03  0.90428289142E+03 0.  0.
        1    1    3    3  502    0  0.25539494204E+03  0.36398255806E+03 -0.39873618214E+02  0.44643004429E+03  0.50400001928E-02 0. -1.
       -1    1    3    3    0  502 -0.25539494204E+03 -0.36398255806E+03 -0.20999399802E+03  0.49173911602E+03  0.50400001928E-02 0.  1.
</event>
<event>
 5   0  0.6015709E-03  0.9020114E+03  0.7818609E-02  0.9423071E-01
       -1   -1    0    0    0  501  0.00000000000E+00  0.00000000000E+00  0.36581476856E+03  0.36581476860E+03  0.50400001928E-02 0.  1.
        1   -1    0    0  501    0  0.00000000000E+00  0.00000000000E+00 -0.55603585234E+03  0.55603585237E+03  0.50400001928E-02 0. -1.
    10030    2    1    2    0    0  0.00000000000E+00  0.00000000000E+00 -0.19022108378E+03  0.92185062097E+03  0.90201136726E+03 0.  0.
        3    1    3    3  502    0  0.21467349970E+03 -0.24273296345E+03  0.22548003650E+03  0.39477241555E+03  0.10100000352E+00 0.  1.
       -3    1    3    3    0  502 -0.21467349970E+03  0.24273296345E+03 -0.41570112028E+03  0.52707820541E+03  0.10100000352E+00 0. -1.
</event>
<event>
 5   0  0.6137243E-03  0.8592334E+03  0.7818609E-02  0.9478027E-01
       -1   -1    0    0    0  501  0.00000000000E+00  0.00000000000E+00  0.59378143392E+03  0.59378143394E+03  0.50400001928E-02 0. -1.
        1   -1    0    0  501    0  0.00000000000E+00  0.00000000000E+00 -0.31083916950E+03  0.31083916954E+03  0.50400001928E-02 0.  1.
    10030    2    1    2    0    0  0.00000000000E+00  0.00000000000E+00  0.28294226443E+03  0.90462060348E+03  0.85923344397E+03 0.  0.
        4    1    3    3  502    0  0.19050545384E+02  0.38983653355E+03  0.33049159583E+03  0.51143108430E+03  0.12699999809E+01 0. -1.
       -4    1    3    3    0  502 -0.19050545384E+02 -0.38983653355E+03 -0.47549331408E+02  0.39318951918E+03  0.12699999809E+01 0.  1.
</event>
<event>
 5   0  0.1028978E-02  0.8875749E+03  0.7818609E-02  0.9441248E-01
       -2   -1    0    0    0  501  0.00000000000E+00  0.00000000000E+00  0.30090596445E+03  0.30090596446E+03  0.25500000920E-02 0. -1.
        2   -1    0    0  501    0  0.00000000000E+00  0.00000000000E+00 -0.65451449439E+03  0.65451449440E+03  0.25500000920E-02 0.  1.
    10030    2    1    2    0    0  0.00000000000E+00  0.00000000000E+00 -0.35360852994E+03  0.95542045886E+03  0.88757493248E+03 0.  0.
        3    1    3    3  502    0 -0.25463327413E+03  0.29154551077E+03  0.56836154666E+02  0.39123809608E+03  0.10100000352E+00 0. -1.
       -3    1    3    3    0  502  0.25463327413E+03 -0.29154551077E+03 -0.41044468461E+03  0.56418236278E+03  0.10100000352E+00 0.  1.
</event>
<event>
 5   0  0.6092779E-03  0.8448820E+03  0.7818609E-02  0.9497232E-01
        1   -1    0    0  501    0  0.00000000000E+00  0.00000000000E+00  0.94301336422E+03  0.94301336424E+03  0.50400001928E-02 0.  1.
       -1   -1    0    0    0  501  0.00000000000E+00  0.00000000000E+00 -0.18924056603E+03  0.18924056610E+03  0.50400001928E-02 0. -1.
    10030    2    1    2    0    0  0.00000000000E+00  0.00000000000E+00  0.75377279819E+03  0.11322539303E+04  0.84488196304E+03 0.  0.
        2    1    3    3  502    0 -0.13867788498E+03 -0.43708480455E+02  0.90842160074E+03  0.91998466930E+03  0.25500000920E-02 0.  1.
       -2    1    3    3    0  502  0.13867788498E+03  0.43708480455E+02 -0.15464880255E+03  0.21226926104E+03  0.25500000920E-02 0. -1.
</event>
<event>
 5   0  0.6015709E-03  0.9231495E+03  0.7818609E-02  0.9397097E-01
        1   -1    0    0  501    0  0.00000000000E+00  0.00000000000E+00  0.68694723824E+03  0.68694723826E+03  0.50400001928E-02 0.  1.
       -1   -1    0    0    0  501  0.00000000000E+00  0.00000000000E+00 -0.31014207176E+03  0.31014207181E+03  0.50400001928E-02 0. -1.
    10030    2    1    2    0    0  0.00000000000E+00  0.00000000000E+00  0.37680516647E+03  0.99708931006E+03  0.92314947802E+03 0.  0.
        3    1    3    3  502    0  0.32796826707E+03  0.30140854737E+03  0.31909380146E+03  0.54793353699E+03  0.10100000352E+00 0.  1.
       -3    1    3    3    0  502 -0.32796826707E+03 -0.30140854737E+03  0.57711365009E+02  0.44915577307E+03  0.10100000352E+00 0. -1.
</event>
<event>
 5   0  0.6092779E-03  0.9015959E+03  0.7818609E-02  0.9423589E-01
        1   -1    0    0  501    0  0.00000000000E+00  0.00000000000E+00  0.24492154978E+03  0.24492154983E+03  0.50400001928E-02 0. -1.
       -1   -1    0    0    0  501  0.00000000000E+00  0.00000000000E+00 -0.82973022226E+03  0.82973022227E+03  0.50400001928E-02 0.  1.
    10030    2    1    2    0    0  0.00000000000E+00  0.00000000000E+00 -0.58480867248E+03  0.10746517721E+04  0.90159594492E+03 0.  0.
        2    1    3    3  502    0  0.10529521174E+03  0.73334660891E+02  0.22269439978E+03  0.25701721694E+03  0.25500000920E-02 0. -1.
       -2    1    3    3    0  502 -0.10529521174E+03 -0.73334660891E+02 -0.80750307225E+03  0.81763455517E+03  0.25500000920E-02 0.  1.
</event>
<event>
 5   0  0.1017079E-02  0.9050351E+03  0.7818609E-02  0.9419309E-01
       -2   -1    0    0    0  501  0.00000000000E+00  0.00000000000E+00  0.20806929616E+03  0.20806929618E+03  0.25500000920E-02 0.  1.
        2   -1    0    0  501    0  0.00000000000E+00  0.00000000000E+00 -0.98415347382E+03  0.98415347382E+03  0.25500000920E-02 0. -1.
    10030    2    1    2    0    0  0.00000000000E+00  0.00000000000E+00 -0.77608417765E+03  0.11922227700E+04  0.90503507252E+03 0.  0.
        1    1    3    3  502    0 -0.69112535876E+02 -0.26801772222E+03  0.83555714602E+02  0.28912211867E+03  0.50400001928E-02 0.  1.
       -1    1    3    3    0  502  0.69112535876E+02  0.26801772222E+03 -0.85963989226E+03  0.90310065132E+03  0.50400001928E-02 0. -1.
</event>
<event>
 5   0  0.6288003E-03  0.9005859E+03  0.7818609E-02  0.9424849E-01
       -1   -1    0    0    0  501  0.00000000000E+00  0.00000000000E+00  0.20053171541E+03  0.20053171547E+03  0.50400001928E-02 0.  1.
        1   -1    0    0  501    0  0.00000000000E+00  0.00000000000E+00 -0.10111306426E+04  0.10111306426E+04  0.50400001928E-02 0. -1.
    10030    2    1    2    0    0  0.00000000000E+00  0.00000000000E+00 -0.81059892715E+03  0.12116623580E+04  0.90058594770E+03 0.  0.
        1    1    3    3  502    0  0.18596985600E+03  0.42406928110E+02  0.14349260838E+03  0.23869072789E+03  0.50400001928E-02 0.  1.
       -1    1    3    3    0  502 -0.18596985600E+03 -0.42406928110E+02 -0.95409153553E+03  0.97297163016E+03  0.50400001928E-02 0. -1.
</event>
<event>
 5   0  0.1003252E-02  0.9012106E+03  0.7818609E-02  0.9424069E-01
       -2   -1    0    0    0  501  0.00000000000E+00  0.00000000000E+00  0.32749689662E+03  0.32749689663E+03  0.25500000920E-02 0.  1.
        2   -1    0    0  501    0  0.00000000000E+00  0.00000000000E+00 -0.61999096273E+03  0.61999096273E+03  0.25500000920E-02 0. -1.
    10030    2    1    2    0    0  0.00000000000E+00  0.00000000000E+00 -0.29249406611E+03  0.94748785936E+03  0.90121055527E+03 0.  0.
        2    1    3    3  502    0 -0.27363436245E+03 -0.34292954984E+03 -0.25433010287E+03  0.50710969395E+03  0.25500000920E-02 0.  1.
       -2    1    3    3    0  502  0.27363436245E+03  0.34292954984E+03 -0.38163963243E+02  0.44037816541E+03  0.25500000920E-02 0. -1.
</event>
<event>
 5   0  0.6211218E-03  0.9339233E+03  0.7818609E-02  0.9384142E-01
       -1   -1    0    0    0  501  0.00000000000E+00  0.00000000000E+00  0.25500026693E+03  0.25500026698E+03  0.50400001928E-02 0.  1.
        1   -1    0    0  501    0  0.00000000000E+00  0.00000000000E+00 -0.85510970558E+03  0.85510970560E+03  0.50400001928E-02 0. -1.
    10030    2    1    2    0    0  0.00000000000E+00  0.00000000000E+00 -0.60010943865E+03  0.11101099726E+04  0.93392334421E+03 0.  0.
        5    1    3    3  502    0  0.16602090794E+03 -0.39699685127E+03 -0.51553106296E+03  0.67153838957E+03  0.46999998093E+01 0. -1.
       -5    1    3    3    0  502 -0.16602090794E+03  0.39699685127E+03 -0.84578375694E+02  0.43857158301E+03  0.46999998093E+01 0.  1.
</event>
<event>
 5   0  0.6137243E-03  0.8804271E+03  0.7818609E-02  0.9450385E-01
        1   -1    0    0  501    0  0.00000000000E+00  0.00000000000E+00  0.15259785263E+04  0.15259785263E+04  0.50400001928E-02 0.  1.
       -1   -1    0    0    0  501  0.00000000000E+00  0.00000000000E+00 -0.12699259622E+03  0.12699259632E+03  0.50400001928E-02 0. -1.
    10030    2    1    2    0    0  0.00000000000E+00  0.00000000000E+00  0.13989859300E+04  0.16529711226E+04  0.88042711207E+03 0.  0.
        4    1    3    3  502    0 -0.32370443666E+03  0.29750928846E+03  0.74105340010E+03  0.86166008015E+03  0.12699999809E+01 0.  1.
       -4    1    3    3    0  502  0.32370443666E+03 -0.29750928846E+03  0.65793252995E+03  0.79131104244E+03  0.12699999809E+01 0. -1.
</event>
<event>
 5   0  0.6015709E-03  0.9122429E+03  0.7818609E-02  0.9410405E-01
       -1   -1    0    0    0  501  0.00000000000E+00  0.00000000000E+00  0.10599533679E+03  0.10599533691E+03  0.50400001928E-02 0. -1.
        1   -1    0    0  501    0  0.00000000000E+00  0.00000000000E+00 -0.19627919106E+04  0.19627919106E+04  0.50400001928E-02 0.  1.
    10030    2    1    2    0    0  0.00000000000E+00  0.00000000000E+00 -0.18567965738E+04  0.20687872475E+04  0.91224292762E+03 0.  0.
        3    1    3    3  502    0  0.32074788601E+03 -0.32378840767E+03 -0.88728656313E+03  0.99749465895E+03  0.10100000352E+00 0. -1.
       -3    1    3    3    0  502 -0.32074788601E+03  0.32378840767E+03 -0.96951001065E+03  0.10712925885E+04  0.10100000352E+00 0.  1.
</event>
<event>
 5   0  0.3996375E-03  0.8943490E+03  0.7818609E-02  0.9432673E-01
       -3   -1    0    0    0  501  0.00000000000E+00  0.00000000000E+00  0.39594516178E+03  0.39594517467E+03  0.10100000352E+00 0.  1.
        3   -1    0    0  501    0  0.00000000000E+00  0.00000000000E+00 -0.50503211408E+03  0.50503212418E+03  0.10100000352E+00 0. -1.
    10030    2    1    2    0    0  0.00000000000E+00  0.00000000000E+00 -0.10908695230E+03  0.90097729885E+03  0.89434899781E+03 0.  0.
        3    1    3    3  502    0 -0.80615011166E+02 -0.12343133105E+03  0.37075946238E+03  0.39899456469E+03  0.10100000352E+00 0.  1.
       -3    1    3    3    0  502  0.80615011166E+02  0.12343133105E+03 -0.47984641468E+03  0.50198273415E+03  0.10100000352E+00 0. -1.
</event>
<event>
 5   0  0.1028978E-02  0.9073855E+03  0.7818609E-02  0.9416396E-01
       -2   -1    0    0    0  501  0.00000000000E+00  0.00000000000E+00  0.38181762076E+03  0.38181762077E+03  0.25500000920E-02 0. -1.
        2   -1    0    0  501    0  0.00000000000E+00  0.00000000000E+00 -0.53909802031E+03  0.53909802032E+03  0.25500000920E-02 0.  1.
    10030    2    1    2    0    0  0.00000000000E+00  0.00000000000E+00 -0.15728039955E+03  0.92091564109E+03  0.90738552662E+03 0.  0.
        3    1    3    3  502    0 -0.10483433003E+03  0.12375946700E+03  0.35138814892E+03  0.38701457831E+03  0.10100000352E+00 0. -1.
       -3    1    3    3    0  502  0.10483433003E+03 -0.12375946700E+03 -0.50866854847E+03  0.53390106277E+03  0.10100000352E+00 0.  1.
</event>
<event>
 5   0  0.1041727E-02  0.8974792E+03  0.7818609E-02  0.9428738E-01
       -2   -1    0    0    0  501  0.00000000000E+00  0.00000000000E+00  0.27902570338E+03  0.27902570339E+03  0.25500000920E-02 0.  1.
        2   -1    0    0  501    0  0.00000000000E+00  0.00000000000E+00 -0.72167985770E+03  0.72167985771E+03  0.25500000920E-02 0. -1.
    10030    2    1    2    0    0  0.00000000000E+00  0.00000000000E+00 -0.44265415432E+03  0.10007055611E+04  0.89747920292E+03 0.  0.
        4    1    3    3  502    0 -0.38073517034E+03 -0.23382283264E+03 -0.26774759927E+03  0.52088652969E+03  0.12699999809E+01 0.  1.
       -4    1    3    3    0  502  0.38073517034E+03  0.23382283264E+03 -0.17490655505E+03  0.47981903141E+03  0.12699999809E+01 0. -1.
</event>
<event>
 5   0  0.6137243E-03  0.8991802E+03  0.7818609E-02  0.9426607E-01
       -1   -1    0    0    0  501  0.00000000000E+00  0.00000000000E+00  0.48398139379E+03  0.48398139382E+03  0.50400001928E-02 0. -1.
        1   -1    0    0  501    0  0.00000000000E+00  0.00000000000E+00 -0.41764265884E+03  0.41764265887E+03  0.50400001928E-02 0.  1.
    10030    2    1    2    0    0  0.00000000000E+00  0.00000000000E+00  0.66338734955E+02  0.90162405269E+03  0.89918024035E+03 0.  0.
        4    1    3    3  502    0  0.91782136438E+02  0.17324604742E+03 -0.37251830527E+03  0.42096277053E+03  0.12699999809E+01 0.  1.
       -4    1    3    3    0  502 -0.91782136438E+02 -0.17324604742E+03  0.43885704022E+03  0.48066128216E+03  0.12699999809E+01 0. -1.
</event>
<event>
 5   0  0.6211218E-03  0.9017970E+03  0.7818609E-02  0.9423338E-01
       -1   -1    0    0    0  501  0.00000000000E+00  0.00000000000E+00  0.81486218112E+03  0.81486218113E+03  0.50400001928E-02 0. -1.
        1   -1    0    0  501    0  0.00000000000E+00  0.00000000000E+00 -0.24950162512E+03  0.24950162517E+03  0.50400001928E-02 0.  1.
    10030    2    1    2    0    0  0.00000000000E+00  0.00000000000E+00  0.56536055600E+03  0.10643638063E+04  0.90179695823E+03 0.  0.
        5    1    3    3  502    0 -0.21411385767E+03  0.94401914549E+02 -0.17219225502E+03  0.29056622000E+03  0.46999998093E+01 0.  1.
       -5    1    3    3    0  502  0.21411385767E+03 -0.94401914549E+02  0.73755281102E+03  0.77379758630E+03  0.46999998093E+01 0. -1.
</event>
<event>
 5   0  0.1028978E-02  0.9024332E+03  0.7818609E-02  0.9422545E-01
       -2   -1    0    0    0  501  0.00000000000E+00  0.00000000000E+00  0.13584664923E+03  0.13584664925E+03  0.25500000920E-02 0.  1.
        2   -1    0    0  501    0  0.00000000000E+00  0.00000000000E+00 -0.14987223575E+04  0.14987223575E+04  0.25500000920E-02 0. -1.
    10030    2    1    2    0    0  0.00000000000E+00  0.00000000000E+00 -0.13628757083E+04  0.16345690068E+04  0.90243317848E+03 0.  0.
        3    1    3    3  502    0 -0.17015254892E+03  0.38671019536E+03 -0.39447692158E+03  0.57802138106E+03  0.10100000352E+00 0.  1.
       -3    1    3    3    0  502  0.17015254892E+03 -0.38671019536E+03 -0.96839878670E+03  0.10565476257E+04  0.10100000352E+00 0. -1.
</event>
<event>
 5   0  0.6137243E-03  0.8994394E+03  0.7818609E-02  0.9426283E-01
        1   -1    0    0  501    0  0.00000000000E+00  0.00000000000E+00  0.73276799444E+03  0.73276799445E+03  0.50400001928E-02 0.  1.
       -1   -1    0    0    0  501  0.00000000000E+00  0.00000000000E+00 -0.27600521669E+03  0.27600521674E+03  0.50400001928E-02 0. -1.
    10030    2    1    2    0    0  0.00000000000E+00  0.00000000000E+00  0.45676277775E+03  0.10087732112E+04  0.89943935675E+03 0.  0.
        4    1    3    3  502    0 -0.16315044364E+03 -0.39804126107E+03  0.81327825941E+02  0.43780217102E+03  0.12699999809E+01 0. -1.
       -4    1    3    3    0  502  0.16315044364E+03  0.39804126107E+03  0.37543495181E+03  0.57097104017E+03  0.12699999809E+01 0.  1.
</event>
<event>
 5   0  0.1028978E-02  0.9316129E+03  0.7818609E-02  0.9386904E-01
        2   -1    0    0  501    0  0.00000000000E+00  0.00000000000E+00  0.42076335773E+03  0.42076335774E+03  0.25500000920E-02 0.  1.
       -2   -1    0    0    0  501  0.00000000000E+00  0.00000000000E+00 -0.51567144368E+03  0.51567144369E+03  0.25500000920E-02 0. -1.
    10030    2    1    2    0    0  0.00000000000E+00  0.00000000000E+00 -0.94908085951E+02  0.93643480143E+03  0.93161289844E+03 0.  0.
        3    1    3    3  502    0  0.39710556089E+03 -0.19463070483E+03 -0.19450443626E+03  0.48312102384E+03  0.10100000352E+00 0. -1.
       -3    1    3    3    0  502 -0.39710556089E+03  0.19463070483E+03  0.99596350310E+02  0.45331377759E+03  0.10100000352E+00 0.  1.
</event>
<event>
 5   0  0.6211218E-03  0.8926117E+03  0.7818609E-02  0.9434865E-01
        1   -1    0    0  501    0  0.00000000000E+00  0.00000000000E+00  0.46275947838E+03  0.46275947841E+03  0.50400001928E-02 0. -1.
       -1   -1    0    0    0  501  0.00000000000E+00  0.00000000000E+00 -0.43043724340E+03  0.43043724343E+03  0.50400001928E-02 0.  1.
    10030    2    1    2    0    0  0.00000000000E+00  0.00000000000E+00  0.32322234982E+02  0.89319672183E+03  0.89261170563E+03 0.  0.
        5    1    3    3  502    0  0.22586377228E+03  0.36487190708E+03 -0.10647887523E+03  0.44216037031E+03  0.46999998093E+01 0.  1.
       -5    1    3    3    0  502 -0.22586377228E+03 -0.36487190708E+03  0.13880111021E+03  0.45103635153E+03  0.46999998093E+01 0. -1.
</event>
<event>
 5   0  0.6092779E-03  0.8964431E+03  0.7818609E-02  0.9430039E-01
        1   -1    0    0  501    0  0.00000000000E+00  0.00000000000E+00  0.54227672880E+03  0.54227672883E+03  0.50400001928E-02 0. -1.
       -1   -1    0    0    0  501  0.00000000000E+00  0.00000000000E+00 -0.37047977265E+03  0.37047977269E+03  0.50400001928E-02 0.  1.
    10030    2    1    2    0    0  0.00000000000E+00  0.00000000000E+00  0.17179695615E+03  0.91275650151E+03  0.89644310300E+03 0.  0.
        2    1    3    3  502    0 -0.31483363735E+02  0.14963892378E+03  0.51489650864E+03  0.53712328596E+03  0.25500000920E-02 0. -1.
       -2    1    3    3    0  502  0.31483363735E+02 -0.14963892378E+03 -0.34309955249E+03  0.37563321555E+03  0.25500000920E-02 0.  1.
</event>
<event>
 5   0  0.1033749E-02  0.8986329E+03  0.7818609E-02  0.9427292E-01
        2   -1    0    0  501    0  0.00000000000E+00  0.00000000000E+00  0.80397835772E+03  0.80397835772E+03  0.25500000920E-02 0. -1.
       -2   -1    0    0    0  501  0.00000000000E+00  0.00000000000E+00 -0.25110784159E+03  0.25110784160E+03  0.25500000920E-02 0.  1.
    10030    2    1    2    0    0  0.00000000000E+00  0.00000000000E+00  0.55287051613E+03  0.10550861993E+04  0.89863289523E+03 0.  0.
        5    1    3    3  502    0  0.13630544774E+03  0.35474212846E+03 -0.49624201060E+01  0.38008929004E+03  0.46999998093E+01 0.  1.
       -5    1    3    3    0  502 -0.13630544774E+03 -0.35474212846E+03  0.55783293624E+03  0.67499690928E+03  0.46999998093E+01 0. -1.
</event>
<event>
 5   0  0.6288003E-03  0.9057002E+03  0.7818609E-02  0.9418484E-01
       -1   -1    0    0    0  501  0.00000000000E+00  0.00000000000E+00  0.44426032898E+03  0.44426032900E+03  0.50400001928E-02 0. -1.
        1   -1    0    0  501    0  0.00000000000E+00  0.00000000000E+00 -0.46160599250E+03  0.46160599253E+03  0.50400001928E-02 0.  1.
    10030    2    1    2    0    0  0.00000000000E+00  0.00000000000E+00 -0.17345663524E+02  0.90586632153E+03  0.90570023763E+03 0.  0.
        1    1    3    3  502    0  0.21372592296E+03 -0.27853208465E+03 -0.29475734047E+03  0.45841114964E+03  0.50400001928E-02 0.  1.
       -1    1    3    3    0  502 -0.21372592296E+03  0.27853208465E+03  0.27741167695E+03  0.44745517190E+03  0.50400001928E-02 0. -1.
</event>
<event>
 5   0  0.6288003E-03  0.8790332E+03  0.7818609E-02  0.9452177E-01
       -1   -1    0    0    0  501  0.00000000000E+00  0.00000000000E+00  0.31607112823E+03  0.31607112827E+03  0.50400001928E-02 0. -1.
        1   -1    0    0  501    0  0.00000000000E+00  0.00000000000E+00 -0.61117519127E+03  0.61117519129E+03  0.50400001928E-02 0.  1.
    10030    2    1    2    0    0  0.00000000000E+00  0.00000000000E+00 -0.29510406304E+03  0.92724631956E+03  0.87903317862E+03 0.  0.
        1    1    3    3  502    0 -0.32812072766E+03  0.24906074272E+03  0.14085529560E+02  0.41218062503E+03  0.50400001928E-02 0.  1.
       -1    1    3    3    0  502  0.32812072766E+03 -0.24906074272E+03 -0.30918959260E+03  0.51506569453E+03  0.50400001928E-02 0. -1.
</event>
<event>
 5   0  0.1028978E-02  0.9022086E+03  0.7818609E-02  0.9422825E-01
        2   -1    0    0  501    0  0.00000000000E+00  0.00000000000E+00  0.26774262661E+04  0.26774262661E+04  0.25500000920E-02 0.  1.
       -2   -1    0    0    0  501  0.00000000000E+00  0.00000000000E+00 -0.76003987792E+02  0.76003987835E+02  0.25500000920E-02 0. -1.
    10030    2    1    2    0    0  0.00000000000E+00  0.00000000000E+00  0.26014222783E+04  0.27534302539E+04  0.90220856414E+03 0.  0.
        3    1    3    3  502    0  0.16380945687E+03  0.25451532005E+03  0.23215333519E+04  0.23411810482E+04  0.10100000352E+00 0.  1.
       -3    1    3    3    0  502 -0.16380945687E+03 -0.25451532005E+03  0.27988892641E+03  0.41224920574E+03  0.10100000352E+00 0. -1.
</event>
<event>
 5   0  0.6137243E-03  0.9138596E+03  0.7818609E-02  0.9408420E-01
        1   -1    0    0  501    0  0.00000000000E+00  0.00000000000E+00  0.11263449037E+04  0.11263449037E+04  0.50400001928E-02 0. -1.
       -1   -1    0    0    0  501  0.00000000000E+00  0.00000000000E+00 -0.18536494482E+03  0.18536494489E+03  0.50400001928E-02 0.  1.
    10030    2    1    2    0    0  0.00000000000E+00  0.00000000000E+00  0.94097995891E+03  0.13117098486E+04  0.91385964126E+03 0.  0.
        4    1    3    3  502    0 -0.80250238176E+02 -0.38057316796E+03  0.81469677073E+03  0.90277819980E+03  0.12699999809E+01 0. -1.
       -4    1    3    3    0  502  0.80250238176E+02  0.38057316796E+03  0.12628318818E+03  0.40893164883E+03  0.12699999809E+01 0.  1.
</event>
<event>
 5   0  0.6288003E-03  0.8684613E+03  0.7818609E-02  0.9465888E-01
        1   -1    0    0  501    0  0.00000000000E+00  0.00000000000E+00  0.95837533937E+03  0.95837533939E+03  0.50400001928E-02 0.  1.
       -1   -1    0    0    0  501  0.00000000000E+00  0.00000000000E+00 -0.19674571679E+03  0.19674571685E+03  0.50400001928E-02 0. -1.
    10030    2    1    2    0    0  0.00000000000E+00  0.00000000000E+00  0.76162962259E+03  0.11551210562E+04  0.86846126716E+03 0.  0.
        1    1    3    3  502    0  0.84403037485E+02 -0.26672408313E+03  0.82253409871E+03  0.86880835219E+03  0.50400001928E-02 0.  1.
       -1    1    3    3    0  502 -0.84403037485E+02  0.26672408313E+03 -0.60904476129E+02  0.28631270405E+03  0.50400001928E-02 0. -1.
</event>
<event>
 5   0  0.1033749E-02  0.9148619E+03  0.7818609E-02  0.9407192E-01
       -2   -1    0    0    0  501  0.00000000000E+00  0.00000000000E+00  0.18604983813E+03  0.18604983815E+03  0.25500000920E-02 0. -1.
        2   -1    0    0  501    0  0.00000000000E+00  0.00000000000E+00 -0.11246612942E+04  0.11246612943E+04  0.25500000920E-02 0.  1.
    10030    2    1    2    0    0  0.00000000000E+00  0.00000000000E+00 -0.93861145611E+03  0.13107111324E+04  0.91486185135E+03 0.  0.
        5    1    3    3  502    0 -0.28560114878E+03  0.21776949145E+03 -0.63499950345E+02  0.36475457678E+03  0.46999998093E+01 0. -1.
       -5    1    3    3    0  502  0.28560114878E+03 -0.21776949145E+03 -0.87511150577E+03  0.94595655562E+03  0.46999998093E+01 0.  1.
</event>
<event>
 5   0  0.6211218E-03  0.8957964E+03  0.7818609E-02  0.9430851E-01
        1   -1    0    0  501    0  0.00000000000E+00  0.00000000000E+00  0.27590103735E+03  0.27590103740E+03  0.50400001928E-02 0. -1.
       -1   -1    0    0    0  501  0.00000000000E+00  0.00000000000E+00 -0.72711864029E+03  0.72711864031E+03  0.50400001928E-02 0.  1.
    10030    2    1    2    0    0  0.00000000000E+00  0.00000000000E+00 -0.45121760294E+03  0.10030196777E+04  0.89579637678E+03 0.  0.
        5    1    3    3  502    0 -0.11390325768E+03  0.41462718864E+03 -0.36591096071E+03  0.56462605221E+03  0.46999998093E+01 0.  1.
       -5    1    3    3    0  502  0.11390325768E+03 -0.41462718864E+03 -0.85306642229E+02  0.43839362549E+03  0.46999998093E+01 0. -1.
</event>
<event>
 5   0  0.1028978E-02  0.9352909E+03  0.7818609E-02  0.9382510E-01
       -2   -1    0    0    0  501  0.00000000000E+00  0.00000000000E+00  0.43806798378E+03  0.43806798378E+03  0.25500000920E-02 0. -1.
        2   -1    0    0  501    0  0.00000000000E+00  0.00000000000E+00 -0.49921990592E+03  0.49921990592E+03  0.25500000920E-02 0.  1.
    10030    2    1    2    0    0  0.00000000000E+00  0.00000000000E+00 -0.61151922140E+02  0.93728788971E+03  0.93529088021E+03 0.  0.
        3    1    3    3  502    0 -0.38865910246E+02 -0.67485791106E+02 -0.49267586257E+03  0.49879294977E+03  0.10100000352E+00 0.  1.
       -3    1    3    3    0  502  0.38865910246E+02  0.67485791106E+02  0.43152394043E+03  0.43849493993E+03  0.10100000352E+00 0. -1.
</event>
<event>
 5   0  0.6092779E-03  0.8503172E+03  0.7818609E-02  0.9489911E-01
        1   -1    0    0  501    0  0.00000000000E+00  0.00000000000E+00  0.99222855671E+03  0.99222855673E+03  0.50400001928E-02 0. -1.
       -1   -1    0    0    0  501  0.00000000000E+00  0.00000000000E+00 -0.18217559286E+03  0.18217559293E+03  0.50400001928E-02 0.  1.
    10030    2    1    2    0    0  0.00000000000E+00  0.00000000000E+00  0.81005296385E+03  0.11744041497E+04  0.85031717758E+03 0.  0.
        2    1    3    3  502    0  0.14966180511E+03  0.37580303946E+03  0.22424396013E+03  0.46250614486E+03  0.25500000920E-02 0.  1.
       -2    1    3    3    0  502 -0.14966180511E+03 -0.37580303946E+03  0.58580900373E+03  0.71189800480E+03  0.25500000920E-02 0. -1.
</event>
<event>
 5   0  0.6137243E-03  0.8987906E+03  0.7818609E-02  0.9427094E-01
        1   -1    0    0  501    0  0.00000000000E+00  0.00000000000E+00  0.55231086212E+03  0.55231086214E+03  0.50400001928E-02 0. -1.
       -1   -1    0    0    0  501  0.00000000000E+00  0.00000000000E+00 -0.36565665141E+03  0.36565665144E+03  0.50400001928E-02 0.  1.
    10030    2    1    2    0    0  0.00000000000E+00  0.00000000000E+00  0.18665421071E+03  0.91796751358E+03  0.89879061055E+03 0.  0.
        4    1    3    3  502    0  0.42848558752E+03  0.13513811153E+03  0.10314042065E+03  0.46097913963E+03  0.12699999809E+01 0.  1.
       -4    1    3    3    0  502 -0.42848558752E+03 -0.13513811153E+03  0.83513790053E+02  0.45698837395E+03  0.12699999809E+01 0. -1.
</event>
<event>
 5   0  0.6288003E-03  0.9045254E+03  0.7818609E-02  0.9419942E-01
        1   -1    0    0  501    0  0.00000000000E+00  0.00000000000E+00  0.14083799640E+04  0.14083799640E+04  0.50400001928E-02 0. -1.
       -1   -1    0    0    0  501  0.00000000000E+00  0.00000000000E+00 -0.14523178406E+03  0.14523178414E+03  0.50400001928E-02 0.  1.
    10030    2    1    2    0    0  0.00000000000E+00  0.00000000000E+00  0.12631481799E+04  0.15536117482E+04  0.90452536698E+03 0.  0.
        1    1    3    3  502    0  0.10434219382E+03 -0.66909024855E+02  0.13786356652E+04  0.13841966653E+04  0.50400001928E-02 0. -1.
       -1    1    3    3    0  502 -0.10434219382E+03  0.66909024855E+02 -0.11548748523E+03  0.16941508282E+03  0.50400001928E-02 0.  1.
</event>
<event>
 5   0  0.6137243E-03  0.9064682E+03  0.7818609E-02  0.9417532E-01
       -1   -1    0    0    0  501  0.00000000000E+00  0.00000000000E+00  0.23570217674E+03  0.23570217679E+03  0.50400001928E-02 0. -1.
        1   -1    0    0  501    0  0.00000000000E+00  0.00000000000E+00 -0.87152842922E+03  0.87152842924E+03  0.50400001928E-02 0.  1.
    10030    2    1    2    0    0  0.00000000000E+00  0.00000000000E+00 -0.63582625249E+03  0.11072306060E+04  0.90646819667E+03 0.  0.
        4    1    3    3  502    0  0.17168237024E+03  0.29433075981E+03 -0.68295739127E+03  0.76324166789E+03  0.12699999809E+01 0.  1.
       -4    1    3    3    0  502 -0.17168237024E+03 -0.29433075981E+03  0.47131138777E+02  0.34398893814E+03  0.12699999809E+01 0. -1.
</event>
<event>
 5   0  0.1003252E-02  0.7494832E+03  0.7818609E-02  0.9636162E-01
        2   -1    0    0  501    0  0.00000000000E+00  0.00000000000E+00  0.41250945555E+03  0.41250945556E+03  0.25500000920E-02 0.  1.
       -2   -1    0    0    0  501  0.00000000000E+00  0.00000000000E+00 -0.34043159556E+03  0.34043159557E+03  0.25500000920E-02 0. -1.
    10030    2    1    2    0    0  0.00000000000E+00  0.00000000000E+00  0.72077859990E+02  0.75294105113E+03  0.74948316096E+03 0.  0.
        2    1    3    3  502    0  0.37168411077E+03  0.24467660421E+02  0.77258800961E+02  0.38041643884E+03  0.25500000920E-02 0. -1.
       -2    1    3    3    0  502 -0.37168411077E+03 -0.24467660421E+02 -0.51809409712E+01  0.37252461229E+03  0.25500000920E-02 0.  1.
</event>
<event>
 5   0  0.1017079E-02  0.9022956E+03  0.7818609E-02  0.9422716E-01
        2   -1    0    0  501    0  0.00000000000E+00  0.00000000000E+00  0.85298934791E+03  0.85298934791E+03  0.25500000920E-02 0. -1.
       -2   -1    0    0    0  501  0.00000000000E+00  0.00000000000E+00 -0.23861299221E+03  0.23861299222E+03  0.25500000920E-02 0.  1.
    10030    2    1    2    0    0  0.00000000000E+00  0.00000000000E+00  0.61437635570E+03  0.10916023401E+04  0.90229560707E+03 0.  0.
        1    1    3    3  502    0 -0.10870321278E+02 -0.40564384711E+03  0.54570481261E+03  0.68004326121E+03  0.50400001928E-02 0. -1.
       -1    1    3    3    0  502  0.10870321278E+02  0.40564384711E+03  0.68671543092E+02  0.41155907892E+03  0.50400001928E-02 0.  1.
</event>
<event>
 5   0  0.1028978E-02  0.9020819E+03  0.7818609E-02  0.9422983E-01
        2   -1    0    0  501    0  0.00000000000E+00  0.00000000000E+00  0.44530794373E+03  0.44530794373E+03  0.25500000920E-02 0.  1.
       -2   -1    0    0    0  501  0.00000000000E+00  0.00000000000E+00 -0.45684779851E+03  0.45684779852E+03  0.25500000920E-02 0. -1.
    10030    2    1    2    0    0  0.00000000000E+00  0.00000000000E+00 -0.11539854787E+02  0.90215574225E+03  0.90208193366E+03 0.  0.
        3    1    3    3  502    0 -0.21948999385E+02 -0.10571340173E+03 -0.44373367714E+03  0.45668005026E+03  0.10100000352E+00 0. -1.
       -3    1    3    3    0  502  0.21948999385E+02  0.10571340173E+03  0.43219382235E+03  0.44547569199E+03  0.10100000352E+00 0.  1.
</event>
<event>
 5   0  0.1017079E-02  0.8510978E+03  0.7818609E-02  0.9488865E-01
        2   -1    0    0  501    0  0.00000000000E+00  0.00000000000E+00  0.37341815448E+03  0.37341815449E+03  0.25500000920E-02 0.  1.
       -2   -1    0    0    0  501  0.00000000000E+00  0.00000000000E+00 -0.48495731583E+03  0.48495731584E+03  0.25500000920E-02 0. -1.
    10030    2    1    2    0    0  0.00000000000E+00  0.00000000000E+00 -0.11153916135E+03  0.85837547033E+03  0.85109779905E+03 0.  0.
        1    1    3    3  502    0  0.30191134756E+03 -0.29872777013E+03 -0.29026365688E+02  0.42571266408E+03  0.50400001928E-02 0.  1.
       -1    1    3    3    0  502 -0.30191134756E+03  0.29872777013E+03 -0.82512795664E+02  0.43266280624E+03  0.50400001928E-02 0. -1.
</event>
<event>
 5   0  0.1041727E-02  0.8998018E+03  0.7818609E-02  0.9425829E-01
        2   -1    0    0  501    0  0.00000000000E+00  0.00000000000E+00  0.11712437385E+04  0.11712437385E+04  0.25500000920E-02 0.  1.
       -2   -1    0    0    0  501  0.00000000000E+00  0.00000000000E+00 -0.17281699661E+03  0.17281699663E+03  0.25500000920E-02 0. -1.
    10030    2    1    2    0    0  0.00000000000E+00  0.00000000000E+00  0.99842674190E+03  0.13440607351E+04  0.89980181195E+03 0.  0.
        4    1    3    3  502    0 -0.61900232172E+02 -0.42361015383E+03  0.70582384920E+03  0.82550961241E+03  0.12699999809E+01 0.  1.
       -4    1    3    3    0  502  0.61900232172E+02  0.42361015383E+03  0.29260289270E+03  0.51855112273E+03  0.12699999809E+01 0. -1.
</event>
<event>
 5   0  0.6015709E-03  0.8974270E+03  0.7818609E-02  0.9428804E-01
        1   -1    0    0  501    0  0.00000000000E+00  0.00000000000E+00  0.40984946910E+03  0.40984946913E+03  0.50400001928E-02 0.  1.
       -1   -1    0    0    0  501  0.00000000000E+00  0.00000000000E+00 -0.49126278377E+03  0.49126278380E+03  0.50400001928E-02 0. -1.
    10030    2    1    2    0    0  0.00000000000E+00  0.00000000000E+00 -0.81413314675E+02  0.90111225292E+03  0.89742696893E+03 0.  0.
        3    1    3    3  502    0 -0.41400850363E+02 -0.14379575161E+03 -0.46547163623E+03  0.48893261594E+03  0.10100000352E+00 0. -1.
       -3    1    3    3    0  502  0.41400850363E+02  0.14379575161E+03  0.38405832156E+03  0.41217963699E+03  0.10100000352E+00 0.  1.
</event>
<event>
 5   0  0.6288003E-03  0.8887997E+03  0.7818609E-02  0.9439692E-01
        1   -1    0    0  501    0  0.00000000000E+00  0.00000000000E+00  0.49978972405E+03  0.49978972408E+03  0.50400001928E-02 0. -1.
       -1   -1    0    0    0  501  0.00000000000E+00  0.00000000000E+00 -0.39514865173E+03  0.39514865176E+03  0.50400001928E-02 0.  1.
    10030    2    1    2    0    0  0.00000000000E+00  0.00000000000E+00  0.10464107233E+03  0.89493837584E+03  0.88879972015E+03 0.  0.
        1    1    3    3  502    0  0.13607114438E+03  0.35335805861E+03 -0.18191020208E+03  0.42008165345E+03  0.50400001928E-02 0.  1.
       -1    1    3    3    0  502 -0.13607114438E+03 -0.35335805861E+03  0.28655127440E+03  0.47485672239E+03  0.50400001928E-02 0. -1.
</event>
<event>
 5   0  0.6211218E-03  0.9132152E+03  0.7818609E-02  0.9409211E-01
       -1   -1    0    0    0  501  0.00000000000E+00  0.00000000000E+00  0.30062916607E+03  0.30062916611E+03  0.50400001928E-02 0. -1.
        1   -1    0    0  501    0  0.00000000000E+00  0.00000000000E+00 -0.69351381786E+03  0.69351381788E+03  0.50400001928E-02 0.  1.
    10030    2    1    2    0    0  0.00000000000E+00  0.00000000000E+00 -0.39288465179E+03  0.99414298399E+03  0.91321515701E+03 0.  0.
        5    1    3    3  502    0  0.42286641022E+03 -0.91484614155E+02 -0.35525739452E+03  0.55983510240E+03  0.46999998093E+01 0.  1.
       -5    1    3    3    0  502 -0.42286641022E+03  0.91484614155E+02 -0.37627257276E+02  0.43430788159E+03  0.46999998093E+01 0. -1.
</event>
<event>
 5   0  0.6288003E-03  0.9111323E+03  0.7818609E-02  0.9411772E-01
        1   -1    0    0  501    0  0.00000000000E+00  0.00000000000E+00  0.91467356477E+03  0.91467356479E+03  0.50400001928E-02 0.  1.
       -1   -1    0    0    0  501  0.00000000000E+00  0.00000000000E+00 -0.22690117198E+03  0.22690117204E+03  0.50400001928E-02 0. -1.
    10030    2    1    2    0    0  0.00000000000E+00  0.00000000000E+00  0.68777239279E+03  0.11415747368E+04  0.91113227112E+03 0.  0.
        1    1    3    3  502    0  0.18989034358E+03 -0.37103197822E+03  0.57429190519E+03  0.70960148241E+03  0.50400001928E-02 0.  1.
       -1    1    3    3    0  502 -0.18989034358E+03  0.37103197822E+03  0.11348048760E+03  0.43197325442E+03  0.50400001928E-02 0. -1.
</event>
<event>
 5   0  0.6137243E-03  0.8839049E+03  0.7818609E-02  0.9445928E-01
       -1   -1    0    0    0  501  0.00000000000E+00  0.00000000000E+00  0.11782897039E+03  0.11782897050E+03  0.50400001928E-02 0.  1.
        1   -1    0    0  501    0  0.00000000000E+00  0.00000000000E+00 -0.16576735531E+04  0.16576735531E+04  0.50400001928E-02 0. -1.
    10030    2    1    2    0    0  0.00000000000E+00  0.00000000000E+00 -0.15398445827E+04  0.17755025236E+04  0.88390490010E+03 0.  0.
        4    1    3    3  502    0 -0.16353860868E+03 -0.39164022082E+03 -0.52232638009E+03  0.67301812705E+03  0.12699999809E+01 0.  1.
       -4    1    3    3    0  502  0.16353860868E+03  0.39164022082E+03 -0.10175182026E+04  0.11024843965E+04  0.12699999809E+01 0. -1.
</event>
<event>
 5   0  0.6015709E-03  0.8535787E+03  0.7818609E-02  0.9485546E-01
        1   -1    0    0  501    0  0.00000000000E+00  0.00000000000E+00  0.10210718846E+04  0.10210718846E+04  0.50400001928E-02 0.  1.
       -1   -1    0    0    0  501  0.00000000000E+00  0.00000000000E+00 -0.17839014425E+03  0.17839014432E+03  0.50400001928E-02 0. -1.
    10030    2    1    2    0    0  0.00000000000E+00  0.00000000000E+00  0.84268174030E+03  0.11994620289E+04  0.85357872708E+03 0.  0.
        3    1    3    3  502    0  0.13142503782E+03  0.28239464608E+03  0.83134092632E+03  0.88777644860E+03  0.10100000352E+00 0.  1.
       -3    1    3    3    0  502 -0.13142503782E+03 -0.28239464608E+03  0.11340813980E+02  0.31168558030E+03  0.10100000352E+00 0. -1.
</event>
<event>
 5   0  0.1041727E-02  0.9031264E+03  0.7818609E-02  0.9421682E-01
       -2   -1    0    0    0  501  0.00000000000E+00  0.00000000000E+00  0.15652143519E+03  0.15652143521E+03  0.25500000920E-02 0.  1.
        2   -1    0    0  501    0  0.00000000000E+00  0.00000000000E+00 -0.13027565081E+04  0.13027565081E+04  0.25500000920E-02 0. -1.
    10030    2    1    2    0    0  0.00000000000E+00  0.00000000000E+00 -0.11462350730E+04  0.14592779434E+04  0.90312638843E+03 0.  0.
        4    1    3    3  502    0 -0.35636723995E+03 -0.46769320205E+02 -0.10148057814E+04  0.10765766883E+04  0.12699999809E+01 0. -1.
       -4    1    3    3    0  502  0.35636723995E+03  0.46769320205E+02 -0.13142929159E+03  0.38270125504E+03  0.12699999809E+01 0.  1.
</event>
<event>
 5   0  0.6092779E-03  0.8851532E+03  0.7818609E-02  0.9444333E-01
        1   -1    0    0  501    0  0.00000000000E+00  0.00000000000E+00  0.38859034289E+03  0.38859034293E+03  0.50400001928E-02 0. -1.
       -1   -1    0    0    0  501  0.00000000000E+00  0.00000000000E+00 -0.50406308771E+03  0.50406308773E+03  0.50400001928E-02 0.  1.
    10030    2    1    2    0    0  0.00000000000E+00  0.00000000000E+00 -0.11547274482E+03  0.89265343066E+03  0.88515320282E+03 0.  0.
        2    1    3    3  502    0  0.20232886079E+03 -0.15683143561E+03  0.30635042099E+03  0.39922881603E+03  0.25500000920E-02 0. -1.
       -2    1    3    3    0  502 -0.20232886079E+03  0.15683143561E+03 -0.42182316580E+03  0.49342461463E+03  0.25500000920E-02 0.  1.
</event>
<event>
 5   0  0.6015709E-03  0.8799255E+03  0.7818609E-02  0.9451029E-01
        1   -1    0    0  501    0  0.00000000000E+00  0.00000000000E+00  0.35684826029E+03  0.35684826032E+03  0.50400001928E-02 0. -1.
       -1   -1    0    0    0  501  0.00000000000E+00  0.00000000000E+00 -0.54243565922E+03  0.54243565924E+03  0.50400001928E-02 0.  1.
    10030    2    1    2    0    0  0.00000000000E+00  0.00000000000E+00 -0.18558739893E+03  0.89928391956E+03  0.87992549988E+03 0.  0.
        3    1    3    3  502    0  0.35949259634E+03  0.65612472585E+02  0.15760108843E+03  0.39796738140E+03  0.10100000352E+00 0. -1.
       -3    1    3    3    0  502 -0.35949259634E+03 -0.65612472585E+02 -0.34318848736E+03  0.50131653816E+03  0.10100000352E+00 0.  1.
</event>
<event>
 5   0  0.1033749E-02  0.9090316E+03  0.7818609E-02  0.9414361E-01
        2   -1    0    0  501    0  0.00000000000E+00  0.00000000000E+00  0.25300332047E+03  0.25300332048E+03  0.25500000920E-02 0. -1.
       -2   -1    0    0    0  501  0.00000000000E+00  0.00000000000E+00 -0.81652927324E+03  0.81652927325E+03  0.25500000920E-02 0.  1.
    10030    2    1    2    0    0  0.00000000000E+00  0.00000000000E+00 -0.56352595277E+03  0.10695325937E+04  0.90903161090E+03 0.  0.
        5    1    3    3  502    0 -0.63358839105E+02 -0.58092399535E+02 -0.80684937661E+03  0.81142903319E+03  0.46999998093E+01 0.  1.
       -5    1    3    3    0  502  0.63358839105E+02  0.58092399535E+02  0.24332342384E+03  0.25810356054E+03  0.46999998093E+01 0. -1.
</event>
<event>
 5   0  0.6092779E-03  0.9071835E+03  0.7818609E-02  0.9416646E-01
       -1   -1    0    0    0  501  0.00000000000E+00  0.00000000000E+00  0.16716789957E+03  0.16716789964E+03  0.50400001928E-02 0.  1.
        1   -1    0    0  501    0  0.00000000000E+00  0.00000000000E+00 -0.12307713819E+04  0.12307713819E+04  0.50400001928E-02 0. -1.
    10030    2    1    2    0    0  0.00000000000E+00  0.00000000000E+00 -0.10636034824E+04  0.13979392816E+04  0.90718348051E+03 0.  0.
        2    1    3    3  502    0 -0.13531413937E+03  0.38876621350E+03 -0.82538064347E+03  0.92233523824E+03  0.25500000920E-02 0. -1.
       -2    1    3    3    0  502  0.13531413937E+03 -0.38876621350E+03 -0.23822283890E+03  0.47560404335E+03  0.25500000920E-02 0.  1.
</event>
<event>
 5   0  0.6211218E-03  0.8973585E+03  0.7818609E-02  0.9428890E-01
       -1   -1    0    0    0  501  0.00000000000E+00  0.00000000000E+00  0.29913408519E+03  0.29913408524E+03  0.50400001928E-02 0.  1.
        1   -1    0    0  501    0  0.00000000000E+00  0.00000000000E+00 -0.67298599625E+03  0.67298599627E+03  0.50400001928E-02 0. -1.
    10030    2    1    2    0    0  0.00000000000E+00  0.00000000000E+00 -0.37385191106E+03  0.97212008151E+03  0.89735845762E+03 0.  0.
        5    1    3    3  502    0  0.19760932740E+03  0.22850664628E+03  0.17241114888E+03  0.34786840604E+03  0.46999998093E+01 0.  1.
       -5    1    3    3    0  502 -0.19760932740E+03 -0.22850664628E+03 -0.54626305994E+03  0.62425167546E+03  0.46999998093E+01 0. -1.
</event>
<event>
 5   0  0.6211218E-03  0.9022710E+03  0.7818609E-02  0.9422747E-01
       -1   -1    0    0    0  501  0.00000000000E+00  0.00000000000E+00  0.17922334060E+03  0.17922334067E+03  0.50400001928E-02 0. -1.
        1   -1    0    0  501    0  0.00000000000E+00  0.00000000000E+00 -0.11355845059E+04  0.11355845060E+04  0.50400001928E-02 0.  1.
    10030    2    1    2    0    0  0.00000000000E+00  0.00000000000E+00 -0.95636116534E+03  0.13148078466E+04  0.90227102079E+03 0.  0.
        5    1    3    3  502    0  0.40996530617E+03  0.11299846947E+03 -0.25881708741E+03  0.49784393247E+03  0.46999998093E+01 0. -1.
       -5    1    3    3    0  502 -0.40996530617E+03 -0.11299846947E+03 -0.69754407794E+03  0.81696391415E+03  0.46999998093E+01 0.  1.
</event>
<event>
 5   0  0.1003252E-02  0.9007033E+03  0.7818609E-02  0.9424703E-01
       -2   -1    0    0    0  501  0.00000000000E+00  0.00000000000E+00  0.30850292855E+03  0.30850292856E+03  0.25500000920E-02 0.  1.
        2   -1    0    0  501    0  0.00000000000E+00  0.00000000000E+00 -0.65742193046E+03  0.65742193047E+03  0.25500000920E-02 0. -1.
    10030    2    1    2    0    0  0.00000000000E+00  0.00000000000E+00 -0.34891900192E+03  0.96592485903E+03  0.90070326045E+03 0.  0.
        2    1    3    3  502    0  0.42392309561E+03 -0.92665594685E+02 -0.45239935262E+02  0.43628471802E+03  0.25500000920E-02 0. -1.
       -2    1    3    3    0  502 -0.42392309561E+03  0.92665594685E+02 -0.30367906666E+03  0.52964014100E+03  0.25500000920E-02 0.  1.
</event>
<event>
 5   0  0.1003252E-02  0.8889055E+03  0.7818609E-02  0.9439557E-01
       -2   -1    0    0    0  501  0.00000000000E+00  0.00000000000E+00  0.21562384641E+03  0.21562384643E+03  0.25500000920E-02 0.  1.
        2   -1    0    0  501    0  0.00000000000E+00  0.00000000000E+00 -0.91612429674E+03  0.91612429674E+03  0.25500000920E-02 0. -1.
    10030    2    1    2    0    0  0.00000000000E+00  0.00000000000E+00 -0.70050045033E+03  0.11317481432E+04  0.88890549478E+03 0.  0.
        2    1    3    3  502    0  0.33042673252E+03 -0.70263708168E+02 -0.71797916519E+03  0.79348150319E+03  0.25500000920E-02 0. -1.
       -2    1    3    3    0  502 -0.33042673252E+03  0.70263708168E+02  0.17478714859E+02  0.33826663998E+03  0.25500000920E-02 0.  1.
</event>
<event>
 5   0  0.1033749E-02  0.8351835E+03  0.7818609E-02  0.9510442E-01
        2   -1    0    0  501    0  0.00000000000E+00  0.00000000000E+00  0.86812774752E+03  0.86812774753E+03  0.25500000920E-02 0.  1.
       -2   -1    0    0    0  501  0.00000000000E+00  0.00000000000E+00 -0.20087238309E+03  0.20087238310E+03  0.25500000920E-02 0. -1.
    10030    2    1    2    0    0  0.00000000000E+00  0.00000000000E+00  0.66725536444E+03  0.10690001306E+04  0.83518354744E+03 0.  0.
        5    1    3    3  502    0  0.82224266456E+02 -0.19160757762E+03 -0.12943871215E+03  0.24546031043E+03  0.46999998093E+01 0. -1.
       -5    1    3    3    0  502 -0.82224266456E+02  0.19160757762E+03  0.79669407658E+03  0.82353982020E+03  0.46999998093E+01 0.  1.
</event>
<event>
 5   0  0.1041727E-02  0.8991677E+03  0.7818609E-02  0.9426622E-01
       -2   -1    0    0    0  501  0.00000000000E+00  0.00000000000E+00  0.28404238148E+03  0.28404238150E+03  0.25500000920E-02 0. -1.
        2   -1    0    0  501    0  0.00000000000E+00  0.00000000000E+00 -0.71160381668E+03  0.71160381668E+03  0.25500000920E-02 0.  1.
    10030    2    1    2    0    0  0.00000000000E+00  0.00000000000E+00 -0.42756143519E+03  0.99564619818E+03  0.89916771021E+03 0.  0.
        4    1    3    3  502    0  0.10830931062E+03  0.35533444060E+03  0.66631445720E+02  0.37740539729E+03  0.12699999809E+01 0. -1.
       -4    1    3    3    0  502 -0.10830931062E+03 -0.35533444060E+03 -0.49419288091E+03  0.61824080089E+03  0.12699999809E+01 0.  1.
</event>
<event>
 5   0  0.6288003E-03  0.8966763E+03  0.7818609E-02  0.9429746E-01
       -1   -1    0    0    0  501  0.00000000000E+00  0.00000000000E+00  0.29351677521E+03  0.29351677525E+03  0.50400001928E-02 0. -1.
        1   -1    0    0  501    0  0.00000000000E+00  0.00000000000E+00 -0.68482321647E+03  0.68482321649E+03  0.50400001928E-02 0.  1.
    10030    2    1    2    0    0  0.00000000000E+00  0.00000000000E+00 -0.39130644127E+03  0.97833999174E+03  0.89667631198E+03 0.  0.
        1    1    3    3  502    0  0.10544833018E+03  0.23142025677E+03  0.20720634122E+03  0.32803834143E+03  0.50400001928E-02 0. -1.
       -1    1    3    3    0  502 -0.10544833018E+03 -0.23142025677E+03 -0.59851278249E+03  0.65030165032E+03  0.50400001928E-02 0.  1.
</event>
<event>
 5   0  0.1041727E-02  0.8998405E+03  0.7818609E-02  0.9425781E-01
       -2   -1    0    0    0  501  0.00000000000E+00  0.00000000000E+00  0.15915898989E+03  0.15915898991E+03  0.25500000920E-02 0. -1.
        2   -1    0    0  501    0  0.00000000000E+00  0.00000000000E+00 -0.12718617180E+04  0.12718617180E+04  0.25500000920E-02 0.  1.
    10030    2    1    2    0    0  0.00000000000E+00  0.00000000000E+00 -0.11127027281E+04  0.14310207079E+04  0.89984048882E+03 0.  0.
        4    1    3    3  502    0  0.88587941276E+01 -0.32902356720E+03 -0.68535546983E+02  0.33620487818E+03  0.12699999809E+01 0. -1.
       -4    1    3    3    0  502 -0.88587941276E+01  0.32902356720E+03 -0.10441671811E+04  0.10948158297E+04  0.12699999809E+01 0.  1.
</event>
<event>
 5   0  0.6137243E-03  0.8966703E+03  0.7818609E-02  0.9429753E-01
        1   -1    0    0  501    0  0.00000000000E+00  0.00000000000E+00  0.32329156617E+03  0.32329156621E+03  0.50400001928E-02 0. -1.
       -1   -1    0    0    0  501  0.00000000000E+00  0.00000000000E+00 -0.62174339223E+03  0.62174339225E+03  0.50400001928E-02 0.  1.
    10030    2    1    2    0    0  0.00000000000E+00  0.00000000000E+00 -0.29845182606E+03  0.94503495846E+03  0.89667027398E+03 0.  0.
        4    1    3    3  502    0 -0.39879147949E+03 -0.13814445317E+03  0.10208998617E+02  0.42216628313E+03  0.12699999809E+01 0. -1.
       -4    1    3    3    0  502  0.39879147949E+03  0.13814445317E+03 -0.30866082468E+03  0.52286867533E+03  0.12699999809E+01 0.  1.
</event>
<event>
 5   0  0.1017079E-02  0.8851750E+03  0.7818609E-02  0.9444305E-01
        2   -1    0    0  501    0  0.00000000000E+00  0.00000000000E+00  0.13931231545E+04  0.13931231545E+04  0.25500000920E-02 0. -1.
       -2   -1    0    0    0  501  0.00000000000E+00  0.00000000000E+00 -0.14060760826E+03  0.14060760828E+03  0.25500000920E-02 0.  1.
    10030    2    1    2    0    0  0.00000000000E+00  0.00000000000E+00  0.12525155463E+04  0.15337307628E+04  0.88517504435E+03 0.  0.
        1    1    3    3  502    0  0.26393168782E+03  0.20700103159E+03  0.11265643390E+04  0.11754388852E+04  0.50400001928E-02 0. -1.
       -1    1    3    3    0  502 -0.26393168782E+03 -0.20700103159E+03  0.12595120725E+03  0.35829187759E+03  0.50400001928E-02 0.  1.
</event>
<event>
 5   0  0.6015709E-03  0.8993089E+03  0.7818609E-02  0.9426446E-01
        1   -1    0    0  501    0  0.00000000000E+00  0.00000000000E+00  0.16382917358E+03  0.16382917366E+03  0.50400001928E-02 0. -1.
       -1   -1    0    0    0  501  0.00000000000E+00  0.00000000000E+00 -0.12341459108E+04  0.12341459108E+04  0.50400001928E-02 0.  1.
    10030    2    1    2    0    0  0.00000000000E+00  0.00000000000E+00 -0.10703167372E+04  0.13979750845E+04  0.89930885618E+03 0.  0.
        3    1    3    3  502    0  0.40846347610E+03  0.16244846904E+03 -0.68227987592E+03  0.81162661100E+03  0.10100000352E+00 0.  1.
       -3    1    3    3    0  502 -0.40846347610E+03 -0.16244846904E+03 -0.38803686130E+03  0.58634847346E+03  0.10100000352E+00 0. -1.
</event>
<event>
 5   0  0.1028978E-02  0.9066759E+03  0.7818609E-02  0.9417275E-01
       -2   -1    0    0    0  501  0.00000000000E+00  0.00000000000E+00  0.19356792555E+03  0.19356792556E+03  0.25500000920E-02 0. -1.
        2   -1    0    0  501    0  0.00000000000E+00  0.00000000000E+00 -0.10617218391E+04  0.10617218391E+04  0.25500000920E-02 0.  1.
    10030    2    1    2    0    0  0.00000000000E+00  0.00000000000E+00 -0.86815391356E+03  0.12552897647E+04  0.90667589339E+03 0.  0.
        3    1    3    3  502    0  0.86023491793E+02  0.34859169107E+03 -0.50896207083E+02  0.36263844572E+03  0.10100000352E+00 0. -1.
       -3    1    3    3    0  502 -0.86023491793E+02 -0.34859169107E+03 -0.81725770648E+03  0.89265131895E+03  0.10100000352E+00 0.  1.
</event>
<event>
 5   0  0.6211218E-03  0.8973000E+03  0.7818609E-02  0.9428963E-01
       -1   -1    0    0    0  501  0.00000000000E+00  0.00000000000E+00  0.60767095031E+03  0.60767095033E+03  0.50400001928E-02 0.  1.
        1   -1    0    0  501    0  0.00000000000E+00  0.00000000000E+00 -0.33124312646E+03  0.33124312649E+03  0.50400001928E-02 0. -1.
    10030    2    1    2    0    0  0.00000000000E+00  0.00000000000E+00  0.27642782386E+03  0.93891407683E+03  0.89730000661E+03 0.  0.
        5    1    3    3  502    0  0.37233664919E+03  0.10891392369E+03 -0.97552987394E+02  0.40004437060E+03  0.46999998093E+01 0. -1.
       -5    1    3    3    0  502 -0.37233664919E+03 -0.10891392369E+03  0.37398081125E+03  0.53886970622E+03  0.46999998093E+01 0.  1.
</event>
<event>
 5   0  0.1017079E-02  0.8891603E+03  0.7818609E-02  0.9439234E-01
        2   -1    0    0  501    0  0.00000000000E+00  0.00000000000E+00  0.82507505271E+03  0.82507505272E+03  0.25500000920E-02 0.  1.
       -2   -1    0    0    0  501  0.00000000000E+00  0.00000000000E+00 -0.23955579246E+03  0.23955579247E+03  0.25500000920E-02 0. -1.
    10030    2    1    2    0    0  0.00000000000E+00  0.00000000000E+00  0.58551926025E+03  0.10646308452E+04  0.88916029623E+03 0.  0.
        1    1    3    3  502    0 -0.40654250752E+03  0.15016931767E+03  0.17408432210E+03  0.46704709144E+03  0.50400001928E-02 0. -1.
       -1    1    3    3    0  502  0.40654250752E+03 -0.15016931767E+03  0.41143493815E+03  0.59758375375E+03  0.50400001928E-02 0.  1.
</event>
<event>
 5   0  0.1028978E-02  0.9009115E+03  0.7818609E-02  0.9424443E-01
        2   -1    0    0  501    0  0.00000000000E+00  0.00000000000E+00  0.11446735369E+04  0.11446735369E+04  0.25500000920E-02 0. -1.
       -2   -1    0    0    0  501  0.00000000000E+00  0.00000000000E+00 -0.17726484748E+03  0.17726484750E+03  0.25500000920E-02 0.  1.
    10030    2    1    2    0    0  0.00000000000E+00  0.00000000000E+00  0.96740868938E+03  0.13219383844E+04  0.90091149385E+03 0.  0.
        3    1    3    3  502    0 -0.18470820102E+03  0.28109242583E+02  0.10851380457E+04  0.11011048258E+04  0.10100000352E+00 0. -1.
       -3    1    3    3    0  502  0.18470820102E+03 -0.28109242583E+02 -0.11772935631E+03  0.22083355854E+03  0.10100000352E+00 0.  1.
</event>
<event>
 5   0  0.6211218E-03  0.8903173E+03  0.7818609E-02  0.9437767E-01
        1   -1    0    0  501    0  0.00000000000E+00  0.00000000000E+00  0.50842904344E+03  0.50842904347E+03  0.50400001928E-02 0.  1.
       -1   -1    0    0    0  501  0.00000000000E+00  0.00000000000E+00 -0.38976179995E+03  0.38976179998E+03  0.50400001928E-02 0. -1.
    10030    2    1    2    0    0  0.00000000000E+00  0.00000000000E+00  0.11866724350E+03  0.89819084345E+03  0.89031728983E+03 0.  0.
        5    1    3    3  502    0  0.21526822104E+03 -0.35406046922E+03  0.22339064689E+03  0.47077031976E+03  0.46999998093E+01 0.  1.
       -5    1    3    3    0  502 -0.21526822104E+03  0.35406046922E+03 -0.10472340339E+03  0.42742052369E+03  0.46999998093E+01 0. -1.
</event>
<event>
 5   0  0.6137243E-03  0.8991025E+03  0.7818609E-02  0.9426704E-01
        1   -1    0    0  501    0  0.00000000000E+00  0.00000000000E+00  0.70359063071E+03  0.70359063073E+03  0.50400001928E-02 0. -1.
       -1   -1    0    0    0  501  0.00000000000E+00  0.00000000000E+00 -0.28723566398E+03  0.28723566403E+03  0.50400001928E-02 0.  1.
    10030    2    1    2    0    0  0.00000000000E+00  0.00000000000E+00  0.41635496673E+03  0.99082629476E+03  0.89910249030E+03 0.  0.
        4    1    3    3  502    0 -0.24573460746E+03 -0.34269390548E+03  0.36495747209E+02  0.42327079112E+03  0.12699999809E+01 0.  1.
       -4    1    3    3    0  502  0.24573460746E+03  0.34269390548E+03  0.37985921952E+03  0.56755550364E+03  0.12699999809E+01 0. -1.
</event>
<event>
 5   0  0.6092779E-03  0.8980821E+03  0.7818609E-02  0.9427982E-01
        1   -1    0    0  501    0  0.00000000000E+00  0.00000000000E+00  0.19738950233E+04  0.19738950233E+04  0.50400001928E-02 0. -1.
       -1   -1    0    0    0  501  0.00000000000E+00  0.00000000000E+00 -0.10215226514E+03  0.10215226527E+03  0.50400001928E-02 0.  1.
    10030    2    1    2    0    0  0.00000000000E+00  0.00000000000E+00  0.18717427582E+04  0.20760472886E+04  0.89808206290E+03 0.  0.
        2    1    3    3  502    0 -0.20099968656E+03 -0.10778427031E+03  0.18300316203E+04  0.18441892675E+04  0.25500000920E-02 0. -1.
       -2    1    3    3    0  502  0.20099968656E+03  0.10778427031E+03  0.41711137850E+02  0.23185802111E+03  0.25500000920E-02 0.  1.
</event>
<event>
 5   0  0.1041727E-02  0.9009283E+03  0.7818609E-02  0.9424422E-01
        2   -1    0    0  501    0  0.00000000000E+00  0.00000000000E+00  0.44296153787E+03  0.44296153788E+03  0.25500000920E-02 0. -1.
       -2   -1    0    0    0  501  0.00000000000E+00  0.00000000000E+00 -0.45809388477E+03  0.45809388478E+03  0.25500000920E-02 0.  1.
    10030    2    1    2    0    0  0.00000000000E+00  0.00000000000E+00 -0.15132346899E+02  0.90105542266E+03  0.90092834720E+03 0.  0.
        4    1    3    3  502    0 -0.30441645790E+03 -0.29064093133E+03  0.15300187927E+03  0.44783112751E+03  0.12699999809E+01 0. -1.
       -4    1    3    3    0  502  0.30441645790E+03  0.29064093133E+03 -0.16813422617E+03  0.45322429515E+03  0.12699999809E+01 0.  1.
</event>
<event>
 5   0  0.1017079E-02  0.9102180E+03  0.7818609E-02  0.9412898E-01
       -2   -1    0    0    0  501  0.00000000000E+00  0.00000000000E+00  0.16191375959E+03  0.16191375961E+03  0.25500000920E-02 0. -1.
        2   -1    0    0  501    0  0.00000000000E+00  0.00000000000E+00 -0.12792253238E+04  0.12792253238E+04  0.25500000920E-02 0.  1.
    10030    2    1    2    0    0  0.00000000000E+00  0.00000000000E+00 -0.11173115642E+04  0.14411390834E+04  0.91021795535E+03 0.  0.
        1    1    3    3  502    0 -0.95170731738E+02 -0.52820616556E+02  0.14100206114E+03  0.17812654767E+03  0.50400001928E-02 0. -1.
       -1    1    3    3    0  502  0.95170731738E+02  0.52820616556E+02 -0.12583136254E+04  0.12630125358E+04  0.50400001928E-02 0.  1.
</event>
<event>
 5   0  0.6288003E-03  0.9013934E+03  0.7818609E-02  0.9423841E-01
        1   -1    0    0  501    0  0.00000000000E+00  0.00000000000E+00  0.17606532495E+04  0.17606532495E+04  0.50400001928E-02 0. -1.
       -1   -1    0    0    0  501  0.00000000000E+00  0.00000000000E+00 -0.11537054225E+03  0.11537054236E+03  0.50400001928E-02 0.  1.
    10030    2    1    2    0    0  0.00000000000E+00  0.00000000000E+00  0.16452827073E+04  0.18760237919E+04  0.90139341074E+03 0.  0.
        1    1    3    3  502    0  0.33457821953E+03 -0.43165216537E+02  0.14446586356E+04  0.14835243154E+04  0.50400001928E-02 0. -1.
       -1    1    3    3    0  502 -0.33457821953E+03  0.43165216537E+02  0.20062407168E+03  0.39249947652E+03  0.50400001928E-02 0.  1.
</event>
<event>
 5   0  0.1033749E-02  0.8912949E+03  0.7818609E-02  0.9436529E-01
        2   -1    0    0  501    0  0.00000000000E+00  0.00000000000E+00  0.29675900364E+03  0.29675900365E+03  0.25500000920E-02 0. -1.
       -2   -1    0    0    0  501  0.00000000000E+00  0.00000000000E+00 -0.66923552685E+03  0.66923552686E+03  0.25500000920E-02 0.  1.
    10030    2    1    2    0    0  0.00000000000E+00  0.00000000000E+00 -0.37247652322E+03  0.96599453050E+03  0.89129494143E+03 0.  0.
        5    1    3    3  502    0 -0.15718712020E+03 -0.28131142180E+03 -0.51982593498E+03  0.61162488460E+03  0.46999998093E+01 0.  1.
       -5    1    3    3    0  502  0.15718712020E+03  0.28131142180E+03  0.14734941176E+03  0.35436964590E+03  0.46999998093E+01 0. -1.
</event>
<event>
 5   0  0.6137243E-03  0.9003072E+03  0.7818609E-02  0.9425197E-01
        1   -1    0    0  501    0  0.00000000000E+00  0.00000000000E+00  0.74563012618E+03  0.74563012619E+03  0.50400001928E-02 0.  1.
       -1   -1    0    0    0  501  0.00000000000E+00  0.00000000000E+00 -0.27176781031E+03  0.27176781036E+03  0.50400001928E-02 0. -1.
    10030    2    1    2    0    0  0.00000000000E+00  0.00000000000E+00  0.47386231586E+03  0.10173979366E+04  0.90030720696E+03 0.  0.
        4    1    3    3  502    0 -0.13413313818E+03  0.17792363601E+03  0.67893800880E+03  0.71456766769E+03  0.12699999809E+01 0.  1.
       -4    1    3    3    0  502  0.13413313818E+03 -0.17792363601E+03 -0.20507569294E+03  0.30283026887E+03  0.12699999809E+01 0. -1.
</event>
<event>
 5   0  0.6015709E-03  0.8953004E+03  0.7818609E-02  0.9431475E-01
       -1   -1    0    0    0  501  0.00000000000E+00  0.00000000000E+00  0.29484895710E+03  0.29484895715E+03  0.50400001928E-02 0. -1.
        1   -1    0    0  501    0  0.00000000000E+00  0.00000000000E+00 -0.67963853610E+03  0.67963853612E+03  0.50400001928E-02 0.  1.
    10030    2    1    2    0    0  0.00000000000E+00  0.00000000000E+00 -0.38478957900E+03  0.97448749327E+03  0.89530042691E+03 0.  0.
        3    1    3    3  502    0 -0.59963706947E+02  0.33613881099E+03 -0.50749188849E+03  0.61166410185E+03  0.10100000352E+00 0.  1.
       -3    1    3    3    0  502  0.59963706947E+02 -0.33613881099E+03  0.12270230949E+03  0.36282339142E+03  0.10100000352E+00 0. -1.
</event>
<event>
 5   0  0.3996375E-03  0.9075773E+03  0.7818609E-02  0.9416159E-01
        3   -1    0    0  501    0  0.00000000000E+00  0.00000000000E+00  0.14988496484E+03  0.14988499887E+03  0.10100000352E+00 0. -1.
       -3   -1    0    0    0  501  0.00000000000E+00  0.00000000000E+00 -0.13738809547E+04  0.13738809584E+04  0.10100000352E+00 0.  1.
    10030    2    1    2    0    0  0.00000000000E+00  0.00000000000E+00 -0.12239959899E+04  0.15237659573E+04  0.90757727462E+03 0.  0.
        3    1    3    3  502    0  0.16352118043E+03 -0.14113239558E+03  0.58036237300E+02  0.22366435695E+03  0.10100000352E+00 0. -1.
       -3    1    3    3    0  502 -0.16352118043E+03  0.14113239558E+03 -0.12820322272E+04  0.13001016004E+04  0.10100000352E+00 0.  1.
</event>
<event>
 5   0  0.6092779E-03  0.8961288E+03  0.7818609E-02  0.9430434E-01
       -1   -1    0    0    0  501  0.00000000000E+00  0.00000000000E+00  0.43530044698E+03  0.43530044700E+03  0.50400001928E-02 0. -1.
        1   -1    0    0  501    0  0.00000000000E+00  0.00000000000E+00 -0.46120262195E+03  0.46120262198E+03  0.50400001928E-02 0.  1.
    10030    2    1    2    0    0  0.00000000000E+00  0.00000000000E+00 -0.25902174975E+02  0.89650306898E+03  0.89612880214E+03 0.  0.
        2    1    3    3  502    0  0.10311483215E+03  0.89009576435E+02  0.41408352748E+03  0.43591345591E+03  0.25500000920E-02 0. -1.
       -2    1    3    3    0  502 -0.10311483215E+03 -0.89009576435E+02 -0.43998570245E+03  0.46058961308E+03  0.25500000920E-02 0.  1.
</event>
<event>
 5   0  0.3996375E-03  0.9038802E+03  0.7818609E-02  0.9420744E-01
       -3   -1    0    0    0  501  0.00000000000E+00  0.00000000000E+00  0.50757284211E+03  0.50757285216E+03  0.10100000352E+00 0.  1.
        3   -1    0    0  501    0  0.00000000000E+00  0.00000000000E+00 -0.40240495484E+03  0.40240496752E+03  0.10100000352E+00 0. -1.
    10030    2    1    2    0    0  0.00000000000E+00  0.00000000000E+00  0.10516788727E+03  0.90997781968E+03  0.90388016230E+03 0.  0.
        5    1    3    3  502    0 -0.43172967375E+03 -0.10460312302E+03 -0.31014923043E+02  0.44532722799E+03  0.46999998093E+01 0. -1.
       -5    1    3    3    0  502  0.43172967375E+03  0.10460312302E+03  0.13618281031E+03  0.46465059169E+03  0.46999998093E+01 0.  1.
</event>
<event>
 5   0  0.1041727E-02  0.9063994E+03  0.7818609E-02  0.9417617E-01
       -2   -1    0    0    0  501  0.00000000000E+00  0.00000000000E+00  0.19024932591E+03  0.19024932593E+03  0.25500000920E-02 0. -1.
        2   -1    0    0  501    0  0.00000000000E+00  0.00000000000E+00 -0.10795830798E+04  0.10795830798E+04  0.25500000920E-02 0.  1.
    10030    2    1    2    0    0  0.00000000000E+00  0.00000000000E+00 -0.88933375389E+03  0.12698324057E+04  0.90639936719E+03 0.  0.
        4    1    3    3  502    0  0.15204822538E+03  0.19497365714E+03  0.87431795414E+02  0.26225812012E+03  0.12699999809E+01 0. -1.
       -4    1    3    3    0  502 -0.15204822538E+03 -0.19497365714E+03 -0.97676554930E+03  0.10075742856E+04  0.12699999809E+01 0.  1.
</event>
<event>
 5   0  0.6288003E-03  0.8880965E+03  0.7818609E-02  0.9440585E-01
        1   -1    0    0  501    0  0.00000000000E+00  0.00000000000E+00  0.15605290880E+04  0.15605290880E+04  0.50400001928E-02 0.  1.
       -1   -1    0    0    0  501  0.00000000000E+00  0.00000000000E+00 -0.12635385566E+03  0.12635385576E+03  0.50400001928E-02 0. -1.
    10030    2    1    2    0    0  0.00000000000E+00  0.00000000000E+00  0.14341752323E+04  0.16868829437E+04  0.88809654254E+03 0.  0.
        1    1    3    3  502    0  0.32572465396E+03  0.22085081852E+03  0.32639781101E+03  0.51127992850E+03  0.50400001928E-02 0. -1.
       -1    1    3    3    0  502 -0.32572465396E+03 -0.22085081852E+03  0.11077774213E+04  0.11756030152E+04  0.50400001928E-02 0.  1.
</event>
<event>
 5   0  0.6015709E-03  0.8931736E+03  0.7818609E-02  0.9434155E-01
        1   -1    0    0  501    0  0.00000000000E+00  0.00000000000E+00  0.52686755420E+03  0.52686755422E+03  0.50400001928E-02 0. -1.
       -1   -1    0    0    0  501  0.00000000000E+00  0.00000000000E+00 -0.37853869716E+03  0.37853869720E+03  0.50400001928E-02 0.  1.
    10030    2    1    2    0    0  0.00000000000E+00  0.00000000000E+00  0.14832885704E+03  0.90540625142E+03  0.89317357231E+03 0.  0.
        3    1    3    3  502    0  0.33242538529E+02  0.43677601048E+03  0.16231165745E+03  0.46714391149E+03  0.10100000352E+00 0.  1.
       -3    1    3    3    0  502 -0.33242538529E+02 -0.43677601048E+03 -0.13982800415E+02  0.43826233993E+03  0.10100000352E+00 0. -1.
</event>
<event>
 5   0  0.1003252E-02  0.9011403E+03  0.7818609E-02  0.9424157E-01
        2   -1    0    0  501    0  0.00000000000E+00  0.00000000000E+00  0.13154586654E+04  0.13154586654E+04  0.25500000920E-02 0.  1.
       -2   -1    0    0    0  501  0.00000000000E+00  0.00000000000E+00 -0.15432902775E+03  0.15432902777E+03  0.25500000920E-02 0. -1.
    10030    2    1    2    0    0  0.00000000000E+00  0.00000000000E+00  0.11611296376E+04  0.14697876931E+04  0.90114029293E+03 0.  0.
        2    1    3    3  502    0 -0.55378963239E+02 -0.43840655806E+03  0.43701262461E+03  0.62148787099E+03  0.25500000920E-02 0. -1.
       -2    1    3    3    0  502  0.55378963239E+02  0.43840655806E+03  0.72411701300E+03  0.84829982214E+03  0.25500000920E-02 0.  1.
</event>
<event>
 5   0  0.1041727E-02  0.8971998E+03  0.7818609E-02  0.9429089E-01
       -2   -1    0    0    0  501  0.00000000000E+00  0.00000000000E+00  0.93445334020E+03  0.93445334020E+03  0.25500000920E-02 0. -1.
        2   -1    0    0  501    0  0.00000000000E+00  0.00000000000E+00 -0.21535785014E+03  0.21535785015E+03  0.25500000920E-02 0.  1.
    10030    2    1    2    0    0  0.00000000000E+00  0.00000000000E+00  0.71909549006E+03  0.11498111904E+04  0.89719978246E+03 0.  0.
        4    1    3    3  502    0 -0.12961478643E+03  0.20182582773E+03 -0.12627262047E+03  0.27107202951E+03  0.12699999809E+01 0.  1.
       -4    1    3    3    0  502  0.12961478643E+03 -0.20182582773E+03  0.84536811053E+03  0.87873916085E+03  0.12699999809E+01 0. -1.
</event>
<event>
 5   0  0.6211218E-03  0.9064811E+03  0.7818609E-02  0.9417516E-01
       -1   -1    0    0    0  501  0.00000000000E+00  0.00000000000E+00  0.11907735534E+03  0.11907735545E+03  0.50400001928E-02 0.  1.
        1   -1    0    0  501    0  0.00000000000E+00  0.00000000000E+00 -0.17251558340E+04  0.17251558340E+04  0.50400001928E-02 0. -1.
    10030    2    1    2    0    0  0.00000000000E+00  0.00000000000E+00 -0.16060784787E+04  0.18442331895E+04  0.90648109604E+03 0.  0.
        5    1    3    3  502    0  0.40228074694E+03  0.54130005564E+02 -0.39287206620E+03  0.56491628341E+03  0.46999998093E+01 0.  1.
       -5    1    3    3    0  502 -0.40228074694E+03 -0.54130005564E+02 -0.12132064125E+04  0.12793169061E+04  0.46999998093E+01 0. -1.
</event>
<event>
 5   0  0.1041727E-02  0.8608891E+03  0.7818609E-02  0.9475837E-01
       -2   -1    0    0    0  501  0.00000000000E+00  0.00000000000E+00  0.27634115135E+03  0.27634115136E+03  0.25500000920E-02 0. -1.
        2   -1    0    0  501    0  0.00000000000E+00  0.00000000000E+00 -0.67048476015E+03  0.67048476016E+03  0.25500000920E-02 0.  1.
    10030    2    1    2    0    0  0.00000000000E+00  0.00000000000E+00 -0.39414360881E+03  0.94682591152E+03  0.86088914638E+03 0.  0.
        4    1    3    3  502    0  0.35084083107E+03 -0.21971304722E+03 -0.67321528896E+02  0.41940065930E+03  0.12699999809E+01 0. -1.
       -4    1    3    3    0  502 -0.35084083107E+03  0.21971304722E+03 -0.32682207991E+03  0.52742525222E+03  0.12699999809E+01 0.  1.
</event>
<event>
 5   0  0.6092779E-03  0.9077453E+03  0.7818609E-02  0.9415951E-01
        1   -1    0    0  501    0  0.00000000000E+00  0.00000000000E+00  0.12519796331E+04  0.12519796331E+04  0.50400001928E-02 0.  1.
       -1   -1    0    0    0  501  0.00000000000E+00  0.00000000000E+00 -0.16453973507E+03  0.16453973515E+03  0.50400001928E-02 0. -1.
    10030    2    1    2    0    0  0.00000000000E+00  0.00000000000E+00  0.10874398981E+04  0.14165193683E+04  0.90774533260E+03 0.  0.
        2    1    3    3  502    0  0.43651870382E+03 -0.11167288546E+03  0.45852018463E+03  0.64285314952E+03  0.25500000920E-02 0. -1.
       -2    1    3    3    0  502 -0.43651870382E+03  0.11167288546E+03  0.62891971343E+03  0.77366621878E+03  0.25500000920E-02 0.  1.
</event>
<event>
 5   0  0.1033749E-02  0.8994689E+03  0.7818609E-02  0.9426246E-01
        2   -1    0    0  501    0  0.00000000000E+00  0.00000000000E+00  0.12218090038E+04  0.12218090038E+04  0.25500000920E-02 0.  1.
       -2   -1    0    0    0  501  0.00000000000E+00  0.00000000000E+00 -0.16554230799E+03  0.16554230801E+03  0.25500000920E-02 0. -1.
    10030    2    1    2    0    0  0.00000000000E+00  0.00000000000E+00  0.10562666958E+04  0.13873513118E+04  0.89946891536E+03 0.  0.
        5    1    3    3  502    0 -0.71722167587E+02  0.28031287190E+03  0.10591344342E+04  0.10979559259E+04  0.46999998093E+01 0.  1.
       -5    1    3    3    0  502  0.71722167587E+02 -0.28031287190E+03 -0.28677383850E+01  0.28939538593E+03  0.46999998093E+01 0. -1.
</event>
<event>
 5   0  0.6092779E-03  0.9181165E+03  0.7818609E-02  0.9403214E-01
       -1   -1    0    0    0  501  0.00000000000E+00  0.00000000000E+00  0.41050387256E+03  0.41050387259E+03  0.50400001928E-02 0.  1.
        1   -1    0    0  501    0  0.00000000000E+00  0.00000000000E+00 -0.51335563371E+03  0.51335563373E+03  0.50400001928E-02 0. -1.
    10030    2    1    2    0    0  0.00000000000E+00  0.00000000000E+00 -0.10285176114E+03  0.92385950632E+03  0.91811649732E+03 0.  0.
        2    1    3    3  502    0  0.11274045393E+03 -0.16890949701E+03 -0.46569718685E+03  0.50804989714E+03  0.25500000920E-02 0. -1.
       -2    1    3    3    0  502 -0.11274045393E+03  0.16890949701E+03  0.36284542571E+03  0.41580960919E+03  0.25500000920E-02 0.  1.
</event>
<event>
 5   0  0.1028978E-02  0.8978425E+03  0.7818609E-02  0.9428282E-01
        2   -1    0    0  501    0  0.00000000000E+00  0.00000000000E+00  0.77065554418E+03  0.77065554418E+03  0.25500000920E-02 0.  1.
       -2   -1    0    0    0  501  0.00000000000E+00  0.00000000000E+00 -0.26150500240E+03  0.26150500241E+03  0.25500000920E-02 0. -1.
    10030    2    1    2    0    0  0.00000000000E+00  0.00000000000E+00  0.50915054178E+03  0.10321605466E+04  0.89784248047E+03 0.  0.
        3    1    3    3  502    0  0.19610761177E+03  0.32670773791E+03 -0.18280343339E+02  0.38148436739E+03  0.10100000352E+00 0. -1.
       -3    1    3    3    0  502 -0.19610761177E+03 -0.32670773791E+03  0.52743088512E+03  0.65067617920E+03  0.10100000352E+00 0.  1.
</event>
<event>
 5   0  0.3996375E-03  0.8991953E+03  0.7818609E-02  0.9426588E-01
       -4   -1    0    0    0  501  0.00000000000E+00  0.00000000000E+00  0.53580622126E+03  0.53580772637E+03  0.12699999809E+01 0. -1.
        4   -1    0    0  501    0  0.00000000000E+00  0.00000000000E+00 -0.37725654900E+03  0.37725868666E+03  0.12699999809E+01 0.  1.
    10030    2    1    2    0    0  0.00000000000E+00  0.00000000000E+00  0.15854967226E+03  0.91306641304E+03  0.89919534921E+03 0.  0.
        4    1    3    3  502    0  0.34516659196E+03  0.93296441617E+02 -0.19749584514E+03  0.40847328428E+03  0.12699999809E+01 0.  1.
       -4    1    3    3    0  502 -0.34516659196E+03 -0.93296441617E+02  0.35604551741E+03  0.50459312876E+03  0.12699999809E+01 0. -1.
</event>
<event>
 5   0  0.1003252E-02  0.9177054E+03  0.7818609E-02  0.9403716E-01
        2   -1    0    0  501    0  0.00000000000E+00  0.00000000000E+00  0.21160680897E+04  0.21160680897E+04  0.25500000920E-02 0. -1.
       -2   -1    0    0    0  501  0.00000000000E+00  0.00000000000E+00 -0.99498586386E+02  0.99498586419E+02  0.25500000920E-02 0.  1.
    10030    2    1    2    0    0  0.00000000000E+00  0.00000000000E+00  0.20165695033E+04  0.22155666761E+04  0.91770536374E+03 0.  0.
        2    1    3    3  502    0  0.29289550917E+03  0.34456439338E+03  0.11958109754E+04  0.12784663818E+04  0.25500000920E-02 0. -1.
       -2    1    3    3    0  502 -0.29289550917E+03 -0.34456439338E+03  0.82075852786E+03  0.93710029427E+03  0.25500000920E-02 0.  1.
</event>
<event>
 5   0  0.3996375E-03  0.8924022E+03  0.7818609E-02  0.9435129E-01
        3   -1    0    0  501    0  0.00000000000E+00  0.00000000000E+00  0.49995462125E+03  0.49995463145E+03  0.10100000352E+00 0.  1.
       -3   -1    0    0    0  501  0.00000000000E+00  0.00000000000E+00 -0.39822692056E+03  0.39822693337E+03  0.10100000352E+00 0. -1.
    10030    2    1    2    0    0  0.00000000000E+00  0.00000000000E+00  0.10172770068E+03  0.89818156482E+03  0.89240215055E+03 0.  0.
        4    1    3    3  502    0 -0.44599953023E+03 -0.78505533191E+01  0.61730742279E+02  0.45032156244E+03  0.12699999809E+01 0. -1.
       -4    1    3    3    0  502  0.44599953023E+03  0.78505533191E+01  0.39996958405E+02  0.44786000238E+03  0.12699999809E+01 0.  1.
</event>
<event>
 5   0  0.1041727E-02  0.9142540E+03  0.7818609E-02  0.9407937E-01
       -2   -1    0    0    0  501  0.00000000000E+00  0.00000000000E+00  0.13361118291E+03  0.13361118293E+03  0.25500000920E-02 0.  1.
        2   -1    0    0  501    0  0.00000000000E+00  0.00000000000E+00 -0.15639791970E+04  0.15639791970E+04  0.25500000920E-02 0. -1.
    10030    2    1    2    0    0  0.00000000000E+00  0.00000000000E+00 -0.14303680141E+04  0.16975903800E+04  0.91425403599E+03 0.  0.
        4    1    3    3  502    0  0.27430194908E+03  0.21019036804E+02 -0.37310381395E+02  0.27762751419E+03  0.12699999809E+01 0.  1.
       -4    1    3    3    0  502 -0.27430194908E+03 -0.21019036804E+02 -0.13930576327E+04  0.14199628658E+04  0.12699999809E+01 0. -1.
</event>
<event>
 5   0  0.1033749E-02  0.8989250E+03  0.7818609E-02  0.9426926E-01
       -2   -1    0    0    0  501  0.00000000000E+00  0.00000000000E+00  0.18047912369E+03  0.18047912371E+03  0.25500000920E-02 0. -1.
        2   -1    0    0  501    0  0.00000000000E+00  0.00000000000E+00 -0.11193347675E+04  0.11193347675E+04  0.25500000920E-02 0.  1.
    10030    2    1    2    0    0  0.00000000000E+00  0.00000000000E+00 -0.93885564385E+03  0.12998138913E+04  0.89892504243E+03 0.  0.
        5    1    3    3  502    0  0.42795154595E+03 -0.10133637954E+03 -0.60338754069E+03  0.74666605772E+03  0.46999998093E+01 0.  1.
       -5    1    3    3    0  502 -0.42795154595E+03  0.10133637954E+03 -0.33546810316E+03  0.55314783353E+03  0.46999998093E+01 0. -1.
</event>
<event>
 5   0  0.6137243E-03  0.8965061E+03  0.7818609E-02  0.9429960E-01
        1   -1    0    0  501    0  0.00000000000E+00  0.00000000000E+00  0.88813375311E+03  0.88813375312E+03  0.50400001928E-02 0.  1.
       -1   -1    0    0    0  501  0.00000000000E+00  0.00000000000E+00 -0.22623932603E+03  0.22623932609E+03  0.50400001928E-02 0. -1.
    10030    2    1    2    0    0  0.00000000000E+00  0.00000000000E+00  0.66189442707E+03  0.11143730792E+04  0.89650606640E+03 0.  0.
        4    1    3    3  502    0 -0.43196984666E+03 -0.25306665883E+02  0.18550459563E+03  0.47079926047E+03  0.12699999809E+01 0. -1.
       -4    1    3    3    0  502  0.43196984666E+03  0.25306665883E+02  0.47638983144E+03  0.64357381874E+03  0.12699999809E+01 0.  1.
</event>
<event>
 5   0  0.3996375E-03  0.8968556E+03  0.7818609E-02  0.9429521E-01
       -4   -1    0    0    0  501  0.00000000000E+00  0.00000000000E+00  0.19270971437E+03  0.19271389912E+03  0.12699999809E+01 0. -1.
        4   -1    0    0  501    0  0.00000000000E+00  0.00000000000E+00 -0.10434577139E+04  0.10434584868E+04  0.12699999809E+01 0.  1.
    10030    2    1    2    0    0  0.00000000000E+00  0.00000000000E+00 -0.85074799953E+03  0.12361723859E+04  0.89685562323E+03 0.  0.
        3    1    3    3  502    0 -0.26173035079E+03 -0.35499134639E+03 -0.53706091472E+03  0.69495040748E+03  0.10100000352E+00 0. -1.
       -3    1    3    3    0  502  0.26173035079E+03  0.35499134639E+03 -0.31368708482E+03  0.54122197841E+03  0.10100000352E+00 0.  1.
</event>
<event>
 5   0  0.1033749E-02  0.8915864E+03  0.7818609E-02  0.9436160E-01
        2   -1    0    0  501    0  0.00000000000E+00  0.00000000000E+00  0.12324334381E+04  0.12324334381E+04  0.25500000920E-02 0. -1.
       -2   -1    0    0    0  501  0.00000000000E+00  0.00000000000E+00 -0.16125137112E+03  0.16125137114E+03  0.25500000920E-02 0.  1.
    10030    2    1    2    0    0  0.00000000000E+00  0.00000000000E+00  0.10711820670E+04  0.13936848093E+04  0.89158641022E+03 0.  0.
        5    1    3    3  502    0 -0.12622724728E+03  0.27944400343E+03  0.29826972845E+02  0.30811362728E+03  0.46999998093E+01 0.  1.
       -5    1    3    3    0  502  0.12622724728E+03 -0.27944400343E+03  0.10413550942E+04  0.10855711820E+04  0.46999998093E+01 0. -1.
</event>
<event>
 5   0  0.6015709E-03  0.8994430E+03  0.7818609E-02  0.9426278E-01
        1   -1    0    0  501    0  0.00000000000E+00  0.00000000000E+00  0.18520648187E+04  0.18520648187E+04  0.50400001928E-02 0. -1.
       -1   -1    0    0    0  501  0.00000000000E+00  0.00000000000E+00 -0.10920212555E+03  0.10920212567E+03  0.50400001928E-02 0.  1.
    10030    2    1    2    0    0  0.00000000000E+00  0.00000000000E+00  0.17428626931E+04  0.19612669444E+04  0.89944297203E+03 0.  0.
        3    1    3    3  502    0  0.37617607980E+03  0.47779600766E+02  0.34421930849E+03  0.51213111192E+03  0.10100000352E+00 0.  1.
       -3    1    3    3    0  502 -0.37617607980E+03 -0.47779600766E+02  0.13986433846E+04  0.14491358324E+04  0.10100000352E+00 0. -1.
</event>
<event>
 5   0  0.1017079E-02  0.9000742E+03  0.7818609E-02  0.9425489E-01
       -2   -1    0    0    0  501  0.00000000000E+00  0.00000000000E+00  0.28905391667E+03  0.28905391668E+03  0.25500000920E-02 0.  1.
        2   -1    0    0  501    0  0.00000000000E+00  0.00000000000E+00 -0.70067683598E+03  0.70067683599E+03  0.25500000920E-02 0. -1.
    10030    2    1    2    0    0  0.00000000000E+00  0.00000000000E+00 -0.41162291931E+03  0.98973075267E+03  0.90007418309E+03 0.  0.
        1    1    3    3  502    0  0.84800255772E+02  0.37050221020E+03  0.59170443938E+02  0.38466103598E+03  0.50400001928E-02 0.  1.
       -1    1    3    3    0  502 -0.84800255772E+02 -0.37050221020E+03 -0.47079336325E+03  0.60506971668E+03  0.50400001928E-02 0. -1.
</event>
<event>
 5   0  0.6288003E-03  0.8973091E+03  0.7818609E-02  0.9428951E-01
        1   -1    0    0  501    0  0.00000000000E+00  0.00000000000E+00  0.11523498359E+04  0.11523498359E+04  0.50400001928E-02 0. -1.
       -1   -1    0    0    0  501  0.00000000000E+00  0.00000000000E+00 -0.17467863833E+03  0.17467863841E+03  0.50400001928E-02 0.  1.
    10030    2    1    2    0    0  0.00000000000E+00  0.00000000000E+00  0.97767119754E+03  0.13270284743E+04  0.89730908893E+03 0.  0.
        1    1    3    3  502    0 -0.30663940155E+03  0.61749960354E+02  0.13167884998E+02  0.31307215368E+03  0.50400001928E-02 0.  1.
       -1    1    3    3    0  502  0.30663940155E+03 -0.61749960354E+02  0.96450331255E+03  0.10139563206E+04  0.50400001928E-02 0. -1.
</event>
<event>
 5   0  0.1017079E-02  0.8826347E+03  0.7818609E-02  0.9447553E-01
        2   -1    0    0  501    0  0.00000000000E+00  0.00000000000E+00  0.64077280370E+03  0.64077280370E+03  0.25500000920E-02 0. -1.
       -2   -1    0    0    0  501  0.00000000000E+00  0.00000000000E+00 -0.30394707606E+03  0.30394707607E+03  0.25500000920E-02 0.  1.
    10030    2    1    2    0    0  0.00000000000E+00  0.00000000000E+00  0.33682572763E+03  0.94471987978E+03  0.88263473784E+03 0.  0.
        1    1    3    3  502    0 -0.68364368447E+02 -0.42707550748E+03  0.26229732756E+03  0.50583303968E+03  0.50400001928E-02 0.  1.
       -1    1    3    3    0  502  0.68364368447E+02  0.42707550748E+03  0.74528400069E+02  0.43888684009E+03  0.50400001928E-02 0. -1.
</event>
<event>
 5   0  0.1017079E-02  0.9005325E+03  0.7818609E-02  0.9424916E-01
        2   -1    0    0  501    0  0.00000000000E+00  0.00000000000E+00  0.14852270095E+04  0.14852270095E+04  0.25500000920E-02 0.  1.
       -2   -1    0    0    0  501  0.00000000000E+00  0.00000000000E+00 -0.13650418928E+03  0.13650418931E+03  0.25500000920E-02 0. -1.
    10030    2    1    2    0    0  0.00000000000E+00  0.00000000000E+00  0.13487228202E+04  0.16217311988E+04  0.90053252879E+03 0.  0.
        1    1    3    3  502    0 -0.82894988951E+02 -0.31259993572E+03  0.12385487195E+04  0.12800754781E+04  0.50400001928E-02 0.  1.
       -1    1    3    3    0  502  0.82894988951E+02  0.31259993572E+03  0.11017410071E+03  0.34165572071E+03  0.50400001928E-02 0. -1.
</event>
<event>
 5   0  0.1033749E-02  0.9030077E+03  0.7818609E-02  0.9421829E-01
       -2   -1    0    0    0  501  0.00000000000E+00  0.00000000000E+00  0.76581874115E+02  0.76581874158E+02  0.25500000920E-02 0. -1.
        2   -1    0    0  501    0  0.00000000000E+00  0.00000000000E+00 -0.26619318034E+04  0.26619318034E+04  0.25500000920E-02 0.  1.
    10030    2    1    2    0    0  0.00000000000E+00  0.00000000000E+00 -0.25853499293E+04  0.27385136775E+04  0.90300769948E+03 0.  0.
        5    1    3    3  502    0  0.23191378664E+03  0.10891420746E+03 -0.16532807842E+03  0.30496191980E+03  0.46999998093E+01 0. -1.
       -5    1    3    3    0  502 -0.23191378664E+03 -0.10891420746E+03 -0.24200218508E+04  0.24335517577E+04  0.46999998093E+01 0.  1.
</event>
<event>
 5   0  0.1028978E-02  0.8934220E+03  0.7818609E-02  0.9433842E-01
        2   -1    0    0  501    0  0.00000000000E+00  0.00000000000E+00  0.30338219719E+03  0.30338219720E+03  0.25500000920E-02 0.  1.
       -2   -1    0    0    0  501  0.00000000000E+00  0.00000000000E+00 -0.65775357951E+03  0.65775357951E+03  0.25500000920E-02 0. -1.
    10030    2    1    2    0    0  0.00000000000E+00  0.00000000000E+00 -0.35437138232E+03  0.96113577671E+03  0.89342201936E+03 0.  0.
        3    1    3    3  502    0 -0.35148544262E+03  0.41211098854E+02 -0.47044562355E+03  0.58869301504E+03  0.10100000352E+00 0. -1.
       -3    1    3    3    0  502  0.35148544262E+03 -0.41211098854E+02  0.11607424123E+03  0.37244276167E+03  0.10100000352E+00 0.  1.
</event>
<event>
 5   0  0.6092779E-03  0.8995756E+03  0.7818609E-02  0.9426112E-01
       -1   -1    0    0    0  501  0.00000000000E+00  0.00000000000E+00  0.17863628173E+03  0.17863628180E+03  0.50400001928E-02 0. -1.
        1   -1    0    0  501    0  0.00000000000E+00  0.00000000000E+00 -0.11325195145E+04  0.11325195145E+04  0.50400001928E-02 0.  1.
    10030    2    1    2    0    0  0.00000000000E+00  0.00000000000E+00 -0.95388323280E+03  0.13111557963E+04  0.89957562241E+03 0.  0.
        2    1    3    3  502    0 -0.40567337068E+02 -0.37518302804E+03 -0.12021634145E+03  0.39605552909E+03  0.25500000920E-02 0. -1.
       -2    1    3    3    0  502  0.40567337068E+02  0.37518302804E+03 -0.83366689135E+03  0.91510026724E+03  0.25500000920E-02 0.  1.
</event>
<event>
 5   0  0.6015709E-03  0.9059209E+03  0.7818609E-02  0.9418210E-01
        1   -1    0    0  501    0  0.00000000000E+00  0.00000000000E+00  0.10057395400E+04  0.10057395400E+04  0.50400001928E-02 0. -1.
       -1   -1    0    0    0  501  0.00000000000E+00  0.00000000000E+00 -0.20400229726E+03  0.20400229732E+03  0.50400001928E-02 0.  1.
    10030    2    1    2    0    0  0.00000000000E+00  0.00000000000E+00  0.80173724272E+03  0.12097418373E+04  0.90592091629E+03 0.  0.
        3    1    3    3  502    0 -0.75412423301E+02  0.11908840637E+02 -0.19534835531E+03  0.20973756029E+03  0.10100000352E+00 0.  1.
       -3    1    3    3    0  502  0.75412423301E+02 -0.11908840637E+02  0.99708559803E+03  0.10000042770E+04  0.10100000352E+00 0. -1.
</event>
<event>
 5   0  0.3996375E-03  0.9418358E+03  0.7818609E-02  0.9374744E-01
       -3   -1    0    0    0  501  0.00000000000E+00  0.00000000000E+00  0.20745153161E+03  0.20745155619E+03  0.10100000352E+00 0. -1.
        3   -1    0    0  501    0  0.00000000000E+00  0.00000000000E+00 -0.10689902502E+04  0.10689902549E+04  0.10100000352E+00 0.  1.
    10030    2    1    2    0    0  0.00000000000E+00  0.00000000000E+00 -0.86153871855E+03  0.12764418111E+04  0.94183583156E+03 0.  0.
        4    1    3    3  502    0  0.42177107343E+02  0.40300699340E+03 -0.75594526998E+03  0.85769948654E+03  0.12699999809E+01 0.  1.
       -4    1    3    3    0  502 -0.42177107343E+02 -0.40300699340E+03 -0.10559344857E+03  0.41874232458E+03  0.12699999809E+01 0. -1.
</event>
<event>
 5   0  0.6092779E-03  0.9255389E+03  0.7818609E-02  0.9394208E-01
        1   -1    0    0  501    0  0.00000000000E+00  0.00000000000E+00  0.61405255797E+03  0.61405255799E+03  0.50400001928E-02 0. -1.
       -1   -1    0    0    0  501  0.00000000000E+00  0.00000000000E+00 -0.34875774145E+03  0.34875774148E+03  0.50400001928E-02 0.  1.
    10030    2    1    2    0    0  0.00000000000E+00  0.00000000000E+00  0.26529481652E+03  0.96281029948E+03  0.92553894197E+03 0.  0.
        2    1    3    3  502    0 -0.38516367436E+03 -0.15105467187E+02 -0.13374365910E+03  0.40800318325E+03  0.25500000920E-02 0.  1.
       -2    1    3    3    0  502  0.38516367436E+03  0.15105467187E+02  0.39903847562E+03  0.55480711623E+03  0.25500000920E-02 0. -1.
</event>
<event>
 5   0  0.6288003E-03  0.9907972E+03  0.7818609E-02  0.9318696E-01
       -1   -1    0    0    0  501  0.00000000000E+00  0.00000000000E+00  0.80990526383E+03  0.80990526385E+03  0.50400001928E-02 0.  1.
        1   -1    0    0  501    0  0.00000000000E+00  0.00000000000E+00 -0.30302284024E+03  0.30302284028E+03  0.50400001928E-02 0. -1.
    10030    2    1    2    0    0  0.00000000000E+00  0.00000000000E+00  0.50688242359E+03  0.11129281041E+04  0.99079724143E+03 0.  0.
        1    1    3    3  502    0  0.33333812158E+03  0.55248609040E+02  0.66038748408E+03  0.74180748261E+03  0.50400001928E-02 0.  1.
       -1    1    3    3    0  502 -0.33333812158E+03 -0.55248609040E+02 -0.15350506049E+03  0.37112062152E+03  0.50400001928E-02 0. -1.
</event>
<event>
 5   0  0.1017079E-02  0.9177414E+03  0.7818609E-02  0.9403672E-01
       -2   -1    0    0    0  501  0.00000000000E+00  0.00000000000E+00  0.13886463406E+03  0.13886463408E+03  0.25500000920E-02 0. -1.
        2   -1    0    0  501    0  0.00000000000E+00  0.00000000000E+00 -0.15163135290E+04  0.15163135290E+04  0.25500000920E-02 0.  1.
    10030    2    1    2    0    0  0.00000000000E+00  0.00000000000E+00 -0.13774488950E+04  0.16551781631E+04  0.91774140877E+03 0.  0.
        1    1    3    3  502    0  0.44778757490E+03  0.87868168090E+02 -0.77574000162E+03  0.90000393185E+03  0.50400001928E-02 0. -1.
       -1    1    3    3    0  502 -0.44778757490E+03 -0.87868168090E+02 -0.60170889334E+03  0.75517423125E+03  0.50400001928E-02 0.  1.
</event>
<event>
 5   0  0.6015709E-03  0.9246998E+03  0.7818609E-02  0.9395222E-01
        1   -1    0    0  501    0  0.00000000000E+00  0.00000000000E+00  0.14545207044E+04  0.14545207044E+04  0.50400001928E-02 0.  1.
       -1   -1    0    0    0  501  0.00000000000E+00  0.00000000000E+00 -0.14696759780E+03  0.14696759789E+03  0.50400001928E-02 0. -1.
    10030    2    1    2    0    0  0.00000000000E+00  0.00000000000E+00  0.13075531066E+04  0.16014883023E+04  0.92469976521E+03 0.  0.
        3    1    3    3  502    0  0.10173866408E+03  0.31547241594E+03  0.12120125592E+04  0.12565222063E+04  0.10100000352E+00 0.  1.
       -3    1    3    3    0  502 -0.10173866408E+03 -0.31547241594E+03  0.95540547366E+02  0.34496609599E+03  0.10100000352E+00 0. -1.
</event>
<event>
 5   0  0.1003252E-02  0.8990203E+03  0.7818609E-02  0.9426807E-01
       -2   -1    0    0    0  501  0.00000000000E+00  0.00000000000E+00  0.45376194423E+03  0.45376194423E+03  0.25500000920E-02 0.  1.
        2   -1    0    0  501    0  0.00000000000E+00  0.00000000000E+00 -0.44529818213E+03  0.44529818214E+03  0.25500000920E-02 0. -1.
    10030    2    1    2    0    0  0.00000000000E+00  0.00000000000E+00  0.84637620975E+01  0.89906012637E+03  0.89902028651E+03 0.  0.
        2    1    3    3  502    0  0.24904471689E+03  0.11410900587E+02 -0.36982465116E+03  0.44600869080E+03  0.25500000920E-02 0. -1.
       -2    1    3    3    0  502 -0.24904471689E+03 -0.11410900587E+02  0.37828841325E+03  0.45305143557E+03  0.25500000920E-02 0.  1.
</event>
<event>
 5   0  0.6211218E-03  0.9116046E+03  0.7818609E-02  0.9411190E-01
        1   -1    0    0  501    0  0.00000000000E+00  0.00000000000E+00  0.25747703153E+03  0.25747703158E+03  0.50400001928E-02 0. -1.
       -1   -1    0    0    0  501  0.00000000000E+00  0.00000000000E+00 -0.80689037621E+03  0.80689037622E+03  0.50400001928E-02 0.  1.
    10030    2    1    2    0    0  0.00000000000E+00  0.00000000000E+00 -0.54941334468E+03  0.10643674078E+04  0.91160460480E+03 0.  0.
        5    1    3    3  502    0 -0.12179312993E+03  0.42808977050E+03 -0.16007457300E+03  0.47301202630E+03  0.46999998093E+01 0. -1.
       -5    1    3    3    0  502  0.12179312993E+03 -0.42808977050E+03 -0.38933877168E+03  0.59135538151E+03  0.46999998093E+01 0.  1.
</event>
<event>
 5   0  0.1041727E-02  0.9116833E+03  0.7818609E-02  0.9411093E-01
       -2   -1    0    0    0  501  0.00000000000E+00  0.00000000000E+00  0.77587969531E+03  0.77587969532E+03  0.25500000920E-02 0. -1.
        2   -1    0    0  501    0  0.00000000000E+00  0.00000000000E+00 -0.26781419464E+03  0.26781419465E+03  0.25500000920E-02 0.  1.
    10030    2    1    2    0    0  0.00000000000E+00  0.00000000000E+00  0.50806550067E+03  0.10436938900E+04  0.91168326901E+03 0.  0.
        4    1    3    3  502    0  0.96108401556E+02 -0.12701922932E+03  0.74298282519E+03  0.75986564661E+03  0.12699999809E+01 0. -1.
       -4    1    3    3    0  502 -0.96108401556E+02  0.12701922932E+03 -0.23491732452E+03  0.28382824336E+03  0.12699999809E+01 0.  1.
</event>
<event>
 5   0  0.1017079E-02  0.8961481E+03  0.7818609E-02  0.9430409E-01
        2   -1    0    0  501    0  0.00000000000E+00  0.00000000000E+00  0.10601584151E+04  0.10601584151E+04  0.25500000920E-02 0. -1.
       -2   -1    0    0    0  501  0.00000000000E+00  0.00000000000E+00 -0.18937768965E+03  0.18937768967E+03  0.25500000920E-02 0.  1.
    10030    2    1    2    0    0  0.00000000000E+00  0.00000000000E+00  0.87078072540E+03  0.12495361047E+04  0.89614809339E+03 0.  0.
        1    1    3    3  502    0 -0.13164378038E+03  0.15784040102E+03  0.99055295940E+03  0.10116515420E+04  0.50400001928E-02 0. -1.
       -1    1    3    3    0  502  0.13164378038E+03 -0.15784040102E+03 -0.11977223399E+03  0.23788456269E+03  0.50400001928E-02 0.  1.
</event>
<event>
 5   0  0.1017079E-02  0.8821201E+03  0.7818609E-02  0.9448212E-01
        2   -1    0    0  501    0  0.00000000000E+00  0.00000000000E+00  0.83472262545E+03  0.83472262545E+03  0.25500000920E-02 0. -1.
       -2   -1    0    0    0  501  0.00000000000E+00  0.00000000000E+00 -0.23305224744E+03  0.23305224745E+03  0.25500000920E-02 0.  1.
    10030    2    1    2    0    0  0.00000000000E+00  0.00000000000E+00  0.60167037801E+03  0.10677748729E+04  0.88212013663E+03 0.  0.
        1    1    3    3  502    0  0.33561212226E+03  0.24935169229E+03  0.47082773123E+03  0.62967492849E+03  0.50400001928E-02 0. -1.
       -1    1    3    3    0  502 -0.33561212226E+03 -0.24935169229E+03  0.13084264678E+03  0.43809994442E+03  0.50400001928E-02 0.  1.
</event>
<event>
 5   0  0.6137243E-03  0.9048131E+03  0.7818609E-02  0.9419585E-01
       -1   -1    0    0    0  501  0.00000000000E+00  0.00000000000E+00  0.27303163468E+03  0.27303163473E+03  0.50400001928E-02 0. -1.
        1   -1    0    0  501    0  0.00000000000E+00  0.00000000000E+00 -0.74962631709E+03  0.74962631710E+03  0.50400001928E-02 0.  1.
    10030    2    1    2    0    0  0.00000000000E+00  0.00000000000E+00 -0.47659468240E+03  0.10226579518E+04  0.90481312720E+03 0.  0.
        4    1    3    3  502    0 -0.12530388617E+03  0.42124814240E+03 -0.35960252448E+03  0.56786147067E+03  0.12699999809E+01 0.  1.
       -4    1    3    3    0  502  0.12530388617E+03 -0.42124814240E+03 -0.11699215792E+03  0.45479648116E+03  0.12699999809E+01 0. -1.
</event>
<event>
 5   0  0.1041727E-02  0.9056681E+03  0.7818609E-02  0.9418524E-01
        2   -1    0    0  501    0  0.00000000000E+00  0.00000000000E+00  0.10959992767E+04  0.10959992767E+04  0.25500000920E-02 0. -1.
       -2   -1    0    0    0  501  0.00000000000E+00  0.00000000000E+00 -0.18709747356E+03  0.18709747358E+03  0.25500000920E-02 0.  1.
    10030    2    1    2    0    0  0.00000000000E+00  0.00000000000E+00  0.90890180310E+03  0.12830967502E+04  0.90566814166E+03 0.  0.
        4    1    3    3  502    0  0.34312948509E+03 -0.28377821400E+03  0.57118520080E+03  0.72423895559E+03  0.12699999809E+01 0.  1.
       -4    1    3    3    0  502 -0.34312948509E+03  0.28377821400E+03  0.33771660231E+03  0.55885779466E+03  0.12699999809E+01 0. -1.
</event>
<event>
 5   0  0.1041727E-02  0.8957213E+03  0.7818609E-02  0.9430946E-01
       -2   -1    0    0    0  501  0.00000000000E+00  0.00000000000E+00  0.25883518420E+03  0.25883518421E+03  0.25500000920E-02 0.  1.
        2   -1    0    0  501    0  0.00000000000E+00  0.00000000000E+00 -0.77492999236E+03  0.77492999237E+03  0.25500000920E-02 0. -1.
    10030    2    1    2    0    0  0.00000000000E+00  0.00000000000E+00 -0.51609480817E+03  0.10337651766E+04  0.89572126763E+03 0.  0.
        4    1    3    3  502    0 -0.19204192342E+03  0.24252181998E+03  0.11571584454E+03  0.33028579003E+03  0.12699999809E+01 0.  1.
       -4    1    3    3    0  502  0.19204192342E+03 -0.24252181998E+03 -0.63181065270E+03  0.70347938654E+03  0.12699999809E+01 0. -1.
</event>
<event>
 5   0  0.3996375E-03  0.9094481E+03  0.7818609E-02  0.9413847E-01
       -4   -1    0    0    0  501  0.00000000000E+00  0.00000000000E+00  0.47725443477E+03  0.47725612454E+03  0.12699999809E+01 0. -1.
        4   -1    0    0  501    0  0.00000000000E+00  0.00000000000E+00 -0.43325392653E+03  0.43325578790E+03  0.12699999809E+01 0.  1.
    10030    2    1    2    0    0  0.00000000000E+00  0.00000000000E+00  0.44000508242E+02  0.91051191244E+03  0.90944812825E+03 0.  0.
        3    1    3    3  502    0 -0.35073794221E+02  0.31482035331E+03 -0.30462043035E+03  0.43947200444E+03  0.10100000352E+00 0.  1.
       -3    1    3    3    0  502  0.35073794221E+02 -0.31482035331E+03  0.34862093860E+03  0.47103990800E+03  0.10100000352E+00 0. -1.
</event>
<event>
 5   0  0.1017079E-02  0.9036037E+03  0.7818609E-02  0.9421088E-01
       -2   -1    0    0    0  501  0.00000000000E+00  0.00000000000E+00  0.13288342383E+03  0.13288342385E+03  0.25500000920E-02 0.  1.
        2   -1    0    0  501    0  0.00000000000E+00  0.00000000000E+00 -0.15361202937E+04  0.15361202937E+04  0.25500000920E-02 0. -1.
    10030    2    1    2    0    0  0.00000000000E+00  0.00000000000E+00 -0.14032368699E+04  0.16690037176E+04  0.90360372745E+03 0.  0.
        1    1    3    3  502    0 -0.39317363707E+03 -0.12513904732E+03 -0.10415947366E+04  0.11203414146E+04  0.50400001928E-02 0. -1.
       -1    1    3    3    0  502  0.39317363707E+03  0.12513904732E+03 -0.36164213329E+03  0.54866230292E+03  0.50400001928E-02 0.  1.
</event>
<event>
 5   0  0.6211218E-03  0.8919033E+03  0.7818609E-02  0.9435760E-01
        1   -1    0    0  501    0  0.00000000000E+00  0.00000000000E+00  0.74323483051E+03  0.74323483052E+03  0.50400001928E-02 0. -1.
       -1   -1    0    0    0  501  0.00000000000E+00  0.00000000000E+00 -0.26757746897E+03  0.26757746901E+03  0.50400001928E-02 0.  1.
    10030    2    1    2    0    0  0.00000000000E+00  0.00000000000E+00  0.47565736154E+03  0.10108122995E+04  0.89190334639E+03 0.  0.
        5    1    3    3  502    0 -0.32234330472E+03  0.15697693310E+03  0.53832714136E+03  0.64681153728E+03  0.46999998093E+01 0. -1.
       -5    1    3    3    0  502  0.32234330472E+03 -0.15697693310E+03 -0.62669779823E+02  0.36400076226E+03  0.46999998093E+01 0.  1.
</event>
<event>
 5   0  0.6211218E-03  0.9162208E+03  0.7818609E-02  0.9405529E-01
       -1   -1    0    0    0  501  0.00000000000E+00  0.00000000000E+00  0.60661267140E+03  0.60661267142E+03  0.50400001928E-02 0. -1.
        1   -1    0    0  501    0  0.00000000000E+00  0.00000000000E+00 -0.34596232866E+03  0.34596232870E+03  0.50400001928E-02 0.  1.
    10030    2    1    2    0    0  0.00000000000E+00  0.00000000000E+00  0.26065034273E+03  0.95257500012E+03  0.91622078654E+03 0.  0.
        5    1    3    3  502    0 -0.18541358534E+03  0.41230055431E+03  0.53409357489E+02  0.45524124832E+03  0.46999998093E+01 0.  1.
       -5    1    3    3    0  502  0.18541358534E+03 -0.41230055431E+03  0.20724098524E+03  0.49733375179E+03  0.46999998093E+01 0. -1.
</event>
<event>
 5   0  0.6211218E-03  0.8887522E+03  0.7818609E-02  0.9439752E-01
        1   -1    0    0  501    0  0.00000000000E+00  0.00000000000E+00  0.15824900647E+04  0.15824900647E+04  0.50400001928E-02 0. -1.
       -1   -1    0    0    0  501  0.00000000000E+00  0.00000000000E+00 -0.12478443388E+03  0.12478443398E+03  0.50400001928E-02 0.  1.
    10030    2    1    2    0    0  0.00000000000E+00  0.00000000000E+00  0.14577056308E+04  0.17072744987E+04  0.88875221954E+03 0.  0.
        5    1    3    3  502    0 -0.32336639931E+02  0.37865647041E+03  0.28651985783E+03  0.47596438921E+03  0.46999998093E+01 0.  1.
       -5    1    3    3    0  502  0.32336639931E+02 -0.37865647041E+03  0.11711857730E+04  0.12313101095E+04  0.46999998093E+01 0. -1.
</event>
<event>
 5   0  0.6092779E-03  0.9028434E+03  0.7818609E-02  0.9422034E-01
        1   -1    0    0  501    0  0.00000000000E+00  0.00000000000E+00  0.52613850023E+03  0.52613850026E+03  0.50400001928E-02 0.  1.
       -1   -1    0    0    0  501  0.00000000000E+00  0.00000000000E+00 -0.38731543480E+03  0.38731543483E+03  0.50400001928E-02 0. -1.
    10030    2    1    2    0    0  0.00000000000E+00  0.00000000000E+00  0.13882306543E+03  0.91345393509E+03  0.90284342388E+03 0.  0.
        2    1    3    3  502    0  0.12085719002E+03 -0.22726583800E+02  0.50886462037E+03  0.52351328528E+03  0.25500000920E-02 0.  1.
       -2    1    3    3    0  502 -0.12085719002E+03  0.22726583800E+02 -0.37004155494E+03  0.38994064981E+03  0.25500000920E-02 0. -1.
</event>
<event>
 5   0  0.1028978E-02  0.8967990E+03  0.7818609E-02  0.9429592E-01
       -2   -1    0    0    0  501  0.00000000000E+00  0.00000000000E+00  0.50346727055E+03  0.50346727056E+03  0.25500000920E-02 0. -1.
        2   -1    0    0  501    0  0.00000000000E+00  0.00000000000E+00 -0.39935488609E+03  0.39935488609E+03  0.25500000920E-02 0.  1.
    10030    2    1    2    0    0  0.00000000000E+00  0.00000000000E+00  0.10411238447E+03  0.90282215665E+03  0.89679900644E+03 0.  0.
        3    1    3    3  502    0  0.10777868475E+03  0.30969472853E+03 -0.25583285932E+03  0.41590567666E+03  0.10100000352E+00 0.  1.
       -3    1    3    3    0  502 -0.10777868475E+03 -0.30969472853E+03  0.35994524379E+03  0.48691648000E+03  0.10100000352E+00 0. -1.
</event>
<event>
 5   0  0.1033749E-02  0.9064874E+03  0.7818609E-02  0.9417508E-01
       -2   -1    0    0    0  501  0.00000000000E+00  0.00000000000E+00  0.14691149600E+03  0.14691149602E+03  0.25500000920E-02 0. -1.
        2   -1    0    0  501    0  0.00000000000E+00  0.00000000000E+00 -0.13983238518E+04  0.13983238518E+04  0.25500000920E-02 0.  1.
    10030    2    1    2    0    0  0.00000000000E+00  0.00000000000E+00 -0.12514123558E+04  0.15452353479E+04  0.90648739426E+03 0.  0.
        5    1    3    3  502    0 -0.39908205104E+03  0.20323979846E+03 -0.50717712627E+03  0.67662665226E+03  0.46999998093E+01 0. -1.
       -5    1    3    3    0  502  0.39908205104E+03 -0.20323979846E+03 -0.74423522958E+03  0.86860869561E+03  0.46999998093E+01 0.  1.
</event>
<event>
 5   0  0.1003252E-02  0.8932144E+03  0.7818609E-02  0.9434104E-01
        2   -1    0    0  501    0  0.00000000000E+00  0.00000000000E+00  0.72929380503E+03  0.72929380503E+03  0.25500000920E-02 0.  1.
       -2   -1    0    0    0  501  0.00000000000E+00  0.00000000000E+00 -0.27349470428E+03  0.27349470429E+03  0.25500000920E-02 0. -1.
    10030    2    1    2    0    0  0.00000000000E+00  0.00000000000E+00  0.45579910075E+03  0.10027885093E+04  0.89321440549E+03 0.  0.
        2    1    3    3  502    0 -0.34839711991E+03 -0.27581317258E+03  0.27816393454E+03  0.52424100738E+03  0.25500000920E-02 0.  1.
       -2    1    3    3    0  502  0.34839711991E+03  0.27581317258E+03  0.17763516621E+03  0.47854750194E+03  0.25500000920E-02 0. -1.
</event>
<event>
 5   0  0.6092779E-03  0.8563735E+03  0.7818609E-02  0.9481822E-01
       -1   -1    0    0    0  501  0.00000000000E+00  0.00000000000E+00  0.16096804943E+03  0.16096804951E+03  0.50400001928E-02 0. -1.
        1   -1    0    0  501    0  0.00000000000E+00  0.00000000000E+00 -0.11390079664E+04  0.11390079664E+04  0.50400001928E-02 0.  1.
    10030    2    1    2    0    0  0.00000000000E+00  0.00000000000E+00 -0.97803991692E+03  0.12999760159E+04  0.85637349489E+03 0.  0.
        2    1    3    3  502    0  0.22714837357E+03 -0.17910535911E+03 -0.96825844508E+03  0.10105441751E+04  0.25500000920E-02 0.  1.
       -2    1    3    3    0  502 -0.22714837357E+03  0.17910535911E+03 -0.97814718368E+01  0.28943184081E+03  0.25500000920E-02 0. -1.
</event>
<event>
 5   0  0.1017079E-02  0.8992080E+03  0.7818609E-02  0.9426572E-01
        2   -1    0    0  501    0  0.00000000000E+00  0.00000000000E+00  0.47955587920E+03  0.47955587921E+03  0.25500000920E-02 0. -1.
       -2   -1    0    0    0  501  0.00000000000E+00  0.00000000000E+00 -0.42152282639E+03  0.42152282640E+03  0.25500000920E-02 0.  1.
    10030    2    1    2    0    0  0.00000000000E+00  0.00000000000E+00  0.58033052810E+02  0.90107870560E+03  0.89920798399E+03 0.  0.
        1    1    3    3  502    0 -0.37093265123E+03 -0.18306811552E+03  0.20556131979E+03  0.46190953973E+03  0.50400001928E-02 0. -1.
       -1    1    3    3    0  502  0.37093265123E+03  0.18306811552E+03 -0.14752826698E+03  0.43916916588E+03  0.50400001928E-02 0.  1.
</event>
<event>
 5   0  0.3996375E-03  0.9017719E+03  0.7818609E-02  0.9423369E-01
        3   -1    0    0  501    0  0.00000000000E+00  0.00000000000E+00  0.23139856195E+03  0.23139858399E+03  0.10100000352E+00 0.  1.
       -3   -1    0    0    0  501  0.00000000000E+00  0.00000000000E+00 -0.87856254641E+03  0.87856255222E+03  0.10100000352E+00 0. -1.
    10030    2    1    2    0    0  0.00000000000E+00  0.00000000000E+00 -0.64716398447E+03  0.11099611362E+04  0.90177186755E+03 0.  0.
        1    1    3    3  502    0  0.23948062590E+01 -0.35365594724E+02  0.22968092140E+03  0.23240005608E+03  0.50400001928E-02 0.  1.
       -1    1    3    3    0  502 -0.23948062590E+01  0.35365594724E+02 -0.87684490587E+03  0.87756108013E+03  0.50400001928E-02 0. -1.
</event>
<event>
 5   0  0.3996375E-03  0.9002557E+03  0.7818609E-02  0.9425262E-01
       -4   -1    0    0    0  501  0.00000000000E+00  0.00000000000E+00  0.40738678105E+03  0.40738876061E+03  0.12699999809E+01 0. -1.
        4   -1    0    0  501    0  0.00000000000E+00  0.00000000000E+00 -0.49734914704E+03  0.49735076853E+03  0.12699999809E+01 0.  1.
    10030    2    1    2    0    0  0.00000000000E+00  0.00000000000E+00 -0.89962365987E+02  0.90473952914E+03  0.90025573495E+03 0.  0.
        1    1    3    3  502    0  0.26805463813E+03  0.35378907024E+03  0.30191779477E+02  0.44489497504E+03  0.50400001928E-02 0.  1.
       -1    1    3    3    0  502 -0.26805463813E+03 -0.35378907024E+03 -0.12015414546E+03  0.45984455410E+03  0.50400001928E-02 0. -1.
</event>
<event>
 5   0  0.6288003E-03  0.1075112E+04  0.7818609E-02  0.9229795E-01
       -1   -1    0    0    0  501  0.00000000000E+00  0.00000000000E+00  0.20179982025E+03  0.20179982032E+03  0.50400001928E-02 0. -1.
        1   -1    0    0  501    0  0.00000000000E+00  0.00000000000E+00 -0.14319453847E+04  0.14319453847E+04  0.50400001928E-02 0.  1.
    10030    2    1    2    0    0  0.00000000000E+00  0.00000000000E+00 -0.12301455645E+04  0.16337452051E+04  0.10751117548E+04 0.  0.
        1    1    3    3  502    0 -0.38309968580E+03 -0.12248768387E+03 -0.73108859033E+02  0.40879518986E+03  0.50400001928E-02 0. -1.
       -1    1    3    3    0  502  0.38309968580E+03  0.12248768387E+03 -0.11570367055E+04  0.12249500152E+04  0.50400001928E-02 0.  1.
</event>
<event>
 5   0  0.6015709E-03  0.8675636E+03  0.7818609E-02  0.9467062E-01
        1   -1    0    0  501    0  0.00000000000E+00  0.00000000000E+00  0.95282826153E+03  0.95282826154E+03  0.50400001928E-02 0. -1.
       -1   -1    0    0    0  501  0.00000000000E+00  0.00000000000E+00 -0.19748221347E+03  0.19748221354E+03  0.50400001928E-02 0.  1.
    10030    2    1    2    0    0  0.00000000000E+00  0.00000000000E+00  0.75534604806E+03  0.11503104751E+04  0.86756356352E+03 0.  0.
        3    1    3    3  502    0  0.22508871403E+03  0.16820820005E+03  0.81584075792E+03  0.86287605148E+03  0.10100000352E+00 0. -1.
       -3    1    3    3    0  502 -0.22508871403E+03 -0.16820820005E+03 -0.60494709858E+02  0.28743442359E+03  0.10100000352E+00 0.  1.
</event>
<event>
 5   0  0.6092779E-03  0.9078281E+03  0.7818609E-02  0.9415849E-01
       -1   -1    0    0    0  501  0.00000000000E+00  0.00000000000E+00  0.39772256527E+03  0.39772256530E+03  0.50400001928E-02 0.  1.
        1   -1    0    0  501    0  0.00000000000E+00  0.00000000000E+00 -0.51804439942E+03  0.51804439945E+03  0.50400001928E-02 0. -1.
    10030    2    1    2    0    0  0.00000000000E+00  0.00000000000E+00 -0.12032183416E+03  0.91576696475E+03  0.90782806189E+03 0.  0.
        2    1    3    3  502    0  0.42319567923E+03  0.12120686687E+03 -0.17181882117E+03  0.47255411839E+03  0.25500000920E-02 0. -1.
       -2    1    3    3    0  502 -0.42319567923E+03 -0.12120686687E+03  0.51496987015E+02  0.44321284635E+03  0.25500000920E-02 0.  1.
</event>
<event>
 5   0  0.6015709E-03  0.9044851E+03  0.7818609E-02  0.9419992E-01
       -1   -1    0    0    0  501  0.00000000000E+00  0.00000000000E+00  0.85045463599E+03  0.85045463601E+03  0.50400001928E-02 0.  1.
        1   -1    0    0  501    0  0.00000000000E+00  0.00000000000E+00 -0.24048702222E+03  0.24048702227E+03  0.50400001928E-02 0. -1.
    10030    2    1    2    0    0  0.00000000000E+00  0.00000000000E+00  0.60996761378E+03  0.10909416583E+04  0.90448505345E+03 0.  0.
        3    1    3    3  502    0  0.10763534020E+02 -0.37367890739E+02  0.84843431852E+03  0.84932503552E+03  0.10100000352E+00 0.  1.
       -3    1    3    3    0  502 -0.10763534020E+02  0.37367890739E+02 -0.23846670474E+03  0.24161662276E+03  0.10100000352E+00 0. -1.
</event>
<event>
 5   0  0.6137243E-03  0.9420178E+03  0.7818609E-02  0.9374529E-01
        1   -1    0    0  501    0  0.00000000000E+00  0.00000000000E+00  0.86718379423E+03  0.86718379424E+03  0.50400001928E-02 0.  1.
       -1   -1    0    0    0  501  0.00000000000E+00  0.00000000000E+00 -0.25582740995E+03  0.25582741000E+03  0.50400001928E-02 0. -1.
    10030    2    1    2    0    0  0.00000000000E+00  0.00000000000E+00  0.61135638427E+03  0.11230112042E+04  0.94201780040E+03 0.  0.
        4    1    3    3  502    0 -0.34884525209E+03  0.36746794138E+02  0.68040364928E+03  0.76550249877E+03  0.12699999809E+01 0.  1.
       -4    1    3    3    0  502  0.34884525209E+03 -0.36746794138E+02 -0.69047265003E+02  0.35750870547E+03  0.12699999809E+01 0. -1.
</event>
<event>
 5   0  0.6092779E-03  0.8588991E+03  0.7818609E-02  0.9478470E-01
       -1   -1    0    0    0  501  0.00000000000E+00  0.00000000000E+00  0.16646479332E+03  0.16646479340E+03  0.50400001928E-02 0. -1.
        1   -1    0    0  501    0  0.00000000000E+00  0.00000000000E+00 -0.11079033115E+04  0.11079033115E+04  0.50400001928E-02 0.  1.
    10030    2    1    2    0    0  0.00000000000E+00  0.00000000000E+00 -0.94143851820E+03  0.12743681049E+04  0.85889905304E+03 0.  0.
        2    1    3    3  502    0  0.27566878300E+03  0.19600801468E+03 -0.86331600097E+03  0.92721461231E+03  0.25500000920E-02 0.  1.
       -2    1    3    3    0  502 -0.27566878300E+03 -0.19600801468E+03 -0.78122517231E+02  0.34715349263E+03  0.25500000920E-02 0. -1.
</event>
<event>
 5   0  0.1003252E-02  0.8967670E+03  0.7818609E-02  0.9429632E-01
        2   -1    0    0  501    0  0.00000000000E+00  0.00000000000E+00  0.19118287297E+03  0.19118287299E+03  0.25500000920E-02 0. -1.
       -2   -1    0    0    0  501  0.00000000000E+00  0.00000000000E+00 -0.10515992588E+04  0.10515992588E+04  0.25500000920E-02 0.  1.
    10030    2    1    2    0    0  0.00000000000E+00  0.00000000000E+00 -0.86041638586E+03  0.12427821318E+04  0.89676700994E+03 0.  0.
        2    1    3    3  502    0 -0.23757680816E+03  0.21302207432E+03  0.63372754008E+01  0.31915717913E+03  0.25500000920E-02 0. -1.
       -2    1    3    3    0  502  0.23757680816E+03 -0.21302207432E+03 -0.86675366126E+03  0.92362495269E+03  0.25500000920E-02 0.  1.
</event>
<event>
 5   0  0.6092779E-03  0.8998084E+03  0.7818609E-02  0.9425821E-01
        1   -1    0    0  501    0  0.00000000000E+00  0.00000000000E+00  0.10089395403E+04  0.10089395403E+04  0.50400001928E-02 0. -1.
       -1   -1    0    0    0  501  0.00000000000E+00  0.00000000000E+00 -0.20062032556E+03  0.20062032562E+03  0.50400001928E-02 0.  1.
    10030    2    1    2    0    0  0.00000000000E+00  0.00000000000E+00  0.80831921471E+03  0.12095598659E+04  0.89980837757E+03 0.  0.
        2    1    3    3  502    0  0.44559309947E+03  0.62123734618E+02  0.40563850741E+03  0.60576824561E+03  0.25500000920E-02 0. -1.
       -2    1    3    3    0  502 -0.44559309947E+03 -0.62123734618E+02  0.40268070730E+03  0.60379162029E+03  0.25500000920E-02 0.  1.
</event>
<event>
 5   0  0.6211218E-03  0.9017932E+03  0.7818609E-02  0.9423343E-01
        1   -1    0    0  501    0  0.00000000000E+00  0.00000000000E+00  0.21155741192E+03  0.21155741198E+03  0.50400001928E-02 0. -1.
       -1   -1    0    0    0  501  0.00000000000E+00  0.00000000000E+00 -0.96100496994E+03  0.96100496996E+03  0.50400001928E-02 0.  1.
    10030    2    1    2    0    0  0.00000000000E+00  0.00000000000E+00 -0.74944755802E+03  0.11725623819E+04  0.90179315662E+03 0.  0.
        5    1    3    3  502    0  0.41595948927E+03 -0.80880756427E+02 -0.57498708670E+03  0.71428022046E+03  0.46999998093E+01 0.  1.
       -5    1    3    3    0  502 -0.41595948927E+03  0.80880756427E+02 -0.17446047132E+03  0.45828216148E+03  0.46999998093E+01 0. -1.
</event>
<event>
 5   0  0.3996375E-03  0.9034661E+03  0.7818609E-02  0.9421259E-01
       -3   -1    0    0    0  501  0.00000000000E+00  0.00000000000E+00  0.36342045663E+03  0.36342047066E+03  0.10100000352E+00 0.  1.
        3   -1    0    0  501    0  0.00000000000E+00  0.00000000000E+00 -0.56150589126E+03  0.56150590035E+03  0.10100000352E+00 0. -1.
    10030    2    1    2    0    0  0.00000000000E+00  0.00000000000E+00 -0.19808543464E+03  0.92492637101E+03  0.90346607705E+03 0.  0.
        4    1    3    3  502    0  0.19983803683E+03  0.69646187314E+01  0.31564356143E+03  0.37365253599E+03  0.12699999809E+01 0.  1.
       -4    1    3    3    0  502 -0.19983803683E+03 -0.69646187314E+01 -0.51372899607E+03  0.55127383502E+03  0.12699999809E+01 0. -1.
</event>
<event>
 5   0  0.1028978E-02  0.8958072E+03  0.7818609E-02  0.9430838E-01
        2   -1    0    0  501    0  0.00000000000E+00  0.00000000000E+00  0.82019673622E+03  0.82019673622E+03  0.25500000920E-02 0. -1.
       -2   -1    0    0    0  501  0.00000000000E+00  0.00000000000E+00 -0.24459698288E+03  0.24459698289E+03  0.25500000920E-02 0.  1.
    10030    2    1    2    0    0  0.00000000000E+00  0.00000000000E+00  0.57559975334E+03  0.10647937191E+04  0.89580722715E+03 0.  0.
        3    1    3    3  502    0  0.26497750779E+03 -0.35978119519E+03  0.25093188578E+03  0.51246698386E+03  0.10100000352E+00 0.  1.
       -3    1    3    3    0  502 -0.26497750779E+03  0.35978119519E+03  0.32466786756E+03  0.55232673525E+03  0.10100000352E+00 0. -1.
</event>
<event>
 5   0  0.1028978E-02  0.8956239E+03  0.7818609E-02  0.9431068E-01
       -2   -1    0    0    0  501  0.00000000000E+00  0.00000000000E+00  0.12810808964E+03  0.12810808967E+03  0.25500000920E-02 0. -1.
        2   -1    0    0  501    0  0.00000000000E+00  0.00000000000E+00 -0.15653619805E+04  0.15653619805E+04  0.25500000920E-02 0.  1.
    10030    2    1    2    0    0  0.00000000000E+00  0.00000000000E+00 -0.14372538909E+04  0.16934700702E+04  0.89562387853E+03 0.  0.
        3    1    3    3  502    0 -0.88888457852E+02  0.36682591656E+03 -0.11742853764E+04  0.12334539174E+04  0.10100000352E+00 0.  1.
       -3    1    3    3    0  502  0.88888457852E+02 -0.36682591656E+03 -0.26296851450E+03  0.46001615278E+03  0.10100000352E+00 0. -1.
</event>
<event>
 5   0  0.1041727E-02  0.9002255E+03  0.7818609E-02  0.9425300E-01
        2   -1    0    0  501    0  0.00000000000E+00  0.00000000000E+00  0.92894034733E+03  0.92894034734E+03  0.25500000920E-02 0. -1.
       -2   -1    0    0    0  501  0.00000000000E+00  0.00000000000E+00 -0.21809957288E+03  0.21809957289E+03  0.25500000920E-02 0.  1.
    10030    2    1    2    0    0  0.00000000000E+00  0.00000000000E+00  0.71084077446E+03  0.11470399202E+04  0.90022551173E+03 0.  0.
        4    1    3    3  502    0  0.26111042072E+03 -0.22720258088E+03 -0.11222234804E+02  0.34630509095E+03  0.12699999809E+01 0.  1.
       -4    1    3    3    0  502 -0.26111042072E+03  0.22720258088E+03  0.72206300926E+03  0.80073482927E+03  0.12699999809E+01 0. -1.
</event>
<event>
 5   0  0.1028978E-02  0.8612428E+03  0.7818609E-02  0.9475370E-01
       -2   -1    0    0    0  501  0.00000000000E+00  0.00000000000E+00  0.27066514271E+03  0.27066514272E+03  0.25500000920E-02 0.  1.
        2   -1    0    0  501    0  0.00000000000E+00  0.00000000000E+00 -0.68510773221E+03  0.68510773222E+03  0.25500000920E-02 0. -1.
    10030    2    1    2    0    0  0.00000000000E+00  0.00000000000E+00 -0.41444258950E+03  0.95577287494E+03  0.86124278138E+03 0.  0.
        3    1    3    3  502    0  0.31541587104E+03 -0.10331683438E+03  0.97252126914E+02  0.34586055913E+03  0.10100000352E+00 0.  1.
       -3    1    3    3    0  502 -0.31541587104E+03  0.10331683438E+03 -0.51169471642E+03  0.60991231581E+03  0.10100000352E+00 0. -1.
</event>
<event>
 5   0  0.1017079E-02  0.8879347E+03  0.7818609E-02  0.9440791E-01
       -2   -1    0    0    0  501  0.00000000000E+00  0.00000000000E+00  0.96486407618E+02  0.96486407651E+02  0.25500000920E-02 0. -1.
        2   -1    0    0  501    0  0.00000000000E+00  0.00000000000E+00 -0.20428475124E+04  0.20428475124E+04  0.25500000920E-02 0.  1.
    10030    2    1    2    0    0  0.00000000000E+00  0.00000000000E+00 -0.19463611048E+04  0.21393339201E+04  0.88793472243E+03 0.  0.
        1    1    3    3  502    0 -0.19282662797E+03 -0.30599319284E+03 -0.35283793105E+03  0.50528066274E+03  0.50400001928E-02 0. -1.
       -1    1    3    3    0  502  0.19282662797E+03  0.30599319284E+03 -0.15935231738E+04  0.16340532574E+04  0.50400001928E-02 0.  1.
</event>
<event>
 5   0  0.1028978E-02  0.8952460E+03  0.7818609E-02  0.9431544E-01
        2   -1    0    0  501    0  0.00000000000E+00  0.00000000000E+00  0.55546615320E+03  0.55546615320E+03  0.25500000920E-02 0. -1.
       -2   -1    0    0    0  501  0.00000000000E+00  0.00000000000E+00 -0.36071749420E+03  0.36071749421E+03  0.25500000920E-02 0.  1.
    10030    2    1    2    0    0  0.00000000000E+00  0.00000000000E+00  0.19474865900E+03  0.91618364741E+03  0.89524601959E+03 0.  0.
        3    1    3    3  502    0 -0.14902552766E+02 -0.19125956014E+02 -0.36004495286E+03  0.36086045302E+03  0.10100000352E+00 0.  1.
       -3    1    3    3    0  502  0.14902552766E+02  0.19125956014E+02  0.55479361186E+03  0.55532319439E+03  0.10100000352E+00 0. -1.
</event>
<event>
 5   0  0.1033749E-02  0.8977079E+03  0.7818609E-02  0.9428451E-01
        2   -1    0    0  501    0  0.00000000000E+00  0.00000000000E+00  0.85254625239E+03  0.85254625239E+03  0.25500000920E-02 0. -1.
       -2   -1    0    0    0  501  0.00000000000E+00  0.00000000000E+00 -0.23631545753E+03  0.23631545754E+03  0.25500000920E-02 0.  1.
    10030    2    1    2    0    0  0.00000000000E+00  0.00000000000E+00  0.61623079486E+03  0.10888617099E+04  0.89770787611E+03 0.  0.
        5    1    3    3  502    0 -0.12451276157E+03  0.12926926283E+03  0.80709321659E+03  0.82682254467E+03  0.46999998093E+01 0. -1.
       -5    1    3    3    0  502  0.12451276157E+03 -0.12926926283E+03 -0.19086242173E+03  0.26203916527E+03  0.46999998093E+01 0.  1.
</event>
<event>
 5   0  0.6015709E-03  0.8944109E+03  0.7818609E-02  0.9432595E-01
       -1   -1    0    0    0  501  0.00000000000E+00  0.00000000000E+00  0.29297441790E+03  0.29297441795E+03  0.50400001928E-02 0. -1.
        1   -1    0    0  501    0  0.00000000000E+00  0.00000000000E+00 -0.68262865791E+03  0.68262865792E+03  0.50400001928E-02 0.  1.
    10030    2    1    2    0    0  0.00000000000E+00  0.00000000000E+00 -0.38965424000E+03  0.97560307587E+03  0.89441094297E+03 0.  0.
        3    1    3    3  502    0  0.17199271582E+03 -0.40157913667E+03 -0.90514216960E+02  0.44613913858E+03  0.10100000352E+00 0.  1.
       -3    1    3    3    0  502 -0.17199271582E+03  0.40157913667E+03 -0.29914002304E+03  0.52946393729E+03  0.10100000352E+00 0. -1.
</event>
<event>
 5   0  0.6288003E-03  0.9099966E+03  0.7818609E-02  0.9413171E-01
       -1   -1    0    0    0  501  0.00000000000E+00  0.00000000000E+00  0.72187812376E+03  0.72187812377E+03  0.50400001928E-02 0. -1.
        1   -1    0    0  501    0  0.00000000000E+00  0.00000000000E+00 -0.28678449214E+03  0.28678449218E+03  0.50400001928E-02 0.  1.
    10030    2    1    2    0    0  0.00000000000E+00  0.00000000000E+00  0.43509363162E+03  0.10086626160E+04  0.90999659591E+03 0.  0.
        1    1    3    3  502    0  0.14899553351E+02 -0.71429781228E+02  0.71535070912E+03  0.71906247809E+03  0.50400001928E-02 0. -1.
       -1    1    3    3    0  502 -0.14899553351E+02  0.71429781228E+02 -0.28025707750E+03  0.28960013787E+03  0.50400001928E-02 0.  1.
</event>
<event>
 5   0  0.6015709E-03  0.8720332E+03  0.7818609E-02  0.9461233E-01
       -1   -1    0    0    0  501  0.00000000000E+00  0.00000000000E+00  0.30401400802E+03  0.30401400806E+03  0.50400001928E-02 0.  1.
        1   -1    0    0  501    0  0.00000000000E+00  0.00000000000E+00 -0.62533453196E+03  0.62533453198E+03  0.50400001928E-02 0. -1.
    10030    2    1    2    0    0  0.00000000000E+00  0.00000000000E+00 -0.32132052394E+03  0.92934854004E+03  0.87203315864E+03 0.  0.
        3    1    3    3  502    0  0.70066617859E+02 -0.50945199939E+02 -0.61607050061E+03  0.62213151042E+03  0.10100000352E+00 0. -1.
       -3    1    3    3    0  502 -0.70066617859E+02  0.50945199939E+02  0.29474997667E+03  0.30721702961E+03  0.10100000352E+00 0.  1.
</event>
<event>
 5   0  0.6288003E-03  0.9027184E+03  0.7818609E-02  0.9422190E-01
        1   -1    0    0  501    0  0.00000000000E+00  0.00000000000E+00  0.17724217388E+04  0.17724217388E+04  0.50400001928E-02 0.  1.
       -1   -1    0    0    0  501  0.00000000000E+00  0.00000000000E+00 -0.11494168781E+03  0.11494168792E+03  0.50400001928E-02 0. -1.
    10030    2    1    2    0    0  0.00000000000E+00  0.00000000000E+00  0.16574800509E+04  0.18873634267E+04  0.90271844177E+03 0.  0.
        1    1    3    3  502    0  0.21233710018E+03 -0.13461857610E+03  0.16124692084E+04  0.16319516393E+04  0.50400001928E-02 0.  1.
       -1    1    3    3    0  502 -0.21233710018E+03  0.13461857610E+03  0.45010842571E+02  0.25541178735E+03  0.50400001928E-02 0. -1.
</event>
<event>
 5   0  0.6137243E-03  0.9053735E+03  0.7818609E-02  0.9418889E-01
        1   -1    0    0  501    0  0.00000000000E+00  0.00000000000E+00  0.75744042223E+03  0.75744042225E+03  0.50400001928E-02 0.  1.
       -1   -1    0    0    0  501  0.00000000000E+00  0.00000000000E+00 -0.27054970793E+03  0.27054970798E+03  0.50400001928E-02 0. -1.
    10030    2    1    2    0    0  0.00000000000E+00  0.00000000000E+00  0.48689071430E+03  0.10279901302E+04  0.90537348104E+03 0.  0.
        4    1    3    3  502    0 -0.32190030122E+03  0.22956141402E+03 -0.68792537070E+01  0.39543290678E+03  0.12699999809E+01 0. -1.
       -4    1    3    3    0  502  0.32190030122E+03 -0.22956141402E+03  0.49376996801E+03  0.63255722345E+03  0.12699999809E+01 0.  1.
</event>
<event>
 5   0  0.1041727E-02  0.9004549E+03  0.7818609E-02  0.9425013E-01
       -2   -1    0    0    0  501  0.00000000000E+00  0.00000000000E+00  0.41058144229E+03  0.41058144230E+03  0.25500000920E-02 0.  1.
        2   -1    0    0  501    0  0.00000000000E+00  0.00000000000E+00 -0.49370169454E+03  0.49370169454E+03  0.25500000920E-02 0. -1.
    10030    2    1    2    0    0  0.00000000000E+00  0.00000000000E+00 -0.83120252245E+02  0.90428313684E+03  0.90045489351E+03 0.  0.
        4    1    3    3  502    0 -0.39636344281E+03 -0.69153402998E+02 -0.24445115534E+03  0.47079098567E+03  0.12699999809E+01 0.  1.
       -4    1    3    3    0  502  0.39636344281E+03  0.69153402998E+02  0.16133090309E+03  0.43349215118E+03  0.12699999809E+01 0. -1.
</event>
<event>
 5   0  0.1033749E-02  0.8850541E+03  0.7818609E-02  0.9444460E-01
       -2   -1    0    0    0  501  0.00000000000E+00  0.00000000000E+00  0.28704298036E+03  0.28704298037E+03  0.25500000920E-02 0. -1.
        2   -1    0    0  501    0  0.00000000000E+00  0.00000000000E+00 -0.68223293901E+03  0.68223293902E+03  0.25500000920E-02 0.  1.
    10030    2    1    2    0    0  0.00000000000E+00  0.00000000000E+00 -0.39518995865E+03  0.96927591939E+03  0.88505406868E+03 0.  0.
        5    1    3    3  502    0  0.21606762479E+03  0.33885125277E+03  0.52394845661E+01  0.40193896574E+03  0.46999998093E+01 0. -1.
       -5    1    3    3    0  502 -0.21606762479E+03 -0.33885125277E+03 -0.40042944322E+03  0.56733695365E+03  0.46999998093E+01 0.  1.
</event>
<event>
 5   0  0.6137243E-03  0.9105360E+03  0.7818609E-02  0.9412506E-01
       -1   -1    0    0    0  501  0.00000000000E+00  0.00000000000E+00  0.77762785876E+03  0.77762785877E+03  0.50400001928E-02 0.  1.
        1   -1    0    0  501    0  0.00000000000E+00  0.00000000000E+00 -0.26654001788E+03  0.26654001793E+03  0.50400001928E-02 0. -1.
    10030    2    1    2    0    0  0.00000000000E+00  0.00000000000E+00  0.51108784088E+03  0.10441678767E+04  0.91053598152E+03 0.  0.
        4    1    3    3  502    0 -0.43102538223E+03 -0.84568225809E+02  0.39283322323E+03  0.58928280062E+03  0.12699999809E+01 0. -1.
       -4    1    3    3    0  502  0.43102538223E+03  0.84568225809E+02  0.11825461765E+03  0.45488507607E+03  0.12699999809E+01 0.  1.
</event>
<event>
 5   0  0.1028978E-02  0.8953488E+03  0.7818609E-02  0.9431414E-01
        2   -1    0    0  501    0  0.00000000000E+00  0.00000000000E+00  0.15660384339E+03  0.15660384341E+03  0.25500000920E-02 0.  1.
       -2   -1    0    0    0  501  0.00000000000E+00  0.00000000000E+00 -0.12797410813E+04  0.12797410813E+04  0.25500000920E-02 0. -1.
    10030    2    1    2    0    0  0.00000000000E+00  0.00000000000E+00 -0.11231372379E+04  0.14363449247E+04  0.89534880776E+03 0.  0.
        3    1    3    3  502    0 -0.42810671257E+03 -0.77422566210E+02 -0.39222739704E+03  0.58575758834E+03  0.10100000352E+00 0.  1.
       -3    1    3    3    0  502  0.42810671257E+03  0.77422566210E+02 -0.73090984089E+03  0.85058733638E+03  0.10100000352E+00 0. -1.
</event>
<event>
 5   0  0.1017079E-02  0.8995744E+03  0.7818609E-02  0.9426114E-01
        2   -1    0    0  501    0  0.00000000000E+00  0.00000000000E+00  0.44726271647E+03  0.44726271648E+03  0.25500000920E-02 0.  1.
       -2   -1    0    0    0  501  0.00000000000E+00  0.00000000000E+00 -0.45232595923E+03  0.45232595923E+03  0.25500000920E-02 0. -1.
    10030    2    1    2    0    0  0.00000000000E+00  0.00000000000E+00 -0.50632427582E+01  0.89958867571E+03  0.89957442662E+03 0.  0.
        1    1    3    3  502    0 -0.44177111652E+03  0.85883391808E+01  0.81571186818E+02  0.44932097381E+03  0.50400001928E-02 0.  1.
       -1    1    3    3    0  502  0.44177111652E+03 -0.85883391808E+01 -0.86634429576E+02  0.45026770190E+03  0.50400001928E-02 0. -1.
</event>
<event>
 5   0  0.1003252E-02  0.1005293E+04  0.7818609E-02  0.9302758E-01
       -2   -1    0    0    0  501  0.00000000000E+00  0.00000000000E+00  0.17122445789E+03  0.17122445791E+03  0.25500000920E-02 0.  1.
        2   -1    0    0  501    0  0.00000000000E+00  0.00000000000E+00 -0.14755696757E+04  0.14755696757E+04  0.25500000920E-02 0. -1.
    10030    2    1    2    0    0  0.00000000000E+00  0.00000000000E+00 -0.13043452178E+04  0.16467941336E+04  0.10052932265E+04 0.  0.
        2    1    3    3  502    0  0.23032899405E+03 -0.30715338150E+03 -0.11836393822E+04  0.12443459456E+04  0.25500000920E-02 0. -1.
       -2    1    3    3    0  502 -0.23032899405E+03  0.30715338150E+03 -0.12070583561E+03  0.40244818800E+03  0.25500000920E-02 0.  1.
</event>
<event>
 5   0  0.3996375E-03  0.9056052E+03  0.7818609E-02  0.9418602E-01
       -4   -1    0    0    0  501  0.00000000000E+00  0.00000000000E+00  0.21580900857E+03  0.21581274541E+03  0.12699999809E+01 0.  1.
        4   -1    0    0  501    0  0.00000000000E+00  0.00000000000E+00 -0.95004158661E+03  0.95004243547E+03  0.12699999809E+01 0. -1.
    10030    2    1    2    0    0  0.00000000000E+00  0.00000000000E+00 -0.73423257804E+03  0.11658551809E+04  0.90560522532E+03 0.  0.
        3    1    3    3  502    0 -0.31245472998E+03  0.18056210972E+03 -0.15025053169E+02  0.36118748065E+03  0.10100000352E+00 0.  1.
       -3    1    3    3    0  502  0.31245472998E+03 -0.18056210972E+03 -0.71920752487E+03  0.80466770023E+03  0.10100000352E+00 0. -1.
</event>
<event>
 5   0  0.6137243E-03  0.9003202E+03  0.7818609E-02  0.9425181E-01
        1   -1    0    0  501    0  0.00000000000E+00  0.00000000000E+00  0.13130002831E+04  0.13130002831E+04  0.50400001928E-02 0.  1.
       -1   -1    0    0    0  501  0.00000000000E+00  0.00000000000E+00 -0.15433670338E+03  0.15433670346E+03  0.50400001928E-02 0. -1.
    10030    2    1    2    0    0  0.00000000000E+00  0.00000000000E+00  0.11586635797E+04  0.14673369865E+04  0.90032024368E+03 0.  0.
        4    1    3    3  502    0  0.92297713626E+02  0.16135853946E+03  0.12475218499E+04  0.12612960894E+04  0.12699999809E+01 0.  1.
       -4    1    3    3    0  502 -0.92297713626E+02 -0.16135853946E+03 -0.88858270250E+02  0.20604089713E+03  0.12699999809E+01 0. -1.
</event>
<event>
 5   0  0.1033749E-02  0.8771499E+03  0.7818609E-02  0.9454605E-01
        2   -1    0    0  501    0  0.00000000000E+00  0.00000000000E+00  0.82908677804E+03  0.82908677805E+03  0.25500000920E-02 0. -1.
       -2   -1    0    0    0  501  0.00000000000E+00  0.00000000000E+00 -0.23199983108E+03  0.23199983110E+03  0.25500000920E-02 0.  1.
    10030    2    1    2    0    0  0.00000000000E+00  0.00000000000E+00  0.59708694696E+03  0.10610866091E+04  0.87714991300E+03 0.  0.
        5    1    3    3  502    0 -0.68910442388E+02  0.29317832706E+03 -0.87089852036E+02  0.31354252161E+03  0.46999998093E+01 0.  1.
       -5    1    3    3    0  502  0.68910442388E+02 -0.29317832706E+03  0.68417679900E+03  0.74754408754E+03  0.46999998093E+01 0. -1.
</event>
<event>
 5   0  0.3996375E-03  0.9304892E+03  0.7818609E-02  0.9388251E-01
        4   -1    0    0  501    0  0.00000000000E+00  0.00000000000E+00  0.11222752940E+04  0.11222760126E+04  0.12699999809E+01 0.  1.
       -4   -1    0    0    0  501  0.00000000000E+00  0.00000000000E+00 -0.19286649367E+03  0.19287067502E+03  0.12699999809E+01 0. -1.
    10030    2    1    2    0    0  0.00000000000E+00  0.00000000000E+00  0.92940880035E+03  0.13151466876E+04  0.93048916802E+03 0.  0.
        4    1    3    3  502    0 -0.17666917634E+03 -0.27812348603E+03  0.92894797290E+03  0.98565238325E+03  0.12699999809E+01 0.  1.
       -4    1    3    3    0  502  0.17666917634E+03  0.27812348603E+03  0.46082744915E+00  0.32949430437E+03  0.12699999809E+01 0. -1.
</event>
<event>
 5   0  0.6211218E-03  0.8611848E+03  0.7818609E-02  0.9475447E-01
        1   -1    0    0  501    0  0.00000000000E+00  0.00000000000E+00  0.99051997306E+03  0.99051997307E+03  0.50400001928E-02 0.  1.
       -1   -1    0    0    0  501  0.00000000000E+00  0.00000000000E+00 -0.18718432617E+03  0.18718432624E+03  0.50400001928E-02 0. -1.
    10030    2    1    2    0    0  0.00000000000E+00  0.00000000000E+00  0.80333564689E+03  0.11777042993E+04  0.86118479727E+03 0.  0.
        5    1    3    3  502    0  0.20384000264E+03 -0.28522305583E+03  0.59824542845E+02  0.35567401392E+03  0.46999998093E+01 0. -1.
       -5    1    3    3    0  502 -0.20384000264E+03  0.28522305583E+03  0.74351110404E+03  0.82203028538E+03  0.46999998093E+01 0.  1.
</event>
<event>
 5   0  0.6137243E-03  0.9094744E+03  0.7818609E-02  0.9413815E-01
        1   -1    0    0  501    0  0.00000000000E+00  0.00000000000E+00  0.63150016003E+03  0.63150016005E+03  0.50400001928E-02 0. -1.
       -1   -1    0    0    0  501  0.00000000000E+00  0.00000000000E+00 -0.32745187971E+03  0.32745187975E+03  0.50400001928E-02 0.  1.
    10030    2    1    2    0    0  0.00000000000E+00  0.00000000000E+00  0.30404828031E+03  0.95895203980E+03  0.90947438550E+03 0.  0.
        4    1    3    3  502    0  0.15343395709E+03 -0.45286323719E+01 -0.29930669354E+03  0.33637567896E+03  0.12699999809E+01 0.  1.
       -4    1    3    3    0  502 -0.15343395709E+03  0.45286323719E+01  0.60335497385E+03  0.62257636084E+03  0.12699999809E+01 0. -1.
</event>
<event>
 5   0  0.6015709E-03  0.8917807E+03  0.7818609E-02  0.9435915E-01
       -1   -1    0    0    0  501  0.00000000000E+00  0.00000000000E+00  0.72495408720E+03  0.72495408722E+03  0.50400001928E-02 0.  1.
        1   -1    0    0  501    0  0.00000000000E+00  0.00000000000E+00 -0.27424939877E+03  0.27424939882E+03  0.50400001928E-02 0. -1.
    10030    2    1    2    0    0  0.00000000000E+00  0.00000000000E+00  0.45070468843E+03  0.99920348604E+03  0.89178074118E+03 0.  0.
        3    1    3    3  502    0  0.26530828567E+03 -0.20010773687E+03  0.55846345109E+03  0.64985616040E+03  0.10100000352E+00 0.  1.
       -3    1    3    3    0  502 -0.26530828567E+03  0.20010773687E+03 -0.10775876266E+03  0.34934732564E+03  0.10100000352E+00 0. -1.
</event>
<event>
 5   0  0.3996375E-03  0.9448525E+03  0.7818609E-02  0.9371187E-01
       -3   -1    0    0    0  501  0.00000000000E+00  0.00000000000E+00  0.38609201674E+03  0.38609202996E+03  0.10100000352E+00 0. -1.
        3   -1    0    0  501    0  0.00000000000E+00  0.00000000000E+00 -0.57806572512E+03  0.57806573394E+03  0.10100000352E+00 0.  1.
    10030    2    1    2    0    0  0.00000000000E+00  0.00000000000E+00 -0.19197370837E+03  0.96415776390E+03  0.94485252234E+03 0.  0.
        3    1    3    3  502    0 -0.45515639674E+03  0.11772538189E+03 -0.14341171083E+03  0.49152165775E+03  0.10100000352E+00 0.  1.
       -3    1    3    3    0  502  0.45515639674E+03 -0.11772538189E+03 -0.48561997540E+02  0.47263610615E+03  0.10100000352E+00 0. -1.
</event>
<event>
 5   0  0.6211218E-03  0.9040169E+03  0.7818609E-02  0.9420574E-01
        1   -1    0    0  501    0  0.00000000000E+00  0.00000000000E+00  0.59446919079E+03  0.59446919081E+03  0.50400001928E-02 0.  1.
       -1   -1    0    0    0  501  0.00000000000E+00  0.00000000000E+00 -0.34368753990E+03  0.34368753994E+03  0.50400001928E-02 0. -1.
    10030    2    1    2    0    0  0.00000000000E+00  0.00000000000E+00  0.25078165089E+03  0.93815673075E+03  0.90401693293E+03 0.  0.
        5    1    3    3  502    0 -0.21987942021E+03 -0.29760321085E+03  0.39476006943E+03  0.54108431224E+03  0.46999998093E+01 0.  1.
       -5    1    3    3    0  502  0.21987942021E+03  0.29760321085E+03 -0.14397841854E+03  0.39707241851E+03  0.46999998093E+01 0. -1.
</event>
<event>
 5   0  0.6288003E-03  0.9081692E+03  0.7818609E-02  0.9415427E-01
        1   -1    0    0  501    0  0.00000000000E+00  0.00000000000E+00  0.26354324742E+03  0.26354324747E+03  0.50400001928E-02 0.  1.
       -1   -1    0    0    0  501  0.00000000000E+00  0.00000000000E+00 -0.78238707606E+03  0.78238707607E+03  0.50400001928E-02 0. -1.
    10030    2    1    2    0    0  0.00000000000E+00  0.00000000000E+00 -0.51884382864E+03  0.10459303235E+04  0.90816921507E+03 0.  0.
        1    1    3    3  502    0 -0.41556947385E+03 -0.14590142217E+03 -0.13217377320E+03  0.45984249362E+03  0.50400001928E-02 0.  1.
       -1    1    3    3    0  502  0.41556947385E+03  0.14590142217E+03 -0.38667005544E+03  0.58608782993E+03  0.50400001928E-02 0. -1.
</event>
<event>
 5   0  0.3996375E-03  0.9015855E+03  0.7818609E-02  0.9423602E-01
        3   -1    0    0  501    0  0.00000000000E+00  0.00000000000E+00  0.30386202149E+03  0.30386203828E+03  0.10100000352E+00 0.  1.
       -3   -1    0    0    0  501  0.00000000000E+00  0.00000000000E+00 -0.66877101354E+03  0.66877102117E+03  0.10100000352E+00 0. -1.
    10030    2    1    2    0    0  0.00000000000E+00  0.00000000000E+00 -0.36490899205E+03  0.97263305945E+03  0.90158554550E+03 0.  0.
        4    1    3    3  502    0  0.24494464008E+03  0.30202299260E+03 -0.42845169999E+03  0.57860888075E+03  0.12699999809E+01 0.  1.
       -4    1    3    3    0  502 -0.24494464008E+03 -0.30202299260E+03  0.63542707932E+02  0.39402417869E+03  0.12699999809E+01 0. -1.
</event>
<event>
 5   0  0.1017079E-02  0.8153070E+03  0.7818609E-02  0.9538121E-01
       -2   -1    0    0    0  501  0.00000000000E+00  0.00000000000E+00  0.16311089279E+03  0.16311089281E+03  0.25500000920E-02 0.  1.
        2   -1    0    0  501    0  0.00000000000E+00  0.00000000000E+00 -0.10188245501E+04  0.10188245501E+04  0.25500000920E-02 0. -1.
    10030    2    1    2    0    0  0.00000000000E+00  0.00000000000E+00 -0.85571365728E+03  0.11819354429E+04  0.81530701450E+03 0.  0.
        1    1    3    3  502    0 -0.20464066964E+03 -0.32215024628E+03 -0.22017865635E+03  0.44061006070E+03  0.50400001928E-02 0.  1.
       -1    1    3    3    0  502  0.20464066964E+03  0.32215024628E+03 -0.63553500093E+03  0.74132538219E+03  0.50400001928E-02 0. -1.
</event>
<event>
 5   0  0.6288003E-03  0.9136916E+03  0.7818609E-02  0.9408626E-01
       -1   -1    0    0    0  501  0.00000000000E+00  0.00000000000E+00  0.21994713671E+03  0.21994713677E+03  0.50400001928E-02 0.  1.
        1   -1    0    0  501    0  0.00000000000E+00  0.00000000000E+00 -0.94890120559E+03  0.94890120561E+03  0.50400001928E-02 0. -1.
    10030    2    1    2    0    0  0.00000000000E+00  0.00000000000E+00 -0.72895406888E+03  0.11688483424E+04  0.91369163997E+03 0.  0.
        1    1    3    3  502    0  0.30313789786E+03  0.24537314445E+03 -0.60111377231E+02  0.39460606032E+03  0.50400001928E-02 0.  1.
       -1    1    3    3    0  502 -0.30313789786E+03 -0.24537314445E+03 -0.66884269165E+03  0.77424228206E+03  0.50400001928E-02 0. -1.
</event>
<event>
 5   0  0.1041727E-02  0.8967315E+03  0.7818609E-02  0.9429677E-01
        2   -1    0    0  501    0  0.00000000000E+00  0.00000000000E+00  0.40305592458E+03  0.40305592459E+03  0.25500000920E-02 0. -1.
       -2   -1    0    0    0  501  0.00000000000E+00  0.00000000000E+00 -0.49876905983E+03  0.49876905984E+03  0.25500000920E-02 0.  1.
    10030    2    1    2    0    0  0.00000000000E+00  0.00000000000E+00 -0.95713135250E+02  0.90182498443E+03  0.89673145271E+03 0.  0.
        4    1    3    3  502    0  0.20922169862E+03 -0.20212502975E+03  0.29525867820E+03  0.41449673916E+03  0.12699999809E+01 0. -1.
       -4    1    3    3    0  502 -0.20922169862E+03  0.20212502975E+03 -0.39097181345E+03  0.48732824527E+03  0.12699999809E+01 0.  1.
</event>
<event>
 5   0  0.1033749E-02  0.9193819E+03  0.7818609E-02  0.9401672E-01
        2   -1    0    0  501    0  0.00000000000E+00  0.00000000000E+00  0.86769441149E+03  0.86769441149E+03  0.25500000920E-02 0.  1.
       -2   -1    0    0    0  501  0.00000000000E+00  0.00000000000E+00 -0.24353707683E+03  0.24353707684E+03  0.25500000920E-02 0. -1.
    10030    2    1    2    0    0  0.00000000000E+00  0.00000000000E+00  0.62415733466E+03  0.11112314883E+04  0.91938188053E+03 0.  0.
        5    1    3    3  502    0 -0.43958979058E+03  0.14926175235E+02  0.15067814968E+03  0.46496018053E+03  0.46999998093E+01 0. -1.
       -5    1    3    3    0  502  0.43958979058E+03 -0.14926175235E+02  0.47347918498E+03  0.64627130780E+03  0.46999998093E+01 0.  1.
</event>
<event>
 5   0  0.6092779E-03  0.8991670E+03  0.7818609E-02  0.9426623E-01
       -1   -1    0    0    0  501  0.00000000000E+00  0.00000000000E+00  0.20944722837E+03  0.20944722843E+03  0.50400001928E-02 0.  1.
        1   -1    0    0  501    0  0.00000000000E+00  0.00000000000E+00 -0.96504177953E+03  0.96504177954E+03  0.50400001928E-02 0. -1.
    10030    2    1    2    0    0  0.00000000000E+00  0.00000000000E+00 -0.75559455116E+03  0.11744890080E+04  0.89916700569E+03 0.  0.
        2    1    3    3  502    0  0.38365325378E+03 -0.93316986024E+02 -0.96957544251E+02  0.40656935991E+03  0.25500000920E-02 0.  1.
       -2    1    3    3    0  502 -0.38365325378E+03  0.93316986024E+02 -0.65863700691E+03  0.76791964807E+03  0.25500000920E-02 0. -1.
</event>
<event>
 5   0  0.6288003E-03  0.8935161E+03  0.7818609E-02  0.9433723E-01
        1   -1    0    0  501    0  0.00000000000E+00  0.00000000000E+00  0.18078388476E+03  0.18078388483E+03  0.50400001928E-02 0. -1.
       -1   -1    0    0    0  501  0.00000000000E+00  0.00000000000E+00 -0.11040407029E+04  0.11040407029E+04  0.50400001928E-02 0.  1.
    10030    2    1    2    0    0  0.00000000000E+00  0.00000000000E+00 -0.92325681812E+03  0.12848245877E+04  0.89351612689E+03 0.  0.
        1    1    3    3  502    0  0.11459710195E+03  0.25128943760E+03  0.43320505207E+02  0.27956312958E+03  0.50400001928E-02 0. -1.
       -1    1    3    3    0  502 -0.11459710195E+03 -0.25128943760E+03 -0.96657732332E+03  0.10052614581E+04  0.50400001928E-02 0.  1.
</event>
<event>
 5   0  0.1003252E-02  0.8967116E+03  0.7818609E-02  0.9429701E-01
        2   -1    0    0  501    0  0.00000000000E+00  0.00000000000E+00  0.16974299700E+04  0.16974299701E+04  0.25500000920E-02 0.  1.
       -2   -1    0    0    0  501  0.00000000000E+00  0.00000000000E+00 -0.11842781338E+03  0.11842781341E+03  0.25500000920E-02 0. -1.
    10030    2    1    2    0    0  0.00000000000E+00  0.00000000000E+00  0.15790021567E+04  0.18158577835E+04  0.89671159187E+03 0.  0.
        2    1    3    3  502    0 -0.64581768986E+02  0.27014233854E+03  0.15022249219E+04  0.15276869457E+04  0.25500000920E-02 0.  1.
       -2    1    3    3    0  502  0.64581768986E+02 -0.27014233854E+03  0.76777234734E+02  0.28817083777E+03  0.25500000920E-02 0. -1.
</event>
<event>
 5   0  0.6015709E-03  0.8952298E+03  0.7818609E-02  0.9431564E-01
        1   -1    0    0  501    0  0.00000000000E+00  0.00000000000E+00  0.88359412593E+03  0.88359412595E+03  0.50400001928E-02 0. -1.
       -1   -1    0    0    0  501  0.00000000000E+00  0.00000000000E+00 -0.22675469290E+03  0.22675469296E+03  0.50400001928E-02 0.  1.
    10030    2    1    2    0    0  0.00000000000E+00  0.00000000000E+00  0.65683943303E+03  0.11103488189E+04  0.89522983578E+03 0.  0.
        3    1    3    3  502    0 -0.70112435965E+02 -0.25452100231E+03 -0.11991278074E+03  0.28995823748E+03  0.10100000352E+00 0. -1.
       -3    1    3    3    0  502  0.70112435965E+02  0.25452100231E+03  0.77675221377E+03  0.82039058143E+03  0.10100000352E+00 0.  1.
</event>
<event>
 5   0  0.6015709E-03  0.7986146E+03  0.7818609E-02  0.9562025E-01
        1   -1    0    0  501    0  0.00000000000E+00  0.00000000000E+00  0.25788499534E+03  0.25788499539E+03  0.50400001928E-02 0. -1.
       -1   -1    0    0    0  501  0.00000000000E+00  0.00000000000E+00 -0.61828459269E+03  0.61828459271E+03  0.50400001928E-02 0.  1.
    10030    2    1    2    0    0  0.00000000000E+00  0.00000000000E+00 -0.36039959734E+03  0.87616958810E+03  0.79861459876E+03 0.  0.
        3    1    3    3  502    0 -0.28296707651E+03 -0.17520107817E+03 -0.42226287942E+03  0.53765391631E+03  0.10100000352E+00 0.  1.
       -3    1    3    3    0  502  0.28296707651E+03  0.17520107817E+03  0.61863282079E+02  0.33851567180E+03  0.10100000352E+00 0. -1.
</event>
<event>
 5   0  0.1003252E-02  0.9008737E+03  0.7818609E-02  0.9424490E-01
       -2   -1    0    0    0  501  0.00000000000E+00  0.00000000000E+00  0.58190635073E+03  0.58190635073E+03  0.25500000920E-02 0.  1.
        2   -1    0    0  501    0  0.00000000000E+00  0.00000000000E+00 -0.34867014525E+03  0.34867014526E+03  0.25500000920E-02 0. -1.
    10030    2    1    2    0    0  0.00000000000E+00  0.00000000000E+00  0.23323620548E+03  0.93057649599E+03  0.90087373552E+03 0.  0.
        2    1    3    3  502    0 -0.35710712752E+03  0.18538040943E+03 -0.92547632961E+02  0.41286373188E+03  0.25500000920E-02 0. -1.
       -2    1    3    3    0  502  0.35710712752E+03 -0.18538040943E+03  0.32578383844E+03  0.51771276411E+03  0.25500000920E-02 0.  1.
</event>
<event>
 5   0  0.6211218E-03  0.9124777E+03  0.7818609E-02  0.9410117E-01
        1   -1    0    0  501    0  0.00000000000E+00  0.00000000000E+00  0.23261430648E+04  0.23261430648E+04  0.50400001928E-02 0. -1.
       -1   -1    0    0    0  501  0.00000000000E+00  0.00000000000E+00 -0.89484567428E+02  0.89484567570E+02  0.50400001928E-02 0.  1.
    10030    2    1    2    0    0  0.00000000000E+00  0.00000000000E+00  0.22366584973E+04  0.24156276324E+04  0.91247773914E+03 0.  0.
        5    1    3    3  502    0  0.34799780683E+03 -0.26341443243E+03  0.76670094393E+03  0.88223696601E+03  0.46999998093E+01 0.  1.
       -5    1    3    3    0  502 -0.34799780683E+03  0.26341443243E+03  0.14699575534E+04  0.15333906663E+04  0.46999998093E+01 0. -1.
</event>
<event>
 5   0  0.1028978E-02  0.9000814E+03  0.7818609E-02  0.9425480E-01
        2   -1    0    0  501    0  0.00000000000E+00  0.00000000000E+00  0.84619185354E+02  0.84619185392E+02  0.25500000920E-02 0. -1.
       -2   -1    0    0    0  501  0.00000000000E+00  0.00000000000E+00 -0.23935073083E+04  0.23935073083E+04  0.25500000920E-02 0.  1.
    10030    2    1    2    0    0  0.00000000000E+00  0.00000000000E+00 -0.23088881230E+04  0.24781264937E+04  0.90008141547E+03 0.  0.
        3    1    3    3  502    0 -0.17848277673E+01 -0.43844837569E+03 -0.14338179050E+04  0.14993578488E+04  0.10100000352E+00 0. -1.
       -3    1    3    3    0  502  0.17848277673E+01  0.43844837569E+03 -0.87507021792E+03  0.97876864491E+03  0.10100000352E+00 0.  1.
</event>
<event>
 5   0  0.1028978E-02  0.8984507E+03  0.7818609E-02  0.9427520E-01
        2   -1    0    0  501    0  0.00000000000E+00  0.00000000000E+00  0.99264780719E+03  0.99264780719E+03  0.25500000920E-02 0.  1.
       -2   -1    0    0    0  501  0.00000000000E+00  0.00000000000E+00 -0.20329810887E+03  0.20329810889E+03  0.25500000920E-02 0. -1.
    10030    2    1    2    0    0  0.00000000000E+00  0.00000000000E+00  0.78934969832E+03  0.11959459161E+04  0.89845071538E+03 0.  0.
        3    1    3    3  502    0  0.12566652540E+03  0.75968183237E+02 -0.17044827316E+03  0.22497969796E+03  0.10100000352E+00 0. -1.
       -3    1    3    3    0  502 -0.12566652540E+03 -0.75968183237E+02  0.95979797148E+03  0.97096621812E+03  0.10100000352E+00 0.  1.
</event>
<event>
 5   0  0.1003252E-02  0.9011254E+03  0.7818609E-02  0.9424176E-01
       -2   -1    0    0    0  501  0.00000000000E+00  0.00000000000E+00  0.11809411606E+03  0.11809411609E+03  0.25500000920E-02 0. -1.
        2   -1    0    0  501    0  0.00000000000E+00  0.00000000000E+00 -0.17190250554E+04  0.17190250554E+04  0.25500000920E-02 0.  1.
    10030    2    1    2    0    0  0.00000000000E+00  0.00000000000E+00 -0.16009309394E+04  0.18371191715E+04  0.90112539513E+03 0.  0.
        2    1    3    3  502    0  0.18592604506E+03 -0.17233573811E+03 -0.15598309004E+04  0.15802976108E+04  0.25500000920E-02 0.  1.
       -2    1    3    3    0  502 -0.18592604506E+03  0.17233573811E+03 -0.41100039015E+02  0.25682156077E+03  0.25500000920E-02 0. -1.
</event>
<event>
 5   0  0.6137243E-03  0.8982253E+03  0.7818609E-02  0.9427803E-01
        1   -1    0    0  501    0  0.00000000000E+00  0.00000000000E+00  0.14395313628E+04  0.14395313628E+04  0.50400001928E-02 0.  1.
       -1   -1    0    0    0  501  0.00000000000E+00  0.00000000000E+00 -0.14011655679E+03  0.14011655689E+03  0.50400001928E-02 0. -1.
    10030    2    1    2    0    0  0.00000000000E+00  0.00000000000E+00  0.12994148060E+04  0.15796479197E+04  0.89822531256E+03 0.  0.
        4    1    3    3  502    0 -0.18690183947E+03  0.40357989960E+03  0.54000015443E+03  0.69957902530E+03  0.12699999809E+01 0. -1.
       -4    1    3    3    0  502  0.18690183947E+03 -0.40357989960E+03  0.75941465157E+03  0.88006889439E+03  0.12699999809E+01 0.  1.
</event>
<event>
 5   0  0.1017079E-02  0.8952722E+03  0.7818609E-02  0.9431511E-01
        2   -1    0    0  501    0  0.00000000000E+00  0.00000000000E+00  0.63719306235E+02  0.63719306286E+02  0.25500000920E-02 0.  1.
       -2   -1    0    0    0  501  0.00000000000E+00  0.00000000000E+00 -0.31446996568E+04  0.31446996568E+04  0.25500000920E-02 0. -1.
    10030    2    1    2    0    0  0.00000000000E+00  0.00000000000E+00 -0.30809803505E+04  0.32084189630E+04  0.89527220560E+03 0.  0.
        1    1    3    3  502    0  0.19689496071E+03  0.37995818584E+03 -0.20110693617E+04  0.20560972317E+04  0.50400001928E-02 0. -1.
       -1    1    3    3    0  502 -0.19689496071E+03 -0.37995818584E+03 -0.10699109888E+04  0.11523217314E+04  0.50400001928E-02 0.  1.
</event>
<event>
 5   0  0.1003252E-02  0.9111877E+03  0.7818609E-02  0.9411703E-01
       -2   -1    0    0    0  501  0.00000000000E+00  0.00000000000E+00  0.13391715943E+03  0.13391715946E+03  0.25500000920E-02 0.  1.
        2   -1    0    0  501    0  0.00000000000E+00  0.00000000000E+00 -0.15499563420E+04  0.15499563420E+04  0.25500000920E-02 0. -1.
    10030    2    1    2    0    0  0.00000000000E+00  0.00000000000E+00 -0.14160391825E+04  0.16838735014E+04  0.91118768776E+03 0.  0.
        2    1    3    3  502    0 -0.41049809922E+03 -0.18730987301E+03 -0.59155062850E+03  0.74399316131E+03  0.25500000920E-02 0.  1.
       -2    1    3    3    0  502  0.41049809922E+03  0.18730987301E+03 -0.82448855403E+03  0.93988034011E+03  0.25500000920E-02 0. -1.
</event>
<event>
 5   0  0.1017079E-02  0.9013043E+03  0.7818609E-02  0.9423952E-01
        2   -1    0    0  501    0  0.00000000000E+00  0.00000000000E+00  0.20364611949E+04  0.20364611949E+04  0.25500000920E-02 0.  1.
       -2   -1    0    0    0  501  0.00000000000E+00  0.00000000000E+00 -0.99725617254E+02  0.99725617287E+02  0.25500000920E-02 0. -1.
    10030    2    1    2    0    0  0.00000000000E+00  0.00000000000E+00  0.19367355777E+04  0.21361868122E+04  0.90130427652E+03 0.  0.
        1    1    3    3  502    0  0.14828433633E+03  0.41672990060E+03  0.11727376768E+04  0.12533817109E+04  0.50400001928E-02 0. -1.
       -1    1    3    3    0  502 -0.14828433633E+03 -0.41672990060E+03  0.76399790085E+03  0.88280510135E+03  0.50400001928E-02 0.  1.
</event>
<event>
 5   0  0.1028978E-02  0.8961205E+03  0.7818609E-02  0.9430444E-01
        2   -1    0    0  501    0  0.00000000000E+00  0.00000000000E+00  0.27884253727E+04  0.27884253727E+04  0.25500000920E-02 0. -1.
       -2   -1    0    0    0  501  0.00000000000E+00  0.00000000000E+00 -0.71996896542E+02  0.71996896587E+02  0.25500000920E-02 0.  1.
    10030    2    1    2    0    0  0.00000000000E+00  0.00000000000E+00  0.27164284762E+04  0.28604222693E+04  0.89612046767E+03 0.  0.
        3    1    3    3  502    0 -0.72503995487E+02 -0.25684096647E+03  0.25070432464E+04  0.25212080360E+04  0.10100000352E+00 0. -1.
       -3    1    3    3    0  502  0.72503995487E+02  0.25684096647E+03  0.20938522981E+03  0.33921423331E+03  0.10100000352E+00 0.  1.
</event>
<event>
 5   0  0.6092779E-03  0.7962277E+03  0.7818609E-02  0.9565494E-01
       -1   -1    0    0    0  501  0.00000000000E+00  0.00000000000E+00  0.10832496090E+03  0.10832496102E+03  0.50400001928E-02 0.  1.
        1   -1    0    0  501    0  0.00000000000E+00  0.00000000000E+00 -0.14631403790E+04  0.14631403790E+04  0.50400001928E-02 0. -1.
    10030    2    1    2    0    0  0.00000000000E+00  0.00000000000E+00 -0.13548154181E+04  0.15714653400E+04  0.79622766705E+03 0.  0.
        2    1    3    3  502    0  0.17241592469E+03 -0.32907032278E+03 -0.95985247860E+03  0.10292382179E+04  0.25500000920E-02 0. -1.
       -2    1    3    3    0  502 -0.17241592469E+03  0.32907032278E+03 -0.39496293946E+03  0.54222712213E+03  0.25500000920E-02 0.  1.
</event>
<event>
 5   0  0.1017079E-02  0.9048089E+03  0.7818609E-02  0.9419590E-01
        2   -1    0    0  501    0  0.00000000000E+00  0.00000000000E+00  0.18487585235E+03  0.18487585237E+03  0.25500000920E-02 0.  1.
       -2   -1    0    0    0  501  0.00000000000E+00  0.00000000000E+00 -0.11070659893E+04  0.11070659893E+04  0.25500000920E-02 0. -1.
    10030    2    1    2    0    0  0.00000000000E+00  0.00000000000E+00 -0.92219013697E+03  0.12919418417E+04  0.90480886026E+03 0.  0.
        1    1    3    3  502    0 -0.31306448637E+03 -0.35689735781E+02 -0.92462618695E+03  0.97684016885E+03  0.50400001928E-02 0. -1.
       -1    1    3    3    0  502  0.31306448637E+03  0.35689735781E+02  0.24360499777E+01  0.31510167285E+03  0.50400001928E-02 0.  1.
</event>
<event>
 5   0  0.1041727E-02  0.9094400E+03  0.7818609E-02  0.9413857E-01
       -2   -1    0    0    0  501  0.00000000000E+00  0.00000000000E+00  0.12630183055E+03  0.12630183057E+03  0.25500000920E-02 0. -1.
        2   -1    0    0  501    0  0.00000000000E+00  0.00000000000E+00 -0.16371121567E+04  0.16371121567E+04  0.25500000920E-02 0.  1.
    10030    2    1    2    0    0  0.00000000000E+00  0.00000000000E+00 -0.15108103262E+04  0.17634139873E+04  0.90943996444E+03 0.  0.
        4    1    3    3  502    0  0.32264419464E+03  0.65170075031E+02 -0.14709250123E+03  0.36053326037E+03  0.12699999809E+01 0. -1.
       -4    1    3    3    0  502 -0.32264419464E+03 -0.65170075031E+02 -0.13637178249E+04  0.14028807269E+04  0.12699999809E+01 0.  1.
</event>
<event>
 5   0  0.6288003E-03  0.8943011E+03  0.7818609E-02  0.9432733E-01
       -1   -1    0    0    0  501  0.00000000000E+00  0.00000000000E+00  0.18140387495E+03  0.18140387502E+03  0.50400001928E-02 0. -1.
        1   -1    0    0  501    0  0.00000000000E+00  0.00000000000E+00 -0.11022015488E+04  0.11022015489E+04  0.50400001928E-02 0.  1.
    10030    2    1    2    0    0  0.00000000000E+00  0.00000000000E+00 -0.92079767390E+03  0.12836054239E+04  0.89430113941E+03 0.  0.
        1    1    3    3  502    0  0.28126248102E+03  0.25863323669E+02  0.37153545228E+02  0.28488222249E+03  0.50400001928E-02 0. -1.
       -1    1    3    3    0  502 -0.28126248102E+03 -0.25863323669E+02 -0.95795121913E+03  0.99872320139E+03  0.50400001928E-02 0.  1.
</event>
<event>
 5   0  0.6092779E-03  0.8992386E+03  0.7818609E-02  0.9426534E-01
        1   -1    0    0  501    0  0.00000000000E+00  0.00000000000E+00  0.17922473052E+03  0.17922473059E+03  0.50400001928E-02 0.  1.
       -1   -1    0    0    0  501  0.00000000000E+00  0.00000000000E+00 -0.11279553601E+04  0.11279553601E+04  0.50400001928E-02 0. -1.
    10030    2    1    2    0    0  0.00000000000E+00  0.00000000000E+00 -0.94873062953E+03  0.13071800907E+04  0.89923855677E+03 0.  0.
        2    1    3    3  502    0 -0.71735478393E+02 -0.44127082615E+03 -0.40477841209E+03  0.60308497227E+03  0.25500000920E-02 0.  1.
       -2    1    3    3    0  502  0.71735478393E+02  0.44127082615E+03 -0.54395221744E+03  0.70409511839E+03  0.25500000920E-02 0. -1.
</event>
<event>
 5   0  0.6211218E-03  0.8884330E+03  0.7818609E-02  0.9440157E-01
       -1   -1    0    0    0  501  0.00000000000E+00  0.00000000000E+00  0.13021153947E+03  0.13021153956E+03  0.50400001928E-02 0. -1.
        1   -1    0    0  501    0  0.00000000000E+00  0.00000000000E+00 -0.15154439903E+04  0.15154439903E+04  0.50400001928E-02 0.  1.
    10030    2    1    2    0    0  0.00000000000E+00  0.00000000000E+00 -0.13852324508E+04  0.16456555298E+04  0.88843299136E+03 0.  0.
        5    1    3    3  502    0  0.35105957464E+03 -0.39955897858E+02 -0.19397966665E+03  0.40309986330E+03  0.46999998093E+01 0. -1.
       -5    1    3    3    0  502 -0.35105957464E+03  0.39955897858E+02 -0.11912527841E+04  0.12425556665E+04  0.46999998093E+01 0.  1.
</event>
<event>
 5   0  0.3996375E-03  0.9026486E+03  0.7818609E-02  0.9422277E-01
       -3   -1    0    0    0  501  0.00000000000E+00  0.00000000000E+00  0.52169019713E+03  0.52169020690E+03  0.10100000352E+00 0.  1.
        3   -1    0    0  501    0  0.00000000000E+00  0.00000000000E+00 -0.39044939870E+03  0.39044941176E+03  0.10100000352E+00 0. -1.
    10030    2    1    2    0    0  0.00000000000E+00  0.00000000000E+00  0.13124079843E+03  0.91213961866E+03  0.90264862309E+03 0.  0.
        4    1    3    3  502    0 -0.84356114311E+02  0.29983166333E+03 -0.26442833834E+03  0.40858161898E+03  0.12699999809E+01 0. -1.
       -4    1    3    3    0  502  0.84356114311E+02 -0.29983166333E+03  0.39566913676E+03  0.50355799968E+03  0.12699999809E+01 0.  1.
</event>
<event>
 5   0  0.6015709E-03  0.9093547E+03  0.7818609E-02  0.9413963E-01
        1   -1    0    0  501    0  0.00000000000E+00  0.00000000000E+00  0.57992678084E+03  0.57992678086E+03  0.50400001928E-02 0. -1.
       -1   -1    0    0    0  501  0.00000000000E+00  0.00000000000E+00 -0.35647863296E+03  0.35647863300E+03  0.50400001928E-02 0.  1.
    10030    2    1    2    0    0  0.00000000000E+00  0.00000000000E+00  0.22344814788E+03  0.93640541386E+03  0.90935472964E+03 0.  0.
        3    1    3    3  502    0 -0.31942441133E+03 -0.24851121057E+03 -0.10166407769E+03  0.41728332249E+03  0.10100000352E+00 0.  1.
       -3    1    3    3    0  502  0.31942441133E+03  0.24851121057E+03  0.32511222557E+03  0.51912209137E+03  0.10100000352E+00 0. -1.
</event>
<event>
 5   0  0.1041727E-02  0.9061527E+03  0.7818609E-02  0.9417923E-01
        2   -1    0    0  501    0  0.00000000000E+00  0.00000000000E+00  0.10647946345E+04  0.10647946345E+04  0.25500000920E-02 0. -1.
       -2   -1    0    0    0  501  0.00000000000E+00  0.00000000000E+00 -0.19278663815E+03  0.19278663817E+03  0.25500000920E-02 0.  1.
    10030    2    1    2    0    0  0.00000000000E+00  0.00000000000E+00  0.87200799634E+03  0.12575812727E+04  0.90615269777E+03 0.  0.
        4    1    3    3  502    0  0.36942267716E+03  0.10470705203E+03  0.10223316729E+03  0.39735363914E+03  0.12699999809E+01 0.  1.
       -4    1    3    3    0  502 -0.36942267716E+03 -0.10470705203E+03  0.76977482905E+03  0.86022763353E+03  0.12699999809E+01 0. -1.
</event>
<event>
 5   0  0.6288003E-03  0.8843779E+03  0.7818609E-02  0.9445323E-01
       -1   -1    0    0    0  501  0.00000000000E+00  0.00000000000E+00  0.23566815024E+03  0.23566815029E+03  0.50400001928E-02 0. -1.
        1   -1    0    0  501    0  0.00000000000E+00  0.00000000000E+00 -0.82968822397E+03  0.82968822398E+03  0.50400001928E-02 0.  1.
    10030    2    1    2    0    0  0.00000000000E+00  0.00000000000E+00 -0.59402007373E+03  0.10653563743E+04  0.88437794873E+03 0.  0.
        1    1    3    3  502    0  0.78228569743E+02 -0.23106825200E+03  0.14726973617E+03  0.28495722736E+03  0.50400001928E-02 0. -1.
       -1    1    3    3    0  502 -0.78228569743E+02  0.23106825200E+03 -0.74128980990E+03  0.78039914691E+03  0.50400001928E-02 0.  1.
</event>
<event>
 5   0  0.1033749E-02  0.8947006E+03  0.7818609E-02  0.9432230E-01
       -2   -1    0    0    0  501  0.00000000000E+00  0.00000000000E+00  0.79572632647E+02  0.79572632688E+02  0.25500000920E-02 0.  1.
        2   -1    0    0  501    0  0.00000000000E+00  0.00000000000E+00 -0.25149638179E+04  0.25149638179E+04  0.25500000920E-02 0. -1.
    10030    2    1    2    0    0  0.00000000000E+00  0.00000000000E+00 -0.24353911852E+04  0.25945364506E+04  0.89470060256E+03 0.  0.
        5    1    3    3  502    0  0.17205150145E+02  0.25689020276E+03 -0.22784844333E+04  0.22929897506E+04  0.46999998093E+01 0. -1.
       -5    1    3    3    0  502 -0.17205150145E+02 -0.25689020276E+03 -0.15690675190E+03  0.30154669996E+03  0.46999998093E+01 0.  1.
</event>
<event>
 5   0  0.1033749E-02  0.9040724E+03  0.7818609E-02  0.9420505E-01
        2   -1    0    0  501    0  0.00000000000E+00  0.00000000000E+00  0.85726045815E+03  0.85726045815E+03  0.25500000920E-02 0.  1.
       -2   -1    0    0    0  501  0.00000000000E+00  0.00000000000E+00 -0.23836013604E+03  0.23836013605E+03  0.25500000920E-02 0. -1.
    10030    2    1    2    0    0  0.00000000000E+00  0.00000000000E+00  0.61890032211E+03  0.10956205942E+04  0.90407238523E+03 0.  0.
        5    1    3    3  502    0 -0.51934862362E+02 -0.31549504883E+03  0.69664351653E+03  0.76653025700E+03  0.46999998093E+01 0.  1.
       -5    1    3    3    0  502  0.51934862362E+02  0.31549504883E+03 -0.77743194422E+02  0.32909033721E+03  0.46999998093E+01 0. -1.
</event>
<event>
 5   0  0.1033749E-02  0.9148016E+03  0.7818609E-02  0.9407266E-01
       -2   -1    0    0    0  501  0.00000000000E+00  0.00000000000E+00  0.11360920915E+03  0.11360920918E+03  0.25500000920E-02 0. -1.
        2   -1    0    0  501    0  0.00000000000E+00  0.00000000000E+00 -0.18415363628E+04  0.18415363628E+04  0.25500000920E-02 0.  1.
    10030    2    1    2    0    0  0.00000000000E+00  0.00000000000E+00 -0.17279271536E+04  0.19551455720E+04  0.91480159560E+03 0.  0.
        5    1    3    3  502    0  0.43179666667E+03  0.11033860426E+03 -0.64422893464E+03  0.78337473738E+03  0.46999998093E+01 0.  1.
       -5    1    3    3    0  502 -0.43179666667E+03 -0.11033860426E+03 -0.10836982190E+04  0.11717708346E+04  0.46999998093E+01 0. -1.
</event>
<event>
 5   0  0.1003252E-02  0.9053397E+03  0.7818609E-02  0.9418931E-01
       -2   -1    0    0    0  501  0.00000000000E+00  0.00000000000E+00  0.10810123269E+03  0.10810123272E+03  0.25500000920E-02 0.  1.
        2   -1    0    0  501    0  0.00000000000E+00  0.00000000000E+00 -0.18955378021E+04  0.18955378021E+04  0.25500000920E-02 0. -1.
    10030    2    1    2    0    0  0.00000000000E+00  0.00000000000E+00 -0.17874365694E+04  0.20036390348E+04  0.90533965571E+03 0.  0.
        2    1    3    3  502    0  0.41009258677E+03  0.18651559416E+03 -0.79608975917E+03  0.91472558795E+03  0.25500000920E-02 0. -1.
       -2    1    3    3    0  502 -0.41009258677E+03 -0.18651559416E+03 -0.99134681026E+03  0.10889134469E+04  0.25500000920E-02 0.  1.
</event>
<event>
 5   0  0.6137243E-03  0.8899042E+03  0.7818609E-02  0.9438290E-01
       -1   -1    0    0    0  501  0.00000000000E+00  0.00000000000E+00  0.30315490950E+03  0.30315490955E+03  0.50400001928E-02 0. -1.
        1   -1    0    0  501    0  0.00000000000E+00  0.00000000000E+00 -0.65307326819E+03  0.65307326821E+03  0.50400001928E-02 0.  1.
    10030    2    1    2    0    0  0.00000000000E+00  0.00000000000E+00 -0.34991835869E+03  0.95622817776E+03  0.88990419158E+03 0.  0.
        4    1    3    3  502    0  0.16022249639E+03 -0.33358522385E+03  0.90496126192E+02  0.38097442391E+03  0.12699999809E+01 0. -1.
       -4    1    3    3    0  502 -0.16022249639E+03  0.33358522385E+03 -0.44041448488E+03  0.57525375384E+03  0.12699999809E+01 0.  1.
</event>
<event>
 5   0  0.1017079E-02  0.8838951E+03  0.7818609E-02  0.9445940E-01
        2   -1    0    0  501    0  0.00000000000E+00  0.00000000000E+00  0.20504073307E+03  0.20504073309E+03  0.25500000920E-02 0. -1.
       -2   -1    0    0    0  501  0.00000000000E+00  0.00000000000E+00 -0.95257971152E+03  0.95257971152E+03  0.25500000920E-02 0.  1.
    10030    2    1    2    0    0  0.00000000000E+00  0.00000000000E+00 -0.74753897845E+03  0.11576204446E+04  0.88389511226E+03 0.  0.
        1    1    3    3  502    0 -0.70362593031E+02 -0.23919975537E+03  0.10412982573E+03  0.27020443760E+03  0.50400001928E-02 0. -1.
       -1    1    3    3    0  502  0.70362593031E+02  0.23919975537E+03 -0.85166880417E+03  0.88741600701E+03  0.50400001928E-02 0.  1.
</event>
<event>
 5   0  0.1033749E-02  0.9129879E+03  0.7818609E-02  0.9409490E-01
       -2   -1    0    0    0  501  0.00000000000E+00  0.00000000000E+00  0.15969889318E+03  0.15969889320E+03  0.25500000920E-02 0. -1.
        2   -1    0    0  501    0  0.00000000000E+00  0.00000000000E+00 -0.13048727664E+04  0.13048727664E+04  0.25500000920E-02 0.  1.
    10030    2    1    2    0    0  0.00000000000E+00  0.00000000000E+00 -0.11451738732E+04  0.14645716596E+04  0.91298792225E+03 0.  0.
        5    1    3    3  502    0  0.15492866444E+03 -0.20693293283E+03 -0.11760990370E+04  0.12041823635E+04  0.46999998093E+01 0.  1.
       -5    1    3    3    0  502 -0.15492866444E+03  0.20693293283E+03  0.30925163797E+02  0.26038929607E+03  0.46999998093E+01 0. -1.
</event>
<event>
 5   0  0.1041727E-02  0.9046170E+03  0.7818609E-02  0.9419828E-01
        2   -1    0    0  501    0  0.00000000000E+00  0.00000000000E+00  0.74091885779E+03  0.74091885779E+03  0.25500000920E-02 0. -1.
       -2   -1    0    0    0  501  0.00000000000E+00  0.00000000000E+00 -0.27612063584E+03  0.27612063585E+03  0.25500000920E-02 0.  1.
    10030    2    1    2    0    0  0.00000000000E+00  0.00000000000E+00  0.46479822194E+03  0.10170394936E+04  0.90461701538E+03 0.  0.
        4    1    3    3  502    0  0.27167728429E+03  0.62654777572E+01  0.63890479839E+03  0.69429731190E+03  0.12699999809E+01 0. -1.
       -4    1    3    3    0  502 -0.27167728429E+03 -0.62654777572E+01 -0.17410657644E+03  0.32274218174E+03  0.12699999809E+01 0.  1.
</event>
<event>
 5   0  0.1028978E-02  0.9388589E+03  0.7818609E-02  0.9378268E-01
       -2   -1    0    0    0  501  0.00000000000E+00  0.00000000000E+00  0.13368381042E+03  0.13368381044E+03  0.25500000920E-02 0. -1.
        2   -1    0    0  501    0  0.00000000000E+00  0.00000000000E+00 -0.16483969901E+04  0.16483969901E+04  0.25500000920E-02 0.  1.
    10030    2    1    2    0    0  0.00000000000E+00  0.00000000000E+00 -0.15147131797E+04  0.17820808005E+04  0.93885886211E+03 0.  0.
        3    1    3    3  502    0 -0.17493673918E+03 -0.11008156278E+03 -0.15573774944E+04  0.15710332534E+04  0.10100000352E+00 0.  1.
       -3    1    3    3    0  502  0.17493673918E+03  0.11008156278E+03  0.42664314729E+02  0.21104754709E+03  0.10100000352E+00 0. -1.
</event>
<event>
 5   0  0.1033749E-02  0.8790073E+03  0.7818609E-02  0.9452211E-01
       -2   -1    0    0    0  501  0.00000000000E+00  0.00000000000E+00  0.25718028626E+03  0.25718028628E+03  0.25500000920E-02 0. -1.
        2   -1    0    0  501    0  0.00000000000E+00  0.00000000000E+00 -0.75108190480E+03  0.75108190480E+03  0.25500000920E-02 0.  1.
    10030    2    1    2    0    0  0.00000000000E+00  0.00000000000E+00 -0.49390161854E+03  0.10082621911E+04  0.87900730211E+03 0.  0.
        5    1    3    3  502    0  0.39769905928E+03  0.96441630264E+02 -0.43074988581E+03  0.59416587240E+03  0.46999998093E+01 0.  1.
       -5    1    3    3    0  502 -0.39769905928E+03 -0.96441630264E+02 -0.63151732726E+02  0.41409631868E+03  0.46999998093E+01 0. -1.
</event>
<event>
 5   0  0.6137243E-03  0.8904004E+03  0.7818609E-02  0.9437662E-01
        1   -1    0    0  501    0  0.00000000000E+00  0.00000000000E+00  0.13307555308E+03  0.13307555317E+03  0.50400001928E-02 0.  1.
       -1   -1    0    0    0  501  0.00000000000E+00  0.00000000000E+00 -0.14894037621E+04  0.14894037621E+04  0.50400001928E-02 0. -1.
    10030    2    1    2    0    0  0.00000000000E+00  0.00000000000E+00 -0.13563282090E+04  0.16224793153E+04  0.89040042560E+03 0.  0.
        4    1    3    3  502    0  0.37429905703E+03 -0.16498830642E+03 -0.35795231600E+03  0.54355533185E+03  0.12699999809E+01 0.  1.
       -4    1    3    3    0  502 -0.37429905703E+03  0.16498830642E+03 -0.99837589301E+03  0.10789239834E+04  0.12699999809E+01 0. -1.
</event>
<event>
 5   0  0.6015709E-03  0.9184522E+03  0.7818609E-02  0.9402805E-01
        1   -1    0    0  501    0  0.00000000000E+00  0.00000000000E+00  0.50809511381E+03  0.50809511383E+03  0.50400001928E-02 0. -1.
       -1   -1    0    0    0  501  0.00000000000E+00  0.00000000000E+00 -0.41505733232E+03  0.41505733235E+03  0.50400001928E-02 0.  1.
    10030    2    1    2    0    0  0.00000000000E+00  0.00000000000E+00  0.93037781490E+02  0.92315244618E+03  0.91845218171E+03 0.  0.
        3    1    3    3  502    0  0.27319183932E+02  0.32168587867E+03  0.37477935583E+03  0.49465919389E+03  0.10100000352E+00 0. -1.
       -3    1    3    3    0  502 -0.27319183932E+02 -0.32168587867E+03 -0.28174157434E+03  0.42849325229E+03  0.10100000352E+00 0.  1.
</event>
<event>
 5   0  0.6211218E-03  0.8934395E+03  0.7818609E-02  0.9433820E-01
       -1   -1    0    0    0  501  0.00000000000E+00  0.00000000000E+00  0.44605277162E+03  0.44605277164E+03  0.50400001928E-02 0. -1.
        1   -1    0    0  501    0  0.00000000000E+00  0.00000000000E+00 -0.44738777524E+03  0.44738777527E+03  0.50400001928E-02 0.  1.
    10030    2    1    2    0    0  0.00000000000E+00  0.00000000000E+00 -0.13350036255E+01  0.89344054691E+03  0.89343954951E+03 0.  0.
        5    1    3    3  502    0  0.30479518889E+03  0.29085545038E+03  0.14778961718E+03  0.44649844472E+03  0.46999998093E+01 0. -1.
       -5    1    3    3    0  502 -0.30479518889E+03 -0.29085545038E+03 -0.14912462080E+03  0.44694210220E+03  0.46999998093E+01 0.  1.
</event>
<event>
 5   0  0.1017079E-02  0.9011600E+03  0.7818609E-02  0.9424132E-01
       -2   -1    0    0    0  501  0.00000000000E+00  0.00000000000E+00  0.13750938501E+03  0.13750938503E+03  0.25500000920E-02 0. -1.
        2   -1    0    0  501    0  0.00000000000E+00  0.00000000000E+00 -0.14764254170E+04  0.14764254170E+04  0.25500000920E-02 0.  1.
    10030    2    1    2    0    0  0.00000000000E+00  0.00000000000E+00 -0.13389160319E+04  0.16139348020E+04  0.90116003267E+03 0.  0.
        1    1    3    3  502    0  0.40246080744E+03 -0.15048380814E+03 -0.42650639570E+03  0.60541538107E+03  0.50400001928E-02 0.  1.
       -1    1    3    3    0  502 -0.40246080744E+03  0.15048380814E+03 -0.91240963625E+03  0.10085194209E+04  0.50400001928E-02 0. -1.
</event>
<event>
 5   0  0.1033749E-02  0.9028858E+03  0.7818609E-02  0.9421981E-01
        2   -1    0    0  501    0  0.00000000000E+00  0.00000000000E+00  0.10818913972E+04  0.10818913972E+04  0.25500000920E-02 0.  1.
       -2   -1    0    0    0  501  0.00000000000E+00  0.00000000000E+00 -0.18837444933E+03  0.18837444935E+03  0.25500000920E-02 0. -1.
    10030    2    1    2    0    0  0.00000000000E+00  0.00000000000E+00  0.89351694783E+03  0.12702658465E+04  0.90288580937E+03 0.  0.
        5    1    3    3  502    0 -0.36274892239E+03 -0.14052342728E+03  0.12456717671E+03  0.40850053344E+03  0.46999998093E+01 0. -1.
       -5    1    3    3    0  502  0.36274892239E+03  0.14052342728E+03  0.76894977112E+03  0.86176531307E+03  0.46999998093E+01 0.  1.
</event>
<event>
 5   0  0.6211218E-03  0.9061092E+03  0.7818609E-02  0.9417977E-01
       -1   -1    0    0    0  501  0.00000000000E+00  0.00000000000E+00  0.25980480282E+03  0.25980480287E+03  0.50400001928E-02 0.  1.
        1   -1    0    0  501    0  0.00000000000E+00  0.00000000000E+00 -0.79004884798E+03  0.79004884799E+03  0.50400001928E-02 0. -1.
    10030    2    1    2    0    0  0.00000000000E+00  0.00000000000E+00 -0.53024404515E+03  0.10498536509E+04  0.90610923227E+03 0.  0.
        5    1    3    3  502    0  0.39814336926E+03 -0.14085942129E+03 -0.75172764117E+02  0.42899015550E+03  0.46999998093E+01 0.  1.
       -5    1    3    3    0  502 -0.39814336926E+03  0.14085942129E+03 -0.45507128104E+03  0.62086349536E+03  0.46999998093E+01 0. -1.
</event>
<event>
 5   0  0.6288003E-03  0.8441403E+03  0.7818609E-02  0.9498236E-01
        1   -1    0    0  501    0  0.00000000000E+00  0.00000000000E+00  0.97239759828E+03  0.97239759829E+03  0.50400001928E-02 0.  1.
       -1   -1    0    0    0  501  0.00000000000E+00  0.00000000000E+00 -0.18319995210E+03  0.18319995217E+03  0.50400001928E-02 0. -1.
    10030    2    1    2    0    0  0.00000000000E+00  0.00000000000E+00  0.78919764618E+03  0.11555975505E+04  0.84414025724E+03 0.  0.
        1    1    3    3  502    0 -0.25662598379E+03 -0.19066320272E+03  0.77183182931E+03  0.83542427855E+03  0.50400001928E-02 0.  1.
       -1    1    3    3    0  502  0.25662598379E+03  0.19066320272E+03  0.17365816868E+02  0.32017327191E+03  0.50400001928E-02 0. -1.
</event>
<event>
 5   0  0.1003252E-02  0.8987992E+03  0.7818609E-02  0.9427084E-01
       -2   -1    0    0    0  501  0.00000000000E+00  0.00000000000E+00  0.67409084390E+03  0.67409084391E+03  0.25500000920E-02 0.  1.
        2   -1    0    0  501    0  0.00000000000E+00  0.00000000000E+00 -0.29960352691E+03  0.29960352692E+03  0.25500000920E-02 0. -1.
    10030    2    1    2    0    0  0.00000000000E+00  0.00000000000E+00  0.37448731699E+03  0.97369437082E+03  0.89879918624E+03 0.  0.
        2    1    3    3  502    0 -0.21709440423E+02 -0.43242510572E+02 -0.29677342111E+03  0.30069199858E+03  0.25500000920E-02 0. -1.
       -2    1    3    3    0  502  0.21709440423E+02  0.43242510572E+02  0.67126073810E+03  0.67300237225E+03  0.25500000920E-02 0.  1.
</event>
<event>
 5   0  0.6288003E-03  0.8954635E+03  0.7818609E-02  0.9431270E-01
       -1   -1    0    0    0  501  0.00000000000E+00  0.00000000000E+00  0.16109034697E+03  0.16109034705E+03  0.50400001928E-02 0. -1.
        1   -1    0    0  501    0  0.00000000000E+00  0.00000000000E+00 -0.12444180627E+04  0.12444180627E+04  0.50400001928E-02 0.  1.
    10030    2    1    2    0    0  0.00000000000E+00  0.00000000000E+00 -0.10833277157E+04  0.14055084097E+04  0.89546353930E+03 0.  0.
        1    1    3    3  502    0  0.25509659193E+03 -0.35206681969E+03 -0.70953211276E+03  0.83214249730E+03  0.50400001928E-02 0.  1.
       -1    1    3    3    0  502 -0.25509659193E+03  0.35206681969E+03 -0.37379560296E+03  0.57336591244E+03  0.50400001928E-02 0. -1.
</event>
<event>
 5   0  0.1041727E-02  0.9086636E+03  0.7818609E-02  0.9414816E-01
        2   -1    0    0  501    0  0.00000000000E+00  0.00000000000E+00  0.32836176901E+03  0.32836176902E+03  0.25500000920E-02 0.  1.
       -2   -1    0    0    0  501  0.00000000000E+00  0.00000000000E+00 -0.62862797389E+03  0.62862797389E+03  0.25500000920E-02 0. -1.
    10030    2    1    2    0    0  0.00000000000E+00  0.00000000000E+00 -0.30026620488E+03  0.95698974291E+03  0.90866361997E+03 0.  0.
        4    1    3    3  502    0  0.23138670586E+03 -0.85040657153E+01  0.26155755543E+03  0.34932233608E+03  0.12699999809E+01 0.  1.
       -4    1    3    3    0  502 -0.23138670586E+03  0.85040657153E+01 -0.56182376031E+03  0.60766740683E+03  0.12699999809E+01 0. -1.
</event>
<event>
 5   0  0.1017079E-02  0.8995542E+03  0.7818609E-02  0.9426139E-01
        2   -1    0    0  501    0  0.00000000000E+00  0.00000000000E+00  0.66959562175E+03  0.66959562175E+03  0.25500000920E-02 0. -1.
       -2   -1    0    0    0  501  0.00000000000E+00  0.00000000000E+00 -0.30212183016E+03  0.30212183017E+03  0.25500000920E-02 0.  1.
    10030    2    1    2    0    0  0.00000000000E+00  0.00000000000E+00  0.36747379159E+03  0.97171745192E+03  0.89955423342E+03 0.  0.
        1    1    3    3  502    0 -0.33292099264E+03 -0.27382705489E+03  0.45056484638E+02  0.43341404011E+03  0.50400001928E-02 0. -1.
       -1    1    3    3    0  502  0.33292099264E+03  0.27382705489E+03  0.32241730695E+03  0.53830341182E+03  0.50400001928E-02 0.  1.
</event>
<event>
 5   0  0.3996375E-03  0.8915672E+03  0.7818609E-02  0.9436185E-01
        4   -1    0    0  501    0  0.00000000000E+00  0.00000000000E+00  0.88379498918E+03  0.88379590167E+03  0.12699999809E+01 0.  1.
       -4   -1    0    0    0  501  0.00000000000E+00  0.00000000000E+00 -0.22484911050E+03  0.22485269710E+03  0.12699999809E+01 0. -1.
    10030    2    1    2    0    0  0.00000000000E+00  0.00000000000E+00  0.65894587868E+03  0.11086485988E+04  0.89156718453E+03 0.  0.
        4    1    3    3  502    0  0.27417974784E+03  0.31664692223E+03  0.51920737616E+03  0.66709648466E+03  0.12699999809E+01 0.  1.
       -4    1    3    3    0  502 -0.27417974784E+03 -0.31664692223E+03  0.13973850251E+03  0.44155211411E+03  0.12699999809E+01 0. -1.
</event>
<event>
 5   0  0.6288003E-03  0.9021262E+03  0.7818609E-02  0.9422928E-01
        1   -1    0    0  501    0  0.00000000000E+00  0.00000000000E+00  0.27893959279E+03  0.27893959283E+03  0.50400001928E-02 0.  1.
       -1   -1    0    0    0  501  0.00000000000E+00  0.00000000000E+00 -0.72939774184E+03  0.72939774186E+03  0.50400001928E-02 0. -1.
    10030    2    1    2    0    0  0.00000000000E+00  0.00000000000E+00 -0.45045814905E+03  0.10083373347E+04  0.90212617548E+03 0.  0.
        1    1    3    3  502    0 -0.24320341327E+03  0.27972400729E+03 -0.51252045904E+03  0.63251137653E+03  0.50400001928E-02 0. -1.
       -1    1    3    3    0  502  0.24320341327E+03 -0.27972400729E+03  0.62062309991E+02  0.37582595816E+03  0.50400001928E-02 0.  1.
</event>
<event>
 5   0  0.3996375E-03  0.8328108E+03  0.7818609E-02  0.9513703E-01
        3   -1    0    0  501    0  0.00000000000E+00  0.00000000000E+00  0.35471889596E+03  0.35471891034E+03  0.10100000352E+00 0. -1.
       -3   -1    0    0    0  501  0.00000000000E+00  0.00000000000E+00 -0.48881927105E+03  0.48881928148E+03  0.10100000352E+00 0.  1.
    10030    2    1    2    0    0  0.00000000000E+00  0.00000000000E+00 -0.13410037509E+03  0.84353819182E+03  0.83281076510E+03 0.  0.
        2    1    3    3  502    0 -0.65850123354E+02 -0.17162756222E+03 -0.44549536076E+03  0.48193191980E+03  0.25500000920E-02 0.  1.
       -2    1    3    3    0  502  0.65850123354E+02  0.17162756222E+03  0.31139498567E+03  0.36160627202E+03  0.25500000920E-02 0. -1.
</event>
<event>
 5   0  0.1041727E-02  0.8994934E+03  0.7818609E-02  0.9426215E-01
        2   -1    0    0  501    0  0.00000000000E+00  0.00000000000E+00  0.19967476073E+04  0.19967476073E+04  0.25500000920E-02 0.  1.
       -2   -1    0    0    0  501  0.00000000000E+00  0.00000000000E+00 -0.10130079327E+03  0.10130079330E+03  0.25500000920E-02 0. -1.
    10030    2    1    2    0    0  0.00000000000E+00  0.00000000000E+00  0.18954468140E+04  0.20980484006E+04  0.89949344990E+03 0.  0.
        4    1    3    3  502    0 -0.18348065954E+03  0.24223041995E+03  0.17210717638E+04  0.17476928671E+04  0.12699999809E+01 0.  1.
       -4    1    3    3    0  502  0.18348065954E+03 -0.24223041995E+03  0.17437505019E+03  0.35035553343E+03  0.12699999809E+01 0. -1.
</event>
<event>
 5   0  0.6137243E-03  0.9190980E+03  0.7818609E-02  0.9402018E-01
        1   -1    0    0  501    0  0.00000000000E+00  0.00000000000E+00  0.82202648647E+03  0.82202648649E+03  0.50400001928E-02 0. -1.
       -1   -1    0    0    0  501  0.00000000000E+00  0.00000000000E+00 -0.25690813673E+03  0.25690813678E+03  0.50400001928E-02 0.  1.
    10030    2    1    2    0    0  0.00000000000E+00  0.00000000000E+00  0.56511834974E+03  0.10789346233E+04  0.91909802093E+03 0.  0.
        4    1    3    3  502    0 -0.92491458369E+00  0.16283502491E+03 -0.22190302235E+03  0.27524292005E+03  0.12699999809E+01 0.  1.
       -4    1    3    3    0  502  0.92491458369E+00 -0.16283502491E+03  0.78702137209E+03  0.80369170323E+03  0.12699999809E+01 0. -1.
</event>
<event>
 5   0  0.1041727E-02  0.8964056E+03  0.7818609E-02  0.9430086E-01
        2   -1    0    0  501    0  0.00000000000E+00  0.00000000000E+00  0.11378456640E+04  0.11378456640E+04  0.25500000920E-02 0. -1.
       -2   -1    0    0    0  501  0.00000000000E+00  0.00000000000E+00 -0.17654920853E+03  0.17654920854E+03  0.25500000920E-02 0.  1.
    10030    2    1    2    0    0  0.00000000000E+00  0.00000000000E+00  0.96129645549E+03  0.13143948726E+04  0.89640560333E+03 0.  0.
        4    1    3    3  502    0  0.30154661398E+03 -0.31886690998E+03  0.34724221741E+03  0.55962955348E+03  0.12699999809E+01 0. -1.
       -4    1    3    3    0  502 -0.30154661398E+03  0.31886690998E+03  0.61405423808E+03  0.75476531908E+03  0.12699999809E+01 0.  1.
</event>
<event>
 5   0  0.6092779E-03  0.9092762E+03  0.7818609E-02  0.9414059E-01
        1   -1    0    0  501    0  0.00000000000E+00  0.00000000000E+00  0.10938656142E+04  0.10938656142E+04  0.50400001928E-02 0.  1.
       -1   -1    0    0    0  501  0.00000000000E+00  0.00000000000E+00 -0.18895905756E+03  0.18895905763E+03  0.50400001928E-02 0. -1.
    10030    2    1    2    0    0  0.00000000000E+00  0.00000000000E+00  0.90490655664E+03  0.12828246718E+04  0.90927623000E+03 0.  0.
        2    1    3    3  502    0  0.33257197369E+03  0.27548356015E+03  0.65297092085E+03  0.78285779876E+03  0.25500000920E-02 0.  1.
       -2    1    3    3    0  502 -0.33257197369E+03 -0.27548356015E+03  0.25193563579E+03  0.49996687309E+03  0.25500000920E-02 0. -1.
</event>
<event>
 5   0  0.1017079E-02  0.8820964E+03  0.7818609E-02  0.9448243E-01
        2   -1    0    0  501    0  0.00000000000E+00  0.00000000000E+00  0.13443480806E+04  0.13443480806E+04  0.25500000920E-02 0. -1.
       -2   -1    0    0    0  501  0.00000000000E+00  0.00000000000E+00 -0.14469728246E+03  0.14469728248E+03  0.25500000920E-02 0.  1.
    10030    2    1    2    0    0  0.00000000000E+00  0.00000000000E+00  0.11996507982E+04  0.14890453631E+04  0.88209639828E+03 0.  0.
        1    1    3    3  502    0 -0.76282351745E+02 -0.98591293779E+02  0.13139916391E+04  0.13198913850E+04  0.50400001928E-02 0. -1.
       -1    1    3    3    0  502  0.76282351745E+02  0.98591293779E+02 -0.11434084094E+03  0.16915397816E+03  0.50400001928E-02 0.  1.
</event>
<event>
 5   0  0.6015709E-03  0.8979133E+03  0.7818609E-02  0.9428194E-01
        1   -1    0    0  501    0  0.00000000000E+00  0.00000000000E+00  0.14475103840E+04  0.14475103840E+04  0.50400001928E-02 0. -1.
       -1   -1    0    0    0  501  0.00000000000E+00  0.00000000000E+00 -0.13924741828E+03  0.13924741837E+03  0.50400001928E-02 0.  1.
    10030    2    1    2    0    0  0.00000000000E+00  0.00000000000E+00  0.13082629657E+04  0.15867578024E+04  0.89791332317E+03 0.  0.
        3    1    3    3  502    0  0.72104114402E+02 -0.54593067895E+02 -0.12298299494E+03  0.15265724228E+03  0.10100000352E+00 0.  1.
       -3    1    3    3    0  502 -0.72104114402E+02  0.54593067895E+02  0.14312459606E+04  0.14341005601E+04  0.10100000352E+00 0. -1.
</event>
<event>
 5   0  0.6288003E-03  0.8991400E+03  0.7818609E-02  0.9426657E-01
       -1   -1    0    0    0  501  0.00000000000E+00  0.00000000000E+00  0.78648247063E+02  0.78648247225E+02  0.50400001928E-02 0. -1.
        1   -1    0    0  501    0  0.00000000000E+00  0.00000000000E+00 -0.25698370771E+04  0.25698370771E+04  0.50400001928E-02 0.  1.
    10030    2    1    2    0    0  0.00000000000E+00  0.00000000000E+00 -0.24911888300E+04  0.26484853243E+04  0.89913999260E+03 0.  0.
        1    1    3    3  502    0 -0.15122338557E+03 -0.13129646124E+03 -0.60001261379E+02  0.20906320688E+03  0.50400001928E-02 0. -1.
       -1    1    3    3    0  502  0.15122338557E+03  0.13129646124E+03 -0.24311875687E+04  0.24394221175E+04  0.50400001928E-02 0.  1.
</event>
<event>
 5   0  0.6015709E-03  0.8905768E+03  0.7818609E-02  0.9437438E-01
       -1   -1    0    0    0  501  0.00000000000E+00  0.00000000000E+00  0.12422655929E+03  0.12422655939E+03  0.50400001928E-02 0. -1.
        1   -1    0    0  501    0  0.00000000000E+00  0.00000000000E+00 -0.15961302639E+04  0.15961302639E+04  0.50400001928E-02 0.  1.
    10030    2    1    2    0    0  0.00000000000E+00  0.00000000000E+00 -0.14719037046E+04  0.17203568233E+04  0.89057682648E+03 0.  0.
        3    1    3    3  502    0 -0.29916831217E+03  0.25885740465E+03 -0.11307677134E+04  0.11979751529E+04  0.10100000352E+00 0.  1.
       -3    1    3    3    0  502  0.29916831217E+03 -0.25885740465E+03 -0.34113599123E+03  0.52238167049E+03  0.10100000352E+00 0. -1.
</event>
<event>
 5   0  0.1028978E-02  0.9058243E+03  0.7818609E-02  0.9418330E-01
       -2   -1    0    0    0  501  0.00000000000E+00  0.00000000000E+00  0.54868238096E+03  0.54868238096E+03  0.25500000920E-02 0.  1.
        2   -1    0    0  501    0  0.00000000000E+00  0.00000000000E+00 -0.37385818037E+03  0.37385818038E+03  0.25500000920E-02 0. -1.
    10030    2    1    2    0    0  0.00000000000E+00  0.00000000000E+00  0.17482420059E+03  0.92254056134E+03  0.90582425790E+03 0.  0.
        3    1    3    3  502    0 -0.10883073792E+03 -0.40831921305E+03 -0.78569938183E+02  0.42981618704E+03  0.10100000352E+00 0.  1.
       -3    1    3    3    0  502  0.10883073792E+03  0.40831921305E+03  0.25339413877E+03  0.49272437430E+03  0.10100000352E+00 0. -1.
</event>
<event>
 5   0  0.1003252E-02  0.8963988E+03  0.7818609E-02  0.9430094E-01
        2   -1    0    0  501    0  0.00000000000E+00  0.00000000000E+00  0.79757799013E+03  0.79757799013E+03  0.25500000920E-02 0.  1.
       -2   -1    0    0    0  501  0.00000000000E+00  0.00000000000E+00 -0.25186589445E+03  0.25186589446E+03  0.25500000920E-02 0. -1.
    10030    2    1    2    0    0  0.00000000000E+00  0.00000000000E+00  0.54571209568E+03  0.10494438846E+04  0.89639878153E+03 0.  0.
        2    1    3    3  502    0  0.11130790401E+03  0.37157838055E+03  0.53574433330E+03  0.66142417030E+03  0.25500000920E-02 0.  1.
       -2    1    3    3    0  502 -0.11130790401E+03 -0.37157838055E+03  0.99677623809E+01  0.38801971429E+03  0.25500000920E-02 0. -1.
</event>
<event>
 5   0  0.6092779E-03  0.9135874E+03  0.7818609E-02  0.9408754E-01
        1   -1    0    0  501    0  0.00000000000E+00  0.00000000000E+00  0.17116769826E+04  0.17116769826E+04  0.50400001928E-02 0. -1.
       -1   -1    0    0    0  501  0.00000000000E+00  0.00000000000E+00 -0.12190411194E+03  0.12190411204E+03  0.50400001928E-02 0.  1.
    10030    2    1    2    0    0  0.00000000000E+00  0.00000000000E+00  0.15897728707E+04  0.18335810947E+04  0.91358735234E+03 0.  0.
        2    1    3    3  502    0 -0.70030817950E+02 -0.37516790894E+03  0.12986632744E+04  0.13535810192E+04  0.25500000920E-02 0. -1.
       -2    1    3    3    0  502  0.70030817950E+02  0.37516790894E+03  0.29110959630E+03  0.48000007545E+03  0.25500000920E-02 0.  1.
</event>
<event>
 5   0  0.1017079E-02  0.8982009E+03  0.7818609E-02  0.9427833E-01
        2   -1    0    0  501    0  0.00000000000E+00  0.00000000000E+00  0.18824957152E+03  0.18824957154E+03  0.25500000920E-02 0.  1.
       -2   -1    0    0    0  501  0.00000000000E+00  0.00000000000E+00 -0.10714033290E+04  0.10714033290E+04  0.25500000920E-02 0. -1.
    10030    2    1    2    0    0  0.00000000000E+00  0.00000000000E+00 -0.88315375749E+03  0.12596529006E+04  0.89820090766E+03 0.  0.
        1    1    3    3  502    0 -0.17076986400E+02  0.13652146200E+03  0.15796529751E+03  0.20948214313E+03  0.50400001928E-02 0.  1.
       -1    1    3    3    0  502  0.17076986400E+02 -0.13652146200E+03 -0.10411190550E+04  0.10501707574E+04  0.50400001928E-02 0. -1.
</event>
<event>
 5   0  0.1033749E-02  0.8999253E+03  0.7818609E-02  0.9425675E-01
        2   -1    0    0  501    0  0.00000000000E+00  0.00000000000E+00  0.27141351702E+03  0.27141351703E+03  0.25500000920E-02 0. -1.
       -2   -1    0    0    0  501  0.00000000000E+00  0.00000000000E+00 -0.74597008506E+03  0.74597008506E+03  0.25500000920E-02 0.  1.
    10030    2    1    2    0    0  0.00000000000E+00  0.00000000000E+00 -0.47455656804E+03  0.10173836021E+04  0.89992525108E+03 0.  0.
        5    1    3    3  502    0  0.14894338900E+03 -0.37243760496E+02 -0.71541351331E+03  0.73171703263E+03  0.46999998093E+01 0.  1.
       -5    1    3    3    0  502 -0.14894338900E+03  0.37243760496E+02  0.24085694527E+03  0.28566656946E+03  0.46999998093E+01 0. -1.
</event>
<event>
 5   0  0.6137243E-03  0.9390879E+03  0.7818609E-02  0.9377997E-01
       -1   -1    0    0    0  501  0.00000000000E+00  0.00000000000E+00  0.45542915961E+03  0.45542915963E+03  0.50400001928E-02 0.  1.
        1   -1    0    0  501    0  0.00000000000E+00  0.00000000000E+00 -0.48409623569E+03  0.48409623571E+03  0.50400001928E-02 0. -1.
    10030    2    1    2    0    0  0.00000000000E+00  0.00000000000E+00 -0.28667076082E+02  0.93952539535E+03  0.93908794437E+03 0.  0.
        4    1    3    3  502    0  0.19538196237E+03 -0.41856129115E+03 -0.98647722012E+02  0.47233531693E+03  0.12699999809E+01 0. -1.
       -4    1    3    3    0  502 -0.19538196237E+03  0.41856129115E+03  0.69980645930E+02  0.46719007842E+03  0.12699999809E+01 0.  1.
</event>
<event>
 5   0  0.1017079E-02  0.8981429E+03  0.7818609E-02  0.9427906E-01
       -2   -1    0    0    0  501  0.00000000000E+00  0.00000000000E+00  0.48217859312E+03  0.48217859313E+03  0.25500000920E-02 0. -1.
        2   -1    0    0  501    0  0.00000000000E+00  0.00000000000E+00 -0.41823750636E+03  0.41823750637E+03  0.25500000920E-02 0.  1.
    10030    2    1    2    0    0  0.00000000000E+00  0.00000000000E+00  0.63941086764E+02  0.90041609950E+03  0.89814291160E+03 0.  0.
        1    1    3    3  502    0 -0.52114817068E+02 -0.42205418969E+03 -0.11268421879E+03  0.43993570710E+03  0.50400001928E-02 0.  1.
       -1    1    3    3    0  502  0.52114817068E+02  0.42205418969E+03  0.17662530556E+03  0.46048039240E+03  0.50400001928E-02 0. -1.
</event>
<event>
 5   0  0.6288003E-03  0.8994530E+03  0.7818609E-02  0.9426265E-01
       -1   -1    0    0    0  501  0.00000000000E+00  0.00000000000E+00  0.43054517770E+03  0.43054517773E+03  0.50400001928E-02 0.  1.
        1   -1    0    0  501    0  0.00000000000E+00  0.00000000000E+00 -0.46976236744E+03  0.46976236747E+03  0.50400001928E-02 0. -1.
    10030    2    1    2    0    0  0.00000000000E+00  0.00000000000E+00 -0.39217189737E+02  0.90030754520E+03  0.89945299375E+03 0.  0.
        1    1    3    3  502    0 -0.21219733900E+03  0.12045623759E+02  0.37710255317E+03  0.43287312617E+03  0.50400001928E-02 0.  1.
       -1    1    3    3    0  502  0.21219733900E+03 -0.12045623759E+02 -0.41631974291E+03  0.46743441903E+03  0.50400001928E-02 0. -1.
</event>
<event>
 5   0  0.1017079E-02  0.8883682E+03  0.7818609E-02  0.9440240E-01
        2   -1    0    0  501    0  0.00000000000E+00  0.00000000000E+00  0.55748920770E+03  0.55748920771E+03  0.25500000920E-02 0.  1.
       -2   -1    0    0    0  501  0.00000000000E+00  0.00000000000E+00 -0.35390736201E+03  0.35390736202E+03  0.25500000920E-02 0. -1.
    10030    2    1    2    0    0  0.00000000000E+00  0.00000000000E+00  0.20358184569E+03  0.91139656973E+03  0.88836824539E+03 0.  0.
        1    1    3    3  502    0 -0.19244996357E+03  0.92141621689E+02  0.50146949147E+03  0.54497588738E+03  0.50400001928E-02 0.  1.
       -1    1    3    3    0  502  0.19244996357E+03 -0.92141621689E+02 -0.29788764577E+03  0.36642068235E+03  0.50400001928E-02 0. -1.
</event>
<event>
 5   0  0.6137243E-03  0.8973585E+03  0.7818609E-02  0.9428889E-01
       -1   -1    0    0    0  501  0.00000000000E+00  0.00000000000E+00  0.60780112977E+03  0.60780112979E+03  0.50400001928E-02 0. -1.
        1   -1    0    0  501    0  0.00000000000E+00  0.00000000000E+00 -0.33121537701E+03  0.33121537705E+03  0.50400001928E-02 0.  1.
    10030    2    1    2    0    0  0.00000000000E+00  0.00000000000E+00  0.27658575275E+03  0.93901650684E+03  0.89735852450E+03 0.  0.
        4    1    3    3  502    0 -0.40169454138E+02  0.30424850087E+03 -0.20421003734E+03  0.36862458895E+03  0.12699999809E+01 0.  1.
       -4    1    3    3    0  502  0.40169454138E+02 -0.30424850087E+03  0.48079579010E+03  0.57039191789E+03  0.12699999809E+01 0. -1.
</event>
<event>
 5   0  0.1003252E-02  0.9449953E+03  0.7818609E-02  0.9371019E-01
        2   -1    0    0  501    0  0.00000000000E+00  0.00000000000E+00  0.46439513710E+03  0.46439513711E+03  0.25500000920E-02 0.  1.
       -2   -1    0    0    0  501  0.00000000000E+00  0.00000000000E+00 -0.48074153665E+03  0.48074153666E+03  0.25500000920E-02 0. -1.
    10030    2    1    2    0    0  0.00000000000E+00  0.00000000000E+00 -0.16346399552E+02  0.94513667377E+03  0.94499530545E+03 0.  0.
        2    1    3    3  502    0  0.68419047833E+02  0.39060338206E+03  0.24877351155E+03  0.46812437261E+03  0.25500000920E-02 0.  1.
       -2    1    3    3    0  502 -0.68419047833E+02 -0.39060338206E+03 -0.26511991110E+03  0.47701230115E+03  0.25500000920E-02 0. -1.
</event>
<event>
 5   0  0.1003252E-02  0.9021363E+03  0.7818609E-02  0.9422915E-01
       -2   -1    0    0    0  501  0.00000000000E+00  0.00000000000E+00  0.13787119418E+03  0.13787119421E+03  0.25500000920E-02 0. -1.
        2   -1    0    0  501    0  0.00000000000E+00  0.00000000000E+00 -0.14757432988E+04  0.14757432988E+04  0.25500000920E-02 0.  1.
    10030    2    1    2    0    0  0.00000000000E+00  0.00000000000E+00 -0.13378721046E+04  0.16136144930E+04  0.90213633322E+03 0.  0.
        2    1    3    3  502    0 -0.36572178712E+03  0.14061093722E+03 -0.26922521601E+03  0.47540096569E+03  0.25500000920E-02 0. -1.
       -2    1    3    3    0  502  0.36572178712E+03 -0.14061093722E+03 -0.10686468886E+04  0.11382135273E+04  0.25500000920E-02 0.  1.
</event>
<event>
 5   0  0.6137243E-03  0.9109558E+03  0.7818609E-02  0.9411989E-01
        1   -1    0    0  501    0  0.00000000000E+00  0.00000000000E+00  0.88676865650E+03  0.88676865651E+03  0.50400001928E-02 0.  1.
       -1   -1    0    0    0  501  0.00000000000E+00  0.00000000000E+00 -0.23395067208E+03  0.23395067213E+03  0.50400001928E-02 0. -1.
    10030    2    1    2    0    0  0.00000000000E+00  0.00000000000E+00  0.65281798442E+03  0.11207193286E+04  0.91095581276E+03 0.  0.
        4    1    3    3  502    0  0.45239359919E+03 -0.52754376637E+02  0.33125528749E+03  0.56318262689E+03  0.12699999809E+01 0.  1.
       -4    1    3    3    0  502 -0.45239359919E+03  0.52754376637E+02  0.32156269694E+03  0.55753670175E+03  0.12699999809E+01 0. -1.
</event>
<event>
 5   0  0.6211218E-03  0.9004140E+03  0.7818609E-02  0.9425064E-01
       -1   -1    0    0    0  501  0.00000000000E+00  0.00000000000E+00  0.34471906796E+03  0.34471906799E+03  0.50400001928E-02 0. -1.
        1   -1    0    0  501    0  0.00000000000E+00  0.00000000000E+00 -0.58797537577E+03  0.58797537579E+03  0.50400001928E-02 0.  1.
    10030    2    1    2    0    0  0.00000000000E+00  0.00000000000E+00 -0.24325630782E+03  0.93269444378E+03  0.90041395712E+03 0.  0.
        5    1    3    3  502    0 -0.43454025541E+03  0.34969965483E+02 -0.23797637788E+03  0.49669203586E+03  0.46999998093E+01 0. -1.
       -5    1    3    3    0  502  0.43454025541E+03 -0.34969965483E+02 -0.52799299358E+01  0.43600240793E+03  0.46999998093E+01 0.  1.
</event>
<event>
 5   0  0.3996375E-03  0.8923125E+03  0.7818609E-02  0.9435243E-01
       -4   -1    0    0    0  501  0.00000000000E+00  0.00000000000E+00  0.40580143618E+03  0.40580342347E+03  0.12699999809E+01 0.  1.
        4   -1    0    0  501    0  0.00000000000E+00  0.00000000000E+00 -0.49052011725E+03  0.49052176132E+03  0.12699999809E+01 0. -1.
    10030    2    1    2    0    0  0.00000000000E+00  0.00000000000E+00 -0.84718681072E+02  0.89632518479E+03  0.89231249121E+03 0.  0.
        5    1    3    3  502    0 -0.43705854848E+02  0.15209419005E+03  0.37663807704E+03  0.40855987991E+03  0.46999998093E+01 0.  1.
       -5    1    3    3    0  502  0.43705854848E+02 -0.15209419005E+03 -0.46135675811E+03  0.48776530488E+03  0.46999998093E+01 0. -1.
</event>
<event>
 5   0  0.1028978E-02  0.9164581E+03  0.7818609E-02  0.9405239E-01
       -2   -1    0    0    0  501  0.00000000000E+00  0.00000000000E+00  0.11459703741E+03  0.11459703744E+03  0.25500000920E-02 0.  1.
        2   -1    0    0  501    0  0.00000000000E+00  0.00000000000E+00 -0.18322799615E+04  0.18322799615E+04  0.25500000920E-02 0. -1.
    10030    2    1    2    0    0  0.00000000000E+00  0.00000000000E+00 -0.17176829241E+04  0.19468769990E+04  0.91645808485E+03 0.  0.
        3    1    3    3  502    0  0.25063420624E+03 -0.30601149448E+03 -0.36741697332E+03  0.53986644883E+03  0.10100000352E+00 0.  1.
       -3    1    3    3    0  502 -0.25063420624E+03  0.30601149448E+03 -0.13502659508E+04  0.14070105502E+04  0.10100000352E+00 0. -1.
</event>
<event>
 5   0  0.6092779E-03  0.9759603E+03  0.7818609E-02  0.9335311E-01
        1   -1    0    0  501    0  0.00000000000E+00  0.00000000000E+00  0.50657862725E+03  0.50657862727E+03  0.50400001928E-02 0.  1.
       -1   -1    0    0    0  501  0.00000000000E+00  0.00000000000E+00 -0.47006448902E+03  0.47006448904E+03  0.50400001928E-02 0. -1.
    10030    2    1    2    0    0  0.00000000000E+00  0.00000000000E+00  0.36514138230E+02  0.97664311631E+03  0.97596029343E+03 0.  0.
        2    1    3    3  502    0  0.37944124828E+02 -0.38547605457E+03 -0.27875536951E+03  0.47721703793E+03  0.25500000920E-02 0. -1.
       -2    1    3    3    0  502 -0.37944124828E+02  0.38547605457E+03  0.31526950774E+03  0.49942607838E+03  0.25500000920E-02 0.  1.
</event>
<event>
 5   0  0.6288003E-03  0.9051185E+03  0.7818609E-02  0.9419206E-01
        1   -1    0    0  501    0  0.00000000000E+00  0.00000000000E+00  0.17341584595E+04  0.17341584595E+04  0.50400001928E-02 0.  1.
       -1   -1    0    0    0  501  0.00000000000E+00  0.00000000000E+00 -0.11810333063E+03  0.11810333074E+03  0.50400001928E-02 0. -1.
    10030    2    1    2    0    0  0.00000000000E+00  0.00000000000E+00  0.16160551288E+04  0.18522617902E+04  0.90511853370E+03 0.  0.
        1    1    3    3  502    0  0.94466741224E+01  0.14272908629E+03 -0.70625386101E+02  0.15952672789E+03  0.50400001928E-02 0. -1.
       -1    1    3    3    0  502 -0.94466741224E+01 -0.14272908629E+03  0.16866805149E+04  0.16927350623E+04  0.50400001928E-02 0.  1.
</event>
<event>
 5   0  0.1017079E-02  0.9117337E+03  0.7818609E-02  0.9411031E-01
        2   -1    0    0  501    0  0.00000000000E+00  0.00000000000E+00  0.11082490465E+04  0.11082490465E+04  0.25500000920E-02 0. -1.
       -2   -1    0    0    0  501  0.00000000000E+00  0.00000000000E+00 -0.18751615433E+03  0.18751615435E+03  0.25500000920E-02 0.  1.
    10030    2    1    2    0    0  0.00000000000E+00  0.00000000000E+00  0.92073289216E+03  0.12957652009E+04  0.91173373143E+03 0.  0.
        1    1    3    3  502    0  0.63755661882E+02  0.14449624181E+02 -0.18081990105E+03  0.19227431628E+03  0.50400001928E-02 0.  1.
       -1    1    3    3    0  502 -0.63755661882E+02 -0.14449624181E+02  0.11015527932E+04  0.11034908846E+04  0.50400001928E-02 0. -1.
</event>
<event>
 5   0  0.6211218E-03  0.9049269E+03  0.7818609E-02  0.9419443E-01
       -1   -1    0    0    0  501  0.00000000000E+00  0.00000000000E+00  0.81789980225E+02  0.81789980380E+02  0.50400001928E-02 0. -1.
        1   -1    0    0  501    0  0.00000000000E+00  0.00000000000E+00 -0.25030348154E+04  0.25030348154E+04  0.50400001928E-02 0.  1.
    10030    2    1    2    0    0  0.00000000000E+00  0.00000000000E+00 -0.24212448352E+04  0.25848247958E+04  0.90492688823E+03 0.  0.
        5    1    3    3  502    0 -0.13057182413E+02  0.26238896917E+03 -0.15846741505E+03  0.30684274928E+03  0.46999998093E+01 0. -1.
       -5    1    3    3    0  502  0.13057182413E+02 -0.26238896917E+03 -0.22627774201E+04  0.22779820465E+04  0.46999998093E+01 0.  1.
</event>
<event>
 5   0  0.6211218E-03  0.9000372E+03  0.7818609E-02  0.9425535E-01
       -1   -1    0    0    0  501  0.00000000000E+00  0.00000000000E+00  0.58907648378E+03  0.58907648380E+03  0.50400001928E-02 0. -1.
        1   -1    0    0  501    0  0.00000000000E+00  0.00000000000E+00 -0.34378681505E+03  0.34378681508E+03  0.50400001928E-02 0.  1.
    10030    2    1    2    0    0  0.00000000000E+00  0.00000000000E+00  0.24528966873E+03  0.93286329888E+03  0.90003717302E+03 0.  0.
        5    1    3    3  502    0  0.28295126559E+03  0.79053979812E+02  0.47593385348E+03  0.55932644611E+03  0.46999998093E+01 0. -1.
       -5    1    3    3    0  502 -0.28295126559E+03 -0.79053979812E+02 -0.23064418475E+03  0.37353685278E+03  0.46999998093E+01 0.  1.
</event>
<event>
 5   0  0.1003252E-02  0.8732672E+03  0.7818609E-02  0.9459630E-01
       -2   -1    0    0    0  501  0.00000000000E+00  0.00000000000E+00  0.32752701226E+03  0.32752701227E+03  0.25500000920E-02 0.  1.
        2   -1    0    0  501    0  0.00000000000E+00  0.00000000000E+00 -0.58208604671E+03  0.58208604671E+03  0.25500000920E-02 0. -1.
    10030    2    1    2    0    0  0.00000000000E+00  0.00000000000E+00 -0.25455903445E+03  0.90961305898E+03  0.87326720713E+03 0.  0.
        2    1    3    3  502    0 -0.15767392405E+03 -0.31215923695E+03  0.14502895630E+03  0.37859985962E+03  0.25500000920E-02 0.  1.
       -2    1    3    3    0  502  0.15767392405E+03  0.31215923695E+03 -0.39958799075E+03  0.53101319936E+03  0.25500000920E-02 0. -1.
</event>
<event>
 5   0  0.1003252E-02  0.9002976E+03  0.7818609E-02  0.9425209E-01
        2   -1    0    0  501    0  0.00000000000E+00  0.00000000000E+00  0.66032839976E+03  0.66032839977E+03  0.25500000920E-02 0.  1.
       -2   -1    0    0    0  501  0.00000000000E+00  0.00000000000E+00 -0.30686844432E+03  0.30686844433E+03  0.25500000920E-02 0. -1.
    10030    2    1    2    0    0  0.00000000000E+00  0.00000000000E+00  0.35345995544E+03  0.96719684410E+03  0.90029761476E+03 0.  0.
        2    1    3    3  502    0 -0.14514904306E+03  0.27267183988E+03 -0.17503946390E+03  0.35504505474E+03  0.25500000920E-02 0. -1.
       -2    1    3    3    0  502  0.14514904306E+03 -0.27267183988E+03  0.52849941934E+03  0.61215178936E+03  0.25500000920E-02 0.  1.
</event>
<event>
 5   0  0.6015709E-03  0.9174574E+03  0.7818609E-02  0.9404018E-01
        1   -1    0    0  501    0  0.00000000000E+00  0.00000000000E+00  0.56255502937E+03  0.56255502940E+03  0.50400001928E-02 0. -1.
       -1   -1    0    0    0  501  0.00000000000E+00  0.00000000000E+00 -0.37406475162E+03  0.37406475166E+03  0.50400001928E-02 0.  1.
    10030    2    1    2    0    0  0.00000000000E+00  0.00000000000E+00  0.18849027775E+03  0.93661978105E+03  0.91745737201E+03 0.  0.
        3    1    3    3  502    0  0.17551380190E+03 -0.95289667747E+02 -0.32735349531E+03  0.38346516990E+03  0.10100000352E+00 0.  1.
       -3    1    3    3    0  502 -0.17551380190E+03  0.95289667747E+02  0.51584377306E+03  0.55315461115E+03  0.10100000352E+00 0. -1.
</event>
<event>
 5   0  0.1033749E-02  0.8993204E+03  0.7818609E-02  0.9426431E-01
        2   -1    0    0  501    0  0.00000000000E+00  0.00000000000E+00  0.54771160676E+03  0.54771160677E+03  0.25500000920E-02 0.  1.
       -2   -1    0    0    0  501  0.00000000000E+00  0.00000000000E+00 -0.36916198948E+03  0.36916198949E+03  0.25500000920E-02 0. -1.
    10030    2    1    2    0    0  0.00000000000E+00  0.00000000000E+00  0.17854961729E+03  0.91687359626E+03  0.89932042437E+03 0.  0.
        5    1    3    3  502    0  0.11724958027E+03 -0.28953359348E+03 -0.24044920421E+03  0.39422718784E+03  0.46999998093E+01 0. -1.
       -5    1    3    3    0  502 -0.11724958027E+03  0.28953359348E+03  0.41899882149E+03  0.52264640842E+03  0.46999998093E+01 0.  1.
</event>
<event>
 5   0  0.6137243E-03  0.8945824E+03  0.7818609E-02  0.9432379E-01
        1   -1    0    0  501    0  0.00000000000E+00  0.00000000000E+00  0.16977333025E+03  0.16977333033E+03  0.50400001928E-02 0. -1.
       -1   -1    0    0    0  501  0.00000000000E+00  0.00000000000E+00 -0.11784501214E+04  0.11784501214E+04  0.50400001928E-02 0.  1.
    10030    2    1    2    0    0  0.00000000000E+00  0.00000000000E+00 -0.10086767912E+04  0.13482234518E+04  0.89458236448E+03 0.  0.
        4    1    3    3  502    0 -0.11967260906E+03 -0.18401299648E+03 -0.10916920338E+04  0.11135418384E+04  0.12699999809E+01 0.  1.
       -4    1    3    3    0  502  0.11967260906E+03  0.18401299648E+03  0.83015242666E+02  0.23468161336E+03  0.12699999809E+01 0. -1.
</event>
<event>
 5   0  0.1003252E-02  0.9562465E+03  0.7818609E-02  0.9357879E-01
       -2   -1    0    0    0  501  0.00000000000E+00  0.00000000000E+00  0.10682480374E+04  0.10682480374E+04  0.25500000920E-02 0. -1.
        2   -1    0    0  501    0  0.00000000000E+00  0.00000000000E+00 -0.21399697920E+03  0.21399697922E+03  0.25500000920E-02 0.  1.
    10030    2    1    2    0    0  0.00000000000E+00  0.00000000000E+00  0.85425105819E+03  0.12822450166E+04  0.95624652272E+03 0.  0.
        2    1    3    3  502    0  0.30380570438E+03  0.26098231290E+03  0.76963995071E+02  0.40783958882E+03  0.25500000920E-02 0.  1.
       -2    1    3    3    0  502 -0.30380570438E+03 -0.26098231290E+03  0.77728706312E+03  0.87440542780E+03  0.25500000920E-02 0. -1.
</event>
<event>
 5   0  0.6015709E-03  0.1002532E+04  0.7818609E-02  0.9305772E-01
       -1   -1    0    0    0  501  0.00000000000E+00  0.00000000000E+00  0.19582641749E+03  0.19582641756E+03  0.50400001928E-02 0.  1.
        1   -1    0    0  501    0  0.00000000000E+00  0.00000000000E+00 -0.12831148313E+04  0.12831148313E+04  0.50400001928E-02 0. -1.
    10030    2    1    2    0    0  0.00000000000E+00  0.00000000000E+00 -0.10872884138E+04  0.14789412488E+04  0.10025323550E+04 0.  0.
        3    1    3    3  502    0 -0.54768223113E+02  0.49341647307E+03 -0.44134961998E+03  0.66426566329E+03  0.10100000352E+00 0.  1.
       -3    1    3    3    0  502  0.54768223113E+02 -0.49341647307E+03 -0.64593879378E+03  0.81467558554E+03  0.10100000352E+00 0. -1.
</event>
<event>
 5   0  0.6211218E-03  0.9017542E+03  0.7818609E-02  0.9423391E-01
       -1   -1    0    0    0  501  0.00000000000E+00  0.00000000000E+00  0.27608531916E+03  0.27608531921E+03  0.50400001928E-02 0.  1.
        1   -1    0    0  501    0  0.00000000000E+00  0.00000000000E+00 -0.73633100789E+03  0.73633100790E+03  0.50400001928E-02 0. -1.
    10030    2    1    2    0    0  0.00000000000E+00  0.00000000000E+00 -0.46024568872E+03  0.10124163271E+04  0.90175424890E+03 0.  0.
        5    1    3    3  502    0 -0.17144360656E+03  0.16990765677E+03 -0.65765105970E+03  0.70056300815E+03  0.46999998093E+01 0. -1.
       -5    1    3    3    0  502  0.17144360656E+03 -0.16990765677E+03  0.19740537098E+03  0.31185331896E+03  0.46999998093E+01 0.  1.
</event>
<event>
 5   0  0.6092779E-03  0.9133446E+03  0.7818609E-02  0.9409052E-01
        1   -1    0    0  501    0  0.00000000000E+00  0.00000000000E+00  0.51571690843E+03  0.51571690846E+03  0.50400001928E-02 0.  1.
       -1   -1    0    0    0  501  0.00000000000E+00  0.00000000000E+00 -0.40438769449E+03  0.40438769452E+03  0.50400001928E-02 0. -1.
    10030    2    1    2    0    0  0.00000000000E+00  0.00000000000E+00  0.11132921394E+03  0.92010460298E+03  0.91334456069E+03 0.  0.
        2    1    3    3  502    0 -0.27275282867E+03 -0.36324781367E+03  0.83436270317E+01  0.45432663999E+03  0.25500000920E-02 0. -1.
       -2    1    3    3    0  502  0.27275282867E+03  0.36324781367E+03  0.10298558691E+03  0.46577796299E+03  0.25500000920E-02 0.  1.
</event>
<event>
 5   0  0.6211218E-03  0.8978207E+03  0.7818609E-02  0.9428310E-01
       -1   -1    0    0    0  501  0.00000000000E+00  0.00000000000E+00  0.22875323909E+03  0.22875323915E+03  0.50400001928E-02 0.  1.
        1   -1    0    0  501    0  0.00000000000E+00  0.00000000000E+00 -0.88095141414E+03  0.88095141415E+03  0.50400001928E-02 0. -1.
    10030    2    1    2    0    0  0.00000000000E+00  0.00000000000E+00 -0.65219817505E+03  0.11097046533E+04  0.89782067141E+03 0.  0.
        5    1    3    3  502    0 -0.14561932850E+03  0.31011593879E+03 -0.68458438612E+03  0.76554213211E+03  0.46999998093E+01 0. -1.
       -5    1    3    3    0  502  0.14561932850E+03 -0.31011593879E+03  0.32386211068E+02  0.34416252119E+03  0.46999998093E+01 0.  1.
</event>
<event>
 5   0  0.1003252E-02  0.8973970E+03  0.7818609E-02  0.9428841E-01
        2   -1    0    0  501    0  0.00000000000E+00  0.00000000000E+00  0.35266311866E+03  0.35266311867E+03  0.25500000920E-02 0.  1.
       -2   -1    0    0    0  501  0.00000000000E+00  0.00000000000E+00 -0.57088573244E+03  0.57088573244E+03  0.25500000920E-02 0. -1.
    10030    2    1    2    0    0  0.00000000000E+00  0.00000000000E+00 -0.21822261378E+03  0.92354885111E+03  0.89739699755E+03 0.  0.
        2    1    3    3  502    0 -0.31590153454E+03  0.17416740432E+03  0.16550239719E+03  0.39688676941E+03  0.25500000920E-02 0.  1.
       -2    1    3    3    0  502  0.31590153454E+03 -0.17416740432E+03 -0.38372501097E+03  0.52666208170E+03  0.25500000920E-02 0. -1.
</event>
<event>
 5   0  0.1003252E-02  0.1031330E+04  0.7818609E-02  0.9274835E-01
        2   -1    0    0  501    0  0.00000000000E+00  0.00000000000E+00  0.12831494496E+04  0.12831494496E+04  0.25500000920E-02 0.  1.
       -2   -1    0    0    0  501  0.00000000000E+00  0.00000000000E+00 -0.20723264465E+03  0.20723264466E+03  0.25500000920E-02 0. -1.
    10030    2    1    2    0    0  0.00000000000E+00  0.00000000000E+00  0.10759168049E+04  0.14903820942E+04  0.10313301196E+04 0.  0.
        2    1    3    3  502    0  0.97667154483E+02 -0.20764584154E+03 -0.12938491433E+03  0.26343144200E+03  0.25500000920E-02 0. -1.
       -2    1    3    3    0  502 -0.97667154483E+02  0.20764584154E+03  0.12053017192E+04  0.12269506522E+04  0.25500000920E-02 0.  1.
</event>
<event>
 5   0  0.6092779E-03  0.8996276E+03  0.7818609E-02  0.9426047E-01
        1   -1    0    0  501    0  0.00000000000E+00  0.00000000000E+00  0.16445647672E+04  0.16445647672E+04  0.50400001928E-02 0. -1.
       -1   -1    0    0    0  501  0.00000000000E+00  0.00000000000E+00 -0.12303099322E+03  0.12303099333E+03  0.50400001928E-02 0.  1.
    10030    2    1    2    0    0  0.00000000000E+00  0.00000000000E+00  0.15215337740E+04  0.17675957605E+04  0.89962756032E+03 0.  0.
        2    1    3    3  502    0 -0.26324980717E+03  0.10236565798E+03  0.14485992602E+04  0.14758790620E+04  0.25500000920E-02 0. -1.
       -2    1    3    3    0  502  0.26324980717E+03 -0.10236565798E+03  0.72934513775E+02  0.29171669856E+03  0.25500000920E-02 0.  1.
</event>
<event>
 5   0  0.1041727E-02  0.8997749E+03  0.7818609E-02  0.9425863E-01
        2   -1    0    0  501    0  0.00000000000E+00  0.00000000000E+00  0.79990954407E+03  0.79990954408E+03  0.25500000920E-02 0.  1.
       -2   -1    0    0    0  501  0.00000000000E+00  0.00000000000E+00 -0.25302698753E+03  0.25302698754E+03  0.25500000920E-02 0. -1.
    10030    2    1    2    0    0  0.00000000000E+00  0.00000000000E+00  0.54688255654E+03  0.10529365316E+04  0.89977486571E+03 0.  0.
        4    1    3    3  502    0 -0.30770381875E+03  0.26130627804E+03  0.41057190810E+02  0.40577076882E+03  0.12699999809E+01 0. -1.
       -4    1    3    3    0  502  0.30770381875E+03 -0.26130627804E+03  0.50582536573E+03  0.64716576280E+03  0.12699999809E+01 0.  1.
</event>
<event>
 5   0  0.3996375E-03  0.9061095E+03  0.7818609E-02  0.9417976E-01
       -3   -1    0    0    0  501  0.00000000000E+00  0.00000000000E+00  0.38440982137E+03  0.38440983464E+03  0.10100000352E+00 0.  1.
        3   -1    0    0  501    0  0.00000000000E+00  0.00000000000E+00 -0.53395771644E+03  0.53395772599E+03  0.10100000352E+00 0. -1.
    10030    2    1    2    0    0  0.00000000000E+00  0.00000000000E+00 -0.14954789507E+03  0.91836756063E+03  0.90610948759E+03 0.  0.
        2    1    3    3  502    0 -0.34744328273E+03  0.10301762634E+03  0.20080349721E+03  0.41430847270E+03  0.25500000920E-02 0.  1.
       -2    1    3    3    0  502  0.34744328273E+03 -0.10301762634E+03 -0.35035139228E+03  0.50405908793E+03  0.25500000920E-02 0. -1.
</event>
<event>
 5   0  0.6211218E-03  0.9095991E+03  0.7818609E-02  0.9413661E-01
        1   -1    0    0  501    0  0.00000000000E+00  0.00000000000E+00  0.40980638263E+03  0.40980638266E+03  0.50400001928E-02 0. -1.
       -1   -1    0    0    0  501  0.00000000000E+00  0.00000000000E+00 -0.50473253098E+03  0.50473253100E+03  0.50400001928E-02 0.  1.
    10030    2    1    2    0    0  0.00000000000E+00  0.00000000000E+00 -0.94926148348E+02  0.91453891366E+03  0.90959906056E+03 0.  0.
        5    1    3    3  502    0  0.38128477482E+03 -0.21493571089E+03  0.76678454448E+02  0.44438397215E+03  0.46999998093E+01 0. -1.
       -5    1    3    3    0  502 -0.38128477482E+03  0.21493571089E+03 -0.17160460280E+03  0.47015494151E+03  0.46999998093E+01 0.  1.
</event>
<event>
 5   0  0.6015709E-03  0.9054473E+03  0.7818609E-02  0.9418798E-01
       -1   -1    0    0    0  501  0.00000000000E+00  0.00000000000E+00  0.40893861604E+03  0.40893861607E+03  0.50400001928E-02 0. -1.
        1   -1    0    0  501    0  0.00000000000E+00  0.00000000000E+00 -0.50119675401E+03  0.50119675403E+03  0.50400001928E-02 0.  1.
    10030    2    1    2    0    0  0.00000000000E+00  0.00000000000E+00 -0.92258137967E+02  0.91013537011E+03  0.90544730818E+03 0.  0.
        3    1    3    3  502    0  0.28297337356E+03 -0.31778468674E+03  0.10926001086E+03  0.43931628407E+03  0.10100000352E+00 0. -1.
       -3    1    3    3    0  502 -0.28297337356E+03  0.31778468674E+03 -0.20151814883E+03  0.47081908604E+03  0.10100000352E+00 0.  1.
</event>
<event>
 5   0  0.1003252E-02  0.9050546E+03  0.7818609E-02  0.9419285E-01
        2   -1    0    0  501    0  0.00000000000E+00  0.00000000000E+00  0.46370740824E+03  0.46370740824E+03  0.25500000920E-02 0.  1.
       -2   -1    0    0    0  501  0.00000000000E+00  0.00000000000E+00 -0.44161670142E+03  0.44161670143E+03  0.25500000920E-02 0. -1.
    10030    2    1    2    0    0  0.00000000000E+00  0.00000000000E+00  0.22090706813E+02  0.90532410967E+03  0.90505455318E+03 0.  0.
        2    1    3    3  502    0  0.13488622408E+03  0.57739151799E+01 -0.42100145550E+03  0.44211973162E+03  0.25500000920E-02 0. -1.
       -2    1    3    3    0  502 -0.13488622408E+03 -0.57739151799E+01  0.44309216231E+03  0.46320437806E+03  0.25500000920E-02 0.  1.
</event>
<event>
 5   0  0.6288003E-03  0.9020934E+03  0.7818609E-02  0.9422968E-01
       -1   -1    0    0    0  501  0.00000000000E+00  0.00000000000E+00  0.74011311867E+03  0.74011311869E+03  0.50400001928E-02 0.  1.
        1   -1    0    0  501    0  0.00000000000E+00  0.00000000000E+00 -0.27488112933E+03  0.27488112938E+03  0.50400001928E-02 0. -1.
    10030    2    1    2    0    0  0.00000000000E+00  0.00000000000E+00  0.46523198934E+03  0.10149942481E+04  0.90209340963E+03 0.  0.
        1    1    3    3  502    0 -0.14884678682E+03 -0.70019860278E+01 -0.24638628861E+03  0.28794200283E+03  0.50400001928E-02 0. -1.
       -1    1    3    3    0  502  0.14884678682E+03  0.70019860278E+01  0.71161827795E+03  0.72705224523E+03  0.50400001928E-02 0.  1.
</event>
<event>
 5   0  0.1003252E-02  0.8961325E+03  0.7818609E-02  0.9430429E-01
       -2   -1    0    0    0  501  0.00000000000E+00  0.00000000000E+00  0.15411230407E+03  0.15411230409E+03  0.25500000920E-02 0.  1.
        2   -1    0    0  501    0  0.00000000000E+00  0.00000000000E+00 -0.13027083337E+04  0.13027083337E+04  0.25500000920E-02 0. -1.
    10030    2    1    2    0    0  0.00000000000E+00  0.00000000000E+00 -0.11485960297E+04  0.14568206378E+04  0.89613254122E+03 0.  0.
        2    1    3    3  502    0 -0.22287409927E+03 -0.31074489102E+03 -0.19468233288E+03  0.42911124683E+03  0.25500000920E-02 0.  1.
       -2    1    3    3    0  502  0.22287409927E+03  0.31074489102E+03 -0.95391369679E+03  0.10277093910E+04  0.25500000920E-02 0. -1.
</event>
<event>
 5   0  0.1003252E-02  0.8988042E+03  0.7818609E-02  0.9427077E-01
        2   -1    0    0  501    0  0.00000000000E+00  0.00000000000E+00  0.13712278635E+04  0.13712278635E+04  0.25500000920E-02 0.  1.
       -2   -1    0    0    0  501  0.00000000000E+00  0.00000000000E+00 -0.14728570357E+03  0.14728570359E+03  0.25500000920E-02 0. -1.
    10030    2    1    2    0    0  0.00000000000E+00  0.00000000000E+00  0.12239421599E+04  0.15185135671E+04  0.89880422930E+03 0.  0.
        2    1    3    3  502    0  0.86752016612E+02  0.25448127968E+02  0.13557054293E+04  0.13587165748E+04  0.25500000920E-02 0.  1.
       -2    1    3    3    0  502 -0.86752016612E+02 -0.25448127968E+02 -0.13176326934E+03  0.15979699233E+03  0.25500000920E-02 0. -1.
</event>
<event>
 5   0  0.6015709E-03  0.8959876E+03  0.7818609E-02  0.9430611E-01
        1   -1    0    0  501    0  0.00000000000E+00  0.00000000000E+00  0.32418897569E+03  0.32418897573E+03  0.50400001928E-02 0. -1.
       -1   -1    0    0    0  501  0.00000000000E+00  0.00000000000E+00 -0.61907860602E+03  0.61907860604E+03  0.50400001928E-02 0.  1.
    10030    2    1    2    0    0  0.00000000000E+00  0.00000000000E+00 -0.29488963033E+03  0.94326758177E+03  0.89598763203E+03 0.  0.
        3    1    3    3  502    0 -0.41993220797E+03  0.15248481552E+03 -0.11246863870E+03  0.46069934137E+03  0.10100000352E+00 0.  1.
       -3    1    3    3    0  502  0.41993220797E+03 -0.15248481552E+03 -0.18242099164E+03  0.48256824040E+03  0.10100000352E+00 0. -1.
</event>
<event>
 5   0  0.6288003E-03  0.9029553E+03  0.7818609E-02  0.9421895E-01
        1   -1    0    0  501    0  0.00000000000E+00  0.00000000000E+00  0.10306907234E+04  0.10306907234E+04  0.50400001928E-02 0. -1.
       -1   -1    0    0    0  501  0.00000000000E+00  0.00000000000E+00 -0.19776261197E+03  0.19776261203E+03  0.50400001928E-02 0.  1.
    10030    2    1    2    0    0  0.00000000000E+00  0.00000000000E+00  0.83292811146E+03  0.12284533355E+04  0.90295534694E+03 0.  0.
        1    1    3    3  502    0 -0.42858458689E+03  0.84714358078E+01  0.60922826455E+03  0.74492656799E+03  0.50400001928E-02 0.  1.
       -1    1    3    3    0  502  0.42858458689E+03 -0.84714358078E+01  0.22369984692E+03  0.48352676749E+03  0.50400001928E-02 0. -1.
</event>
<event>
 5   0  0.6015709E-03  0.9025918E+03  0.7818609E-02  0.9422347E-01
        1   -1    0    0  501    0  0.00000000000E+00  0.00000000000E+00  0.34359815552E+03  0.34359815556E+03  0.50400001928E-02 0.  1.
       -1   -1    0    0    0  501  0.00000000000E+00  0.00000000000E+00 -0.59275054498E+03  0.59275054500E+03  0.50400001928E-02 0. -1.
    10030    2    1    2    0    0  0.00000000000E+00  0.00000000000E+00 -0.24915238946E+03  0.93634870056E+03  0.90259181021E+03 0.  0.
        3    1    3    3  502    0  0.42465024888E+03 -0.12933454385E+03 -0.40216213111E+02  0.44572706009E+03  0.10100000352E+00 0. -1.
       -3    1    3    3    0  502 -0.42465024888E+03  0.12933454385E+03 -0.20893617635E+03  0.49062164047E+03  0.10100000352E+00 0.  1.
</event>
<event>
 5   0  0.3996375E-03  0.9233339E+03  0.7818609E-02  0.9396874E-01
       -3   -1    0    0    0  501  0.00000000000E+00  0.00000000000E+00  0.20410350077E+03  0.20410352576E+03  0.10100000352E+00 0. -1.
        3   -1    0    0  501    0  0.00000000000E+00  0.00000000000E+00 -0.10442561666E+04  0.10442561715E+04  0.10100000352E+00 0.  1.
    10030    2    1    2    0    0  0.00000000000E+00  0.00000000000E+00 -0.84015266584E+03  0.12483596972E+04  0.92333386800E+03 0.  0.
        2    1    3    3  502    0 -0.11455562542E+03 -0.44717257396E+03 -0.41051082882E+03  0.61774221387E+03  0.25500000920E-02 0. -1.
       -2    1    3    3    0  502  0.11455562542E+03  0.44717257396E+03 -0.42964183702E+03  0.63061748338E+03  0.25500000920E-02 0.  1.
</event>
<event>
 5   0  0.6137243E-03  0.9188129E+03  0.7818609E-02  0.9402365E-01
        1   -1    0    0  501    0  0.00000000000E+00  0.00000000000E+00  0.13278291092E+04  0.13278291092E+04  0.50400001928E-02 0. -1.
       -1   -1    0    0    0  501  0.00000000000E+00  0.00000000000E+00 -0.15894686040E+03  0.15894686048E+03  0.50400001928E-02 0.  1.
    10030    2    1    2    0    0  0.00000000000E+00  0.00000000000E+00  0.11688822488E+04  0.14867759697E+04  0.91881286043E+03 0.  0.
        4    1    3    3  502    0 -0.25038839907E+03 -0.29023156898E+03  0.99420019064E+03  0.10655347700E+04  0.12699999809E+01 0. -1.
       -4    1    3    3    0  502  0.25038839907E+03  0.29023156898E+03  0.17468205819E+03  0.42124119976E+03  0.12699999809E+01 0.  1.
</event>
<event>
 5   0  0.6137243E-03  0.8910804E+03  0.7818609E-02  0.9436801E-01
        1   -1    0    0  501    0  0.00000000000E+00  0.00000000000E+00  0.18225763238E+04  0.18225763238E+04  0.50400001928E-02 0.  1.
       -1   -1    0    0    0  501  0.00000000000E+00  0.00000000000E+00 -0.10891508267E+03  0.10891508279E+03  0.50400001928E-02 0. -1.
    10030    2    1    2    0    0  0.00000000000E+00  0.00000000000E+00  0.17136612411E+04  0.19314914066E+04  0.89108035800E+03 0.  0.
        4    1    3    3  502    0  0.31802976282E+03 -0.25197628134E+03  0.12557453362E+04  0.13196715268E+04  0.12699999809E+01 0.  1.
       -4    1    3    3    0  502 -0.31802976282E+03  0.25197628134E+03  0.45791590489E+03  0.61181987975E+03  0.12699999809E+01 0. -1.
</event>
<event>
 5   0  0.1017079E-02  0.8903256E+03  0.7818609E-02  0.9437756E-01
       -2   -1    0    0    0  501  0.00000000000E+00  0.00000000000E+00  0.25068156443E+03  0.25068156444E+03  0.25500000920E-02 0. -1.
        2   -1    0    0  501    0  0.00000000000E+00  0.00000000000E+00 -0.79052456226E+03  0.79052456226E+03  0.25500000920E-02 0.  1.
    10030    2    1    2    0    0  0.00000000000E+00  0.00000000000E+00 -0.53984299783E+03  0.10412061267E+04  0.89032563480E+03 0.  0.
        1    1    3    3  502    0  0.32357252793E+03 -0.13984100424E+03  0.48025589415E+02  0.35575433176E+03  0.50400001928E-02 0. -1.
       -1    1    3    3    0  502 -0.32357252793E+03  0.13984100424E+03 -0.58786858724E+03  0.68545179494E+03  0.50400001928E-02 0.  1.
</event>
<event>
 5   0  0.1028978E-02  0.9000252E+03  0.7818609E-02  0.9425550E-01
        2   -1    0    0  501    0  0.00000000000E+00  0.00000000000E+00  0.66468503557E+03  0.66468503558E+03  0.25500000920E-02 0. -1.
       -2   -1    0    0    0  501  0.00000000000E+00  0.00000000000E+00 -0.30467260627E+03  0.30467260628E+03  0.25500000920E-02 0.  1.
    10030    2    1    2    0    0  0.00000000000E+00  0.00000000000E+00  0.36001242931E+03  0.96935764186E+03  0.90002515996E+03 0.  0.
        3    1    3    3  502    0 -0.75088217084E+02 -0.36080342398E+03 -0.98139672962E+02  0.38137744651E+03  0.10100000352E+00 0.  1.
       -3    1    3    3    0  502  0.75088217084E+02  0.36080342398E+03  0.45815210227E+03  0.58798019534E+03  0.10100000352E+00 0. -1.
</event>
<event>
 5   0  0.6211218E-03  0.8757675E+03  0.7818609E-02  0.9456391E-01
        1   -1    0    0  501    0  0.00000000000E+00  0.00000000000E+00  0.21403321625E+03  0.21403321631E+03  0.50400001928E-02 0.  1.
       -1   -1    0    0    0  501  0.00000000000E+00  0.00000000000E+00 -0.89585242171E+03  0.89585242173E+03  0.50400001928E-02 0. -1.
    10030    2    1    2    0    0  0.00000000000E+00  0.00000000000E+00 -0.68181920547E+03  0.11098856380E+04  0.87576749230E+03 0.  0.
        5    1    3    3  502    0  0.25185061689E+03 -0.14229610433E+03 -0.75747968046E+03  0.81084799491E+03  0.46999998093E+01 0. -1.
       -5    1    3    3    0  502 -0.25185061689E+03  0.14229610433E+03  0.75660474994E+02  0.29903764313E+03  0.46999998093E+01 0.  1.
</event>
<event>
 5   0  0.1003252E-02  0.9009106E+03  0.7818609E-02  0.9424444E-01
        2   -1    0    0  501    0  0.00000000000E+00  0.00000000000E+00  0.12345806658E+04  0.12345806658E+04  0.25500000920E-02 0.  1.
       -2   -1    0    0    0  501  0.00000000000E+00  0.00000000000E+00 -0.16435539239E+03  0.16435539241E+03  0.25500000920E-02 0. -1.
    10030    2    1    2    0    0  0.00000000000E+00  0.00000000000E+00  0.10702252734E+04  0.13989360583E+04  0.90091062773E+03 0.  0.
        2    1    3    3  502    0  0.33408198680E+03  0.10705992310E+03  0.97386484597E+03  0.10351257601E+04  0.25500000920E-02 0.  1.
       -2    1    3    3    0  502 -0.33408198680E+03 -0.10705992310E+03  0.96360427474E+02  0.36381029813E+03  0.25500000920E-02 0. -1.
</event>
<event>
 5   0  0.1041727E-02  0.9174140E+03  0.7818609E-02  0.9404071E-01
        2   -1    0    0  501    0  0.00000000000E+00  0.00000000000E+00  0.19422088190E+03  0.19422088192E+03  0.25500000920E-02 0. -1.
       -2   -1    0    0    0  501  0.00000000000E+00  0.00000000000E+00 -0.10833650983E+04  0.10833650983E+04  0.25500000920E-02 0.  1.
    10030    2    1    2    0    0  0.00000000000E+00  0.00000000000E+00 -0.88914421637E+03  0.12775859802E+04  0.91741402827E+03 0.  0.
        4    1    3    3  502    0  0.22781834719E+02  0.45645747643E+03 -0.49918725601E+03  0.67680275505E+03  0.12699999809E+01 0.  1.
       -4    1    3    3    0  502 -0.22781834719E+02 -0.45645747643E+03 -0.38995696036E+03  0.60078322514E+03  0.12699999809E+01 0. -1.
</event>
<event>
 5   0  0.6137243E-03  0.8872592E+03  0.7818609E-02  0.9441650E-01
       -1   -1    0    0    0  501  0.00000000000E+00  0.00000000000E+00  0.55601483668E+03  0.55601483670E+03  0.50400001928E-02 0. -1.
        1   -1    0    0  501    0  0.00000000000E+00  0.00000000000E+00 -0.35396035740E+03  0.35396035743E+03  0.50400001928E-02 0.  1.
    10030    2    1    2    0    0  0.00000000000E+00  0.00000000000E+00  0.20205447928E+03  0.90997519413E+03  0.88725917371E+03 0.  0.
        4    1    3    3  502    0  0.15997005009E+03 -0.41079214427E+03  0.50107397165E+02  0.44368115451E+03  0.12699999809E+01 0.  1.
       -4    1    3    3    0  502 -0.15997005009E+03  0.41079214427E+03  0.15194708212E+03  0.46629403962E+03  0.12699999809E+01 0. -1.
</event>
<event>
 5   0  0.1033749E-02  0.9184162E+03  0.7818609E-02  0.9402849E-01
       -2   -1    0    0    0  501  0.00000000000E+00  0.00000000000E+00  0.23947375979E+03  0.23947375980E+03  0.25500000920E-02 0. -1.
        2   -1    0    0  501    0  0.00000000000E+00  0.00000000000E+00 -0.88056444263E+03  0.88056444264E+03  0.25500000920E-02 0.  1.
    10030    2    1    2    0    0  0.00000000000E+00  0.00000000000E+00 -0.64109068284E+03  0.11200382024E+04  0.91841619721E+03 0.  0.
        5    1    3    3  502    0 -0.42525487414E+03  0.10422813244E+03 -0.15180518431E+03  0.46343512550E+03  0.46999998093E+01 0. -1.
       -5    1    3    3    0  502  0.42525487414E+03 -0.10422813244E+03 -0.48928549853E+03  0.65660307694E+03  0.46999998093E+01 0.  1.
</event>
<event>
 5   0  0.1028978E-02  0.8979712E+03  0.7818609E-02  0.9428121E-01
        2   -1    0    0  501    0  0.00000000000E+00  0.00000000000E+00  0.12149969772E+04  0.12149969772E+04  0.25500000920E-02 0.  1.
       -2   -1    0    0    0  501  0.00000000000E+00  0.00000000000E+00 -0.16591652829E+03  0.16591652831E+03  0.25500000920E-02 0. -1.
    10030    2    1    2    0    0  0.00000000000E+00  0.00000000000E+00  0.10490804489E+04  0.13809135056E+04  0.89797122529E+03 0.  0.
        3    1    3    3  502    0  0.17701866594E+03  0.27679123742E+03  0.99511929710E+03  0.10479558306E+04  0.10100000352E+00 0.  1.
       -3    1    3    3    0  502 -0.17701866594E+03 -0.27679123742E+03  0.53961151845E+02  0.33295767496E+03  0.10100000352E+00 0. -1.
</event>
<event>
 5   0  0.6137243E-03  0.9125176E+03  0.7818609E-02  0.9410068E-01
       -1   -1    0    0    0  501  0.00000000000E+00  0.00000000000E+00  0.65215787139E+03  0.65215787141E+03  0.50400001928E-02 0. -1.
        1   -1    0    0  501    0  0.00000000000E+00  0.00000000000E+00 -0.31920508539E+03  0.31920508543E+03  0.50400001928E-02 0.  1.
    10030    2    1    2    0    0  0.00000000000E+00  0.00000000000E+00  0.33295278600E+03  0.97136295684E+03  0.91251763612E+03 0.  0.
        4    1    3    3  502    0 -0.68250244422E+02 -0.39660950932E+03  0.39531207772E+03  0.56411918106E+03  0.12699999809E+01 0. -1.
       -4    1    3    3    0  502  0.68250244422E+02  0.39660950932E+03 -0.62359291720E+02  0.40724377578E+03  0.12699999809E+01 0.  1.
</event>
<event>
 5   0  0.3996375E-03  0.8367808E+03  0.7818609E-02  0.9508253E-01
       -3   -1    0    0    0  501  0.00000000000E+00  0.00000000000E+00  0.25846410735E+03  0.25846412708E+03  0.10100000352E+00 0. -1.
        3   -1    0    0  501    0  0.00000000000E+00  0.00000000000E+00 -0.67727210109E+03  0.67727210862E+03  0.10100000352E+00 0.  1.
    10030    2    1    2    0    0  0.00000000000E+00  0.00000000000E+00 -0.41880799374E+03  0.93573623570E+03  0.83678083581E+03 0.  0.
        5    1    3    3  502    0 -0.18667615930E+03  0.37378362894E+03 -0.23355064058E+03  0.47867544477E+03  0.46999998093E+01 0.  1.
       -5    1    3    3    0  502  0.18667615930E+03 -0.37378362894E+03 -0.18525735316E+03  0.45706079093E+03  0.46999998093E+01 0. -1.
</event>
<event>
 5   0  0.6015709E-03  0.9050137E+03  0.7818609E-02  0.9419336E-01
        1   -1    0    0  501    0  0.00000000000E+00  0.00000000000E+00  0.36159460670E+03  0.36159460673E+03  0.50400001928E-02 0. -1.
       -1   -1    0    0    0  501  0.00000000000E+00  0.00000000000E+00 -0.56627624713E+03  0.56627624716E+03  0.50400001928E-02 0.  1.
    10030    2    1    2    0    0  0.00000000000E+00  0.00000000000E+00 -0.20468164044E+03  0.92787085389E+03  0.90501367258E+03 0.  0.
        3    1    3    3  502    0 -0.27436806609E+03  0.12170534284E+03 -0.44952653265E+03  0.54052209939E+03  0.10100000352E+00 0.  1.
       -3    1    3    3    0  502  0.27436806609E+03 -0.12170534284E+03  0.24484489222E+03  0.38734875450E+03  0.10100000352E+00 0. -1.
</event>
<event>
 5   0  0.1041727E-02  0.8968191E+03  0.7818609E-02  0.9429566E-01
        2   -1    0    0  501    0  0.00000000000E+00  0.00000000000E+00  0.18483797995E+03  0.18483797997E+03  0.25500000920E-02 0. -1.
       -2   -1    0    0    0  501  0.00000000000E+00  0.00000000000E+00 -0.10878236988E+04  0.10878236988E+04  0.25500000920E-02 0.  1.
    10030    2    1    2    0    0  0.00000000000E+00  0.00000000000E+00 -0.90298571886E+03  0.12726616788E+04  0.89681912344E+03 0.  0.
        4    1    3    3  502    0 -0.34817334232E+03 -0.16763147355E+02 -0.51210932353E+02  0.35232066630E+03  0.12699999809E+01 0. -1.
       -4    1    3    3    0  502  0.34817334232E+03  0.16763147355E+02 -0.85177478651E+03  0.92034101248E+03  0.12699999809E+01 0.  1.
</event>
<event>
 5   0  0.1028978E-02  0.9284044E+03  0.7818609E-02  0.9390755E-01
        2   -1    0    0  501    0  0.00000000000E+00  0.00000000000E+00  0.68733646299E+03  0.68733646300E+03  0.25500000920E-02 0. -1.
       -2   -1    0    0    0  501  0.00000000000E+00  0.00000000000E+00 -0.31350539592E+03  0.31350539593E+03  0.25500000920E-02 0.  1.
    10030    2    1    2    0    0  0.00000000000E+00  0.00000000000E+00  0.37383106707E+03  0.10008418589E+04  0.92840441612E+03 0.  0.
        3    1    3    3  502    0  0.85036164110E+02  0.19025894282E+01  0.67886402424E+03  0.68417186632E+03  0.10100000352E+00 0. -1.
       -3    1    3    3    0  502 -0.85036164110E+02 -0.19025894282E+01 -0.30503295717E+03  0.31666999260E+03  0.10100000352E+00 0.  1.
</event>
<event>
 5   0  0.1003252E-02  0.8713945E+03  0.7818609E-02  0.9462063E-01
        2   -1    0    0  501    0  0.00000000000E+00  0.00000000000E+00  0.51426104946E+03  0.51426104947E+03  0.25500000920E-02 0. -1.
       -2   -1    0    0    0  501  0.00000000000E+00  0.00000000000E+00 -0.36913564937E+03  0.36913564938E+03  0.25500000920E-02 0.  1.
    10030    2    1    2    0    0  0.00000000000E+00  0.00000000000E+00  0.14512540009E+03  0.88339669884E+03  0.87139448344E+03 0.  0.
        2    1    3    3  502    0  0.18611938450E+03 -0.57028488138E+02  0.46772562145E+03  0.50661615718E+03  0.25500000920E-02 0. -1.
       -2    1    3    3    0  502 -0.18611938450E+03  0.57028488138E+02 -0.32260022136E+03  0.37678054166E+03  0.25500000920E-02 0.  1.
</event>
<event>
 5   0  0.1003252E-02  0.9105989E+03  0.7818609E-02  0.9412428E-01
        2   -1    0    0  501    0  0.00000000000E+00  0.00000000000E+00  0.15228025276E+03  0.15228025278E+03  0.25500000920E-02 0. -1.
       -2   -1    0    0    0  501  0.00000000000E+00  0.00000000000E+00 -0.13612900731E+04  0.13612900731E+04  0.25500000920E-02 0.  1.
    10030    2    1    2    0    0  0.00000000000E+00  0.00000000000E+00 -0.12090098203E+04  0.15135703259E+04  0.91059891595E+03 0.  0.
        2    1    3    3  502    0 -0.39051544818E+03  0.85925485179E+02 -0.24257869967E+03  0.46768571692E+03  0.25500000920E-02 0. -1.
       -2    1    3    3    0  502  0.39051544818E+03 -0.85925485179E+02 -0.96643112068E+03  0.10458846090E+04  0.25500000920E-02 0.  1.
</event>
<event>
 5   0  0.1041727E-02  0.8985871E+03  0.7818609E-02  0.9427349E-01
       -2   -1    0    0    0  501  0.00000000000E+00  0.00000000000E+00  0.18219993265E+03  0.18219993267E+03  0.25500000920E-02 0.  1.
        2   -1    0    0  501    0  0.00000000000E+00  0.00000000000E+00 -0.11079294544E+04  0.11079294544E+04  0.25500000920E-02 0. -1.
    10030    2    1    2    0    0  0.00000000000E+00  0.00000000000E+00 -0.92572952179E+03  0.12901293871E+04  0.89858705087E+03 0.  0.
        4    1    3    3  502    0 -0.13115006073E+03 -0.37049771747E+03 -0.15030322203E+03  0.42078684453E+03  0.12699999809E+01 0.  1.
       -4    1    3    3    0  502  0.13115006073E+03  0.37049771747E+03 -0.77542629976E+03  0.86934254258E+03  0.12699999809E+01 0. -1.
</event>
<event>
 5   0  0.1033749E-02  0.8975557E+03  0.7818609E-02  0.9428642E-01
       -2   -1    0    0    0  501  0.00000000000E+00  0.00000000000E+00  0.29982140134E+03  0.29982140135E+03  0.25500000920E-02 0. -1.
        2   -1    0    0  501    0  0.00000000000E+00  0.00000000000E+00 -0.67173841005E+03  0.67173841005E+03  0.25500000920E-02 0.  1.
    10030    2    1    2    0    0  0.00000000000E+00  0.00000000000E+00 -0.37191700870E+03  0.97155981141E+03  0.89755568394E+03 0.  0.
        5    1    3    3  502    0 -0.11257270512E+03  0.13160670040E+03  0.26216371236E+03  0.31423691636E+03  0.46999998093E+01 0. -1.
       -5    1    3    3    0  502  0.11257270512E+03 -0.13160670040E+03 -0.63408072106E+03  0.65732289505E+03  0.46999998093E+01 0.  1.
</event>
<event>
 5   0  0.1033749E-02  0.9040995E+03  0.7818609E-02  0.9420471E-01
       -2   -1    0    0    0  501  0.00000000000E+00  0.00000000000E+00  0.18370236151E+03  0.18370236153E+03  0.25500000920E-02 0.  1.
        2   -1    0    0  501    0  0.00000000000E+00  0.00000000000E+00 -0.11123917454E+04  0.11123917454E+04  0.25500000920E-02 0. -1.
    10030    2    1    2    0    0  0.00000000000E+00  0.00000000000E+00 -0.92868938390E+03  0.12960941069E+04  0.90409953119E+03 0.  0.
        5    1    3    3  502    0  0.13993950017E+03 -0.33822218677E+03 -0.84457880286E+03  0.92049592914E+03  0.46999998093E+01 0. -1.
       -5    1    3    3    0  502 -0.13993950017E+03  0.33822218677E+03 -0.84110581042E+02  0.37559817781E+03  0.46999998093E+01 0.  1.
</event>
<event>
 5   0  0.1028978E-02  0.8941596E+03  0.7818609E-02  0.9432912E-01
        2   -1    0    0  501    0  0.00000000000E+00  0.00000000000E+00  0.44249280364E+03  0.44249280365E+03  0.25500000920E-02 0.  1.
       -2   -1    0    0    0  501  0.00000000000E+00  0.00000000000E+00 -0.45171438363E+03  0.45171438364E+03  0.25500000920E-02 0. -1.
    10030    2    1    2    0    0  0.00000000000E+00  0.00000000000E+00 -0.92215799912E+01  0.89420718728E+03  0.89415963689E+03 0.  0.
        3    1    3    3  502    0 -0.33640198876E+03  0.64280947813E+02 -0.29199693969E+03  0.45006728528E+03  0.10100000352E+00 0.  1.
       -3    1    3    3    0  502  0.33640198876E+03 -0.64280947813E+02  0.28277535970E+03  0.44413990200E+03  0.10100000352E+00 0. -1.
</event>
<event>
 5   0  0.6288003E-03  0.9029245E+03  0.7818609E-02  0.9421933E-01
        1   -1    0    0  501    0  0.00000000000E+00  0.00000000000E+00  0.17023722152E+04  0.17023722152E+04  0.50400001928E-02 0. -1.
       -1   -1    0    0    0  501  0.00000000000E+00  0.00000000000E+00 -0.11972597545E+03  0.11972597556E+03  0.50400001928E-02 0.  1.
    10030    2    1    2    0    0  0.00000000000E+00  0.00000000000E+00  0.15826462397E+04  0.18220981907E+04  0.90292452431E+03 0.  0.
        1    1    3    3  502    0 -0.77423940296E+02 -0.34124513398E+03  0.13669844707E+04  0.14110596200E+04  0.50400001928E-02 0. -1.
       -1    1    3    3    0  502  0.77423940296E+02  0.34124513398E+03  0.21566176898E+03  0.41103857072E+03  0.50400001928E-02 0.  1.
</event>
<event>
 5   0  0.6288003E-03  0.8999266E+03  0.7818609E-02  0.9425673E-01
        1   -1    0    0  501    0  0.00000000000E+00  0.00000000000E+00  0.70641634588E+03  0.70641634590E+03  0.50400001928E-02 0. -1.
       -1   -1    0    0    0  501  0.00000000000E+00  0.00000000000E+00 -0.28661141061E+03  0.28661141065E+03  0.50400001928E-02 0.  1.
    10030    2    1    2    0    0  0.00000000000E+00  0.00000000000E+00  0.41980493527E+03  0.99302775655E+03  0.89992663123E+03 0.  0.
        1    1    3    3  502    0  0.15736642188E+03 -0.40827576670E+03  0.32570572256E+03  0.54546999014E+03  0.50400001928E-02 0. -1.
       -1    1    3    3    0  502 -0.15736642188E+03  0.40827576670E+03  0.94099212710E+02  0.44755776641E+03  0.50400001928E-02 0.  1.
</event>
<event>
 5   0  0.1003252E-02  0.8984677E+03  0.7818609E-02  0.9427499E-01
        2   -1    0    0  501    0  0.00000000000E+00  0.00000000000E+00  0.37500952422E+03  0.37500952423E+03  0.25500000920E-02 0.  1.
       -2   -1    0    0    0  501  0.00000000000E+00  0.00000000000E+00 -0.53814915146E+03  0.53814915147E+03  0.25500000920E-02 0. -1.
    10030    2    1    2    0    0  0.00000000000E+00  0.00000000000E+00 -0.16313962724E+03  0.91315867570E+03  0.89846771173E+03 0.  0.
        2    1    3    3  502    0 -0.25235887897E+03 -0.36367293551E+03 -0.37140700345E+01  0.44267008273E+03  0.25500000920E-02 0. -1.
       -2    1    3    3    0  502  0.25235887897E+03  0.36367293551E+03 -0.15942555721E+03  0.47048859297E+03  0.25500000920E-02 0.  1.
</event>
<event>
 5   0  0.1041727E-02  0.8606936E+03  0.7818609E-02  0.9476096E-01
        2   -1    0    0  501    0  0.00000000000E+00  0.00000000000E+00  0.46168637354E+03  0.46168637355E+03  0.25500000920E-02 0.  1.
       -2   -1    0    0    0  501  0.00000000000E+00  0.00000000000E+00 -0.40113453610E+03  0.40113453611E+03  0.25500000920E-02 0. -1.
    10030    2    1    2    0    0  0.00000000000E+00  0.00000000000E+00  0.60551837447E+02  0.86282090966E+03  0.86069355587E+03 0.  0.
        4    1    3    3  502    0  0.15187720749E+03 -0.33551310547E+03  0.25344918403E+03  0.44707251301E+03  0.12699999809E+01 0.  1.
       -4    1    3    3    0  502 -0.15187720749E+03  0.33551310547E+03 -0.19289734659E+03  0.41574839665E+03  0.12699999809E+01 0. -1.
</event>
<event>
 5   0  0.6211218E-03  0.8936642E+03  0.7818609E-02  0.9433536E-01
       -1   -1    0    0    0  501  0.00000000000E+00  0.00000000000E+00  0.21122247375E+03  0.21122247381E+03  0.50400001928E-02 0. -1.
        1   -1    0    0  501    0  0.00000000000E+00  0.00000000000E+00 -0.94525412274E+03  0.94525412275E+03  0.50400001928E-02 0.  1.
    10030    2    1    2    0    0  0.00000000000E+00  0.00000000000E+00 -0.73403164899E+03  0.11564765966E+04  0.89366417443E+03 0.  0.
        5    1    3    3  502    0 -0.40196274749E+03 -0.14761648838E+03 -0.53209219766E+03  0.68301454949E+03  0.46999998093E+01 0. -1.
       -5    1    3    3    0  502  0.40196274749E+03  0.14761648838E+03 -0.20193945133E+03  0.47346204707E+03  0.46999998093E+01 0.  1.
</event>
<event>
 5   0  0.3996375E-03  0.9193306E+03  0.7818609E-02  0.9401735E-01
       -3   -1    0    0    0  501  0.00000000000E+00  0.00000000000E+00  0.13397121963E+04  0.13397122002E+04  0.10100000352E+00 0.  1.
        3   -1    0    0  501    0  0.00000000000E+00  0.00000000000E+00 -0.15771457739E+03  0.15771460973E+03  0.10100000352E+00 0. -1.
    10030    2    1    2    0    0  0.00000000000E+00  0.00000000000E+00  0.11819976190E+04  0.14974268099E+04  0.91933056065E+03 0.  0.
        1    1    3    3  502    0  0.17602938352E+03  0.19068066745E+03  0.12089793180E+04  0.12365178738E+04  0.50400001928E-02 0.  1.
       -1    1    3    3    0  502 -0.17602938352E+03 -0.19068066745E+03 -0.26981699095E+02  0.26090893606E+03  0.50400001928E-02 0. -1.
</event>
<event>
 5   0  0.1017079E-02  0.8996143E+03  0.7818609E-02  0.9426064E-01
        2   -1    0    0  501    0  0.00000000000E+00  0.00000000000E+00  0.15701991441E+04  0.15701991441E+04  0.25500000920E-02 0.  1.
       -2   -1    0    0    0  501  0.00000000000E+00  0.00000000000E+00 -0.12885401894E+03  0.12885401897E+03  0.25500000920E-02 0. -1.
    10030    2    1    2    0    0  0.00000000000E+00  0.00000000000E+00  0.14413451252E+04  0.16990531631E+04  0.89961429576E+03 0.  0.
        1    1    3    3  502    0 -0.26302620016E+02 -0.44745580365E+03  0.64955440477E+03  0.78919544399E+03  0.50400001928E-02 0. -1.
       -1    1    3    3    0  502  0.26302620016E+02  0.44745580365E+03  0.79179072043E+03  0.90985771912E+03  0.50400001928E-02 0.  1.
</event>
<event>
 5   0  0.6211218E-03  0.8959855E+03  0.7818609E-02  0.9430614E-01
       -1   -1    0    0    0  501  0.00000000000E+00  0.00000000000E+00  0.21265739500E+03  0.21265739506E+03  0.50400001928E-02 0.  1.
        1   -1    0    0  501    0  0.00000000000E+00  0.00000000000E+00 -0.94375973082E+03  0.94375973083E+03  0.50400001928E-02 0. -1.
    10030    2    1    2    0    0  0.00000000000E+00  0.00000000000E+00 -0.73110233582E+03  0.11564171259E+04  0.89598545948E+03 0.  0.
        5    1    3    3  502    0 -0.21506447537E+03 -0.21077559403E+03 -0.79360917334E+03  0.84883254510E+03  0.46999998093E+01 0. -1.
       -5    1    3    3    0  502  0.21506447537E+03  0.21077559403E+03  0.62506837520E+02  0.30758458079E+03  0.46999998093E+01 0.  1.
</event>
<event>
 5   0  0.6137243E-03  0.9016441E+03  0.7818609E-02  0.9423529E-01
        1   -1    0    0  501    0  0.00000000000E+00  0.00000000000E+00  0.10667591592E+04  0.10667591592E+04  0.50400001928E-02 0. -1.
       -1   -1    0    0    0  501  0.00000000000E+00  0.00000000000E+00 -0.19052145121E+03  0.19052145128E+03  0.50400001928E-02 0.  1.
    10030    2    1    2    0    0  0.00000000000E+00  0.00000000000E+00  0.87623770798E+03  0.12572806105E+04  0.90164406092E+03 0.  0.
        4    1    3    3  502    0  0.23249192473E+03  0.83767063665E+02 -0.87656555510E+02  0.26221117566E+03  0.12699999809E+01 0.  1.
       -4    1    3    3    0  502 -0.23249192473E+03 -0.83767063665E+02  0.96389426349E+03  0.99506943481E+03  0.12699999809E+01 0. -1.
</event>
<event>
 5   0  0.6288003E-03  0.9023667E+03  0.7818609E-02  0.9422628E-01
       -1   -1    0    0    0  501  0.00000000000E+00  0.00000000000E+00  0.34914533635E+03  0.34914533639E+03  0.50400001928E-02 0. -1.
        1   -1    0    0  501    0  0.00000000000E+00  0.00000000000E+00 -0.58304205183E+03  0.58304205185E+03  0.50400001928E-02 0.  1.
    10030    2    1    2    0    0  0.00000000000E+00  0.00000000000E+00 -0.23389671548E+03  0.93218738824E+03  0.90236669557E+03 0.  0.
        1    1    3    3  502    0 -0.37110433538E+03 -0.25652150509E+03 -0.11004137439E+03  0.46436065124E+03  0.50400001928E-02 0.  1.
       -1    1    3    3    0  502  0.37110433538E+03  0.25652150509E+03 -0.12385534109E+03  0.46782673700E+03  0.50400001928E-02 0. -1.
</event>
<event>
 5   0  0.6288003E-03  0.9002058E+03  0.7818609E-02  0.9425324E-01
        1   -1    0    0  501    0  0.00000000000E+00  0.00000000000E+00  0.12532116303E+04  0.12532116304E+04  0.50400001928E-02 0.  1.
       -1   -1    0    0    0  501  0.00000000000E+00  0.00000000000E+00 -0.16165873948E+03  0.16165873956E+03  0.50400001928E-02 0. -1.
    10030    2    1    2    0    0  0.00000000000E+00  0.00000000000E+00  0.10915528909E+04  0.14148703699E+04  0.90020578209E+03 0.  0.
        1    1    3    3  502    0 -0.16764623941E+03  0.16432499018E+03 -0.57822208186E+02  0.24176718506E+03  0.50400001928E-02 0. -1.
       -1    1    3    3    0  502  0.16764623941E+03 -0.16432499018E+03  0.11493750990E+04  0.11731031849E+04  0.50400001928E-02 0.  1.
</event>
<event>
 5   0  0.6288003E-03  0.9007445E+03  0.7818609E-02  0.9424651E-01
       -1   -1    0    0    0  501  0.00000000000E+00  0.00000000000E+00  0.48648939515E+03  0.48648939518E+03  0.50400001928E-02 0. -1.
        1   -1    0    0  501    0  0.00000000000E+00  0.00000000000E+00 -0.41693641243E+03  0.41693641246E+03  0.50400001928E-02 0.  1.
    10030    2    1    2    0    0  0.00000000000E+00  0.00000000000E+00  0.69552982724E+02  0.90342580763E+03  0.90074445460E+03 0.  0.
        1    1    3    3  502    0  0.35431665129E+03  0.15959029097E+03 -0.19355397963E+03  0.43413418825E+03  0.50400001928E-02 0.  1.
       -1    1    3    3    0  502 -0.35431665129E+03 -0.15959029097E+03  0.26310696236E+03  0.46929161938E+03  0.50400001928E-02 0. -1.
</event>
<event>
 5   0  0.3996375E-03  0.9116245E+03  0.7818609E-02  0.9411166E-01
       -4   -1    0    0    0  501  0.00000000000E+00  0.00000000000E+00  0.40955215992E+03  0.40955412902E+03  0.12699999809E+01 0. -1.
        4   -1    0    0  501    0  0.00000000000E+00  0.00000000000E+00 -0.50729351512E+03  0.50729510483E+03  0.12699999809E+01 0.  1.
    10030    2    1    2    0    0  0.00000000000E+00  0.00000000000E+00 -0.97741355201E+02  0.91684923385E+03  0.91162445398E+03 0.  0.
        3    1    3    3  502    0 -0.15527115248E+03 -0.36672661255E+03  0.17413702381E+03  0.43465072461E+03  0.10100000352E+00 0. -1.
       -3    1    3    3    0  502  0.15527115248E+03  0.36672661255E+03 -0.27187837901E+03  0.48219850924E+03  0.10100000352E+00 0.  1.
</event>
<event>
 5   0  0.6211218E-03  0.9025727E+03  0.7818609E-02  0.9422371E-01
       -1   -1    0    0    0  501  0.00000000000E+00  0.00000000000E+00  0.31981895965E+03  0.31981895968E+03  0.50400001928E-02 0. -1.
        1   -1    0    0  501    0  0.00000000000E+00  0.00000000000E+00 -0.63679586783E+03  0.63679586785E+03  0.50400001928E-02 0.  1.
    10030    2    1    2    0    0  0.00000000000E+00  0.00000000000E+00 -0.31697690818E+03  0.95661482753E+03  0.90257274939E+03 0.  0.
        5    1    3    3  502    0  0.35918915074E+02  0.27922922912E+03 -0.53227784803E+03  0.60216353955E+03  0.46999998093E+01 0.  1.
       -5    1    3    3    0  502 -0.35918915074E+02 -0.27922922912E+03  0.21530093985E+03  0.35445128799E+03  0.46999998093E+01 0. -1.
</event>
<event>
 5   0  0.1028978E-02  0.9086028E+03  0.7818609E-02  0.9414891E-01
       -2   -1    0    0    0  501  0.00000000000E+00  0.00000000000E+00  0.20626172807E+03  0.20626172808E+03  0.25500000920E-02 0. -1.
        2   -1    0    0  501    0  0.00000000000E+00  0.00000000000E+00 -0.10006206677E+04  0.10006206677E+04  0.25500000920E-02 0.  1.
    10030    2    1    2    0    0  0.00000000000E+00  0.00000000000E+00 -0.79435893962E+03  0.12068823958E+04  0.90860276924E+03 0.  0.
        3    1    3    3  502    0 -0.24527949626E+03 -0.72278573654E+01 -0.90502091139E+03  0.93769778365E+03  0.10100000352E+00 0.  1.
       -3    1    3    3    0  502  0.24527949626E+03  0.72278573654E+01  0.11066197177E+03  0.26918461212E+03  0.10100000352E+00 0. -1.
</event>
<event>
 5   0  0.6015709E-03  0.8994205E+03  0.7818609E-02  0.9426306E-01
        1   -1    0    0  501    0  0.00000000000E+00  0.00000000000E+00  0.69281217234E+03  0.69281217236E+03  0.50400001928E-02 0. -1.
       -1   -1    0    0    0  501  0.00000000000E+00  0.00000000000E+00 -0.29191074334E+03  0.29191074339E+03  0.50400001928E-02 0.  1.
    10030    2    1    2    0    0  0.00000000000E+00  0.00000000000E+00  0.40090142900E+03  0.98472291574E+03  0.89942051623E+03 0.  0.
        3    1    3    3  502    0  0.98637285165E+02 -0.43638897854E+03  0.15058249920E+03  0.47205905762E+03  0.10100000352E+00 0.  1.
       -3    1    3    3    0  502 -0.98637285165E+02  0.43638897854E+03  0.25031892979E+03  0.51266385812E+03  0.10100000352E+00 0. -1.
</event>
<event>
 5   0  0.6092779E-03  0.9104630E+03  0.7818609E-02  0.9412596E-01
        1   -1    0    0  501    0  0.00000000000E+00  0.00000000000E+00  0.61190102720E+03  0.61190102722E+03  0.50400001928E-02 0. -1.
       -1   -1    0    0    0  501  0.00000000000E+00  0.00000000000E+00 -0.33867525434E+03  0.33867525438E+03  0.50400001928E-02 0.  1.
    10030    2    1    2    0    0  0.00000000000E+00  0.00000000000E+00  0.27322577285E+03  0.95057628160E+03  0.91046303834E+03 0.  0.
        2    1    3    3  502    0  0.17578272780E+03 -0.22960786129E+03  0.50369455547E+03  0.58079905525E+03  0.25500000920E-02 0. -1.
       -2    1    3    3    0  502 -0.17578272780E+03  0.22960786129E+03 -0.23046878262E+03  0.36977722635E+03  0.25500000920E-02 0.  1.
</event>
<event>
 5   0  0.1033749E-02  0.9331358E+03  0.7818609E-02  0.9385082E-01
       -2   -1    0    0    0  501  0.00000000000E+00  0.00000000000E+00  0.31547238232E+03  0.31547238233E+03  0.25500000920E-02 0. -1.
        2   -1    0    0  501    0  0.00000000000E+00  0.00000000000E+00 -0.69003064098E+03  0.69003064099E+03  0.25500000920E-02 0.  1.
    10030    2    1    2    0    0  0.00000000000E+00  0.00000000000E+00 -0.37455825866E+03  0.10055030233E+04  0.93313581046E+03 0.  0.
        5    1    3    3  502    0 -0.21968138514E+03  0.33125156515E+03 -0.45051096516E+03  0.60080756496E+03  0.46999998093E+01 0.  1.
       -5    1    3    3    0  502  0.21968138514E+03 -0.33125156515E+03  0.75952706498E+02  0.40469545835E+03  0.46999998093E+01 0. -1.
</event>
<event>
 5   0  0.1028978E-02  0.9022510E+03  0.7818609E-02  0.9422772E-01
       -2   -1    0    0    0  501  0.00000000000E+00  0.00000000000E+00  0.27856415941E+03  0.27856415942E+03  0.25500000920E-02 0. -1.
        2   -1    0    0  501    0  0.00000000000E+00  0.00000000000E+00 -0.73058299787E+03  0.73058299788E+03  0.25500000920E-02 0.  1.
    10030    2    1    2    0    0  0.00000000000E+00  0.00000000000E+00 -0.45201883847E+03  0.10091471573E+04  0.90225104863E+03 0.  0.
        3    1    3    3  502    0  0.22290293595E+03  0.28251062656E+03 -0.53030150763E+03  0.64087258654E+03  0.10100000352E+00 0.  1.
       -3    1    3    3    0  502 -0.22290293595E+03 -0.28251062656E+03  0.78282669165E+02  0.36827457076E+03  0.10100000352E+00 0. -1.
</event>
<event>
 5   0  0.6288003E-03  0.8590830E+03  0.7818609E-02  0.9478227E-01
       -1   -1    0    0    0  501  0.00000000000E+00  0.00000000000E+00  0.12132219182E+03  0.12132219192E+03  0.50400001928E-02 0. -1.
        1   -1    0    0  501    0  0.00000000000E+00  0.00000000000E+00 -0.15207926506E+04  0.15207926506E+04  0.50400001928E-02 0.  1.
    10030    2    1    2    0    0  0.00000000000E+00  0.00000000000E+00 -0.13994704588E+04  0.16421148426E+04  0.85908299428E+03 0.  0.
        1    1    3    3  502    0 -0.17196970572E+02  0.33341606806E+03 -0.12163422976E+04  0.12613289005E+04  0.50400001928E-02 0.  1.
       -1    1    3    3    0  502  0.17196970572E+02 -0.33341606806E+03 -0.18312816123E+03  0.38078594210E+03  0.50400001928E-02 0. -1.
</event>
<event>
 5   0  0.1041727E-02  0.7811260E+03  0.7818609E-02  0.9587745E-01
       -2   -1    0    0    0  501  0.00000000000E+00  0.00000000000E+00  0.14107832028E+03  0.14107832030E+03  0.25500000920E-02 0. -1.
        2   -1    0    0  501    0  0.00000000000E+00  0.00000000000E+00 -0.10812396161E+04  0.10812396161E+04  0.25500000920E-02 0.  1.
    10030    2    1    2    0    0  0.00000000000E+00  0.00000000000E+00 -0.94016129586E+03  0.12223179364E+04  0.78112603049E+03 0.  0.
        4    1    3    3  502    0  0.38056979251E+02  0.37435647695E+03 -0.63380213602E+03  0.73708742088E+03  0.12699999809E+01 0. -1.
       -4    1    3    3    0  502 -0.38056979251E+02 -0.37435647695E+03 -0.30635915984E+03  0.48523051555E+03  0.12699999809E+01 0.  1.
</event>
<event>
 5   0  0.1017079E-02  0.9032696E+03  0.7818609E-02  0.9421503E-01
       -2   -1    0    0    0  501  0.00000000000E+00  0.00000000000E+00  0.32079169246E+03  0.32079169247E+03  0.25500000920E-02 0. -1.
        2   -1    0    0  501    0  0.00000000000E+00  0.00000000000E+00 -0.63584565442E+03  0.63584565442E+03  0.25500000920E-02 0.  1.
    10030    2    1    2    0    0  0.00000000000E+00  0.00000000000E+00 -0.31505396196E+03  0.95663734689E+03  0.90326962449E+03 0.  0.
        1    1    3    3  502    0 -0.17587289553E+03 -0.14774684230E+02  0.28275661114E+03  0.33331796808E+03  0.50400001928E-02 0. -1.
       -1    1    3    3    0  502  0.17587289553E+03  0.14774684230E+02 -0.59781057310E+03  0.62331937882E+03  0.50400001928E-02 0.  1.
</event>
<event>
 5   0  0.1028978E-02  0.9109107E+03  0.7818609E-02  0.9412044E-01
        2   -1    0    0  501    0  0.00000000000E+00  0.00000000000E+00  0.68394744571E+03  0.68394744572E+03  0.25500000920E-02 0.  1.
       -2   -1    0    0    0  501  0.00000000000E+00  0.00000000000E+00 -0.30329751938E+03  0.30329751939E+03  0.25500000920E-02 0. -1.
    10030    2    1    2    0    0  0.00000000000E+00  0.00000000000E+00  0.38064992633E+03  0.98724496510E+03  0.91091067328E+03 0.  0.
        3    1    3    3  502    0 -0.36136927071E+02  0.86848747895E+02 -0.29265474675E+03  0.30740103043E+03  0.10100000352E+00 0. -1.
       -3    1    3    3    0  502  0.36136927071E+02 -0.86848747895E+02  0.67330467309E+03  0.67984393468E+03  0.10100000352E+00 0.  1.
</event>
<event>
 5   0  0.6211218E-03  0.9006870E+03  0.7818609E-02  0.9424723E-01
        1   -1    0    0  501    0  0.00000000000E+00  0.00000000000E+00  0.14408680321E+04  0.14408680321E+04  0.50400001928E-02 0. -1.
       -1   -1    0    0    0  501  0.00000000000E+00  0.00000000000E+00 -0.14075491614E+03  0.14075491623E+03  0.50400001928E-02 0.  1.
    10030    2    1    2    0    0  0.00000000000E+00  0.00000000000E+00  0.13001131160E+04  0.15816229483E+04  0.90068698026E+03 0.  0.
        5    1    3    3  502    0  0.17305278099E+03 -0.97211070346E+02  0.13598658692E+04  0.13742832784E+04  0.46999998093E+01 0. -1.
       -5    1    3    3    0  502 -0.17305278099E+03  0.97211070346E+02 -0.59752753213E+02  0.20733966991E+03  0.46999998093E+01 0.  1.
</event>
<event>
 5   0  0.6092779E-03  0.9063533E+03  0.7818609E-02  0.9417674E-01
        1   -1    0    0  501    0  0.00000000000E+00  0.00000000000E+00  0.35922213621E+03  0.35922213624E+03  0.50400001928E-02 0.  1.
       -1   -1    0    0    0  501  0.00000000000E+00  0.00000000000E+00 -0.57170500977E+03  0.57170500979E+03  0.50400001928E-02 0. -1.
    10030    2    1    2    0    0  0.00000000000E+00  0.00000000000E+00 -0.21248287356E+03  0.93092714604E+03  0.90635334151E+03 0.  0.
        2    1    3    3  502    0 -0.26652093660E+03  0.36552991033E+03 -0.13387000681E+03  0.47176975710E+03  0.25500000920E-02 0. -1.
       -2    1    3    3    0  502  0.26652093660E+03 -0.36552991033E+03 -0.78612866750E+02  0.45915738893E+03  0.25500000920E-02 0.  1.
</event>
<event>
 5   0  0.6288003E-03  0.8801559E+03  0.7818609E-02  0.9450733E-01
       -1   -1    0    0    0  501  0.00000000000E+00  0.00000000000E+00  0.37354086809E+03  0.37354086812E+03  0.50400001928E-02 0.  1.
        1   -1    0    0  501    0  0.00000000000E+00  0.00000000000E+00 -0.51846701833E+03  0.51846701835E+03  0.50400001928E-02 0. -1.
    10030    2    1    2    0    0  0.00000000000E+00  0.00000000000E+00 -0.14492615024E+03  0.89200788648E+03  0.88015594102E+03 0.  0.
        1    1    3    3  502    0  0.85559154012E+02 -0.21016783468E+03  0.30967900317E+03  0.38391662194E+03  0.50400001928E-02 0.  1.
       -1    1    3    3    0  502 -0.85559154012E+02  0.21016783468E+03 -0.45460515341E+03  0.50809126454E+03  0.50400001928E-02 0. -1.
</event>
<event>
 5   0  0.1003252E-02  0.9038501E+03  0.7818609E-02  0.9420781E-01
        2   -1    0    0  501    0  0.00000000000E+00  0.00000000000E+00  0.16160592668E+04  0.16160592668E+04  0.25500000920E-02 0. -1.
       -2   -1    0    0    0  501  0.00000000000E+00  0.00000000000E+00 -0.12637917390E+03  0.12637917392E+03  0.25500000920E-02 0.  1.
    10030    2    1    2    0    0  0.00000000000E+00  0.00000000000E+00  0.14896800929E+04  0.17424384408E+04  0.90385006530E+03 0.  0.
        2    1    3    3  502    0  0.10396536823E+03 -0.13359234796E+03  0.15526314326E+04  0.15618322825E+04  0.25500000920E-02 0. -1.
       -2    1    3    3    0  502 -0.10396536823E+03  0.13359234796E+03 -0.62951339663E+02  0.18060615824E+03  0.25500000920E-02 0.  1.
</event>
<event>
 5   0  0.1041727E-02  0.8930487E+03  0.7818609E-02  0.9434313E-01
        2   -1    0    0  501    0  0.00000000000E+00  0.00000000000E+00  0.97030867766E+03  0.97030867766E+03  0.25500000920E-02 0. -1.
       -2   -1    0    0    0  501  0.00000000000E+00  0.00000000000E+00 -0.20548509960E+03  0.20548509961E+03  0.25500000920E-02 0.  1.
    10030    2    1    2    0    0  0.00000000000E+00  0.00000000000E+00  0.76482357806E+03  0.11757937773E+04  0.89304865551E+03 0.  0.
        4    1    3    3  502    0 -0.42959127677E+03  0.95054449096E+02  0.48266729029E+03  0.65311051085E+03  0.12699999809E+01 0. -1.
       -4    1    3    3    0  502  0.42959127677E+03 -0.95054449096E+02  0.28215628778E+03  0.52268326642E+03  0.12699999809E+01 0.  1.
</event>
<event>
 5   0  0.6092779E-03  0.9105580E+03  0.7818609E-02  0.9412479E-01
       -1   -1    0    0    0  501  0.00000000000E+00  0.00000000000E+00  0.69498825001E+03  0.69498825003E+03  0.50400001928E-02 0.  1.
        1   -1    0    0  501    0  0.00000000000E+00  0.00000000000E+00 -0.29824814022E+03  0.29824814026E+03  0.50400001928E-02 0. -1.
    10030    2    1    2    0    0  0.00000000000E+00  0.00000000000E+00  0.39674010979E+03  0.99323639029E+03  0.91055796756E+03 0.  0.
        2    1    3    3  502    0  0.84858667045E+02 -0.27012357482E+03  0.58726917212E+03  0.65196075002E+03  0.25500000920E-02 0.  1.
       -2    1    3    3    0  502 -0.84858667045E+02  0.27012357482E+03 -0.19052906232E+03  0.34127564027E+03  0.25500000920E-02 0. -1.
</event>
<event>
 5   0  0.6211218E-03  0.8777578E+03  0.7818609E-02  0.9453820E-01
       -1   -1    0    0    0  501  0.00000000000E+00  0.00000000000E+00  0.43859834621E+03  0.43859834624E+03  0.50400001928E-02 0. -1.
        1   -1    0    0  501    0  0.00000000000E+00  0.00000000000E+00 -0.43915960504E+03  0.43915960506E+03  0.50400001928E-02 0.  1.
    10030    2    1    2    0    0  0.00000000000E+00  0.00000000000E+00 -0.56125882435E+00  0.87775795130E+03  0.87775777186E+03 0.  0.
        5    1    3    3  502    0 -0.34976011705E+03 -0.59122745121E+02  0.25810856415E+03  0.43871375560E+03  0.46999998093E+01 0. -1.
       -5    1    3    3    0  502  0.34976011705E+03  0.59122745121E+02 -0.25866982297E+03  0.43904419571E+03  0.46999998093E+01 0.  1.
</event>
<event>
 5   0  0.6092779E-03  0.8989729E+03  0.7818609E-02  0.9426866E-01
        1   -1    0    0  501    0  0.00000000000E+00  0.00000000000E+00  0.20499095549E+04  0.20499095549E+04  0.50400001928E-02 0. -1.
       -1   -1    0    0    0  501  0.00000000000E+00  0.00000000000E+00 -0.98559498058E+02  0.98559498187E+02  0.50400001928E-02 0.  1.
    10030    2    1    2    0    0  0.00000000000E+00  0.00000000000E+00  0.19513500569E+04  0.21484690531E+04  0.89897287377E+03 0.  0.
        2    1    3    3  502    0 -0.41746927786E+03 -0.12174145649E+03  0.12475007323E+04  0.13211206066E+04  0.25500000920E-02 0.  1.
       -2    1    3    3    0  502  0.41746927786E+03  0.12174145649E+03  0.70384932457E+03  0.82734844648E+03  0.25500000920E-02 0. -1.
</event>
<event>
 5   0  0.3996375E-03  0.8938607E+03  0.7818609E-02  0.9433289E-01
       -3   -1    0    0    0  501  0.00000000000E+00  0.00000000000E+00  0.14414412621E+04  0.14414412656E+04  0.10100000352E+00 0.  1.
        3   -1    0    0  501    0  0.00000000000E+00  0.00000000000E+00 -0.13857428721E+03  0.13857432401E+03  0.10100000352E+00 0. -1.
    10030    2    1    2    0    0  0.00000000000E+00  0.00000000000E+00  0.13028669748E+04  0.15800155896E+04  0.89386067664E+03 0.  0.
        1    1    3    3  502    0 -0.32960476393E+03 -0.30085627850E+03  0.69447544317E+03  0.82549981339E+03  0.50400001928E-02 0.  1.
       -1    1    3    3    0  502  0.32960476393E+03  0.30085627850E+03  0.60839153167E+03  0.75451577621E+03  0.50400001928E-02 0. -1.
</event>
<event>
 5   0  0.1003252E-02  0.8840721E+03  0.7818609E-02  0.9445714E-01
        2   -1    0    0  501    0  0.00000000000E+00  0.00000000000E+00  0.63345077872E+03  0.63345077873E+03  0.25500000920E-02 0.  1.
       -2   -1    0    0    0  501  0.00000000000E+00  0.00000000000E+00 -0.30846260828E+03  0.30846260829E+03  0.25500000920E-02 0. -1.
    10030    2    1    2    0    0  0.00000000000E+00  0.00000000000E+00  0.32498817045E+03  0.94191338702E+03  0.88407212246E+03 0.  0.
        2    1    3    3  502    0 -0.10523854686E+03 -0.44807795218E+02 -0.29242282326E+03  0.31399681181E+03  0.25500000920E-02 0. -1.
       -2    1    3    3    0  502  0.10523854686E+03  0.44807795218E+02  0.61741099371E+03  0.62791657521E+03  0.25500000920E-02 0.  1.
</event>
<event>
 5   0  0.1028978E-02  0.9002924E+03  0.7818609E-02  0.9425216E-01
        2   -1    0    0  501    0  0.00000000000E+00  0.00000000000E+00  0.74013226518E+03  0.74013226518E+03  0.25500000920E-02 0. -1.
       -2   -1    0    0    0  501  0.00000000000E+00  0.00000000000E+00 -0.27377752798E+03  0.27377752800E+03  0.25500000920E-02 0.  1.
    10030    2    1    2    0    0  0.00000000000E+00  0.00000000000E+00  0.46635473719E+03  0.10139097932E+04  0.90029235685E+03 0.  0.
        3    1    3    3  502    0 -0.30483830177E+03 -0.32937475872E+03  0.27247273050E+03  0.52502906679E+03  0.10100000352E+00 0. -1.
       -3    1    3    3    0  502  0.30483830177E+03  0.32937475872E+03  0.19388200669E+03  0.48888072639E+03  0.10100000352E+00 0.  1.
</event>
<event>
 5   0  0.1003252E-02  0.8938811E+03  0.7818609E-02  0.9433263E-01
       -2   -1    0    0    0  501  0.00000000000E+00  0.00000000000E+00  0.66155636610E+03  0.66155636611E+03  0.25500000920E-02 0. -1.
        2   -1    0    0  501    0  0.00000000000E+00  0.00000000000E+00 -0.30194837089E+03  0.30194837090E+03  0.25500000920E-02 0.  1.
    10030    2    1    2    0    0  0.00000000000E+00  0.00000000000E+00  0.35960799522E+03  0.96350473700E+03  0.89388112633E+03 0.  0.
        2    1    3    3  502    0  0.14319227969E+02 -0.16634564684E+02 -0.30136710176E+03  0.30216531744E+03  0.25500000920E-02 0.  1.
       -2    1    3    3    0  502 -0.14319227969E+02  0.16634564684E+02  0.66097509698E+03  0.66133941956E+03  0.25500000920E-02 0. -1.
</event>
<event>
 5   0  0.6015709E-03  0.9062057E+03  0.7818609E-02  0.9417857E-01
        1   -1    0    0  501    0  0.00000000000E+00  0.00000000000E+00  0.23118731052E+03  0.23118731058E+03  0.50400001928E-02 0. -1.
       -1   -1    0    0    0  501  0.00000000000E+00  0.00000000000E+00 -0.88803408077E+03  0.88803408079E+03  0.50400001928E-02 0.  1.
    10030    2    1    2    0    0  0.00000000000E+00  0.00000000000E+00 -0.65684677025E+03  0.11192213914E+04  0.90620574005E+03 0.  0.
        3    1    3    3  502    0  0.54757314549E+02 -0.20713045020E+03 -0.82152276961E+03  0.84900003421E+03  0.10100000352E+00 0.  1.
       -3    1    3    3    0  502 -0.54757314549E+02  0.20713045020E+03  0.16467599936E+03  0.27022135716E+03  0.10100000352E+00 0. -1.
</event>
<event>
 5   0  0.6211218E-03  0.9486609E+03  0.7818609E-02  0.9366717E-01
       -1   -1    0    0    0  501  0.00000000000E+00  0.00000000000E+00  0.37595539991E+03  0.37595539995E+03  0.50400001928E-02 0. -1.
        1   -1    0    0  501    0  0.00000000000E+00  0.00000000000E+00 -0.59844703795E+03  0.59844703797E+03  0.50400001928E-02 0.  1.
    10030    2    1    2    0    0  0.00000000000E+00  0.00000000000E+00 -0.22249163804E+03  0.97440243791E+03  0.94866094155E+03 0.  0.
        5    1    3    3  502    0 -0.14550083891E+03 -0.45103240091E+03 -0.13091175016E+03  0.49169166876E+03  0.46999998093E+01 0.  1.
       -5    1    3    3    0  502  0.14550083891E+03  0.45103240091E+03 -0.91579887871E+02  0.48271076916E+03  0.46999998093E+01 0. -1.
</event>
<event>
 5   0  0.1033749E-02  0.9625278E+03  0.7818609E-02  0.9350626E-01
       -2   -1    0    0    0  501  0.00000000000E+00  0.00000000000E+00  0.30105660177E+03  0.30105660178E+03  0.25500000920E-02 0. -1.
        2   -1    0    0  501    0  0.00000000000E+00  0.00000000000E+00 -0.76934015591E+03  0.76934015591E+03  0.25500000920E-02 0.  1.
    10030    2    1    2    0    0  0.00000000000E+00  0.00000000000E+00 -0.46828355414E+03  0.10703967577E+04  0.96252778235E+03 0.  0.
        5    1    3    3  502    0  0.11471203083E+02  0.12609622087E+03  0.28217543549E+03  0.30931684695E+03  0.46999998093E+01 0. -1.
       -5    1    3    3    0  502 -0.11471203083E+02 -0.12609622087E+03 -0.75045898963E+03  0.76107991074E+03  0.46999998093E+01 0.  1.
</event>
<event>
 5   0  0.6211218E-03  0.8078758E+03  0.7818609E-02  0.9548687E-01
        1   -1    0    0  501    0  0.00000000000E+00  0.00000000000E+00  0.15426488005E+04  0.15426488005E+04  0.50400001928E-02 0.  1.
       -1   -1    0    0    0  501  0.00000000000E+00  0.00000000000E+00 -0.10576991037E+03  0.10576991049E+03  0.50400001928E-02 0. -1.
    10030    2    1    2    0    0  0.00000000000E+00  0.00000000000E+00  0.14368788901E+04  0.16484187110E+04  0.80787579607E+03 0.  0.
        5    1    3    3  502    0  0.71129737142E+02 -0.82080729197E+02 -0.75358405432E+02  0.13227873933E+03  0.46999998093E+01 0. -1.
       -5    1    3    3    0  502 -0.71129737142E+02  0.82080729197E+02  0.15122372955E+04  0.15161399716E+04  0.46999998093E+01 0.  1.
</event>
<event>
 5   0  0.6092779E-03  0.1016406E+04  0.7818609E-02  0.9290732E-01
       -1   -1    0    0    0  501  0.00000000000E+00  0.00000000000E+00  0.40955218538E+03  0.40955218541E+03  0.50400001928E-02 0.  1.
        1   -1    0    0  501    0  0.00000000000E+00  0.00000000000E+00 -0.63061655812E+03  0.63061655814E+03  0.50400001928E-02 0. -1.
    10030    2    1    2    0    0  0.00000000000E+00  0.00000000000E+00 -0.22106437274E+03  0.10401687435E+04  0.10164061974E+04 0.  0.
        2    1    3    3  502    0  0.19228975166E+03 -0.31257907820E+03  0.24923954648E+03  0.44362301592E+03  0.25500000920E-02 0.  1.
       -2    1    3    3    0  502 -0.19228975166E+03  0.31257907820E+03 -0.47030391921E+03  0.59654572763E+03  0.25500000920E-02 0. -1.
</event>
<event>
 5   0  0.1033749E-02  0.8980235E+03  0.7818609E-02  0.9428056E-01
       -2   -1    0    0    0  501  0.00000000000E+00  0.00000000000E+00  0.50382497010E+03  0.50382497011E+03  0.25500000920E-02 0.  1.
        2   -1    0    0  501    0  0.00000000000E+00  0.00000000000E+00 -0.40016188665E+03  0.40016188666E+03  0.25500000920E-02 0. -1.
    10030    2    1    2    0    0  0.00000000000E+00  0.00000000000E+00  0.10366308345E+03  0.90398685677E+03  0.89802349766E+03 0.  0.
        5    1    3    3  502    0  0.31337099760E+03 -0.84243302441E+02 -0.26053721563E+03  0.41617309724E+03  0.46999998093E+01 0. -1.
       -5    1    3    3    0  502 -0.31337099760E+03  0.84243302441E+02  0.36420029908E+03  0.48781375953E+03  0.46999998093E+01 0.  1.
</event>
<event>
 5   0  0.6288003E-03  0.9242547E+03  0.7818609E-02  0.9395760E-01
       -1   -1    0    0    0  501  0.00000000000E+00  0.00000000000E+00  0.41836787119E+03  0.41836787122E+03  0.50400001928E-02 0. -1.
        1   -1    0    0  501    0  0.00000000000E+00  0.00000000000E+00 -0.51046392902E+03  0.51046392905E+03  0.50400001928E-02 0.  1.
    10030    2    1    2    0    0  0.00000000000E+00  0.00000000000E+00 -0.92096057828E+02  0.92883180027E+03  0.92425474266E+03 0.  0.
        1    1    3    3  502    0  0.25880323294E+03  0.36664628048E+03 -0.15683505508E+03  0.47540071823E+03  0.50400001928E-02 0.  1.
       -1    1    3    3    0  502 -0.25880323294E+03 -0.36664628048E+03  0.64738997254E+02  0.45343108204E+03  0.50400001928E-02 0. -1.
</event>
<event>
 5   0  0.1028978E-02  0.8895015E+03  0.7818609E-02  0.9438801E-01
        2   -1    0    0  501    0  0.00000000000E+00  0.00000000000E+00  0.27833175993E+03  0.27833175994E+03  0.25500000920E-02 0. -1.
       -2   -1    0    0    0  501  0.00000000000E+00  0.00000000000E+00 -0.71067426984E+03  0.71067426984E+03  0.25500000920E-02 0.  1.
    10030    2    1    2    0    0  0.00000000000E+00  0.00000000000E+00 -0.43234250991E+03  0.98900602978E+03  0.88950147896E+03 0.  0.
        3    1    3    3  502    0  0.38422181274E+03 -0.16264637545E+03 -0.44918821627E+02  0.41964026924E+03  0.10100000352E+00 0. -1.
       -3    1    3    3    0  502 -0.38422181274E+03  0.16264637545E+03 -0.38742368828E+03  0.56936576054E+03  0.10100000352E+00 0.  1.
</event>
<event>
 5   0  0.1017079E-02  0.9014781E+03  0.7818609E-02  0.9423736E-01
        2   -1    0    0  501    0  0.00000000000E+00  0.00000000000E+00  0.21924553278E+03  0.21924553280E+03  0.25500000920E-02 0. -1.
       -2   -1    0    0    0  501  0.00000000000E+00  0.00000000000E+00 -0.92665828075E+03  0.92665828075E+03  0.25500000920E-02 0.  1.
    10030    2    1    2    0    0  0.00000000000E+00  0.00000000000E+00 -0.70741274797E+03  0.11459038135E+04  0.90147809398E+03 0.  0.
        1    1    3    3  502    0  0.43875636487E+03 -0.92827011090E+02 -0.29626993022E+03  0.53749406813E+03  0.50400001928E-02 0. -1.
       -1    1    3    3    0  502 -0.43875636487E+03  0.92827011090E+02 -0.41114281775E+03  0.60840974541E+03  0.50400001928E-02 0.  1.
</event>
<event>
 5   0  0.1028978E-02  0.8959753E+03  0.7818609E-02  0.9430626E-01
        2   -1    0    0  501    0  0.00000000000E+00  0.00000000000E+00  0.36853468754E+03  0.36853468755E+03  0.25500000920E-02 0. -1.
       -2   -1    0    0    0  501  0.00000000000E+00  0.00000000000E+00 -0.54457003337E+03  0.54457003338E+03  0.25500000920E-02 0.  1.
    10030    2    1    2    0    0  0.00000000000E+00  0.00000000000E+00 -0.17603534583E+03  0.91310472093E+03  0.89597532801E+03 0.  0.
        3    1    3    3  502    0 -0.15525806674E+03 -0.32396541686E+03  0.18474502797E+03  0.40396707065E+03  0.10100000352E+00 0. -1.
       -3    1    3    3    0  502  0.15525806674E+03  0.32396541686E+03 -0.36078037380E+03  0.50913765028E+03  0.10100000352E+00 0.  1.
</event>
<event>
 5   0  0.3996375E-03  0.8959142E+03  0.7818609E-02  0.9430703E-01
       -4   -1    0    0    0  501  0.00000000000E+00  0.00000000000E+00  0.52225609280E+03  0.52225763696E+03  0.12699999809E+01 0. -1.
        4   -1    0    0  501    0  0.00000000000E+00  0.00000000000E+00 -0.38422510186E+03  0.38422720076E+03  0.12699999809E+01 0.  1.
    10030    2    1    2    0    0  0.00000000000E+00  0.00000000000E+00  0.13803099093E+03  0.90648483772E+03  0.89591417366E+03 0.  0.
        5    1    3    3  502    0 -0.19057559511E+03  0.34443513684E+02 -0.33965357355E+03  0.39101413416E+03  0.46999998093E+01 0.  1.
       -5    1    3    3    0  502  0.19057559511E+03 -0.34443513684E+02  0.47768456449E+03  0.51547070356E+03  0.46999998093E+01 0. -1.
</event>
<event>
 5   0  0.1041727E-02  0.9022962E+03  0.7818609E-02  0.9422716E-01
        2   -1    0    0  501    0  0.00000000000E+00  0.00000000000E+00  0.36360195383E+03  0.36360195384E+03  0.25500000920E-02 0.  1.
       -2   -1    0    0    0  501  0.00000000000E+00  0.00000000000E+00 -0.55977314618E+03  0.55977314618E+03  0.25500000920E-02 0. -1.
    10030    2    1    2    0    0  0.00000000000E+00  0.00000000000E+00 -0.19617119234E+03  0.92337510002E+03  0.90229620338E+03 0.  0.
        4    1    3    3  502    0 -0.24929926218E+03  0.16903889634E+03  0.24563090056E+03  0.38866492357E+03  0.12699999809E+01 0.  1.
       -4    1    3    3    0  502  0.24929926218E+03 -0.16903889634E+03 -0.44180209291E+03  0.53471017645E+03  0.12699999809E+01 0. -1.
</event>
<event>
 5   0  0.6211218E-03  0.9015732E+03  0.7818609E-02  0.9423617E-01
        1   -1    0    0  501    0  0.00000000000E+00  0.00000000000E+00  0.12339515134E+04  0.12339515134E+04  0.50400001928E-02 0. -1.
       -1   -1    0    0    0  501  0.00000000000E+00  0.00000000000E+00 -0.16468116184E+03  0.16468116192E+03  0.50400001928E-02 0.  1.
    10030    2    1    2    0    0  0.00000000000E+00  0.00000000000E+00  0.10692703516E+04  0.13986326753E+04  0.90157322264E+03 0.  0.
        5    1    3    3  502    0  0.12828445804E+03 -0.10148235267E+03  0.11862485679E+04  0.11974820771E+04  0.46999998093E+01 0. -1.
       -5    1    3    3    0  502 -0.12828445804E+03  0.10148235267E+03 -0.11697821634E+03  0.20115059825E+03  0.46999998093E+01 0.  1.
</event>
<event>
 5   0  0.3996375E-03  0.8369698E+03  0.7818609E-02  0.9507994E-01
        4   -1    0    0  501    0  0.00000000000E+00  0.00000000000E+00  0.21762472499E+03  0.21762843065E+03  0.12699999809E+01 0. -1.
       -4   -1    0    0    0  501  0.00000000000E+00  0.00000000000E+00 -0.80472113804E+03  0.80472214018E+03  0.12699999809E+01 0.  1.
    10030    2    1    2    0    0  0.00000000000E+00  0.00000000000E+00 -0.58709641305E+03  0.10223505708E+04  0.83696982709E+03 0.  0.
        1    1    3    3  502    0  0.39960640229E+03  0.12248343439E+03 -0.31923305528E+03  0.52592510118E+03  0.50400001928E-02 0. -1.
       -1    1    3    3    0  502 -0.39960640229E+03 -0.12248343439E+03 -0.26786335777E+03  0.49642546964E+03  0.50400001928E-02 0.  1.
</event>
<event>
 5   0  0.3996375E-03  0.8615822E+03  0.7818609E-02  0.9474922E-01
       -3   -1    0    0    0  501  0.00000000000E+00  0.00000000000E+00  0.14617582228E+03  0.14617585717E+03  0.10100000352E+00 0. -1.
        3   -1    0    0  501    0  0.00000000000E+00  0.00000000000E+00 -0.12695734398E+04  0.12695734438E+04  0.10100000352E+00 0.  1.
    10030    2    1    2    0    0  0.00000000000E+00  0.00000000000E+00 -0.11233976175E+04  0.14157493010E+04  0.86158219353E+03 0.  0.
        5    1    3    3  502    0 -0.81487789495E+02 -0.25418399697E+03 -0.61399563551E+01  0.26703848639E+03  0.46999998093E+01 0. -1.
       -5    1    3    3    0  502  0.81487789495E+02  0.25418399697E+03 -0.11172576612E+04  0.11487108146E+04  0.46999998093E+01 0.  1.
</event>
<event>
 5   0  0.3996375E-03  0.9196550E+03  0.7818609E-02  0.9401340E-01
        3   -1    0    0  501    0  0.00000000000E+00  0.00000000000E+00  0.69232174054E+03  0.69232174791E+03  0.10100000352E+00 0.  1.
       -3   -1    0    0    0  501  0.00000000000E+00  0.00000000000E+00 -0.30540902594E+03  0.30540904264E+03  0.10100000352E+00 0. -1.
    10030    2    1    2    0    0  0.00000000000E+00  0.00000000000E+00  0.38691271460E+03  0.99773079055E+03  0.91965497970E+03 0.  0.
        5    1    3    3  502    0 -0.56866764077E+02 -0.36547678139E+03  0.48979831760E+03  0.61378464343E+03  0.46999998093E+01 0.  1.
       -5    1    3    3    0  502  0.56866764077E+02  0.36547678139E+03 -0.10288560299E+03  0.38394614712E+03  0.46999998093E+01 0. -1.
</event>
<event>
 5   0  0.3996375E-03  0.8959303E+03  0.7818609E-02  0.9430683E-01
       -3   -1    0    0    0  501  0.00000000000E+00  0.00000000000E+00  0.55288030359E+03  0.55288031281E+03  0.10100000352E+00 0.  1.
        3   -1    0    0  501    0  0.00000000000E+00  0.00000000000E+00 -0.36295878857E+03  0.36295880262E+03  0.10100000352E+00 0. -1.
    10030    2    1    2    0    0  0.00000000000E+00  0.00000000000E+00  0.18992151502E+03  0.91583911544E+03  0.89593030058E+03 0.  0.
        4    1    3    3  502    0 -0.41975492697E+03  0.14364727054E+03  0.31596009002E+02  0.44477933600E+03  0.12699999809E+01 0. -1.
       -4    1    3    3    0  502  0.41975492697E+03 -0.14364727054E+03  0.15832550602E+03  0.47105977944E+03  0.12699999809E+01 0.  1.
</event>
<event>
 5   0  0.6092779E-03  0.8978324E+03  0.7818609E-02  0.9428295E-01
       -1   -1    0    0    0  501  0.00000000000E+00  0.00000000000E+00  0.59440255888E+03  0.59440255890E+03  0.50400001928E-02 0. -1.
        1   -1    0    0  501    0  0.00000000000E+00  0.00000000000E+00 -0.33903921255E+03  0.33903921258E+03  0.50400001928E-02 0.  1.
    10030    2    1    2    0    0  0.00000000000E+00  0.00000000000E+00  0.25536334633E+03  0.93344177149E+03  0.89783244657E+03 0.  0.
        2    1    3    3  502    0  0.11727082129E+03  0.37014718782E+03  0.36192731449E+03  0.53080388766E+03  0.25500000920E-02 0.  1.
       -2    1    3    3    0  502 -0.11727082129E+03 -0.37014718782E+03 -0.10656396816E+03  0.40263788383E+03  0.25500000920E-02 0. -1.
</event>
<event>
 5   0  0.6015709E-03  0.9036050E+03  0.7818609E-02  0.9421086E-01
       -1   -1    0    0    0  501  0.00000000000E+00  0.00000000000E+00  0.15709567453E+03  0.15709567461E+03  0.50400001928E-02 0.  1.
        1   -1    0    0  501    0  0.00000000000E+00  0.00000000000E+00 -0.12993705119E+04  0.12993705119E+04  0.50400001928E-02 0. -1.
    10030    2    1    2    0    0  0.00000000000E+00  0.00000000000E+00 -0.11422748374E+04  0.14564661865E+04  0.90360497364E+03 0.  0.
        3    1    3    3  502    0  0.19851997121E+03  0.38866062236E+03 -0.38276434566E+03  0.58049617815E+03  0.10100000352E+00 0.  1.
       -3    1    3    3    0  502 -0.19851997121E+03 -0.38866062236E+03 -0.75951049174E+03  0.87597000839E+03  0.10100000352E+00 0. -1.
</event>
<event>
 5   0  0.6211218E-03  0.9040076E+03  0.7818609E-02  0.9420586E-01
        1   -1    0    0  501    0  0.00000000000E+00  0.00000000000E+00  0.93372226020E+03  0.93372226021E+03  0.50400001928E-02 0. -1.
       -1   -1    0    0    0  501  0.00000000000E+00  0.00000000000E+00 -0.21880962088E+03  0.21880962094E+03  0.50400001928E-02 0.  1.
    10030    2    1    2    0    0  0.00000000000E+00  0.00000000000E+00  0.71491263931E+03  0.11525318811E+04  0.90400755263E+03 0.  0.
        5    1    3    3  502    0 -0.29751662237E+03 -0.23839768413E+03  0.66696313232E+03  0.76825224129E+03  0.46999998093E+01 0. -1.
       -5    1    3    3    0  502  0.29751662237E+03  0.23839768413E+03  0.47949507000E+02  0.38427963985E+03  0.46999998093E+01 0.  1.
</event>
<event>
 5   0  0.1033749E-02  0.8865516E+03  0.7818609E-02  0.9442550E-01
        2   -1    0    0  501    0  0.00000000000E+00  0.00000000000E+00  0.17922673131E+04  0.17922673131E+04  0.25500000920E-02 0.  1.
       -2   -1    0    0    0  501  0.00000000000E+00  0.00000000000E+00 -0.10963399903E+03  0.10963399906E+03  0.25500000920E-02 0. -1.
    10030    2    1    2    0    0  0.00000000000E+00  0.00000000000E+00  0.16826333141E+04  0.19019013122E+04  0.88655159557E+03 0.  0.
        5    1    3    3  502    0  0.28519382867E+03  0.32743396698E+03  0.10322685042E+04  0.11198878861E+04  0.46999998093E+01 0. -1.
       -5    1    3    3    0  502 -0.28519382867E+03 -0.32743396698E+03  0.65036480985E+03  0.78201342606E+03  0.46999998093E+01 0.  1.
</event>
<event>
 5   0  0.6288003E-03  0.8990123E+03  0.7818609E-02  0.9426817E-01
        1   -1    0    0  501    0  0.00000000000E+00  0.00000000000E+00  0.10469793029E+04  0.10469793029E+04  0.50400001928E-02 0. -1.
       -1   -1    0    0    0  501  0.00000000000E+00  0.00000000000E+00 -0.19298929513E+03  0.19298929519E+03  0.50400001928E-02 0.  1.
    10030    2    1    2    0    0  0.00000000000E+00  0.00000000000E+00  0.85399000776E+03  0.12399685981E+04  0.89901234190E+03 0.  0.
        1    1    3    3  502    0  0.33797001671E+03 -0.29271585781E+03  0.36304906647E+03  0.57594351312E+03  0.50400001928E-02 0. -1.
       -1    1    3    3    0  502 -0.33797001671E+03  0.29271585781E+03  0.49094094129E+03  0.66402508497E+03  0.50400001928E-02 0.  1.
</event>
<event>
 5   0  0.6211218E-03  0.8956185E+03  0.7818609E-02  0.9431075E-01
       -1   -1    0    0    0  501  0.00000000000E+00  0.00000000000E+00  0.65497953578E+03  0.65497953580E+03  0.50400001928E-02 0. -1.
        1   -1    0    0  501    0  0.00000000000E+00  0.00000000000E+00 -0.30616703193E+03  0.30616703197E+03  0.50400001928E-02 0.  1.
    10030    2    1    2    0    0  0.00000000000E+00  0.00000000000E+00  0.34881250385E+03  0.96114656778E+03  0.89561853593E+03 0.  0.
        5    1    3    3  502    0 -0.35877433187E+03 -0.14843940143E+03  0.41379129671E+03  0.56744920860E+03  0.46999998093E+01 0. -1.
       -5    1    3    3    0  502  0.35877433187E+03  0.14843940143E+03 -0.64978792861E+02  0.39369735918E+03  0.46999998093E+01 0.  1.
</event>
<event>
 5   0  0.6137243E-03  0.8971695E+03  0.7818609E-02  0.9429127E-01
       -1   -1    0    0    0  501  0.00000000000E+00  0.00000000000E+00  0.12158396768E+03  0.12158396779E+03  0.50400001928E-02 0.  1.
        1   -1    0    0  501    0  0.00000000000E+00  0.00000000000E+00 -0.16550560150E+04  0.16550560150E+04  0.50400001928E-02 0. -1.
    10030    2    1    2    0    0  0.00000000000E+00  0.00000000000E+00 -0.15334720473E+04  0.17766399828E+04  0.89716949823E+03 0.  0.
        4    1    3    3  502    0  0.23238164222E+03  0.38924529615E+02 -0.10826035590E+02  0.23587107197E+03  0.12699999809E+01 0.  1.
       -4    1    3    3    0  502 -0.23238164222E+03 -0.38924529615E+02 -0.15226460117E+04  0.15407689108E+04  0.12699999809E+01 0. -1.
</event>
<event>
 5   0  0.6092779E-03  0.8922305E+03  0.7818609E-02  0.9435346E-01
       -1   -1    0    0    0  501  0.00000000000E+00  0.00000000000E+00  0.64968468779E+03  0.64968468781E+03  0.50400001928E-02 0.  1.
        1   -1    0    0  501    0  0.00000000000E+00  0.00000000000E+00 -0.30633137056E+03  0.30633137060E+03  0.50400001928E-02 0. -1.
    10030    2    1    2    0    0  0.00000000000E+00  0.00000000000E+00  0.34335331723E+03  0.95601605841E+03  0.89223046545E+03 0.  0.
        2    1    3    3  502    0 -0.29048944848E+03 -0.16030612818E+03  0.49121903813E+03  0.59277172490E+03  0.25500000920E-02 0.  1.
       -2    1    3    3    0  502  0.29048944848E+03  0.16030612818E+03 -0.14786572089E+03  0.36324433352E+03  0.25500000920E-02 0. -1.
</event>
<event>
 5   0  0.1003252E-02  0.8743734E+03  0.7818609E-02  0.9458195E-01
        2   -1    0    0  501    0  0.00000000000E+00  0.00000000000E+00  0.10686256696E+04  0.10686256696E+04  0.25500000920E-02 0.  1.
       -2   -1    0    0    0  501  0.00000000000E+00  0.00000000000E+00 -0.17885794793E+03  0.17885794795E+03  0.25500000920E-02 0. -1.
    10030    2    1    2    0    0  0.00000000000E+00  0.00000000000E+00  0.88976772168E+03  0.12474836176E+04  0.87437336278E+03 0.  0.
        2    1    3    3  502    0 -0.28378292416E+03 -0.27728587375E+03  0.70684093474E+03  0.81058269834E+03  0.25500000920E-02 0.  1.
       -2    1    3    3    0  502  0.28378292416E+03  0.27728587375E+03  0.18292678694E+03  0.43690091922E+03  0.25500000920E-02 0. -1.
</event>
<event>
 5   0  0.1028978E-02  0.8970920E+03  0.7818609E-02  0.9429224E-01
        2   -1    0    0  501    0  0.00000000000E+00  0.00000000000E+00  0.12702923165E+04  0.12702923165E+04  0.25500000920E-02 0.  1.
       -2   -1    0    0    0  501  0.00000000000E+00  0.00000000000E+00 -0.15838363802E+03  0.15838363804E+03  0.25500000920E-02 0. -1.
    10030    2    1    2    0    0  0.00000000000E+00  0.00000000000E+00  0.11119086785E+04  0.14286759546E+04  0.89709200969E+03 0.  0.
        3    1    3    3  502    0 -0.31650355629E+03  0.52223846787E+02  0.10552469275E+04  0.11029269783E+04  0.10100000352E+00 0.  1.
       -3    1    3    3    0  502  0.31650355629E+03 -0.52223846787E+02  0.56661751046E+02  0.32574897629E+03  0.10100000352E+00 0. -1.
</event>
<event>
 5   0  0.1041727E-02  0.8929570E+03  0.7818609E-02  0.9434429E-01
        2   -1    0    0  501    0  0.00000000000E+00  0.00000000000E+00  0.14334037766E+04  0.14334037766E+04  0.25500000920E-02 0. -1.
       -2   -1    0    0    0  501  0.00000000000E+00  0.00000000000E+00 -0.13906971822E+03  0.13906971825E+03  0.25500000920E-02 0.  1.
    10030    2    1    2    0    0  0.00000000000E+00  0.00000000000E+00  0.12943340584E+04  0.15724734949E+04  0.89295701875E+03 0.  0.
        4    1    3    3  502    0 -0.17635781325E+03  0.28098248213E+03  0.12096824064E+03  0.35311210925E+03  0.12699999809E+01 0.  1.
       -4    1    3    3    0  502  0.17635781325E+03 -0.28098248213E+03  0.11733658177E+04  0.12193613856E+04  0.12699999809E+01 0. -1.
</event>
<event>
 5   0  0.6211218E-03  0.9252275E+03  0.7818609E-02  0.9394584E-01
       -1   -1    0    0    0  501  0.00000000000E+00  0.00000000000E+00  0.19682065642E+03  0.19682065649E+03  0.50400001928E-02 0.  1.
        1   -1    0    0  501    0  0.00000000000E+00  0.00000000000E+00 -0.10873426517E+04  0.10873426517E+04  0.50400001928E-02 0. -1.
    10030    2    1    2    0    0  0.00000000000E+00  0.00000000000E+00 -0.89052199531E+03  0.12841633082E+04  0.92522752774E+03 0.  0.
        5    1    3    3  502    0  0.46321819392E+02  0.27750716681E+03 -0.95490927484E+03  0.99550477234E+03  0.46999998093E+01 0. -1.
       -5    1    3    3    0  502 -0.46321819392E+02 -0.27750716681E+03  0.64387279526E+02  0.28865853589E+03  0.46999998093E+01 0.  1.
</event>
<event>
 5   0  0.1017079E-02  0.8922328E+03  0.7818609E-02  0.9435343E-01
        2   -1    0    0  501    0  0.00000000000E+00  0.00000000000E+00  0.24272022122E+03  0.24272022123E+03  0.25500000920E-02 0.  1.
       -2   -1    0    0    0  501  0.00000000000E+00  0.00000000000E+00 -0.81995570479E+03  0.81995570480E+03  0.25500000920E-02 0. -1.
    10030    2    1    2    0    0  0.00000000000E+00  0.00000000000E+00 -0.57723548357E+03  0.10626759260E+04  0.89223277247E+03 0.  0.
        1    1    3    3  502    0 -0.10304539314E+03  0.10964640010E+03  0.21158525133E+03  0.25963244156E+03  0.50400001928E-02 0.  1.
       -1    1    3    3    0  502  0.10304539314E+03 -0.10964640010E+03 -0.78882073491E+03  0.80304348447E+03  0.50400001928E-02 0. -1.
</event>
<event>
 5   0  0.1033749E-02  0.9023479E+03  0.7818609E-02  0.9422651E-01
       -2   -1    0    0    0  501  0.00000000000E+00  0.00000000000E+00  0.19971520547E+03  0.19971520548E+03  0.25500000920E-02 0. -1.
        2   -1    0    0  501    0  0.00000000000E+00  0.00000000000E+00 -0.10192409777E+04  0.10192409777E+04  0.25500000920E-02 0.  1.
    10030    2    1    2    0    0  0.00000000000E+00  0.00000000000E+00 -0.81952577221E+03  0.12189561832E+04  0.90234787370E+03 0.  0.
        5    1    3    3  502    0  0.62550164203E+02 -0.41466063172E+03 -0.63451102735E+03  0.76058023664E+03  0.46999998093E+01 0.  1.
       -5    1    3    3    0  502 -0.62550164203E+02  0.41466063172E+03 -0.18501474486E+03  0.45837594653E+03  0.46999998093E+01 0. -1.
</event>
<event>
 5   0  0.6137243E-03  0.8976972E+03  0.7818609E-02  0.9428465E-01
       -1   -1    0    0    0  501  0.00000000000E+00  0.00000000000E+00  0.11783460318E+03  0.11783460328E+03  0.50400001928E-02 0.  1.
        1   -1    0    0  501    0  0.00000000000E+00  0.00000000000E+00 -0.17097274932E+04  0.17097274932E+04  0.50400001928E-02 0. -1.
    10030    2    1    2    0    0  0.00000000000E+00  0.00000000000E+00 -0.15918928900E+04  0.18275620964E+04  0.89769718903E+03 0.  0.
        4    1    3    3  502    0  0.17061377563E+03 -0.14433111910E+02  0.48730881472E+02  0.17802720821E+03  0.12699999809E+01 0.  1.
       -4    1    3    3    0  502 -0.17061377563E+03  0.14433111910E+02 -0.16406237715E+04  0.16495348882E+04  0.12699999809E+01 0. -1.
</event>
<event>
 5   0  0.6092779E-03  0.8975979E+03  0.7818609E-02  0.9428589E-01
       -1   -1    0    0    0  501  0.00000000000E+00  0.00000000000E+00  0.16384544469E+03  0.16384544476E+03  0.50400001928E-02 0.  1.
        1   -1    0    0  501    0  0.00000000000E+00  0.00000000000E+00 -0.12293322996E+04  0.12293322996E+04  0.50400001928E-02 0. -1.
    10030    2    1    2    0    0  0.00000000000E+00  0.00000000000E+00 -0.10654868550E+04  0.13931777444E+04  0.89759789964E+03 0.  0.
        2    1    3    3  502    0  0.25317247290E+03  0.74444662791E+02  0.30703556108E+02  0.26567088139E+03  0.25500000920E-02 0.  1.
       -2    1    3    3    0  502 -0.25317247290E+03 -0.74444662791E+02 -0.10961904111E+04  0.11275068630E+04  0.25500000920E-02 0. -1.
</event>
<event>
 5   0  0.6092779E-03  0.9001654E+03  0.7818609E-02  0.9425375E-01
       -1   -1    0    0    0  501  0.00000000000E+00  0.00000000000E+00  0.18072036988E+03  0.18072036995E+03  0.50400001928E-02 0. -1.
        1   -1    0    0  501    0  0.00000000000E+00  0.00000000000E+00 -0.11209274460E+04  0.11209274460E+04  0.50400001928E-02 0.  1.
    10030    2    1    2    0    0  0.00000000000E+00  0.00000000000E+00 -0.94020707610E+03  0.13016478159E+04  0.90016536859E+03 0.  0.
        2    1    3    3  502    0 -0.38653216620E+03  0.22963533384E+03 -0.50025970946E+03  0.67260633284E+03  0.25500000920E-02 0.  1.
       -2    1    3    3    0  502  0.38653216620E+03 -0.22963533384E+03 -0.43994736663E+03  0.62904148311E+03  0.25500000920E-02 0. -1.
</event>
<event>
 5   0  0.6015709E-03  0.9017027E+03  0.7818609E-02  0.9423455E-01
       -1   -1    0    0    0  501  0.00000000000E+00  0.00000000000E+00  0.27366796547E+03  0.27366796552E+03  0.50400001928E-02 0. -1.
        1   -1    0    0  501    0  0.00000000000E+00  0.00000000000E+00 -0.74275025098E+03  0.74275025100E+03  0.50400001928E-02 0.  1.
    10030    2    1    2    0    0  0.00000000000E+00  0.00000000000E+00 -0.46908228551E+03  0.10164182165E+04  0.90170272279E+03 0.  0.
        3    1    3    3  502    0 -0.18406981231E+03  0.15059937552E+03  0.19720813882E+03  0.30895457260E+03  0.10100000352E+00 0. -1.
       -3    1    3    3    0  502  0.18406981231E+03 -0.15059937552E+03 -0.66629042433E+03  0.70746364392E+03  0.10100000352E+00 0.  1.
</event>
<event>
 5   0  0.6092779E-03  0.9060186E+03  0.7818609E-02  0.9418089E-01
       -1   -1    0    0    0  501  0.00000000000E+00  0.00000000000E+00  0.10371132070E+03  0.10371132083E+03  0.50400001928E-02 0. -1.
        1   -1    0    0  501    0  0.00000000000E+00  0.00000000000E+00 -0.19787369842E+04  0.19787369842E+04  0.50400001928E-02 0.  1.
    10030    2    1    2    0    0  0.00000000000E+00  0.00000000000E+00 -0.18750256635E+04  0.20824483051E+04  0.90601860046E+03 0.  0.
        2    1    3    3  502    0 -0.12272108637E+03  0.70546950445E+02 -0.19265992982E+04  0.19317924819E+04  0.25500000920E-02 0.  1.
       -2    1    3    3    0  502  0.12272108637E+03 -0.70546950445E+02  0.51573634675E+02  0.15065582317E+03  0.25500000920E-02 0. -1.
</event>
<event>
 5   0  0.1003252E-02  0.9136823E+03  0.7818609E-02  0.9408638E-01
        2   -1    0    0  501    0  0.00000000000E+00  0.00000000000E+00  0.49109872100E+03  0.49109872101E+03  0.25500000920E-02 0.  1.
       -2   -1    0    0    0  501  0.00000000000E+00  0.00000000000E+00 -0.42497325512E+03  0.42497325513E+03  0.25500000920E-02 0. -1.
    10030    2    1    2    0    0  0.00000000000E+00  0.00000000000E+00  0.66125465879E+02  0.91607197613E+03  0.91368226874E+03 0.  0.
        2    1    3    3  502    0 -0.41868331628E+03  0.18041243652E+03  0.62455880148E+02  0.46015769422E+03  0.25500000920E-02 0. -1.
       -2    1    3    3    0  502  0.41868331628E+03 -0.18041243652E+03  0.36695857311E+01  0.45591428191E+03  0.25500000920E-02 0.  1.
</event>
<event>
 5   0  0.1003252E-02  0.8876319E+03  0.7818609E-02  0.9441176E-01
       -2   -1    0    0    0  501  0.00000000000E+00  0.00000000000E+00  0.59370350794E+03  0.59370350795E+03  0.25500000920E-02 0.  1.
        2   -1    0    0  501    0  0.00000000000E+00  0.00000000000E+00 -0.33176933110E+03  0.33176933111E+03  0.25500000920E-02 0. -1.
    10030    2    1    2    0    0  0.00000000000E+00  0.00000000000E+00  0.26193417685E+03  0.92547283905E+03  0.88763194108E+03 0.  0.
        2    1    3    3  502    0 -0.35454538093E+03  0.14912828558E+03 -0.99902048182E+02  0.39739412670E+03  0.25500000920E-02 0. -1.
       -2    1    3    3    0  502  0.35454538093E+03 -0.14912828558E+03  0.36183622503E+03  0.52807871236E+03  0.25500000920E-02 0.  1.
</event>
<event>
 5   0  0.1028978E-02  0.8955771E+03  0.7818609E-02  0.9431127E-01
       -2   -1    0    0    0  501  0.00000000000E+00  0.00000000000E+00  0.16654773466E+04  0.16654773466E+04  0.25500000920E-02 0. -1.
        2   -1    0    0  501    0  0.00000000000E+00  0.00000000000E+00 -0.12039466332E+03  0.12039466335E+03  0.25500000920E-02 0.  1.
    10030    2    1    2    0    0  0.00000000000E+00  0.00000000000E+00  0.15450826833E+04  0.17858720099E+04  0.89557709759E+03 0.  0.
        3    1    3    3  502    0 -0.36281331058E+03 -0.23597915646E+03  0.10016020647E+04  0.10911124447E+04  0.10100000352E+00 0. -1.
       -3    1    3    3    0  502  0.36281331058E+03  0.23597915646E+03  0.54348061855E+03  0.69475956528E+03  0.10100000352E+00 0.  1.
</event>
<event>
 5   0  0.6288003E-03  0.9183608E+03  0.7818609E-02  0.9402916E-01
        1   -1    0    0  501    0  0.00000000000E+00  0.00000000000E+00  0.84196092259E+03  0.84196092260E+03  0.50400001928E-02 0.  1.
       -1   -1    0    0    0  501  0.00000000000E+00  0.00000000000E+00 -0.25042333283E+03  0.25042333288E+03  0.50400001928E-02 0. -1.
    10030    2    1    2    0    0  0.00000000000E+00  0.00000000000E+00  0.59153758976E+03  0.10923842555E+04  0.91836084495E+03 0.  0.
        1    1    3    3  502    0  0.75908172363E+02  0.37099909010E+03  0.60468070304E+03  0.71347118242E+03  0.50400001928E-02 0.  1.
       -1    1    3    3    0  502 -0.75908172363E+02 -0.37099909010E+03 -0.13143113285E+02  0.37891307306E+03  0.50400001928E-02 0. -1.
</event>
<event>
 5   0  0.6092779E-03  0.9051773E+03  0.7818609E-02  0.9419133E-01
        1   -1    0    0  501    0  0.00000000000E+00  0.00000000000E+00  0.28349685571E+03  0.28349685575E+03  0.50400001928E-02 0.  1.
       -1   -1    0    0    0  501  0.00000000000E+00  0.00000000000E+00 -0.72253525808E+03  0.72253525809E+03  0.50400001928E-02 0. -1.
    10030    2    1    2    0    0  0.00000000000E+00  0.00000000000E+00 -0.43903840237E+03  0.10060321138E+04  0.90517727288E+03 0.  0.
        2    1    3    3  502    0 -0.12554651875E+03  0.89180252246E+02 -0.69252135671E+03  0.70943701289E+03  0.25500000920E-02 0. -1.
       -2    1    3    3    0  502  0.12554651875E+03 -0.89180252246E+02  0.25348295434E+03  0.29659510095E+03  0.25500000920E-02 0.  1.
</event>
<event>
 5   0  0.6092779E-03  0.9006810E+03  0.7818609E-02  0.9424731E-01
        1   -1    0    0  501    0  0.00000000000E+00  0.00000000000E+00  0.24229803426E+03  0.24229803431E+03  0.50400001928E-02 0.  1.
       -1   -1    0    0    0  501  0.00000000000E+00  0.00000000000E+00 -0.83701282507E+03  0.83701282508E+03  0.50400001928E-02 0. -1.
    10030    2    1    2    0    0  0.00000000000E+00  0.00000000000E+00 -0.59471479081E+03  0.10793108594E+04  0.90068099169E+03 0.  0.
        2    1    3    3  502    0 -0.30529866569E+03  0.26831597357E+03 -0.52973973036E+03  0.66770121977E+03  0.25500000920E-02 0. -1.
       -2    1    3    3    0  502  0.30529866569E+03 -0.26831597357E+03 -0.64975060448E+02  0.41160963962E+03  0.25500000920E-02 0.  1.
</event>
<event>
 5   0  0.1028978E-02  0.8913905E+03  0.7818609E-02  0.9436408E-01
        2   -1    0    0  501    0  0.00000000000E+00  0.00000000000E+00  0.58542821213E+03  0.58542821213E+03  0.25500000920E-02 0.  1.
       -2   -1    0    0    0  501  0.00000000000E+00  0.00000000000E+00 -0.33931447964E+03  0.33931447965E+03  0.25500000920E-02 0. -1.
    10030    2    1    2    0    0  0.00000000000E+00  0.00000000000E+00  0.24611373249E+03  0.92474269178E+03  0.89139052984E+03 0.  0.
        3    1    3    3  502    0 -0.24210786044E+03 -0.33634871414E+03 -0.47084352479E+02  0.41708946287E+03  0.10100000352E+00 0. -1.
       -3    1    3    3    0  502  0.24210786044E+03  0.33634871414E+03  0.29319808497E+03  0.50765322891E+03  0.10100000352E+00 0.  1.
</event>
<event>
 5   0  0.1003252E-02  0.8995859E+03  0.7818609E-02  0.9426099E-01
        2   -1    0    0  501    0  0.00000000000E+00  0.00000000000E+00  0.94736582325E+03  0.94736582325E+03  0.25500000920E-02 0.  1.
       -2   -1    0    0    0  501  0.00000000000E+00  0.00000000000E+00 -0.21355392471E+03  0.21355392472E+03  0.25500000920E-02 0. -1.
    10030    2    1    2    0    0  0.00000000000E+00  0.00000000000E+00  0.73381189854E+03  0.11609197480E+04  0.89958588184E+03 0.  0.
        2    1    3    3  502    0 -0.19884120321E+03  0.35658831267E+03  0.61046845441E+03  0.73441458500E+03  0.25500000920E-02 0.  1.
       -2    1    3    3    0  502  0.19884120321E+03 -0.35658831267E+03  0.12334344413E+03  0.42650516297E+03  0.25500000920E-02 0. -1.
</event>
<event>
 5   0  0.1003252E-02  0.8986381E+03  0.7818609E-02  0.9427285E-01
        2   -1    0    0  501    0  0.00000000000E+00  0.00000000000E+00  0.87803369319E+03  0.87803369319E+03  0.25500000920E-02 0.  1.
       -2   -1    0    0    0  501  0.00000000000E+00  0.00000000000E+00 -0.22993151932E+03  0.22993151934E+03  0.25500000920E-02 0. -1.
    10030    2    1    2    0    0  0.00000000000E+00  0.00000000000E+00  0.64810217386E+03  0.11079652125E+04  0.89863812762E+03 0.  0.
        2    1    3    3  502    0 -0.65930137287E+02  0.43703363833E+02 -0.22127962791E+03  0.23499242700E+03  0.25500000920E-02 0. -1.
       -2    1    3    3    0  502  0.65930137287E+02 -0.43703363833E+02  0.86938180177E+03  0.87297278553E+03  0.25500000920E-02 0.  1.
</event>
<event>
 5   0  0.6137243E-03  0.8938822E+03  0.7818609E-02  0.9433261E-01
       -1   -1    0    0    0  501  0.00000000000E+00  0.00000000000E+00  0.14301372130E+03  0.14301372139E+03  0.50400001928E-02 0. -1.
        1   -1    0    0  501    0  0.00000000000E+00  0.00000000000E+00 -0.13967634228E+04  0.13967634228E+04  0.50400001928E-02 0.  1.
    10030    2    1    2    0    0  0.00000000000E+00  0.00000000000E+00 -0.12537497015E+04  0.15397771442E+04  0.89388217331E+03 0.  0.
        4    1    3    3  502    0  0.10004936708E+03  0.43414529160E+03 -0.56566381315E+03  0.72004803484E+03  0.12699999809E+01 0. -1.
       -4    1    3    3    0  502 -0.10004936708E+03 -0.43414529160E+03 -0.68808588833E+03  0.81972910933E+03  0.12699999809E+01 0.  1.
</event>
<event>
 5   0  0.3996375E-03  0.8616914E+03  0.7818609E-02  0.9474778E-01
        3   -1    0    0  501    0  0.00000000000E+00  0.00000000000E+00  0.29144044910E+03  0.29144046660E+03  0.10100000352E+00 0. -1.
       -3   -1    0    0    0  501  0.00000000000E+00  0.00000000000E+00 -0.63693283410E+03  0.63693284211E+03  0.10100000352E+00 0.  1.
    10030    2    1    2    0    0  0.00000000000E+00  0.00000000000E+00 -0.34549238500E+03  0.92837330871E+03  0.86169136716E+03 0.  0.
        2    1    3    3  502    0  0.22466523665E+03  0.20517427772E+03  0.15591281906E+03  0.34187681984E+03  0.25500000920E-02 0. -1.
       -2    1    3    3    0  502 -0.22466523665E+03 -0.20517427772E+03 -0.50140520405E+03  0.58649648887E+03  0.25500000920E-02 0.  1.
</event>
<event>
 5   0  0.1017079E-02  0.9010792E+03  0.7818609E-02  0.9424233E-01
        2   -1    0    0  501    0  0.00000000000E+00  0.00000000000E+00  0.81957816677E+03  0.81957816677E+03  0.25500000920E-02 0.  1.
       -2   -1    0    0    0  501  0.00000000000E+00  0.00000000000E+00 -0.24767122177E+03  0.24767122179E+03  0.25500000920E-02 0. -1.
    10030    2    1    2    0    0  0.00000000000E+00  0.00000000000E+00  0.57190694500E+03  0.10672493886E+04  0.90107918833E+03 0.  0.
        1    1    3    3  502    0  0.13047044147E+02  0.34669904272E+03 -0.54481098232E+02  0.35119601603E+03  0.50400001928E-02 0. -1.
       -1    1    3    3    0  502 -0.13047044147E+02 -0.34669904272E+03  0.62638804323E+03  0.71605337253E+03  0.50400001928E-02 0.  1.
</event>
<event>
 5   0  0.1028978E-02  0.8778573E+03  0.7818609E-02  0.9453692E-01
       -2   -1    0    0    0  501  0.00000000000E+00  0.00000000000E+00  0.41937125349E+03  0.41937125350E+03  0.25500000920E-02 0. -1.
        2   -1    0    0  501    0  0.00000000000E+00  0.00000000000E+00 -0.45939815046E+03  0.45939815047E+03  0.25500000920E-02 0.  1.
    10030    2    1    2    0    0  0.00000000000E+00  0.00000000000E+00 -0.40026896968E+02  0.87876940397E+03  0.87785734198E+03 0.  0.
        3    1    3    3  502    0 -0.18211282801E+03  0.29342672240E+02 -0.41871395153E+03  0.45754503379E+03  0.10100000352E+00 0.  1.
       -3    1    3    3    0  502  0.18211282801E+03 -0.29342672240E+02  0.37868705456E+03  0.42122437018E+03  0.10100000352E+00 0. -1.
</event>
<event>
 5   0  0.3996375E-03  0.8886214E+03  0.7818609E-02  0.9439918E-01
        4   -1    0    0  501    0  0.00000000000E+00  0.00000000000E+00  0.35625753294E+03  0.35625979661E+03  0.12699999809E+01 0.  1.
       -4   -1    0    0    0  501  0.00000000000E+00  0.00000000000E+00 -0.55412251432E+03  0.55412396968E+03  0.12699999809E+01 0. -1.
    10030    2    1    2    0    0  0.00000000000E+00  0.00000000000E+00 -0.19786498138E+03  0.91038376629E+03  0.88862143293E+03 0.  0.
        3    1    3    3  502    0 -0.10629148921E+03 -0.32145476900E+03  0.19583048549E+03  0.39112739413E+03  0.10100000352E+00 0. -1.
       -3    1    3    3    0  502  0.10629148921E+03  0.32145476900E+03 -0.39369546687E+03  0.51925637216E+03  0.10100000352E+00 0.  1.
</event>
<event>
 5   0  0.1028978E-02  0.8615539E+03  0.7818609E-02  0.9474960E-01
       -2   -1    0    0    0  501  0.00000000000E+00  0.00000000000E+00  0.17200098769E+03  0.17200098771E+03  0.25500000920E-02 0. -1.
        2   -1    0    0  501    0  0.00000000000E+00  0.00000000000E+00 -0.10788820387E+04  0.10788820387E+04  0.25500000920E-02 0.  1.
    10030    2    1    2    0    0  0.00000000000E+00  0.00000000000E+00 -0.90688105105E+03  0.12508830265E+04  0.86155388985E+03 0.  0.
        3    1    3    3  502    0  0.38244245788E+03 -0.18832711485E+03 -0.36347675564E+03  0.56021843764E+03  0.10100000352E+00 0. -1.
       -3    1    3    3    0  502 -0.38244245788E+03  0.18832711485E+03 -0.54340429541E+03  0.69066458882E+03  0.10100000352E+00 0.  1.
</event>
<event>
 5   0  0.1003252E-02  0.8978884E+03  0.7818609E-02  0.9428225E-01
       -2   -1    0    0    0  501  0.00000000000E+00  0.00000000000E+00  0.14974857530E+03  0.14974857532E+03  0.25500000920E-02 0. -1.
        2   -1    0    0  501    0  0.00000000000E+00  0.00000000000E+00 -0.13459286335E+04  0.13459286335E+04  0.25500000920E-02 0.  1.
    10030    2    1    2    0    0  0.00000000000E+00  0.00000000000E+00 -0.11961800582E+04  0.14956772088E+04  0.89788840139E+03 0.  0.
        2    1    3    3  502    0  0.91478852024E+02 -0.36631482262E+03 -0.19348929017E+03  0.42425586037E+03  0.25500000920E-02 0. -1.
       -2    1    3    3    0  502 -0.91478852024E+02  0.36631482262E+03 -0.10026907680E+04  0.10714213484E+04  0.25500000920E-02 0.  1.
</event>
<event>
 5   0  0.1033749E-02  0.9075135E+03  0.7818609E-02  0.9416238E-01
        2   -1    0    0  501    0  0.00000000000E+00  0.00000000000E+00  0.45985588541E+03  0.45985588541E+03  0.25500000920E-02 0. -1.
       -2   -1    0    0    0  501  0.00000000000E+00  0.00000000000E+00 -0.44773851636E+03  0.44773851637E+03  0.25500000920E-02 0.  1.
    10030    2    1    2    0    0  0.00000000000E+00  0.00000000000E+00  0.12117369041E+02  0.90759440179E+03  0.90751350817E+03 0.  0.
        5    1    3    3  502    0  0.95967753972E+02 -0.42383962172E+03 -0.12442618857E+03  0.45205508640E+03  0.46999998093E+01 0. -1.
       -5    1    3    3    0  502 -0.95967753972E+02  0.42383962172E+03  0.13654355761E+03  0.45553931539E+03  0.46999998093E+01 0.  1.
</event>
<event>
 5   0  0.6015709E-03  0.9022085E+03  0.7818609E-02  0.9422825E-01
        1   -1    0    0  501    0  0.00000000000E+00  0.00000000000E+00  0.69344451482E+03  0.69344451483E+03  0.50400001928E-02 0.  1.
       -1   -1    0    0    0  501  0.00000000000E+00  0.00000000000E+00 -0.29345541616E+03  0.29345541620E+03  0.50400001928E-02 0. -1.
    10030    2    1    2    0    0  0.00000000000E+00  0.00000000000E+00  0.39998909865E+03  0.98689993104E+03  0.90220850963E+03 0.  0.
        3    1    3    3  502    0 -0.17103549070E+03  0.41590670832E+03  0.16111193669E+03  0.47769089949E+03  0.10100000352E+00 0.  1.
       -3    1    3    3    0  502  0.17103549070E+03 -0.41590670832E+03  0.23887716196E+03  0.50920903155E+03  0.10100000352E+00 0. -1.
</event>
<event>
 5   0  0.6211218E-03  0.9060996E+03  0.7818609E-02  0.9417989E-01
       -1   -1    0    0    0  501  0.00000000000E+00  0.00000000000E+00  0.24426693992E+03  0.24426693997E+03  0.50400001928E-02 0.  1.
        1   -1    0    0  501    0  0.00000000000E+00  0.00000000000E+00 -0.84028607201E+03  0.84028607202E+03  0.50400001928E-02 0. -1.
    10030    2    1    2    0    0  0.00000000000E+00  0.00000000000E+00 -0.59601913209E+03  0.10845530120E+04  0.90609956959E+03 0.  0.
        5    1    3    3  502    0  0.29422653780E+03 -0.17029329582E+03  0.60401479570E+02  0.34531071642E+03  0.46999998093E+01 0. -1.
       -5    1    3    3    0  502 -0.29422653780E+03  0.17029329582E+03 -0.65642061166E+03  0.73924229557E+03  0.46999998093E+01 0.  1.
</event>
<event>
 5   0  0.1017079E-02  0.9024780E+03  0.7818609E-02  0.9422489E-01
        2   -1    0    0  501    0  0.00000000000E+00  0.00000000000E+00  0.37317370403E+03  0.37317370404E+03  0.25500000920E-02 0. -1.
       -2   -1    0    0    0  501  0.00000000000E+00  0.00000000000E+00 -0.54563504967E+03  0.54563504967E+03  0.25500000920E-02 0.  1.
    10030    2    1    2    0    0  0.00000000000E+00  0.00000000000E+00 -0.17246134564E+03  0.91880875371E+03  0.90247803860E+03 0.  0.
        1    1    3    3  502    0  0.56886557838E+02 -0.24594381322E+03 -0.46702042465E+03  0.53087900391E+03  0.50400001928E-02 0.  1.
       -1    1    3    3    0  502 -0.56886557838E+02  0.24594381322E+03  0.29455907901E+03  0.38792974980E+03  0.50400001928E-02 0. -1.
</event>
<event>
 5   0  0.6092779E-03  0.8659485E+03  0.7818609E-02  0.9469178E-01
       -1   -1    0    0    0  501  0.00000000000E+00  0.00000000000E+00  0.30905832947E+03  0.30905832952E+03  0.50400001928E-02 0. -1.
        1   -1    0    0  501    0  0.00000000000E+00  0.00000000000E+00 -0.60657379014E+03  0.60657379017E+03  0.50400001928E-02 0.  1.
    10030    2    1    2    0    0  0.00000000000E+00  0.00000000000E+00 -0.29751546067E+03  0.91563211968E+03  0.86594845646E+03 0.  0.
        2    1    3    3  502    0 -0.98304597405E+02 -0.25211872499E+03  0.20862720601E+03  0.34169131750E+03  0.25500000920E-02 0. -1.
       -2    1    3    3    0  502  0.98304597405E+02  0.25211872499E+03 -0.50614266668E+03  0.57394080218E+03  0.25500000920E-02 0.  1.
</event>
<event>
 5   0  0.1003252E-02  0.8140074E+03  0.7818609E-02  0.9539960E-01
        2   -1    0    0  501    0  0.00000000000E+00  0.00000000000E+00  0.74222145876E+03  0.74222145876E+03  0.25500000920E-02 0. -1.
       -2   -1    0    0    0  501  0.00000000000E+00  0.00000000000E+00 -0.22318410385E+03  0.22318410387E+03  0.25500000920E-02 0.  1.
    10030    2    1    2    0    0  0.00000000000E+00  0.00000000000E+00  0.51903735491E+03  0.96540556263E+03  0.81400744749E+03 0.  0.
        2    1    3    3  502    0  0.34280608670E+03 -0.20432691865E+03  0.16473930224E+03  0.43174592120E+03  0.25500000920E-02 0. -1.
       -2    1    3    3    0  502 -0.34280608670E+03  0.20432691865E+03  0.35429805267E+03  0.53365964143E+03  0.25500000920E-02 0.  1.
</event>
<event>
 5   0  0.6288003E-03  0.9930392E+03  0.7818609E-02  0.9316212E-01
       -1   -1    0    0    0  501  0.00000000000E+00  0.00000000000E+00  0.13764674797E+03  0.13764674806E+03  0.50400001928E-02 0. -1.
        1   -1    0    0  501    0  0.00000000000E+00  0.00000000000E+00 -0.17910462678E+04  0.17910462678E+04  0.50400001928E-02 0.  1.
    10030    2    1    2    0    0  0.00000000000E+00  0.00000000000E+00 -0.16533995199E+04  0.19286930159E+04  0.99303916202E+03 0.  0.
        1    1    3    3  502    0 -0.15006456701E+03  0.45999225425E+03 -0.61025461696E+03  0.77879583062E+03  0.50400001928E-02 0. -1.
       -1    1    3    3    0  502  0.15006456701E+03 -0.45999225425E+03 -0.10431449029E+04  0.11498971853E+04  0.50400001928E-02 0.  1.
</event>
<event>
 5   0  0.1041727E-02  0.9071093E+03  0.7818609E-02  0.9416738E-01
       -2   -1    0    0    0  501  0.00000000000E+00  0.00000000000E+00  0.20606216971E+03  0.20606216973E+03  0.25500000920E-02 0.  1.
        2   -1    0    0  501    0  0.00000000000E+00  0.00000000000E+00 -0.99829981233E+03  0.99829981234E+03  0.25500000920E-02 0. -1.
    10030    2    1    2    0    0  0.00000000000E+00  0.00000000000E+00 -0.79223764262E+03  0.12043619821E+04  0.90710931064E+03 0.  0.
        4    1    3    3  502    0 -0.39797512461E+03 -0.20811555086E+03 -0.48023553901E+03  0.65751354979E+03  0.12699999809E+01 0. -1.
       -4    1    3    3    0  502  0.39797512461E+03  0.20811555086E+03 -0.31200210361E+03  0.54684843227E+03  0.12699999809E+01 0.  1.
</event>
<event>
 5   0  0.6137243E-03  0.9187479E+03  0.7818609E-02  0.9402444E-01
       -1   -1    0    0    0  501  0.00000000000E+00  0.00000000000E+00  0.33214594647E+03  0.33214594651E+03  0.50400001928E-02 0. -1.
        1   -1    0    0  501    0  0.00000000000E+00  0.00000000000E+00 -0.63533649640E+03  0.63533649642E+03  0.50400001928E-02 0.  1.
    10030    2    1    2    0    0  0.00000000000E+00  0.00000000000E+00 -0.30319054993E+03  0.96748244293E+03  0.91874793486E+03 0.  0.
        4    1    3    3  502    0  0.63964438443E+02  0.36781758092E+03 -0.43345263225E+03  0.57206994286E+03  0.12699999809E+01 0.  1.
       -4    1    3    3    0  502 -0.63964438443E+02 -0.36781758092E+03  0.13026208232E+03  0.39541250007E+03  0.12699999809E+01 0. -1.
</event>
<event>
 5   0  0.1033749E-02  0.9077675E+03  0.7818609E-02  0.9415923E-01
        2   -1    0    0  501    0  0.00000000000E+00  0.00000000000E+00  0.27078733818E+03  0.27078733819E+03  0.25500000920E-02 0. -1.
       -2   -1    0    0    0  501  0.00000000000E+00  0.00000000000E+00 -0.76078314441E+03  0.76078314441E+03  0.25500000920E-02 0.  1.
    10030    2    1    2    0    0  0.00000000000E+00  0.00000000000E+00 -0.48999580622E+03  0.10315704826E+04  0.90776746497E+03 0.  0.
        5    1    3    3  502    0  0.22481235933E+03  0.80977535654E+02  0.19349001717E+03  0.30750355271E+03  0.46999998093E+01 0. -1.
       -5    1    3    3    0  502 -0.22481235933E+03 -0.80977535654E+02 -0.68348582339E+03  0.72406692989E+03  0.46999998093E+01 0.  1.
</event>
<event>
 5   0  0.6092779E-03  0.8986701E+03  0.7818609E-02  0.9427245E-01
       -1   -1    0    0    0  501  0.00000000000E+00  0.00000000000E+00  0.26878155613E+03  0.26878155618E+03  0.50400001928E-02 0. -1.
        1   -1    0    0  501    0  0.00000000000E+00  0.00000000000E+00 -0.75117497165E+03  0.75117497167E+03  0.50400001928E-02 0.  1.
    10030    2    1    2    0    0  0.00000000000E+00  0.00000000000E+00 -0.48239341552E+03  0.10199565278E+04  0.89867007926E+03 0.  0.
        2    1    3    3  502    0  0.34519988191E+03  0.18348365868E+03 -0.49261776598E+03  0.62888907992E+03  0.25500000920E-02 0.  1.
       -2    1    3    3    0  502 -0.34519988191E+03 -0.18348365868E+03  0.10224350461E+02  0.39106744792E+03  0.25500000920E-02 0. -1.
</event>
<event>
 5   0  0.6211218E-03  0.8861125E+03  0.7818609E-02  0.9443110E-01
        1   -1    0    0  501    0  0.00000000000E+00  0.00000000000E+00  0.62721397948E+03  0.62721397950E+03  0.50400001928E-02 0. -1.
       -1   -1    0    0    0  501  0.00000000000E+00  0.00000000000E+00 -0.31296951880E+03  0.31296951884E+03  0.50400001928E-02 0.  1.
    10030    2    1    2    0    0  0.00000000000E+00  0.00000000000E+00  0.31424446068E+03  0.94018349835E+03  0.88611253772E+03 0.  0.
        5    1    3    3  502    0  0.25509920877E+01 -0.39741267935E+03 -0.50614139734E+02  0.40065849099E+03  0.46999998093E+01 0.  1.
       -5    1    3    3    0  502 -0.25509920877E+01  0.39741267935E+03  0.36485860041E+03  0.53952500735E+03  0.46999998093E+01 0. -1.
</event>
<event>
 5   0  0.1017079E-02  0.8972048E+03  0.7818609E-02  0.9429082E-01
       -2   -1    0    0    0  501  0.00000000000E+00  0.00000000000E+00  0.16800193515E+03  0.16800193517E+03  0.25500000920E-02 0. -1.
        2   -1    0    0  501    0  0.00000000000E+00  0.00000000000E+00 -0.11978678084E+04  0.11978678084E+04  0.25500000920E-02 0.  1.
    10030    2    1    2    0    0  0.00000000000E+00  0.00000000000E+00 -0.10298658733E+04  0.13658697436E+04  0.89720479243E+03 0.  0.
        1    1    3    3  502    0 -0.16526677026E+03 -0.11471635748E+03  0.95477253644E+02  0.22268554963E+03  0.50400001928E-02 0. -1.
       -1    1    3    3    0  502  0.16526677026E+03  0.11471635748E+03 -0.11253431269E+04  0.11431841940E+04  0.50400001928E-02 0.  1.
</event>
<event>
 5   0  0.6015709E-03  0.8937061E+03  0.7818609E-02  0.9433484E-01
        1   -1    0    0  501    0  0.00000000000E+00  0.00000000000E+00  0.61541407677E+03  0.61541407679E+03  0.50400001928E-02 0.  1.
       -1   -1    0    0    0  501  0.00000000000E+00  0.00000000000E+00 -0.32446062118E+03  0.32446062122E+03  0.50400001928E-02 0. -1.
    10030    2    1    2    0    0  0.00000000000E+00  0.00000000000E+00  0.29095345559E+03  0.93987469802E+03  0.89370606726E+03 0.  0.
        3    1    3    3  502    0 -0.73503153130E+01  0.21359230405E+03  0.55818039246E+03  0.59769646160E+03  0.10100000352E+00 0.  1.
       -3    1    3    3    0  502  0.73503153130E+01 -0.21359230405E+03 -0.26722693687E+03  0.34217823641E+03  0.10100000352E+00 0. -1.
</event>
<event>
 5   0  0.1017079E-02  0.8980216E+03  0.7818609E-02  0.9428058E-01
        2   -1    0    0  501    0  0.00000000000E+00  0.00000000000E+00  0.12381363219E+04  0.12381363219E+04  0.25500000920E-02 0. -1.
       -2   -1    0    0    0  501  0.00000000000E+00  0.00000000000E+00 -0.16283400927E+03  0.16283400929E+03  0.25500000920E-02 0.  1.
    10030    2    1    2    0    0  0.00000000000E+00  0.00000000000E+00  0.10753023126E+04  0.14009703312E+04  0.89802160627E+03 0.  0.
        1    1    3    3  502    0 -0.25357980848E+03 -0.30921020107E+03  0.21908859677E+03  0.45597530742E+03  0.50400001928E-02 0.  1.
       -1    1    3    3    0  502  0.25357980848E+03  0.30921020107E+03  0.85621371581E+03  0.94499502373E+03  0.50400001928E-02 0. -1.
</event>
<event>
 5   0  0.6015709E-03  0.9023150E+03  0.7818609E-02  0.9422692E-01
        1   -1    0    0  501    0  0.00000000000E+00  0.00000000000E+00  0.49809456216E+03  0.49809456219E+03  0.50400001928E-02 0.  1.
       -1   -1    0    0    0  501  0.00000000000E+00  0.00000000000E+00 -0.40864346996E+03  0.40864346999E+03  0.50400001928E-02 0. -1.
    10030    2    1    2    0    0  0.00000000000E+00  0.00000000000E+00  0.89451092205E+02  0.90673803218E+03  0.90231500104E+03 0.  0.
        3    1    3    3  502    0 -0.34839499414E+03  0.16295979783E+03 -0.19224410620E+03  0.42999159784E+03  0.10100000352E+00 0.  1.
       -3    1    3    3    0  502  0.34839499414E+03 -0.16295979783E+03  0.28169519840E+03  0.47674643434E+03  0.10100000352E+00 0. -1.
</event>
<event>
 5   0  0.6211218E-03  0.9124208E+03  0.7818609E-02  0.9410187E-01
       -1   -1    0    0    0  501  0.00000000000E+00  0.00000000000E+00  0.29655350850E+03  0.29655350855E+03  0.50400001928E-02 0.  1.
        1   -1    0    0  501    0  0.00000000000E+00  0.00000000000E+00 -0.70182249316E+03  0.70182249318E+03  0.50400001928E-02 0. -1.
    10030    2    1    2    0    0  0.00000000000E+00  0.00000000000E+00 -0.40526898466E+03  0.99837600173E+03  0.91242078609E+03 0.  0.
        5    1    3    3  502    0  0.34589284694E+03  0.71697873827E+02 -0.51848560985E+03  0.62740088006E+03  0.46999998093E+01 0. -1.
       -5    1    3    3    0  502 -0.34589284694E+03 -0.71697873827E+02  0.11321662519E+03  0.37097512167E+03  0.46999998093E+01 0.  1.
</event>
<event>
 5   0  0.1041727E-02  0.8663616E+03  0.7818609E-02  0.9468636E-01
        2   -1    0    0  501    0  0.00000000000E+00  0.00000000000E+00  0.31152207769E+03  0.31152207770E+03  0.25500000920E-02 0. -1.
       -2   -1    0    0    0  501  0.00000000000E+00  0.00000000000E+00 -0.60235089552E+03  0.60235089553E+03  0.25500000920E-02 0.  1.
    10030    2    1    2    0    0  0.00000000000E+00  0.00000000000E+00 -0.29082881784E+03  0.91387297323E+03  0.86636159305E+03 0.  0.
        4    1    3    3  502    0 -0.19605086564E+02  0.26630767334E+03 -0.50520590843E+03  0.57143569989E+03  0.12699999809E+01 0.  1.
       -4    1    3    3    0  502  0.19605086564E+02 -0.26630767334E+03  0.21437709059E+03  0.34243727334E+03  0.12699999809E+01 0. -1.
</event>
<event>
 5   0  0.1003252E-02  0.7621433E+03  0.7818609E-02  0.9616490E-01
        2   -1    0    0  501    0  0.00000000000E+00  0.00000000000E+00  0.11998816333E+04  0.11998816333E+04  0.25500000920E-02 0. -1.
       -2   -1    0    0    0  501  0.00000000000E+00  0.00000000000E+00 -0.12102493771E+03  0.12102493774E+03  0.25500000920E-02 0.  1.
    10030    2    1    2    0    0  0.00000000000E+00  0.00000000000E+00  0.10788566956E+04  0.13209065711E+04  0.76214329348E+03 0.  0.
        2    1    3    3  502    0 -0.14961108786E+03 -0.80651520375E+01  0.11466907927E+04  0.11564377624E+04  0.25500000920E-02 0. -1.
       -2    1    3    3    0  502  0.14961108786E+03  0.80651520375E+01 -0.67834097072E+02  0.16446880865E+03  0.25500000920E-02 0.  1.
</event>
<event>
 5   0  0.6137243E-03  0.8346035E+03  0.7818609E-02  0.9511238E-01
       -1   -1    0    0    0  501  0.00000000000E+00  0.00000000000E+00  0.76030627914E+02  0.76030628081E+02  0.50400001928E-02 0. -1.
        1   -1    0    0  501    0  0.00000000000E+00  0.00000000000E+00 -0.22904026970E+04  0.22904026970E+04  0.50400001928E-02 0.  1.
    10030    2    1    2    0    0  0.00000000000E+00  0.00000000000E+00 -0.22143720691E+04  0.23664333251E+04  0.83460351170E+03 0.  0.
        4    1    3    3  502    0 -0.87086505438E+02  0.12865790664E+03 -0.90328708300E+01  0.15562815307E+03  0.12699999809E+01 0. -1.
       -4    1    3    3    0  502  0.87086505438E+02 -0.12865790664E+03 -0.22053391983E+04  0.22108051720E+04  0.12699999809E+01 0.  1.
</event>
<event>
 5   0  0.3996375E-03  0.9003523E+03  0.7818609E-02  0.9425141E-01
        3   -1    0    0  501    0  0.00000000000E+00  0.00000000000E+00  0.75187282461E+03  0.75187283139E+03  0.10100000352E+00 0.  1.
       -3   -1    0    0    0  501  0.00000000000E+00  0.00000000000E+00 -0.26953832831E+03  0.26953834723E+03  0.10100000352E+00 0. -1.
    10030    2    1    2    0    0  0.00000000000E+00  0.00000000000E+00  0.48233449630E+03  0.10214111786E+04  0.90035228078E+03 0.  0.
        3    1    3    3  502    0  0.23682958310E+03  0.12461404486E+03 -0.16950257390E+03  0.31677759449E+03  0.10100000352E+00 0. -1.
       -3    1    3    3    0  502 -0.23682958310E+03 -0.12461404486E+03  0.65183707020E+03  0.70463358414E+03  0.10100000352E+00 0.  1.
</event>
<event>
 5   0  0.1033749E-02  0.8890535E+03  0.7818609E-02  0.9439369E-01
       -2   -1    0    0    0  501  0.00000000000E+00  0.00000000000E+00  0.18966442470E+03  0.18966442471E+03  0.25500000920E-02 0. -1.
        2   -1    0    0  501    0  0.00000000000E+00  0.00000000000E+00 -0.10418613535E+04  0.10418613535E+04  0.25500000920E-02 0.  1.
    10030    2    1    2    0    0  0.00000000000E+00  0.00000000000E+00 -0.85219692882E+03  0.12315257782E+04  0.88905350624E+03 0.  0.
        5    1    3    3  502    0 -0.25914614249E+03 -0.18493004901E+03  0.35982625385E+01  0.31841935193E+03  0.46999998093E+01 0. -1.
       -5    1    3    3    0  502  0.25914614249E+03  0.18493004901E+03 -0.85579519136E+03  0.91310642630E+03  0.46999998093E+01 0.  1.
</event>
<event>
 5   0  0.6288003E-03  0.9100697E+03  0.7818609E-02  0.9413081E-01
       -1   -1    0    0    0  501  0.00000000000E+00  0.00000000000E+00  0.26170423063E+03  0.26170423068E+03  0.50400001928E-02 0. -1.
        1   -1    0    0  501    0  0.00000000000E+00  0.00000000000E+00 -0.79118603789E+03  0.79118603790E+03  0.50400001928E-02 0.  1.
    10030    2    1    2    0    0  0.00000000000E+00  0.00000000000E+00 -0.52948180725E+03  0.10528902686E+04  0.91006974099E+03 0.  0.
        1    1    3    3  502    0 -0.90441819704E+02  0.30276899522E+02 -0.77949227288E+03  0.78530542906E+03  0.50400001928E-02 0.  1.
       -1    1    3    3    0  502  0.90441819704E+02 -0.30276899522E+02  0.25001046563E+03  0.26758483953E+03  0.50400001928E-02 0. -1.
</event>
<event>
 5   0  0.1041727E-02  0.9045078E+03  0.7818609E-02  0.9419964E-01
       -2   -1    0    0    0  501  0.00000000000E+00  0.00000000000E+00  0.13119199193E+03  0.13119199195E+03  0.25500000920E-02 0.  1.
        2   -1    0    0  501    0  0.00000000000E+00  0.00000000000E+00 -0.15590402129E+04  0.15590402129E+04  0.25500000920E-02 0. -1.
    10030    2    1    2    0    0  0.00000000000E+00  0.00000000000E+00 -0.14278482210E+04  0.16902322048E+04  0.90450780218E+03 0.  0.
        4    1    3    3  502    0  0.23997862737E+03 -0.31697539371E+03 -0.11167477541E+04  0.11854072301E+04  0.12699999809E+01 0. -1.
       -4    1    3    3    0  502 -0.23997862737E+03  0.31697539371E+03 -0.31110046681E+03  0.50482497477E+03  0.12699999809E+01 0.  1.
</event>
<event>
 5   0  0.6092779E-03  0.8998122E+03  0.7818609E-02  0.9425816E-01
       -1   -1    0    0    0  501  0.00000000000E+00  0.00000000000E+00  0.35558362397E+03  0.35558362401E+03  0.50400001928E-02 0. -1.
        1   -1    0    0  501    0  0.00000000000E+00  0.00000000000E+00 -0.56924861561E+03  0.56924861563E+03  0.50400001928E-02 0.  1.
    10030    2    1    2    0    0  0.00000000000E+00  0.00000000000E+00 -0.21366499164E+03  0.92483223963E+03  0.89981217085E+03 0.  0.
        2    1    3    3  502    0  0.31518442135E+03  0.32058562220E+03 -0.12460863774E+03  0.46652296109E+03  0.25500000920E-02 0. -1.
       -2    1    3    3    0  502 -0.31518442135E+03 -0.32058562220E+03 -0.89056353897E+02  0.45830927854E+03  0.25500000920E-02 0.  1.
</event>
<event>
 5   0  0.6092779E-03  0.7705348E+03  0.7818609E-02  0.9603674E-01
       -1   -1    0    0    0  501  0.00000000000E+00  0.00000000000E+00  0.26661242499E+03  0.26661242503E+03  0.50400001928E-02 0.  1.
        1   -1    0    0  501    0  0.00000000000E+00  0.00000000000E+00 -0.55672943359E+03  0.55672943362E+03  0.50400001928E-02 0. -1.
    10030    2    1    2    0    0  0.00000000000E+00  0.00000000000E+00 -0.29011700861E+03  0.82334185865E+03  0.77053483862E+03 0.  0.
        2    1    3    3  502    0  0.11920202729E+02 -0.30451401855E+03  0.10680743912E+03  0.32292213888E+03  0.25500000920E-02 0.  1.
       -2    1    3    3    0  502 -0.11920202729E+02  0.30451401855E+03 -0.39692444773E+03  0.50041971977E+03  0.25500000920E-02 0. -1.
</event>
<event>
 5   0  0.1003252E-02  0.9052329E+03  0.7818609E-02  0.9419064E-01
       -2   -1    0    0    0  501  0.00000000000E+00  0.00000000000E+00  0.25731825382E+03  0.25731825383E+03  0.25500000920E-02 0.  1.
        2   -1    0    0  501    0  0.00000000000E+00  0.00000000000E+00 -0.79614116900E+03  0.79614116900E+03  0.25500000920E-02 0. -1.
    10030    2    1    2    0    0  0.00000000000E+00  0.00000000000E+00 -0.53882291518E+03  0.10534594228E+04  0.90523291016E+03 0.  0.
        2    1    3    3  502    0  0.15411963482E+03  0.17489056472E+03 -0.72091128512E+03  0.75766262445E+03  0.25500000920E-02 0. -1.
       -2    1    3    3    0  502 -0.15411963482E+03 -0.17489056472E+03  0.18208836994E+03  0.29579679839E+03  0.25500000920E-02 0.  1.
</event>
<event>
 5   0  0.6211218E-03  0.9028417E+03  0.7818609E-02  0.9422036E-01
       -1   -1    0    0    0  501  0.00000000000E+00  0.00000000000E+00  0.22943032326E+03  0.22943032331E+03  0.50400001928E-02 0. -1.
        1   -1    0    0  501    0  0.00000000000E+00  0.00000000000E+00 -0.88820345163E+03  0.88820345164E+03  0.50400001928E-02 0.  1.
    10030    2    1    2    0    0  0.00000000000E+00  0.00000000000E+00 -0.65877312837E+03  0.11176337750E+04  0.90284174707E+03 0.  0.
        5    1    3    3  502    0  0.26111210008E+03 -0.23345760895E+03 -0.68186779823E+03  0.76658187315E+03  0.46999998093E+01 0.  1.
       -5    1    3    3    0  502 -0.26111210008E+03  0.23345760895E+03  0.23094669856E+02  0.35105190181E+03  0.46999998093E+01 0. -1.
</event>
<event>
 5   0  0.6137243E-03  0.8792527E+03  0.7818609E-02  0.9451895E-01
        1   -1    0    0  501    0  0.00000000000E+00  0.00000000000E+00  0.41837830219E+03  0.41837830222E+03  0.50400001928E-02 0. -1.
       -1   -1    0    0    0  501  0.00000000000E+00  0.00000000000E+00 -0.46195352644E+03  0.46195352646E+03  0.50400001928E-02 0.  1.
    10030    2    1    2    0    0  0.00000000000E+00  0.00000000000E+00 -0.43575224246E+02  0.88033182868E+03  0.87925271022E+03 0.  0.
        4    1    3    3  502    0  0.32205125499E+03  0.25894831715E+03  0.12839140325E+03  0.43273225801E+03  0.12699999809E+01 0. -1.
       -4    1    3    3    0  502 -0.32205125499E+03 -0.25894831715E+03 -0.17196662750E+03  0.44759957067E+03  0.12699999809E+01 0.  1.
</event>
<event>
 5   0  0.6211218E-03  0.8705148E+03  0.7818609E-02  0.9463209E-01
       -1   -1    0    0    0  501  0.00000000000E+00  0.00000000000E+00  0.19035064716E+03  0.19035064723E+03  0.50400001928E-02 0. -1.
        1   -1    0    0  501    0  0.00000000000E+00  0.00000000000E+00 -0.99526319024E+03  0.99526319025E+03  0.50400001928E-02 0.  1.
    10030    2    1    2    0    0  0.00000000000E+00  0.00000000000E+00 -0.80491254308E+03  0.11856138375E+04  0.87051477277E+03 0.  0.
        5    1    3    3  502    0  0.58624948484E+01 -0.20996522306E+03 -0.92162746728E+03  0.94527194086E+03  0.46999998093E+01 0.  1.
       -5    1    3    3    0  502 -0.58624948484E+01  0.20996522306E+03  0.11671492420E+03  0.24034189662E+03  0.46999998093E+01 0. -1.
</event>
<event>
 5   0  0.1003252E-02  0.8889291E+03  0.7818609E-02  0.9439527E-01
       -2   -1    0    0    0  501  0.00000000000E+00  0.00000000000E+00  0.15337984503E+03  0.15337984505E+03  0.25500000920E-02 0. -1.
        2   -1    0    0  501    0  0.00000000000E+00  0.00000000000E+00 -0.12879706480E+04  0.12879706480E+04  0.25500000920E-02 0.  1.
    10030    2    1    2    0    0  0.00000000000E+00  0.00000000000E+00 -0.11345908030E+04  0.14413504930E+04  0.88892910495E+03 0.  0.
        2    1    3    3  502    0  0.39977719820E+03  0.12032176308E+03 -0.32006023141E+03  0.52605863419E+03  0.25500000920E-02 0. -1.
       -2    1    3    3    0  502 -0.39977719820E+03 -0.12032176308E+03 -0.81453057156E+03  0.91529185885E+03  0.25500000920E-02 0.  1.
</event>
<event>
 5   0  0.1003252E-02  0.9082441E+03  0.7818609E-02  0.9415334E-01
       -2   -1    0    0    0  501  0.00000000000E+00  0.00000000000E+00  0.13505116776E+03  0.13505116778E+03  0.25500000920E-02 0.  1.
        2   -1    0    0  501    0  0.00000000000E+00  0.00000000000E+00 -0.15270273068E+04  0.15270273068E+04  0.25500000920E-02 0. -1.
    10030    2    1    2    0    0  0.00000000000E+00  0.00000000000E+00 -0.13919761391E+04  0.16620784746E+04  0.90824406632E+03 0.  0.
        2    1    3    3  502    0  0.36991772717E+03 -0.11695074391E+03 -0.26405506423E+03  0.46929913523E+03  0.25500000920E-02 0.  1.
       -2    1    3    3    0  502 -0.36991772717E+03  0.11695074391E+03 -0.11279210748E+04  0.11927793394E+04  0.25500000920E-02 0. -1.
</event>
<event>
 5   0  0.6288003E-03  0.9114962E+03  0.7818609E-02  0.9411324E-01
        1   -1    0    0  501    0  0.00000000000E+00  0.00000000000E+00  0.15065247693E+04  0.15065247693E+04  0.50400001928E-02 0. -1.
       -1   -1    0    0    0  501  0.00000000000E+00  0.00000000000E+00 -0.13787116529E+03  0.13787116538E+03  0.50400001928E-02 0.  1.
    10030    2    1    2    0    0  0.00000000000E+00  0.00000000000E+00  0.13686536040E+04  0.16443959347E+04  0.91149618881E+03 0.  0.
        1    1    3    3  502    0  0.10570648061E+03  0.39575483069E+02 -0.11225659969E+03  0.15919052453E+03  0.50400001928E-02 0.  1.
       -1    1    3    3    0  502 -0.10570648061E+03 -0.39575483069E+02  0.14809102037E+04  0.14852054101E+04  0.50400001928E-02 0. -1.
</event>
<event>
 5   0  0.1028978E-02  0.8469079E+03  0.7818609E-02  0.9494496E-01
       -2   -1    0    0    0  501  0.00000000000E+00  0.00000000000E+00  0.13862076844E+03  0.13862076847E+03  0.25500000920E-02 0. -1.
        2   -1    0    0  501    0  0.00000000000E+00  0.00000000000E+00 -0.12935526584E+04  0.12935526585E+04  0.25500000920E-02 0.  1.
    10030    2    1    2    0    0  0.00000000000E+00  0.00000000000E+00 -0.11549318900E+04  0.14321734269E+04  0.84690793727E+03 0.  0.
        3    1    3    3  502    0 -0.22064395016E+03  0.36130113605E+03 -0.59359673125E+03  0.72909488628E+03  0.10100000352E+00 0. -1.
       -3    1    3    3    0  502  0.22064395016E+03 -0.36130113605E+03 -0.56133515876E+03  0.70307854064E+03  0.10100000352E+00 0.  1.
</event>
<event>
 5   0  0.1028978E-02  0.8731937E+03  0.7818609E-02  0.9459725E-01
       -2   -1    0    0    0  501  0.00000000000E+00  0.00000000000E+00  0.14059216689E+03  0.14059216691E+03  0.25500000920E-02 0. -1.
        2   -1    0    0  501    0  0.00000000000E+00  0.00000000000E+00 -0.13558137537E+04  0.13558137537E+04  0.25500000920E-02 0.  1.
    10030    2    1    2    0    0  0.00000000000E+00  0.00000000000E+00 -0.12152215868E+04  0.14964059206E+04  0.87319366364E+03 0.  0.
        3    1    3    3  502    0  0.15083933596E+03  0.23899378458E+03 -0.11779107717E+04  0.12113398906E+04  0.10100000352E+00 0.  1.
       -3    1    3    3    0  502 -0.15083933596E+03 -0.23899378458E+03 -0.37310815132E+02  0.28506603001E+03  0.10100000352E+00 0. -1.
</event>
<event>
 5   0  0.1041727E-02  0.9272384E+03  0.7818609E-02  0.9392158E-01
       -2   -1    0    0    0  501  0.00000000000E+00  0.00000000000E+00  0.26441557799E+03  0.26441557800E+03  0.25500000920E-02 0.  1.
        2   -1    0    0  501    0  0.00000000000E+00  0.00000000000E+00 -0.81289743442E+03  0.81289743442E+03  0.25500000920E-02 0. -1.
    10030    2    1    2    0    0  0.00000000000E+00  0.00000000000E+00 -0.54848185643E+03  0.10773130124E+04  0.92723836197E+03 0.  0.
        4    1    3    3  502    0  0.41189110633E+03 -0.25357611861E+02 -0.28752352294E+02  0.41367330421E+03  0.12699999809E+01 0.  1.
       -4    1    3    3    0  502 -0.41189110633E+03  0.25357611861E+02 -0.51972950414E+03  0.66363970822E+03  0.12699999809E+01 0. -1.
</event>
<event>
 5   0  0.6137243E-03  0.9087013E+03  0.7818609E-02  0.9414769E-01
       -1   -1    0    0    0  501  0.00000000000E+00  0.00000000000E+00  0.37843013010E+03  0.37843013014E+03  0.50400001928E-02 0.  1.
        1   -1    0    0  501    0  0.00000000000E+00  0.00000000000E+00 -0.54550226786E+03  0.54550226788E+03  0.50400001928E-02 0. -1.
    10030    2    1    2    0    0  0.00000000000E+00  0.00000000000E+00 -0.16707213776E+03  0.92393239802E+03  0.90870125833E+03 0.  0.
        4    1    3    3  502    0 -0.16292734687E+03 -0.25753599131E+03 -0.42617528131E+03  0.52392469925E+03  0.12699999809E+01 0. -1.
       -4    1    3    3    0  502  0.16292734687E+03  0.25753599131E+03  0.25910314355E+03  0.40000769877E+03  0.12699999809E+01 0.  1.
</event>
<event>
 5   0  0.6137243E-03  0.8963364E+03  0.7818609E-02  0.9430173E-01
       -1   -1    0    0    0  501  0.00000000000E+00  0.00000000000E+00  0.41349292797E+03  0.41349292800E+03  0.50400001928E-02 0. -1.
        1   -1    0    0  501    0  0.00000000000E+00  0.00000000000E+00 -0.48575135005E+03  0.48575135007E+03  0.50400001928E-02 0.  1.
    10030    2    1    2    0    0  0.00000000000E+00  0.00000000000E+00 -0.72258422082E+02  0.89924427807E+03  0.89633642796E+03 0.  0.
        4    1    3    3  502    0  0.17094072379E+03  0.18381069183E+03  0.33635148767E+03  0.41969159825E+03  0.12699999809E+01 0. -1.
       -4    1    3    3    0  502 -0.17094072379E+03 -0.18381069183E+03 -0.40860990975E+03  0.47955267982E+03  0.12699999809E+01 0.  1.
</event>
<event>
 5   0  0.1033749E-02  0.9559762E+03  0.7818609E-02  0.9358192E-01
       -2   -1    0    0    0  501  0.00000000000E+00  0.00000000000E+00  0.30516935621E+03  0.30516935622E+03  0.25500000920E-02 0.  1.
        2   -1    0    0  501    0  0.00000000000E+00  0.00000000000E+00 -0.74867487003E+03  0.74867487004E+03  0.25500000920E-02 0. -1.
    10030    2    1    2    0    0  0.00000000000E+00  0.00000000000E+00 -0.44350551382E+03  0.10538442263E+04  0.95597620913E+03 0.  0.
        5    1    3    3  502    0 -0.50080419382E+02 -0.23151753783E+03 -0.67939388853E+03  0.71951828642E+03  0.46999998093E+01 0. -1.
       -5    1    3    3    0  502  0.50080419382E+02  0.23151753783E+03  0.23588837470E+03  0.33432593984E+03  0.46999998093E+01 0.  1.
</event>
<event>
 5   0  0.6137243E-03  0.8992482E+03  0.7818609E-02  0.9426522E-01
       -1   -1    0    0    0  501  0.00000000000E+00  0.00000000000E+00  0.43852068516E+03  0.43852068519E+03  0.50400001928E-02 0. -1.
        1   -1    0    0  501    0  0.00000000000E+00  0.00000000000E+00 -0.46100861659E+03  0.46100861662E+03  0.50400001928E-02 0.  1.
    10030    2    1    2    0    0  0.00000000000E+00  0.00000000000E+00 -0.22487931434E+02  0.89952930181E+03  0.89924816249E+03 0.  0.
        4    1    3    3  502    0 -0.37337704880E+03  0.24176768243E+03  0.54336951173E+02  0.44812514993E+03  0.12699999809E+01 0. -1.
       -4    1    3    3    0  502  0.37337704880E+03 -0.24176768243E+03 -0.76824882607E+02  0.45140415187E+03  0.12699999809E+01 0.  1.
</event>
<event>
 5   0  0.1028978E-02  0.9024867E+03  0.7818609E-02  0.9422478E-01
       -2   -1    0    0    0  501  0.00000000000E+00  0.00000000000E+00  0.40204606726E+03  0.40204606726E+03  0.25500000920E-02 0.  1.
        2   -1    0    0  501    0  0.00000000000E+00  0.00000000000E+00 -0.50646080996E+03  0.50646080997E+03  0.25500000920E-02 0. -1.
    10030    2    1    2    0    0  0.00000000000E+00  0.00000000000E+00 -0.10441474271E+03  0.90850687723E+03  0.90248673535E+03 0.  0.
        3    1    3    3  502    0 -0.22644615535E+03 -0.33286906378E+03  0.15296803373E+03  0.43067261863E+03  0.10100000352E+00 0.  1.
       -3    1    3    3    0  502  0.22644615535E+03  0.33286906378E+03 -0.25738277643E+03  0.47783425861E+03  0.10100000352E+00 0. -1.
</event>
<event>
 5   0  0.1028978E-02  0.9873613E+03  0.7818609E-02  0.9322516E-01
       -2   -1    0    0    0  501  0.00000000000E+00  0.00000000000E+00  0.16017127836E+04  0.16017127836E+04  0.25500000920E-02 0. -1.
        2   -1    0    0  501    0  0.00000000000E+00  0.00000000000E+00 -0.15216247458E+03  0.15216247460E+03  0.25500000920E-02 0.  1.
    10030    2    1    2    0    0  0.00000000000E+00  0.00000000000E+00  0.14495503090E+04  0.17538752582E+04  0.98736129302E+03 0.  0.
        3    1    3    3  502    0 -0.38491099612E+03  0.10422815275E+03  0.12417457191E+04  0.13042056678E+04  0.10100000352E+00 0. -1.
       -3    1    3    3    0  502  0.38491099612E+03 -0.10422815275E+03  0.20780458991E+03  0.44966959042E+03  0.10100000352E+00 0.  1.
</event>
<event>
 5   0  0.6137243E-03  0.9011256E+03  0.7818609E-02  0.9424175E-01
       -1   -1    0    0    0  501  0.00000000000E+00  0.00000000000E+00  0.39047405259E+03  0.39047405262E+03  0.50400001928E-02 0.  1.
        1   -1    0    0  501    0  0.00000000000E+00  0.00000000000E+00 -0.51989842712E+03  0.51989842715E+03  0.50400001928E-02 0. -1.
    10030    2    1    2    0    0  0.00000000000E+00  0.00000000000E+00 -0.12942437453E+03  0.91037247977E+03  0.90112562010E+03 0.  0.
        4    1    3    3  502    0  0.12077393435E+03  0.18377372254E+03  0.33257383122E+03  0.39870551843E+03  0.12699999809E+01 0.  1.
       -4    1    3    3    0  502 -0.12077393435E+03 -0.18377372254E+03 -0.46199820575E+03  0.51166696134E+03  0.12699999809E+01 0. -1.
</event>
<event>
 5   0  0.6015709E-03  0.8959731E+03  0.7818609E-02  0.9430629E-01
        1   -1    0    0  501    0  0.00000000000E+00  0.00000000000E+00  0.25425952147E+03  0.25425952152E+03  0.50400001928E-02 0. -1.
       -1   -1    0    0    0  501  0.00000000000E+00  0.00000000000E+00 -0.78931931916E+03  0.78931931917E+03  0.50400001928E-02 0.  1.
    10030    2    1    2    0    0  0.00000000000E+00  0.00000000000E+00 -0.53505979769E+03  0.10435788407E+04  0.89597310765E+03 0.  0.
        3    1    3    3  502    0 -0.23848450174E+03 -0.16956553626E+03  0.12756478111E+03  0.31921796979E+03  0.10100000352E+00 0. -1.
       -3    1    3    3    0  502  0.23848450174E+03  0.16956553626E+03 -0.66262457880E+03  0.72436087090E+03  0.10100000352E+00 0.  1.
</event>
<event>
 5   0  0.6137243E-03  0.9188709E+03  0.7818609E-02  0.9402294E-01
       -1   -1    0    0    0  501  0.00000000000E+00  0.00000000000E+00  0.12431052884E+03  0.12431052894E+03  0.50400001928E-02 0. -1.
        1   -1    0    0  501    0  0.00000000000E+00  0.00000000000E+00 -0.16980134318E+04  0.16980134318E+04  0.50400001928E-02 0.  1.
    10030    2    1    2    0    0  0.00000000000E+00  0.00000000000E+00 -0.15737029030E+04  0.18223239608E+04  0.91887093281E+03 0.  0.
        4    1    3    3  502    0  0.21399800072E+03  0.24666669905E+03 -0.14277716265E+04  0.14646409236E+04  0.12699999809E+01 0.  1.
       -4    1    3    3    0  502 -0.21399800072E+03 -0.24666669905E+03 -0.14593127649E+03  0.35768303718E+03  0.12699999809E+01 0. -1.
</event>
<event>
 5   0  0.1033749E-02  0.8978175E+03  0.7818609E-02  0.9428314E-01
       -2   -1    0    0    0  501  0.00000000000E+00  0.00000000000E+00  0.25085305889E+03  0.25085305890E+03  0.25500000920E-02 0. -1.
        2   -1    0    0  501    0  0.00000000000E+00  0.00000000000E+00 -0.80333515036E+03  0.80333515037E+03  0.25500000920E-02 0.  1.
    10030    2    1    2    0    0  0.00000000000E+00  0.00000000000E+00 -0.55248209147E+03  0.10541882093E+04  0.89781753111E+03 0.  0.
        5    1    3    3  502    0 -0.75750178333E+02 -0.11728872074E+03 -0.77716114630E+03  0.78961780048E+03  0.46999998093E+01 0.  1.
       -5    1    3    3    0  502  0.75750178333E+02  0.11728872074E+03  0.22467905482E+03  0.26457040879E+03  0.46999998093E+01 0. -1.
</event>
<event>
 5   0  0.6137243E-03  0.9070297E+03  0.7818609E-02  0.9416836E-01
       -1   -1    0    0    0  501  0.00000000000E+00  0.00000000000E+00  0.30854117299E+03  0.30854117303E+03  0.50400001928E-02 0. -1.
        1   -1    0    0  501    0  0.00000000000E+00  0.00000000000E+00 -0.66660698922E+03  0.66660698924E+03  0.50400001928E-02 0.  1.
    10030    2    1    2    0    0  0.00000000000E+00  0.00000000000E+00 -0.35806581623E+03  0.97514816227E+03  0.90702966304E+03 0.  0.
        4    1    3    3  502    0 -0.19701522735E+03  0.25937476072E+03  0.16023557278E+03  0.36299768318E+03  0.12699999809E+01 0. -1.
       -4    1    3    3    0  502  0.19701522735E+03 -0.25937476072E+03 -0.51830138902E+03  0.61215047910E+03  0.12699999809E+01 0.  1.
</event>
<event>
 5   0  0.3996375E-03  0.8944031E+03  0.7818609E-02  0.9432605E-01
        3   -1    0    0  501    0  0.00000000000E+00  0.00000000000E+00  0.35767840780E+03  0.35767842206E+03  0.10100000352E+00 0.  1.
       -3   -1    0    0    0  501  0.00000000000E+00  0.00000000000E+00 -0.55913132812E+03  0.55913133724E+03  0.10100000352E+00 0. -1.
    10030    2    1    2    0    0  0.00000000000E+00  0.00000000000E+00 -0.20145292032E+03  0.91680975930E+03  0.89440307224E+03 0.  0.
        1    1    3    3  502    0  0.23560826726E+03  0.35841357830E+03 -0.23045799341E+03  0.48691111659E+03  0.50400001928E-02 0. -1.
       -1    1    3    3    0  502 -0.23560826726E+03 -0.35841357830E+03  0.29005073085E+02  0.42989864271E+03  0.50400001928E-02 0.  1.
</event>
<event>
 5   0  0.6092779E-03  0.8990597E+03  0.7818609E-02  0.9426758E-01
       -1   -1    0    0    0  501  0.00000000000E+00  0.00000000000E+00  0.27747583058E+03  0.27747583063E+03  0.50400001928E-02 0.  1.
        1   -1    0    0  501    0  0.00000000000E+00  0.00000000000E+00 -0.72826921933E+03  0.72826921935E+03  0.50400001928E-02 0. -1.
    10030    2    1    2    0    0  0.00000000000E+00  0.00000000000E+00 -0.45079338875E+03  0.10057450500E+04  0.89905974563E+03 0.  0.
        2    1    3    3  502    0 -0.33649896038E+03  0.12787525115E+03  0.75799037879E+02  0.36787107027E+03  0.25500000920E-02 0.  1.
       -2    1    3    3    0  502  0.33649896038E+03 -0.12787525115E+03 -0.52659242663E+03  0.63787397970E+03  0.25500000920E-02 0. -1.
</event>
<event>
 5   0  0.6211218E-03  0.9027385E+03  0.7818609E-02  0.9422165E-01
       -1   -1    0    0    0  501  0.00000000000E+00  0.00000000000E+00  0.43687468511E+03  0.43687468514E+03  0.50400001928E-02 0.  1.
        1   -1    0    0  501    0  0.00000000000E+00  0.00000000000E+00 -0.46634466293E+03  0.46634466296E+03  0.50400001928E-02 0. -1.
    10030    2    1    2    0    0  0.00000000000E+00  0.00000000000E+00 -0.29469977822E+02  0.90321934810E+03  0.90273845116E+03 0.  0.
        5    1    3    3  502    0  0.13713372798E+03 -0.12778430381E+03  0.39606575795E+03  0.43820618693E+03  0.46999998093E+01 0.  1.
       -5    1    3    3    0  502 -0.13713372798E+03  0.12778430381E+03 -0.42553573577E+03  0.46501316117E+03  0.46999998093E+01 0. -1.
</event>
<event>
 5   0  0.1003252E-02  0.9018653E+03  0.7818609E-02  0.9423253E-01
        2   -1    0    0  501    0  0.00000000000E+00  0.00000000000E+00  0.12400541647E+04  0.12400541647E+04  0.25500000920E-02 0.  1.
       -2   -1    0    0    0  501  0.00000000000E+00  0.00000000000E+00 -0.16397693018E+03  0.16397693020E+03  0.25500000920E-02 0. -1.
    10030    2    1    2    0    0  0.00000000000E+00  0.00000000000E+00  0.10760772345E+04  0.14040310949E+04  0.90186534517E+03 0.  0.
        2    1    3    3  502    0  0.15480142515E+03 -0.41159009499E+03  0.38258850157E+03  0.58287550048E+03  0.25500000920E-02 0.  1.
       -2    1    3    3    0  502 -0.15480142515E+03  0.41159009499E+03  0.69348873296E+03  0.82115559444E+03  0.25500000920E-02 0. -1.
</event>
<event>
 5   0  0.1041727E-02  0.9007675E+03  0.7818609E-02  0.9424623E-01
        2   -1    0    0  501    0  0.00000000000E+00  0.00000000000E+00  0.14067242245E+04  0.14067242245E+04  0.25500000920E-02 0.  1.
       -2   -1    0    0    0  501  0.00000000000E+00  0.00000000000E+00 -0.14419707019E+03  0.14419707021E+03  0.25500000920E-02 0. -1.
    10030    2    1    2    0    0  0.00000000000E+00  0.00000000000E+00  0.12625271543E+04  0.15509212947E+04  0.90076747668E+03 0.  0.
        4    1    3    3  502    0 -0.19300318771E+02  0.30323598325E+03  0.58868099886E+02  0.30950222928E+03  0.12699999809E+01 0. -1.
       -4    1    3    3    0  502  0.19300318771E+02 -0.30323598325E+03  0.12036590544E+04  0.12414190654E+04  0.12699999809E+01 0.  1.
</event>
<event>
 5   0  0.1028978E-02  0.9050488E+03  0.7818609E-02  0.9419292E-01
       -2   -1    0    0    0  501  0.00000000000E+00  0.00000000000E+00  0.92742131386E+03  0.92742131387E+03  0.25500000920E-02 0.  1.
        2   -1    0    0  501    0  0.00000000000E+00  0.00000000000E+00 -0.22080399443E+03  0.22080399444E+03  0.25500000920E-02 0. -1.
    10030    2    1    2    0    0  0.00000000000E+00  0.00000000000E+00  0.70661731944E+03  0.11482253083E+04  0.90504879565E+03 0.  0.
        3    1    3    3  502    0 -0.53007179047E+02 -0.28591802179E+02 -0.21569661438E+03  0.22394707374E+03  0.10100000352E+00 0. -1.
       -3    1    3    3    0  502  0.53007179047E+02  0.28591802179E+02  0.92231393382E+03  0.92427823457E+03  0.10100000352E+00 0.  1.
</event>
<event>
 5   0  0.6137243E-03  0.8951806E+03  0.7818609E-02  0.9431626E-01
       -1   -1    0    0    0  501  0.00000000000E+00  0.00000000000E+00  0.39137138191E+03  0.39137138194E+03  0.50400001928E-02 0. -1.
        1   -1    0    0  501    0  0.00000000000E+00  0.00000000000E+00 -0.51188479491E+03  0.51188479494E+03  0.50400001928E-02 0.  1.
    10030    2    1    2    0    0  0.00000000000E+00  0.00000000000E+00 -0.12051341301E+03  0.90325617688E+03  0.89518056187E+03 0.  0.
        4    1    3    3  502    0 -0.48364363989E+02 -0.31124148924E+02 -0.50813896046E+03  0.51138502167E+03  0.12699999809E+01 0.  1.
       -4    1    3    3    0  502  0.48364363989E+02  0.31124148924E+02  0.38762554745E+03  0.39187115521E+03  0.12699999809E+01 0. -1.
</event>
<event>
 5   0  0.6015709E-03  0.9012295E+03  0.7818609E-02  0.9424046E-01
       -1   -1    0    0    0  501  0.00000000000E+00  0.00000000000E+00  0.72434571999E+03  0.72434572001E+03  0.50400001928E-02 0.  1.
        1   -1    0    0  501    0  0.00000000000E+00  0.00000000000E+00 -0.28032696309E+03  0.28032696314E+03  0.50400001928E-02 0. -1.
    10030    2    1    2    0    0  0.00000000000E+00  0.00000000000E+00  0.44401875690E+03  0.10046726831E+04  0.90122946234E+03 0.  0.
        3    1    3    3  502    0  0.38401038874E+02  0.22311804713E+03 -0.21232206319E+03  0.31038197670E+03  0.10100000352E+00 0. -1.
       -3    1    3    3    0  502 -0.38401038874E+02 -0.22311804713E+03  0.65634082009E+03  0.69429070645E+03  0.10100000352E+00 0.  1.
</event>
<event>
 5   0  0.6211218E-03  0.9014377E+03  0.7818609E-02  0.9423786E-01
       -1   -1    0    0    0  501  0.00000000000E+00  0.00000000000E+00  0.99769895809E+03  0.99769895810E+03  0.50400001928E-02 0.  1.
        1   -1    0    0  501    0  0.00000000000E+00  0.00000000000E+00 -0.20361600888E+03  0.20361600895E+03  0.50400001928E-02 0. -1.
    10030    2    1    2    0    0  0.00000000000E+00  0.00000000000E+00  0.79408294920E+03  0.12013149670E+04  0.90143769603E+03 0.  0.
        5    1    3    3  502    0  0.13326232513E+03 -0.53196816489E+02 -0.17233064899E+03  0.22429599008E+03  0.46999998093E+01 0. -1.
       -5    1    3    3    0  502 -0.13326232513E+03  0.53196816489E+02  0.96641359819E+03  0.97701897697E+03  0.46999998093E+01 0.  1.
</event>
<event>
 5   0  0.6211218E-03  0.8909792E+03  0.7818609E-02  0.9436929E-01
       -1   -1    0    0    0  501  0.00000000000E+00  0.00000000000E+00  0.16894304753E+03  0.16894304760E+03  0.50400001928E-02 0.  1.
        1   -1    0    0  501    0  0.00000000000E+00  0.00000000000E+00 -0.11747210951E+04  0.11747210951E+04  0.50400001928E-02 0. -1.
    10030    2    1    2    0    0  0.00000000000E+00  0.00000000000E+00 -0.10057780476E+04  0.13436641427E+04  0.89097915096E+03 0.  0.
        5    1    3    3  502    0 -0.17471836565E+03 -0.36382899193E+03 -0.21858240912E+03  0.45901895630E+03  0.46999998093E+01 0.  1.
       -5    1    3    3    0  502  0.17471836565E+03  0.36382899193E+03 -0.78719563848E+03  0.88464518644E+03  0.46999998093E+01 0. -1.
</event>
<event>
 5   0  0.1003252E-02  0.8999037E+03  0.7818609E-02  0.9425702E-01
       -2   -1    0    0    0  501  0.00000000000E+00  0.00000000000E+00  0.12963783989E+03  0.12963783992E+03  0.25500000920E-02 0. -1.
        2   -1    0    0  501    0  0.00000000000E+00  0.00000000000E+00 -0.15617096945E+04  0.15617096945E+04  0.25500000920E-02 0.  1.
    10030    2    1    2    0    0  0.00000000000E+00  0.00000000000E+00 -0.14320718546E+04  0.16913475344E+04  0.89990370898E+03 0.  0.
        2    1    3    3  502    0  0.34582039397E+03 -0.13167779125E+03 -0.23492716901E+03  0.43831673518E+03  0.25500000920E-02 0. -1.
       -2    1    3    3    0  502 -0.34582039397E+03  0.13167779125E+03 -0.11971446856E+04  0.12530307992E+04  0.25500000920E-02 0.  1.
</event>
<event>
 5   0  0.1003252E-02  0.8956741E+03  0.7818609E-02  0.9431005E-01
        2   -1    0    0  501    0  0.00000000000E+00  0.00000000000E+00  0.11171626793E+04  0.11171626793E+04  0.25500000920E-02 0.  1.
       -2   -1    0    0    0  501  0.00000000000E+00  0.00000000000E+00 -0.17952447132E+03  0.17952447134E+03  0.25500000920E-02 0. -1.
    10030    2    1    2    0    0  0.00000000000E+00  0.00000000000E+00  0.93763820794E+03  0.12966871506E+04  0.89567413581E+03 0.  0.
        2    1    3    3  502    0 -0.95354402979E+02 -0.35803026859E+02 -0.16253330724E+03  0.19181083095E+03  0.25500000920E-02 0. -1.
       -2    1    3    3    0  502  0.95354402979E+02  0.35803026859E+02  0.11001715152E+04  0.11048763197E+04  0.25500000920E-02 0.  1.
</event>
<event>
 5   0  0.6015709E-03  0.9394381E+03  0.7818609E-02  0.9377582E-01
       -1   -1    0    0    0  501  0.00000000000E+00  0.00000000000E+00  0.45905914062E+03  0.45905914065E+03  0.50400001928E-02 0. -1.
        1   -1    0    0  501    0  0.00000000000E+00  0.00000000000E+00 -0.48062653723E+03  0.48062653726E+03  0.50400001928E-02 0.  1.
    10030    2    1    2    0    0  0.00000000000E+00  0.00000000000E+00 -0.21567396615E+02  0.93968567791E+03  0.93943814095E+03 0.  0.
        3    1    3    3  502    0  0.28702994046E+03  0.22969328549E+03  0.28168144753E+03  0.46313026267E+03  0.10100000352E+00 0. -1.
       -3    1    3    3    0  502 -0.28702994046E+03 -0.22969328549E+03 -0.30324884414E+03  0.47655541524E+03  0.10100000352E+00 0.  1.
</event>
<event>
 5   0  0.6288003E-03  0.9020580E+03  0.7818609E-02  0.9423013E-01
        1   -1    0    0  501    0  0.00000000000E+00  0.00000000000E+00  0.56906236092E+03  0.56906236094E+03  0.50400001928E-02 0.  1.
       -1   -1    0    0    0  501  0.00000000000E+00  0.00000000000E+00 -0.35747776984E+03  0.35747776988E+03  0.50400001928E-02 0. -1.
    10030    2    1    2    0    0  0.00000000000E+00  0.00000000000E+00  0.21158459108E+03  0.92654013082E+03  0.90205796645E+03 0.  0.
        1    1    3    3  502    0  0.44428879073E+03  0.20376097566E+02  0.18278966235E+03  0.48085317469E+03  0.50400001928E-02 0.  1.
       -1    1    3    3    0  502 -0.44428879073E+03 -0.20376097566E+02  0.28794928726E+02  0.44568695613E+03  0.50400001928E-02 0. -1.
</event>
<event>
 5   0  0.1017079E-02  0.9084519E+03  0.7818609E-02  0.9415077E-01
        2   -1    0    0  501    0  0.00000000000E+00  0.00000000000E+00  0.72634896655E+03  0.72634896655E+03  0.25500000920E-02 0. -1.
       -2   -1    0    0    0  501  0.00000000000E+00  0.00000000000E+00 -0.28405245907E+03  0.28405245908E+03  0.25500000920E-02 0.  1.
    10030    2    1    2    0    0  0.00000000000E+00  0.00000000000E+00  0.44229650748E+03  0.10104014256E+04  0.90845189217E+03 0.  0.
        1    1    3    3  502    0 -0.32441901578E+03  0.26936701569E+03  0.33334185921E+02  0.42298635311E+03  0.50400001928E-02 0.  1.
       -1    1    3    3    0  502  0.32441901578E+03 -0.26936701569E+03  0.40896232155E+03  0.58741507252E+03  0.50400001928E-02 0. -1.
</event>
<event>
 5   0  0.1033749E-02  0.8997348E+03  0.7818609E-02  0.9425913E-01
       -2   -1    0    0    0  501  0.00000000000E+00  0.00000000000E+00  0.86217739839E+02  0.86217739877E+02  0.25500000920E-02 0. -1.
        2   -1    0    0  501    0  0.00000000000E+00  0.00000000000E+00 -0.23473203765E+04  0.23473203765E+04  0.25500000920E-02 0.  1.
    10030    2    1    2    0    0  0.00000000000E+00  0.00000000000E+00 -0.22611026366E+04  0.24335381164E+04  0.89973475555E+03 0.  0.
        5    1    3    3  502    0 -0.57533497540E+02 -0.44515771787E+03 -0.10501762535E+04  0.11420892042E+04  0.46999998093E+01 0. -1.
       -5    1    3    3    0  502  0.57533497540E+02  0.44515771787E+03 -0.12109263832E+04  0.12914489121E+04  0.46999998093E+01 0.  1.
</event>
<event>
 5   0  0.6092779E-03  0.9064277E+03  0.7818609E-02  0.9417582E-01
        1   -1    0    0  501    0  0.00000000000E+00  0.00000000000E+00  0.33911206066E+03  0.33911206069E+03  0.50400001928E-02 0.  1.
       -1   -1    0    0    0  501  0.00000000000E+00  0.00000000000E+00 -0.60570773532E+03  0.60570773534E+03  0.50400001928E-02 0. -1.
    10030    2    1    2    0    0  0.00000000000E+00  0.00000000000E+00 -0.26659567466E+03  0.94481979604E+03  0.90642770988E+03 0.  0.
        2    1    3    3  502    0  0.22817640963E+02  0.17742393112E+03 -0.56735206588E+03  0.59488508364E+03  0.25500000920E-02 0. -1.
       -2    1    3    3    0  502 -0.22817640963E+02 -0.17742393112E+03  0.30075639122E+03  0.34993471239E+03  0.25500000920E-02 0.  1.
</event>
<event>
 5   0  0.6092779E-03  0.9000075E+03  0.7818609E-02  0.9425572E-01
        1   -1    0    0  501    0  0.00000000000E+00  0.00000000000E+00  0.13038558624E+04  0.13038558624E+04  0.50400001928E-02 0.  1.
       -1   -1    0    0    0  501  0.00000000000E+00  0.00000000000E+00 -0.15531116924E+03  0.15531116932E+03  0.50400001928E-02 0. -1.
    10030    2    1    2    0    0  0.00000000000E+00  0.00000000000E+00  0.11485446932E+04  0.14591670318E+04  0.90000750793E+03 0.  0.
        2    1    3    3  502    0  0.29426371503E+02  0.17307940557E+02  0.13017533317E+04  0.13022009110E+04  0.25500000920E-02 0.  1.
       -2    1    3    3    0  502 -0.29426371503E+02 -0.17307940557E+02 -0.15320863848E+03  0.15696612074E+03  0.25500000920E-02 0. -1.
</event>
<event>
 5   0  0.6015709E-03  0.8941876E+03  0.7818609E-02  0.9432877E-01
       -1   -1    0    0    0  501  0.00000000000E+00  0.00000000000E+00  0.43948170347E+03  0.43948170350E+03  0.50400001928E-02 0. -1.
        1   -1    0    0  501    0  0.00000000000E+00  0.00000000000E+00 -0.45483773943E+03  0.45483773945E+03  0.50400001928E-02 0.  1.
    10030    2    1    2    0    0  0.00000000000E+00  0.00000000000E+00 -0.15356035953E+02  0.89431944296E+03  0.89418759676E+03 0.  0.
        3    1    3    3  502    0 -0.23534099312E+03  0.19110574542E+03 -0.33633880417E+03  0.45280303706E+03  0.10100000352E+00 0.  1.
       -3    1    3    3    0  502  0.23534099312E+03 -0.19110574542E+03  0.32098276822E+03  0.44151640589E+03  0.10100000352E+00 0. -1.
</event>
<event>
 5   0  0.1028978E-02  0.8629464E+03  0.7818609E-02  0.9473124E-01
       -2   -1    0    0    0  501  0.00000000000E+00  0.00000000000E+00  0.33052173202E+03  0.33052173203E+03  0.25500000920E-02 0.  1.
        2   -1    0    0  501    0  0.00000000000E+00  0.00000000000E+00 -0.56325832249E+03  0.56325832250E+03  0.25500000920E-02 0. -1.
    10030    2    1    2    0    0  0.00000000000E+00  0.00000000000E+00 -0.23273659047E+03  0.89378005453E+03  0.86294638613E+03 0.  0.
        3    1    3    3  502    0 -0.14311155430E+03  0.16044433443E+03  0.27109162642E+03  0.34599708313E+03  0.10100000352E+00 0.  1.
       -3    1    3    3    0  502  0.14311155430E+03 -0.16044433443E+03 -0.50382821689E+03  0.54778297140E+03  0.10100000352E+00 0. -1.
</event>
<event>
 5   0  0.6211218E-03  0.9010065E+03  0.7818609E-02  0.9424324E-01
        1   -1    0    0  501    0  0.00000000000E+00  0.00000000000E+00  0.10994818340E+04  0.10994818341E+04  0.50400001928E-02 0.  1.
       -1   -1    0    0    0  501  0.00000000000E+00  0.00000000000E+00 -0.18458983451E+03  0.18458983458E+03  0.50400001928E-02 0. -1.
    10030    2    1    2    0    0  0.00000000000E+00  0.00000000000E+00  0.91489199953E+03  0.12840716686E+04  0.90100648133E+03 0.  0.
        5    1    3    3  502    0  0.25145107308E+03  0.63738984597E+02 -0.67429725080E+02  0.26806558551E+03  0.46999998093E+01 0. -1.
       -5    1    3    3    0  502 -0.25145107308E+03 -0.63738984597E+02  0.98232172461E+03  0.10160060831E+04  0.46999998093E+01 0.  1.
</event>
<event>
 5   0  0.6092779E-03  0.8936023E+03  0.7818609E-02  0.9433614E-01
        1   -1    0    0  501    0  0.00000000000E+00  0.00000000000E+00  0.12123153002E+04  0.12123153002E+04  0.50400001928E-02 0. -1.
       -1   -1    0    0    0  501  0.00000000000E+00  0.00000000000E+00 -0.16466944027E+03  0.16466944035E+03  0.50400001928E-02 0.  1.
    10030    2    1    2    0    0  0.00000000000E+00  0.00000000000E+00  0.10476458599E+04  0.13769847405E+04  0.89360233208E+03 0.  0.
        2    1    3    3  502    0  0.92644937051E+02 -0.89420318830E+02 -0.13546073499E+03  0.18689218419E+03  0.25500000920E-02 0.  1.
       -2    1    3    3    0  502 -0.92644937051E+02  0.89420318830E+02  0.11831065949E+04  0.11900925563E+04  0.25500000920E-02 0. -1.
</event>
<event>
 5   0  0.1028978E-02  0.8966182E+03  0.7818609E-02  0.9429819E-01
       -2   -1    0    0    0  501  0.00000000000E+00  0.00000000000E+00  0.11070953089E+03  0.11070953092E+03  0.25500000920E-02 0.  1.
        2   -1    0    0  501    0  0.00000000000E+00  0.00000000000E+00 -0.18153906554E+04  0.18153906554E+04  0.25500000920E-02 0. -1.
    10030    2    1    2    0    0  0.00000000000E+00  0.00000000000E+00 -0.17046811245E+04  0.19261001863E+04  0.89661819718E+03 0.  0.
        3    1    3    3  502    0  0.35648831888E+02 -0.43190554531E+03 -0.60583432711E+03  0.74488152171E+03  0.10100000352E+00 0. -1.
       -3    1    3    3    0  502 -0.35648831888E+02  0.43190554531E+03 -0.10988467974E+04  0.11812186646E+04  0.10100000352E+00 0.  1.
</event>
<event>
 5   0  0.1033749E-02  0.9000406E+03  0.7818609E-02  0.9425531E-01
       -2   -1    0    0    0  501  0.00000000000E+00  0.00000000000E+00  0.47715661861E+03  0.47715661862E+03  0.25500000920E-02 0. -1.
        2   -1    0    0  501    0  0.00000000000E+00  0.00000000000E+00 -0.42442721035E+03  0.42442721036E+03  0.25500000920E-02 0.  1.
    10030    2    1    2    0    0  0.00000000000E+00  0.00000000000E+00  0.52729408260E+02  0.90158382897E+03  0.90004056029E+03 0.  0.
        5    1    3    3  502    0  0.41355290022E+03 -0.15464976124E+03 -0.60695841840E+02  0.44570015161E+03  0.46999998093E+01 0. -1.
       -5    1    3    3    0  502 -0.41355290022E+03  0.15464976124E+03  0.11342525010E+03  0.45588367737E+03  0.46999998093E+01 0.  1.
</event>
<event>
 5   0  0.1033749E-02  0.9056966E+03  0.7818609E-02  0.9418488E-01
        2   -1    0    0  501    0  0.00000000000E+00  0.00000000000E+00  0.88440128664E+03  0.88440128665E+03  0.25500000920E-02 0. -1.
       -2   -1    0    0    0  501  0.00000000000E+00  0.00000000000E+00 -0.23187618773E+03  0.23187618775E+03  0.25500000920E-02 0.  1.
    10030    2    1    2    0    0  0.00000000000E+00  0.00000000000E+00  0.65252509891E+03  0.11162774744E+04  0.90569663526E+03 0.  0.
        5    1    3    3  502    0 -0.10286356300E+03 -0.20512001024E+02 -0.21666743719E+03  0.24076653238E+03  0.46999998093E+01 0.  1.
       -5    1    3    3    0  502  0.10286356300E+03  0.20512001024E+02  0.86919253610E+03  0.87551094201E+03  0.46999998093E+01 0. -1.
</event>
<event>
 5   0  0.1033749E-02  0.9370021E+03  0.7818609E-02  0.9380474E-01
       -2   -1    0    0    0  501  0.00000000000E+00  0.00000000000E+00  0.52818264501E+03  0.52818264501E+03  0.25500000920E-02 0.  1.
        2   -1    0    0  501    0  0.00000000000E+00  0.00000000000E+00 -0.41556309903E+03  0.41556309904E+03  0.25500000920E-02 0. -1.
    10030    2    1    2    0    0  0.00000000000E+00  0.00000000000E+00  0.11261954597E+03  0.94374574405E+03  0.93700206365E+03 0.  0.
        5    1    3    3  502    0  0.26809798891E+03  0.41321832872E+02 -0.32839086481E+03  0.42596558032E+03  0.46999998093E+01 0. -1.
       -5    1    3    3    0  502 -0.26809798891E+03 -0.41321832872E+02  0.44101041079E+03  0.51778016373E+03  0.46999998093E+01 0.  1.
</event>
<event>
 5   0  0.1003252E-02  0.8993025E+03  0.7818609E-02  0.9426454E-01
       -2   -1    0    0    0  501  0.00000000000E+00  0.00000000000E+00  0.20096494162E+03  0.20096494163E+03  0.25500000920E-02 0. -1.
        2   -1    0    0  501    0  0.00000000000E+00  0.00000000000E+00 -0.10060772853E+04  0.10060772853E+04  0.25500000920E-02 0.  1.
    10030    2    1    2    0    0  0.00000000000E+00  0.00000000000E+00 -0.80511234369E+03  0.12070422269E+04  0.89930253623E+03 0.  0.
        2    1    3    3  502    0 -0.14992205575E+03  0.38524424960E+03 -0.16511031912E+03  0.44514174387E+03  0.25500000920E-02 0. -1.
       -2    1    3    3    0  502  0.14992205575E+03 -0.38524424960E+03 -0.64000202457E+03  0.76190048308E+03  0.25500000920E-02 0.  1.
</event>
<event>
 5   0  0.1041727E-02  0.8998979E+03  0.7818609E-02  0.9425709E-01
        2   -1    0    0  501    0  0.00000000000E+00  0.00000000000E+00  0.91732808246E+03  0.91732808246E+03  0.25500000920E-02 0.  1.
       -2   -1    0    0    0  501  0.00000000000E+00  0.00000000000E+00 -0.22069971256E+03  0.22069971257E+03  0.25500000920E-02 0. -1.
    10030    2    1    2    0    0  0.00000000000E+00  0.00000000000E+00  0.69662836990E+03  0.11380277950E+04  0.89989787004E+03 0.  0.
        4    1    3    3  502    0  0.39552211232E+03 -0.10246804421E+03  0.10999143983E+03  0.42312784256E+03  0.12699999809E+01 0. -1.
       -4    1    3    3    0  502 -0.39552211232E+03  0.10246804421E+03  0.58663693007E+03  0.71489995247E+03  0.12699999809E+01 0.  1.
</event>
<event>
 5   0  0.1028978E-02  0.9005910E+03  0.7818609E-02  0.9424843E-01
        2   -1    0    0  501    0  0.00000000000E+00  0.00000000000E+00  0.38249815559E+03  0.38249815560E+03  0.25500000920E-02 0.  1.
       -2   -1    0    0    0  501  0.00000000000E+00  0.00000000000E+00 -0.53010989132E+03  0.53010989132E+03  0.25500000920E-02 0. -1.
    10030    2    1    2    0    0  0.00000000000E+00  0.00000000000E+00 -0.14761173573E+03  0.91260804692E+03  0.90059104081E+03 0.  0.
        3    1    3    3  502    0 -0.39742410046E+03 -0.16452628909E+03 -0.20881741001E+03  0.47814175341E+03  0.10100000352E+00 0. -1.
       -3    1    3    3    0  502  0.39742410046E+03  0.16452628909E+03  0.61205674285E+02  0.43446629351E+03  0.10100000352E+00 0.  1.
</event>
<event>
 5   0  0.1033749E-02  0.8925974E+03  0.7818609E-02  0.9434883E-01
       -2   -1    0    0    0  501  0.00000000000E+00  0.00000000000E+00  0.10211783109E+03  0.10211783112E+03  0.25500000920E-02 0.  1.
        2   -1    0    0  501    0  0.00000000000E+00  0.00000000000E+00 -0.19505164826E+04  0.19505164826E+04  0.25500000920E-02 0. -1.
    10030    2    1    2    0    0  0.00000000000E+00  0.00000000000E+00 -0.18483986515E+04  0.20526343137E+04  0.89259736218E+03 0.  0.
        5    1    3    3  502    0  0.45002083208E+02 -0.25016015400E+03 -0.80658473867E+02  0.26670802303E+03  0.46999998093E+01 0.  1.
       -5    1    3    3    0  502 -0.45002083208E+02  0.25016015400E+03 -0.17677401776E+04  0.17859262907E+04  0.46999998093E+01 0. -1.
</event>
<event>
 5   0  0.1017079E-02  0.8939848E+03  0.7818609E-02  0.9433132E-01
       -2   -1    0    0    0  501  0.00000000000E+00  0.00000000000E+00  0.37107235883E+03  0.37107235884E+03  0.25500000920E-02 0. -1.
        2   -1    0    0  501    0  0.00000000000E+00  0.00000000000E+00 -0.53844541077E+03  0.53844541078E+03  0.25500000920E-02 0.  1.
    10030    2    1    2    0    0  0.00000000000E+00  0.00000000000E+00 -0.16737305194E+03  0.90951776961E+03  0.89398480676E+03 0.  0.
        1    1    3    3  502    0 -0.19761887755E+03  0.34440573469E+02 -0.49008018415E+03  0.52954505076E+03  0.50400001928E-02 0.  1.
       -1    1    3    3    0  502  0.19761887755E+03 -0.34440573469E+02  0.32270713221E+03  0.37997271885E+03  0.50400001928E-02 0. -1.
</event>
<event>
 5   0  0.3996375E-03  0.9034377E+03  0.7818609E-02  0.9421294E-01
       -3   -1    0    0    0  501  0.00000000000E+00  0.00000000000E+00  0.66437233393E+03  0.66437234161E+03  0.10100000352E+00 0.  1.
        3   -1    0    0  501    0  0.00000000000E+00  0.00000000000E+00 -0.30713182701E+03  0.30713184362E+03  0.10100000352E+00 0. -1.
    10030    2    1    2    0    0  0.00000000000E+00  0.00000000000E+00  0.35724050692E+03  0.97150418523E+03  0.90343765814E+03 0.  0.
        4    1    3    3  502    0 -0.12014287995E+03  0.47760697280E+02 -0.28680881652E+03  0.31460499987E+03  0.12699999809E+01 0. -1.
       -4    1    3    3    0  502  0.12014287995E+03 -0.47760697280E+02  0.64404932344E+03  0.65689918537E+03  0.12699999809E+01 0.  1.
</event>
<event>
 5   0  0.1017079E-02  0.9150757E+03  0.7818609E-02  0.9406930E-01
       -2   -1    0    0    0  501  0.00000000000E+00  0.00000000000E+00  0.17039637019E+03  0.17039637021E+03  0.25500000920E-02 0.  1.
        2   -1    0    0  501    0  0.00000000000E+00  0.00000000000E+00 -0.12285524987E+04  0.12285524987E+04  0.25500000920E-02 0. -1.
    10030    2    1    2    0    0  0.00000000000E+00  0.00000000000E+00 -0.10581561285E+04  0.13989488689E+04  0.91507570479E+03 0.  0.
        1    1    3    3  502    0 -0.32687474298E+03  0.21774785245E+03 -0.17028796706E+03  0.42808786084E+03  0.50400001928E-02 0.  1.
       -1    1    3    3    0  502  0.32687474298E+03 -0.21774785245E+03 -0.88786816142E+03  0.97086100804E+03  0.50400001928E-02 0. -1.
</event>
<event>
 5   0  0.6092779E-03  0.8917106E+03  0.7818609E-02  0.9436003E-01
       -1   -1    0    0    0  501  0.00000000000E+00  0.00000000000E+00  0.38438003587E+03  0.38438003590E+03  0.50400001928E-02 0.  1.
        1   -1    0    0  501    0  0.00000000000E+00  0.00000000000E+00 -0.51716249391E+03  0.51716249393E+03  0.50400001928E-02 0. -1.
    10030    2    1    2    0    0  0.00000000000E+00  0.00000000000E+00 -0.13278245804E+03  0.90154252983E+03  0.89171057633E+03 0.  0.
        2    1    3    3  502    0 -0.30964148485E+03  0.15950311743E+03  0.21500808677E+03  0.40932575169E+03  0.25500000920E-02 0.  1.
       -2    1    3    3    0  502  0.30964148485E+03 -0.15950311743E+03 -0.34779054482E+03  0.49221677814E+03  0.25500000920E-02 0. -1.
</event>
<event>
 5   0  0.1028978E-02  0.8997404E+03  0.7818609E-02  0.9425906E-01
        2   -1    0    0  501    0  0.00000000000E+00  0.00000000000E+00  0.63086684044E+03  0.63086684044E+03  0.25500000920E-02 0.  1.
       -2   -1    0    0    0  501  0.00000000000E+00  0.00000000000E+00 -0.32080175017E+03  0.32080175018E+03  0.25500000920E-02 0. -1.
    10030    2    1    2    0    0  0.00000000000E+00  0.00000000000E+00  0.31006509027E+03  0.95166859062E+03  0.89974037710E+03 0.  0.
        3    1    3    3  502    0  0.36973355880E+03 -0.42374160384E+02 -0.11230931365E+03  0.38873109742E+03  0.10100000352E+00 0. -1.
       -3    1    3    3    0  502 -0.36973355880E+03  0.42374160384E+02  0.42237440392E+03  0.56293749320E+03  0.10100000352E+00 0.  1.
</event>
<event>
 5   0  0.6137243E-03  0.8963581E+03  0.7818609E-02  0.9430146E-01
        1   -1    0    0  501    0  0.00000000000E+00  0.00000000000E+00  0.10105508931E+04  0.10105508932E+04  0.50400001928E-02 0.  1.
       -1   -1    0    0    0  501  0.00000000000E+00  0.00000000000E+00 -0.19876727284E+03  0.19876727290E+03  0.50400001928E-02 0. -1.
    10030    2    1    2    0    0  0.00000000000E+00  0.00000000000E+00  0.81178362031E+03  0.12093181661E+04  0.89635806493E+03 0.  0.
        4    1    3    3  502    0  0.35439478773E+03 -0.19736253912E+03  0.66299249624E+03  0.77724404172E+03  0.12699999809E+01 0.  1.
       -4    1    3    3    0  502 -0.35439478773E+03  0.19736253912E+03  0.14879112407E+03  0.43207412434E+03  0.12699999809E+01 0. -1.
</event>
<event>
 5   0  0.6288003E-03  0.8859294E+03  0.7818609E-02  0.9443343E-01
        1   -1    0    0  501    0  0.00000000000E+00  0.00000000000E+00  0.52459786380E+03  0.52459786382E+03  0.50400001928E-02 0. -1.
       -1   -1    0    0    0  501  0.00000000000E+00  0.00000000000E+00 -0.37403458765E+03  0.37403458768E+03  0.50400001928E-02 0.  1.
    10030    2    1    2    0    0  0.00000000000E+00  0.00000000000E+00  0.15056327615E+03  0.89863245150E+03  0.88592944571E+03 0.  0.
        1    1    3    3  502    0 -0.22852352789E+03  0.36851683382E+03 -0.16515088331E+02  0.43393594893E+03  0.50400001928E-02 0.  1.
       -1    1    3    3    0  502  0.22852352789E+03 -0.36851683382E+03  0.16707836448E+03  0.46469650258E+03  0.50400001928E-02 0. -1.
</event>
<event>
 5   0  0.6211218E-03  0.8832120E+03  0.7818609E-02  0.9446814E-01
        1   -1    0    0  501    0  0.00000000000E+00  0.00000000000E+00  0.96107843893E+03  0.96107843894E+03  0.50400001928E-02 0. -1.
       -1   -1    0    0    0  501  0.00000000000E+00  0.00000000000E+00 -0.20291356621E+03  0.20291356627E+03  0.50400001928E-02 0.  1.
    10030    2    1    2    0    0  0.00000000000E+00  0.00000000000E+00  0.75816487272E+03  0.11639920052E+04  0.88321198699E+03 0.  0.
        5    1    3    3  502    0  0.20809751670E+03 -0.37931696097E+03  0.26262955960E+03  0.50614455337E+03  0.46999998093E+01 0.  1.
       -5    1    3    3    0  502 -0.20809751670E+03  0.37931696097E+03  0.49553531312E+03  0.65784745183E+03  0.46999998093E+01 0. -1.
</event>
<event>
 5   0  0.1041727E-02  0.9159170E+03  0.7818609E-02  0.9405900E-01
       -2   -1    0    0    0  501  0.00000000000E+00  0.00000000000E+00  0.96254460956E+02  0.96254460990E+02  0.25500000920E-02 0.  1.
        2   -1    0    0  501    0  0.00000000000E+00  0.00000000000E+00 -0.21788701019E+04  0.21788701019E+04  0.25500000920E-02 0. -1.
    10030    2    1    2    0    0  0.00000000000E+00  0.00000000000E+00 -0.20826156410E+04  0.22751245629E+04  0.91591695517E+03 0.  0.
        4    1    3    3  502    0  0.14091429545E+03  0.52216782050E+02 -0.21158747346E+04  0.21212050671E+04  0.12699999809E+01 0. -1.
       -4    1    3    3    0  502 -0.14091429545E+03 -0.52216782050E+02  0.33259093672E+02  0.15391949584E+03  0.12699999809E+01 0.  1.
</event>
<event>
 5   0  0.6092779E-03  0.8988896E+03  0.7818609E-02  0.9426971E-01
       -1   -1    0    0    0  501  0.00000000000E+00  0.00000000000E+00  0.14808933596E+03  0.14808933605E+03  0.50400001928E-02 0.  1.
        1   -1    0    0  501    0  0.00000000000E+00  0.00000000000E+00 -0.13640457307E+04  0.13640457307E+04  0.50400001928E-02 0. -1.
    10030    2    1    2    0    0  0.00000000000E+00  0.00000000000E+00 -0.12159563947E+04  0.15121350667E+04  0.89888959623E+03 0.  0.
        2    1    3    3  502    0 -0.26777934644E+03  0.71322922042E+02 -0.12032291205E+04  0.12347279271E+04  0.25500000920E-02 0. -1.
       -2    1    3    3    0  502  0.26777934644E+03 -0.71322922042E+02 -0.12727274207E+02  0.27740713961E+03  0.25500000920E-02 0.  1.
</event>
<event>
 5   0  0.1003252E-02  0.8981801E+03  0.7818609E-02  0.9427859E-01
       -2   -1    0    0    0  501  0.00000000000E+00  0.00000000000E+00  0.17890296943E+03  0.17890296944E+03  0.25500000920E-02 0.  1.
        2   -1    0    0  501    0  0.00000000000E+00  0.00000000000E+00 -0.11273255352E+04  0.11273255352E+04  0.25500000920E-02 0. -1.
    10030    2    1    2    0    0  0.00000000000E+00  0.00000000000E+00 -0.94842256573E+03  0.13062285046E+04  0.89818012840E+03 0.  0.
        2    1    3    3  502    0  0.31951300050E+03 -0.12186923533E+03 -0.89756469521E+03  0.96050145763E+03  0.25500000920E-02 0. -1.
       -2    1    3    3    0  502 -0.31951300050E+03  0.12186923533E+03 -0.50857870517E+02  0.34572704697E+03  0.25500000920E-02 0.  1.
</event>
<event>
 5   0  0.1017079E-02  0.8749086E+03  0.7818609E-02  0.9457502E-01
        2   -1    0    0  501    0  0.00000000000E+00  0.00000000000E+00  0.78914569845E+03  0.78914569846E+03  0.25500000920E-02 0. -1.
       -2   -1    0    0    0  501  0.00000000000E+00  0.00000000000E+00 -0.24249801618E+03  0.24249801620E+03  0.25500000920E-02 0.  1.
    10030    2    1    2    0    0  0.00000000000E+00  0.00000000000E+00  0.54664768227E+03  0.10316437147E+04  0.87490860406E+03 0.  0.
        1    1    3    3  502    0  0.28902963477E+03  0.31728149145E+03  0.37310338309E+03  0.56869307107E+03  0.50400001928E-02 0. -1.
       -1    1    3    3    0  502 -0.28902963477E+03 -0.31728149145E+03  0.17354429918E+03  0.46295064358E+03  0.50400001928E-02 0.  1.
</event>
<event>
 5   0  0.1033749E-02  0.8896678E+03  0.7818609E-02  0.9438590E-01
        2   -1    0    0  501    0  0.00000000000E+00  0.00000000000E+00  0.48244577964E+03  0.48244577965E+03  0.25500000920E-02 0. -1.
       -2   -1    0    0    0  501  0.00000000000E+00  0.00000000000E+00 -0.41015423701E+03  0.41015423702E+03  0.25500000920E-02 0.  1.
    10030    2    1    2    0    0  0.00000000000E+00  0.00000000000E+00  0.72291542630E+02  0.89260001667E+03  0.88966775968E+03 0.  0.
        5    1    3    3  502    0 -0.42185338413E+03 -0.73872957407E+02  0.15669835633E+03  0.45606354427E+03  0.46999998093E+01 0. -1.
       -5    1    3    3    0  502  0.42185338413E+03  0.73872957407E+02 -0.84406813699E+02  0.43653647240E+03  0.46999998093E+01 0.  1.
</event>
<event>
 5   0  0.6092779E-03  0.8961690E+03  0.7818609E-02  0.9430383E-01
       -1   -1    0    0    0  501  0.00000000000E+00  0.00000000000E+00  0.26331025701E+03  0.26331025706E+03  0.50400001928E-02 0.  1.
        1   -1    0    0  501    0  0.00000000000E+00  0.00000000000E+00 -0.76252138799E+03  0.76252138801E+03  0.50400001928E-02 0. -1.
    10030    2    1    2    0    0  0.00000000000E+00  0.00000000000E+00 -0.49921113098E+03  0.10258316451E+04  0.89616896327E+03 0.  0.
        2    1    3    3  502    0 -0.14024507998E+03  0.60466649487E+02 -0.73180875001E+03  0.74757537731E+03  0.25500000920E-02 0. -1.
       -2    1    3    3    0  502  0.14024507998E+03 -0.60466649487E+02  0.23259761903E+03  0.27825626776E+03  0.25500000920E-02 0.  1.
</event>
<event>
 5   0  0.6137243E-03  0.9027617E+03  0.7818609E-02  0.9422136E-01
        1   -1    0    0  501    0  0.00000000000E+00  0.00000000000E+00  0.11686932988E+04  0.11686932988E+04  0.50400001928E-02 0. -1.
       -1   -1    0    0    0  501  0.00000000000E+00  0.00000000000E+00 -0.17433543699E+03  0.17433543706E+03  0.50400001928E-02 0.  1.
    10030    2    1    2    0    0  0.00000000000E+00  0.00000000000E+00  0.99435786180E+03  0.13430287359E+04  0.90276166735E+03 0.  0.
        4    1    3    3  502    0 -0.18633365390E+02 -0.21121227308E+03  0.10899912625E+04  0.11104235192E+04  0.12699999809E+01 0. -1.
       -4    1    3    3    0  502  0.18633365390E+02  0.21121227308E+03 -0.95633400728E+02  0.23260521671E+03  0.12699999809E+01 0.  1.
</event>
<event>
 5   0  0.1041727E-02  0.9174424E+03  0.7818609E-02  0.9404037E-01
        2   -1    0    0  501    0  0.00000000000E+00  0.00000000000E+00  0.11785525015E+04  0.11785525015E+04  0.25500000920E-02 0. -1.
       -2   -1    0    0    0  501  0.00000000000E+00  0.00000000000E+00 -0.17854539431E+03  0.17854539433E+03  0.25500000920E-02 0.  1.
    10030    2    1    2    0    0  0.00000000000E+00  0.00000000000E+00  0.10000071071E+04  0.13570978958E+04  0.91744236028E+03 0.  0.
        4    1    3    3  502    0 -0.18543395795E+03 -0.53284572511E+01  0.11205871246E+04  0.11358394525E+04  0.12699999809E+01 0. -1.
       -4    1    3    3    0  502  0.18543395795E+03  0.53284572511E+01 -0.12058001743E+03  0.22125844328E+03  0.12699999809E+01 0.  1.
</event>
<event>
 5   0  0.1028978E-02  0.8997142E+03  0.7818609E-02  0.9425939E-01
        2   -1    0    0  501    0  0.00000000000E+00  0.00000000000E+00  0.22547297227E+04  0.22547297227E+04  0.25500000920E-02 0.  1.
       -2   -1    0    0    0  501  0.00000000000E+00  0.00000000000E+00 -0.89754174998E+02  0.89754175034E+02  0.25500000920E-02 0. -1.
    10030    2    1    2    0    0  0.00000000000E+00  0.00000000000E+00  0.21649755477E+04  0.23444838978E+04  0.89971419051E+03 0.  0.
        3    1    3    3  502    0 -0.22182913040E+03 -0.36356999584E+03  0.70504912615E+03  0.82370236461E+03  0.10100000352E+00 0.  1.
       -3    1    3    3    0  502  0.22182913040E+03  0.36356999584E+03  0.14599264216E+04  0.15207815332E+04  0.10100000352E+00 0. -1.
</event>
<event>
 5   0  0.6288003E-03  0.9013299E+03  0.7818609E-02  0.9423920E-01
        1   -1    0    0  501    0  0.00000000000E+00  0.00000000000E+00  0.36046011638E+03  0.36046011641E+03  0.50400001928E-02 0. -1.
       -1   -1    0    0    0  501  0.00000000000E+00  0.00000000000E+00 -0.56344352776E+03  0.56344352778E+03  0.50400001928E-02 0.  1.
    10030    2    1    2    0    0  0.00000000000E+00  0.00000000000E+00 -0.20298341138E+03  0.92390364419E+03  0.90132994983E+03 0.  0.
        1    1    3    3  502    0 -0.20119228196E+03  0.32378315165E+03 -0.34789734729E+03  0.51608761648E+03  0.50400001928E-02 0.  1.
       -1    1    3    3    0  502  0.20119228196E+03 -0.32378315165E+03  0.14491393591E+03  0.40781602771E+03  0.50400001928E-02 0. -1.
</event>
<event>
 5   0  0.6288003E-03  0.7931426E+03  0.7818609E-02  0.9569996E-01
       -1   -1    0    0    0  501  0.00000000000E+00  0.00000000000E+00  0.73775771339E+03  0.73775771341E+03  0.50400001928E-02 0.  1.
        1   -1    0    0  501    0  0.00000000000E+00  0.00000000000E+00 -0.21317133953E+03  0.21317133959E+03  0.50400001928E-02 0. -1.
    10030    2    1    2    0    0  0.00000000000E+00  0.00000000000E+00  0.52458637386E+03  0.95092905300E+03  0.79314261026E+03 0.  0.
        1    1    3    3  502    0 -0.14917573714E+03 -0.48606739951E+01 -0.17821145095E+03  0.23245719602E+03  0.50400001928E-02 0. -1.
       -1    1    3    3    0  502  0.14917573714E+03  0.48606739951E+01  0.70279782481E+03  0.71847185699E+03  0.50400001928E-02 0.  1.
</event>
<event>
 5   0  0.6092779E-03  0.9160811E+03  0.7818609E-02  0.9405700E-01
       -1   -1    0    0    0  501  0.00000000000E+00  0.00000000000E+00  0.49547051057E+03  0.49547051060E+03  0.50400001928E-02 0. -1.
        1   -1    0    0  501    0  0.00000000000E+00  0.00000000000E+00 -0.42343822893E+03  0.42343822896E+03  0.50400001928E-02 0.  1.
    10030    2    1    2    0    0  0.00000000000E+00  0.00000000000E+00  0.72032281642E+02  0.91890873955E+03  0.91608112197E+03 0.  0.
        2    1    3    3  502    0  0.26826311722E+02 -0.18542555282E+03  0.45527620356E+03  0.49231972149E+03  0.25500000920E-02 0. -1.
       -2    1    3    3    0  502 -0.26826311722E+02  0.18542555282E+03 -0.38324392191E+03  0.42658901806E+03  0.25500000920E-02 0.  1.
</event>
<event>
 5   0  0.6092779E-03  0.8970151E+03  0.7818609E-02  0.9429320E-01
       -1   -1    0    0    0  501  0.00000000000E+00  0.00000000000E+00  0.67694588216E+03  0.67694588218E+03  0.50400001928E-02 0.  1.
        1   -1    0    0  501    0  0.00000000000E+00  0.00000000000E+00 -0.29715674413E+03  0.29715674417E+03  0.50400001928E-02 0. -1.
    10030    2    1    2    0    0  0.00000000000E+00  0.00000000000E+00  0.37978913804E+03  0.97410262635E+03  0.89701512657E+03 0.  0.
        2    1    3    3  502    0  0.11501619525E+03  0.19041831241E+03 -0.23302372712E+03  0.32216132027E+03  0.25500000920E-02 0. -1.
       -2    1    3    3    0  502 -0.11501619525E+03 -0.19041831241E+03  0.61281286516E+03  0.65194130608E+03  0.25500000920E-02 0.  1.
</event>
<event>
 5   0  0.1033749E-02  0.8856104E+03  0.7818609E-02  0.9443750E-01
       -2   -1    0    0    0  501  0.00000000000E+00  0.00000000000E+00  0.85189318391E+02  0.85189318429E+02  0.25500000920E-02 0. -1.
        2   -1    0    0  501    0  0.00000000000E+00  0.00000000000E+00 -0.23016550483E+04  0.23016550483E+04  0.25500000920E-02 0.  1.
    10030    2    1    2    0    0  0.00000000000E+00  0.00000000000E+00 -0.22164657299E+04  0.23868443667E+04  0.88561035401E+03 0.  0.
        5    1    3    3  502    0  0.29162021866E+03 -0.15441295264E+02 -0.21121838835E+03  0.36043873697E+03  0.46999998093E+01 0. -1.
       -5    1    3    3    0  502 -0.29162021866E+03  0.15441295264E+02 -0.20052473416E+04  0.20264056298E+04  0.46999998093E+01 0.  1.
</event>
<event>
 5   0  0.6211218E-03  0.8702972E+03  0.7818609E-02  0.9463493E-01
       -1   -1    0    0    0  501  0.00000000000E+00  0.00000000000E+00  0.39018177127E+03  0.39018177130E+03  0.50400001928E-02 0.  1.
        1   -1    0    0  501    0  0.00000000000E+00  0.00000000000E+00 -0.48529763935E+03  0.48529763937E+03  0.50400001928E-02 0. -1.
    10030    2    1    2    0    0  0.00000000000E+00  0.00000000000E+00 -0.95115868082E+02  0.87547941067E+03  0.87029717347E+03 0.  0.
        5    1    3    3  502    0 -0.12470790269E+03 -0.30863511535E+03  0.23433291222E+03  0.40711386512E+03  0.46999998093E+01 0.  1.
       -5    1    3    3    0  502  0.12470790269E+03  0.30863511535E+03 -0.32944878030E+03  0.46836554556E+03  0.46999998093E+01 0. -1.
</event>
<event>
 5   0  0.6015709E-03  0.9034433E+03  0.7818609E-02  0.9421287E-01
       -1   -1    0    0    0  501  0.00000000000E+00  0.00000000000E+00  0.15199502943E+03  0.15199502951E+03  0.50400001928E-02 0. -1.
        1   -1    0    0  501    0  0.00000000000E+00  0.00000000000E+00 -0.13424941996E+04  0.13424941996E+04  0.50400001928E-02 0.  1.
    10030    2    1    2    0    0  0.00000000000E+00  0.00000000000E+00 -0.11904991702E+04  0.14944892292E+04  0.90344329197E+03 0.  0.
        3    1    3    3  502    0 -0.17321789411E+03  0.38224267429E+03 -0.31875049813E+03  0.52698746774E+03  0.10100000352E+00 0. -1.
       -3    1    3    3    0  502  0.17321789411E+03 -0.38224267429E+03 -0.87174867207E+03  0.96750176142E+03  0.10100000352E+00 0.  1.
</event>
<event>
 5   0  0.6211218E-03  0.9010670E+03  0.7818609E-02  0.9424249E-01
        1   -1    0    0  501    0  0.00000000000E+00  0.00000000000E+00  0.19051156595E+04  0.19051156595E+04  0.50400001928E-02 0.  1.
       -1   -1    0    0    0  501  0.00000000000E+00  0.00000000000E+00 -0.10654494817E+03  0.10654494829E+03  0.50400001928E-02 0. -1.
    10030    2    1    2    0    0  0.00000000000E+00  0.00000000000E+00  0.17985707114E+04  0.20116606078E+04  0.90106703266E+03 0.  0.
        5    1    3    3  502    0 -0.10394540644E+03 -0.30094770090E+03  0.16108439672E+04  0.16420153905E+04  0.46999998093E+01 0.  1.
       -5    1    3    3    0  502  0.10394540644E+03  0.30094770090E+03  0.18772674421E+03  0.36964521732E+03  0.46999998093E+01 0. -1.
</event>
<event>
 5   0  0.6137243E-03  0.8951010E+03  0.7818609E-02  0.9431726E-01
        1   -1    0    0  501    0  0.00000000000E+00  0.00000000000E+00  0.11139216418E+04  0.11139216418E+04  0.50400001928E-02 0. -1.
       -1   -1    0    0    0  501  0.00000000000E+00  0.00000000000E+00 -0.17981645055E+03  0.17981645062E+03  0.50400001928E-02 0.  1.
    10030    2    1    2    0    0  0.00000000000E+00  0.00000000000E+00  0.93410519124E+03  0.12937380924E+04  0.89510096833E+03 0.  0.
        4    1    3    3  502    0  0.36947551254E+03  0.13079555715E+03  0.77933006411E+03  0.87233972388E+03  0.12699999809E+01 0. -1.
       -4    1    3    3    0  502 -0.36947551254E+03 -0.13079555715E+03  0.15477512712E+03  0.42139836854E+03  0.12699999809E+01 0.  1.
</event>
<event>
 5   0  0.1003252E-02  0.9071433E+03  0.7818609E-02  0.9416696E-01
        2   -1    0    0  501    0  0.00000000000E+00  0.00000000000E+00  0.10402083310E+04  0.10402083310E+04  0.25500000920E-02 0.  1.
       -2   -1    0    0    0  501  0.00000000000E+00  0.00000000000E+00 -0.19777502598E+03  0.19777502600E+03  0.25500000920E-02 0. -1.
    10030    2    1    2    0    0  0.00000000000E+00  0.00000000000E+00  0.84243330500E+03  0.12379833570E+04  0.90714327357E+03 0.  0.
        2    1    3    3  502    0  0.37692081419E+03 -0.25181690349E+03  0.39980440073E+03  0.60442088970E+03  0.25500000920E-02 0.  1.
       -2    1    3    3    0  502 -0.37692081419E+03  0.25181690349E+03  0.44262890426E+03  0.63356246728E+03  0.25500000920E-02 0. -1.
</event>
<event>
 5   0  0.1017079E-02  0.9197796E+03  0.7818609E-02  0.9401188E-01
       -2   -1    0    0    0  501  0.00000000000E+00  0.00000000000E+00  0.17077683116E+03  0.17077683118E+03  0.25500000920E-02 0. -1.
        2   -1    0    0  501    0  0.00000000000E+00  0.00000000000E+00 -0.12384503622E+04  0.12384503622E+04  0.25500000920E-02 0.  1.
    10030    2    1    2    0    0  0.00000000000E+00  0.00000000000E+00 -0.10676735310E+04  0.14092271934E+04  0.91977960061E+03 0.  0.
        1    1    3    3  502    0  0.44687951567E+03 -0.10533958872E+03 -0.57439925733E+03  0.73534497845E+03  0.50400001928E-02 0. -1.
       -1    1    3    3    0  502 -0.44687951567E+03  0.10533958872E+03 -0.49327427371E+03  0.67388221494E+03  0.50400001928E-02 0.  1.
</event>
<event>
 5   0  0.6211218E-03  0.8993770E+03  0.7818609E-02  0.9426361E-01
        1   -1    0    0  501    0  0.00000000000E+00  0.00000000000E+00  0.94939156233E+03  0.94939156234E+03  0.50400001928E-02 0. -1.
       -1   -1    0    0    0  501  0.00000000000E+00  0.00000000000E+00 -0.21299929531E+03  0.21299929537E+03  0.50400001928E-02 0.  1.
    10030    2    1    2    0    0  0.00000000000E+00  0.00000000000E+00  0.73639226701E+03  0.11623908577E+04  0.89937697056E+03 0.  0.
        5    1    3    3  502    0  0.24996049301E+03  0.12226039598E+03 -0.88329478188E+02  0.29197951847E+03  0.46999998093E+01 0.  1.
       -5    1    3    3    0  502 -0.24996049301E+03 -0.12226039598E+03  0.82472174520E+03  0.87041133925E+03  0.46999998093E+01 0. -1.
</event>
<event>
 5   0  0.6092779E-03  0.9042596E+03  0.7818609E-02  0.9420272E-01
        1   -1    0    0  501    0  0.00000000000E+00  0.00000000000E+00  0.11461471837E+04  0.11461471837E+04  0.50400001928E-02 0.  1.
       -1   -1    0    0    0  501  0.00000000000E+00  0.00000000000E+00 -0.17835525512E+03  0.17835525519E+03  0.50400001928E-02 0. -1.
    10030    2    1    2    0    0  0.00000000000E+00  0.00000000000E+00  0.96779192853E+03  0.13245024388E+04  0.90425963837E+03 0.  0.
        2    1    3    3  502    0 -0.28020882639E+03  0.34653381002E+03  0.37216519085E+03  0.58061139943E+03  0.25500000920E-02 0. -1.
       -2    1    3    3    0  502  0.28020882639E+03 -0.34653381002E+03  0.59562673769E+03  0.74389103942E+03  0.25500000920E-02 0.  1.
</event>
<event>
 5   0  0.6015709E-03  0.9147933E+03  0.7818609E-02  0.9407276E-01
        1   -1    0    0  501    0  0.00000000000E+00  0.00000000000E+00  0.12442692489E+03  0.12442692499E+03  0.50400001928E-02 0. -1.
       -1   -1    0    0    0  501  0.00000000000E+00  0.00000000000E+00 -0.16814022904E+04  0.16814022904E+04  0.50400001928E-02 0.  1.
    10030    2    1    2    0    0  0.00000000000E+00  0.00000000000E+00 -0.15569753655E+04  0.18058292154E+04  0.91479334628E+03 0.  0.
        3    1    3    3  502    0 -0.26952888337E+03 -0.97274256062E+02 -0.14822607045E+04  0.15097035822E+04  0.10100000352E+00 0.  1.
       -3    1    3    3    0  502  0.26952888337E+03  0.97274256062E+02 -0.74714661031E+02  0.29612563320E+03  0.10100000352E+00 0. -1.
</event>
<event>
 5   0  0.1003252E-02  0.8356068E+03  0.7818609E-02  0.9509861E-01
        2   -1    0    0  501    0  0.00000000000E+00  0.00000000000E+00  0.14519569384E+04  0.14519569384E+04  0.25500000920E-02 0.  1.
       -2   -1    0    0    0  501  0.00000000000E+00  0.00000000000E+00 -0.12022373085E+03  0.12022373088E+03  0.25500000920E-02 0. -1.
    10030    2    1    2    0    0  0.00000000000E+00  0.00000000000E+00  0.13317332076E+04  0.15721806693E+04  0.83560679795E+03 0.  0.
        2    1    3    3  502    0 -0.29512372860E+03 -0.21060872879E+03  0.27523490905E+03  0.45520139169E+03  0.25500000920E-02 0. -1.
       -2    1    3    3    0  502  0.29512372860E+03  0.21060872879E+03  0.10564982985E+04  0.11169792776E+04  0.25500000920E-02 0.  1.
</event>
<event>
 5   0  0.1017079E-02  0.9039596E+03  0.7818609E-02  0.9420645E-01
       -2   -1    0    0    0  501  0.00000000000E+00  0.00000000000E+00  0.17019160599E+03  0.17019160601E+03  0.25500000920E-02 0.  1.
        2   -1    0    0  501    0  0.00000000000E+00  0.00000000000E+00 -0.12003280560E+04  0.12003280560E+04  0.25500000920E-02 0. -1.
    10030    2    1    2    0    0  0.00000000000E+00  0.00000000000E+00 -0.10301364500E+04  0.13705196620E+04  0.90395964416E+03 0.  0.
        1    1    3    3  502    0  0.23880952835E+03 -0.26072699552E+01 -0.10968530136E+04  0.11225521468E+04  0.50400001928E-02 0. -1.
       -1    1    3    3    0  502 -0.23880952835E+03  0.26072699552E+01  0.66716563677E+02  0.24796751518E+03  0.50400001928E-02 0.  1.
</event>
<event>
 5   0  0.6288003E-03  0.8997631E+03  0.7818609E-02  0.9425878E-01
       -1   -1    0    0    0  501  0.00000000000E+00  0.00000000000E+00  0.34242510163E+03  0.34242510166E+03  0.50400001928E-02 0.  1.
        1   -1    0    0  501    0  0.00000000000E+00  0.00000000000E+00 -0.59105892444E+03  0.59105892447E+03  0.50400001928E-02 0. -1.
    10030    2    1    2    0    0  0.00000000000E+00  0.00000000000E+00 -0.24863382282E+03  0.93348402613E+03  0.89976310726E+03 0.  0.
        1    1    3    3  502    0 -0.15362775981E+03  0.38264155071E+03  0.62363812004E+02  0.41701953190E+03  0.50400001928E-02 0.  1.
       -1    1    3    3    0  502  0.15362775981E+03 -0.38264155071E+03 -0.31099763482E+03  0.51646449423E+03  0.50400001928E-02 0. -1.
</event>
<event>
 5   0  0.1003252E-02  0.8985209E+03  0.7818609E-02  0.9427432E-01
        2   -1    0    0  501    0  0.00000000000E+00  0.00000000000E+00  0.37797130464E+03  0.37797130465E+03  0.25500000920E-02 0.  1.
       -2   -1    0    0    0  501  0.00000000000E+00  0.00000000000E+00 -0.53399549333E+03  0.53399549334E+03  0.25500000920E-02 0. -1.
    10030    2    1    2    0    0  0.00000000000E+00  0.00000000000E+00 -0.15602418869E+03  0.91196679798E+03  0.89852094754E+03 0.  0.
        2    1    3    3  502    0 -0.24277823850E+03  0.37422473195E+03 -0.23832097403E+02  0.44671399348E+03  0.25500000920E-02 0.  1.
       -2    1    3    3    0  502  0.24277823850E+03 -0.37422473195E+03 -0.13219209129E+03  0.46525280451E+03  0.25500000920E-02 0. -1.
</event>
<event>
 5   0  0.6137243E-03  0.1069698E+04  0.7818609E-02  0.9235240E-01
       -1   -1    0    0    0  501  0.00000000000E+00  0.00000000000E+00  0.63341155993E+03  0.63341155995E+03  0.50400001928E-02 0. -1.
        1   -1    0    0  501    0  0.00000000000E+00  0.00000000000E+00 -0.45162347240E+03  0.45162347243E+03  0.50400001928E-02 0.  1.
    10030    2    1    2    0    0  0.00000000000E+00  0.00000000000E+00  0.18178808753E+03  0.10850350324E+04  0.10696981409E+04 0.  0.
        4    1    3    3  502    0 -0.34346620090E+03  0.40563502001E+03  0.30431400363E+02  0.53238753146E+03  0.12699999809E+01 0.  1.
       -4    1    3    3    0  502  0.34346620090E+03 -0.40563502001E+03  0.15135668717E+03  0.55264750092E+03  0.12699999809E+01 0. -1.
</event>
<event>
 5   0  0.3996375E-03  0.9044968E+03  0.7818609E-02  0.9419978E-01
        3   -1    0    0  501    0  0.00000000000E+00  0.00000000000E+00  0.38427399964E+03  0.38427401291E+03  0.10100000352E+00 0.  1.
       -3   -1    0    0    0  501  0.00000000000E+00  0.00000000000E+00 -0.53224673975E+03  0.53224674933E+03  0.10100000352E+00 0. -1.
    10030    2    1    2    0    0  0.00000000000E+00  0.00000000000E+00 -0.14797274011E+03  0.91652076224E+03  0.90449675279E+03 0.  0.
        3    1    3    3  502    0  0.94152209854E+02 -0.22571354588E+03  0.31148806600E+03  0.39602533867E+03  0.10100000352E+00 0.  1.
       -3    1    3    3    0  502 -0.94152209854E+02  0.22571354588E+03 -0.45946080610E+03  0.52049542357E+03  0.10100000352E+00 0. -1.
</event>
<event>
 5   0  0.6015709E-03  0.9001397E+03  0.7818609E-02  0.9425407E-01
        1   -1    0    0  501    0  0.00000000000E+00  0.00000000000E+00  0.88227267100E+03  0.88227267101E+03  0.50400001928E-02 0.  1.
       -1   -1    0    0    0  501  0.00000000000E+00  0.00000000000E+00 -0.22959216140E+03  0.22959216146E+03  0.50400001928E-02 0. -1.
    10030    2    1    2    0    0  0.00000000000E+00  0.00000000000E+00  0.65268050960E+03  0.11118648325E+04  0.90013974364E+03 0.  0.
        3    1    3    3  502    0 -0.32600562027E+03 -0.30812364163E+03  0.37160769521E+03  0.58250504918E+03  0.10100000352E+00 0. -1.
       -3    1    3    3    0  502  0.32600562027E+03  0.30812364163E+03  0.28107281439E+03  0.52935978329E+03  0.10100000352E+00 0.  1.
</event>
<event>
 5   0  0.1033749E-02  0.8766919E+03  0.7818609E-02  0.9455196E-01
       -2   -1    0    0    0  501  0.00000000000E+00  0.00000000000E+00  0.35837285461E+03  0.35837285462E+03  0.25500000920E-02 0. -1.
        2   -1    0    0  501    0  0.00000000000E+00  0.00000000000E+00 -0.53616554296E+03  0.53616554297E+03  0.25500000920E-02 0.  1.
    10030    2    1    2    0    0  0.00000000000E+00  0.00000000000E+00 -0.17779268835E+03  0.89453839758E+03  0.87669190981E+03 0.  0.
        5    1    3    3  502    0 -0.38495546553E+03  0.16563568533E+03 -0.21996033034E+03  0.47331863223E+03  0.46999998093E+01 0.  1.
       -5    1    3    3    0  502  0.38495546553E+03 -0.16563568533E+03  0.42167641991E+02  0.42121976535E+03  0.46999998093E+01 0. -1.
</event>
<event>
 5   0  0.1003252E-02  0.9022013E+03  0.7818609E-02  0.9422834E-01
        2   -1    0    0  501    0  0.00000000000E+00  0.00000000000E+00  0.40209325020E+03  0.40209325021E+03  0.25500000920E-02 0.  1.
       -2   -1    0    0    0  501  0.00000000000E+00  0.00000000000E+00 -0.50608109174E+03  0.50608109174E+03  0.25500000920E-02 0. -1.
    10030    2    1    2    0    0  0.00000000000E+00  0.00000000000E+00 -0.10398784154E+03  0.90817434195E+03  0.90220128807E+03 0.  0.
        2    1    3    3  502    0  0.10136540285E+02  0.34838201002E+03 -0.34027959679E+03  0.48709647746E+03  0.25500000920E-02 0. -1.
       -2    1    3    3    0  502 -0.10136540285E+02 -0.34838201002E+03  0.23629175525E+03  0.42107786449E+03  0.25500000920E-02 0.  1.
</event>
<event>
 5   0  0.3996375E-03  0.8949300E+03  0.7818609E-02  0.9431941E-01
        3   -1    0    0  501    0  0.00000000000E+00  0.00000000000E+00  0.26380213742E+03  0.26380215676E+03  0.10100000352E+00 0. -1.
       -3   -1    0    0    0  501  0.00000000000E+00  0.00000000000E+00 -0.75899650128E+03  0.75899650800E+03  0.10100000352E+00 0.  1.
    10030    2    1    2    0    0  0.00000000000E+00  0.00000000000E+00 -0.49519436386E+03  0.10227986648E+04  0.89492996968E+03 0.  0.
        2    1    3    3  502    0  0.23068760144E+03 -0.73645943515E+02  0.18244279566E+03  0.30319279040E+03  0.25500000920E-02 0. -1.
       -2    1    3    3    0  502 -0.23068760144E+03  0.73645943515E+02 -0.67763715952E+03  0.71960587436E+03  0.25500000920E-02 0.  1.
</event>
<event>
 5   0  0.6211218E-03  0.9126914E+03  0.7818609E-02  0.9409854E-01
       -1   -1    0    0    0  501  0.00000000000E+00  0.00000000000E+00  0.15878186321E+03  0.15878186329E+03  0.50400001928E-02 0.  1.
        1   -1    0    0  501    0  0.00000000000E+00  0.00000000000E+00 -0.13115567241E+04  0.13115567241E+04  0.50400001928E-02 0. -1.
    10030    2    1    2    0    0  0.00000000000E+00  0.00000000000E+00 -0.11527748609E+04  0.14703385874E+04  0.91269144933E+03 0.  0.
        5    1    3    3  502    0  0.14268950612E+03 -0.43255252739E+03 -0.62101354522E+03  0.77015706025E+03  0.46999998093E+01 0. -1.
       -5    1    3    3    0  502 -0.14268950612E+03  0.43255252739E+03 -0.53176131567E+03  0.70018152714E+03  0.46999998093E+01 0.  1.
</event>
<event>
 5   0  0.6092779E-03  0.8846554E+03  0.7818609E-02  0.9444969E-01
       -1   -1    0    0    0  501  0.00000000000E+00  0.00000000000E+00  0.28892374025E+03  0.28892374029E+03  0.50400001928E-02 0. -1.
        1   -1    0    0  501    0  0.00000000000E+00  0.00000000000E+00 -0.67718142439E+03  0.67718142441E+03  0.50400001928E-02 0.  1.
    10030    2    1    2    0    0  0.00000000000E+00  0.00000000000E+00 -0.38825768414E+03  0.96610516470E+03  0.88465539052E+03 0.  0.
        2    1    3    3  502    0 -0.26207628422E+02 -0.41929483506E+03 -0.42969730378E+02  0.42230486172E+03  0.25500000920E-02 0. -1.
       -2    1    3    3    0  502  0.26207628422E+02  0.41929483506E+03 -0.34528795377E+03  0.54380030298E+03  0.25500000920E-02 0.  1.
</event>
<event>
 5   0  0.6288003E-03  0.8728353E+03  0.7818609E-02  0.9460191E-01
       -1   -1    0    0    0  501  0.00000000000E+00  0.00000000000E+00  0.19611964698E+03  0.19611964705E+03  0.50400001928E-02 0. -1.
        1   -1    0    0  501    0  0.00000000000E+00  0.00000000000E+00 -0.97114362638E+03  0.97114362639E+03  0.50400001928E-02 0.  1.
    10030    2    1    2    0    0  0.00000000000E+00  0.00000000000E+00 -0.77502397940E+03  0.11672632734E+04  0.87283525415E+03 0.  0.
        1    1    3    3  502    0 -0.26339310090E+03  0.31246355201E+03 -0.59230576217E+03  0.71960788827E+03  0.50400001928E-02 0. -1.
       -1    1    3    3    0  502  0.26339310090E+03 -0.31246355201E+03 -0.18271821722E+03  0.44765538517E+03  0.50400001928E-02 0.  1.
</event>
<event>
 5   0  0.1003252E-02  0.8949810E+03  0.7818609E-02  0.9431877E-01
        2   -1    0    0  501    0  0.00000000000E+00  0.00000000000E+00  0.11904942447E+04  0.11904942447E+04  0.25500000920E-02 0. -1.
       -2   -1    0    0    0  501  0.00000000000E+00  0.00000000000E+00 -0.16820557079E+03  0.16820557081E+03  0.25500000920E-02 0.  1.
    10030    2    1    2    0    0  0.00000000000E+00  0.00000000000E+00  0.10222886739E+04  0.13586998155E+04  0.89498103662E+03 0.  0.
        2    1    3    3  502    0 -0.44459605918E+03  0.18113009932E+01  0.58823837870E+03  0.73735563117E+03  0.25500000920E-02 0.  1.
       -2    1    3    3    0  502  0.44459605918E+03 -0.18113009932E+01  0.43405029524E+03  0.62134418437E+03  0.25500000920E-02 0. -1.
</event>
<event>
 5   0  0.6288003E-03  0.8887640E+03  0.7818609E-02  0.9439737E-01
       -1   -1    0    0    0  501  0.00000000000E+00  0.00000000000E+00  0.10820816351E+03  0.10820816362E+03  0.50400001928E-02 0.  1.
        1   -1    0    0  501    0  0.00000000000E+00  0.00000000000E+00 -0.18249578776E+04  0.18249578776E+04  0.50400001928E-02 0. -1.
    10030    2    1    2    0    0  0.00000000000E+00  0.00000000000E+00 -0.17167497141E+04  0.19331660412E+04  0.88876395187E+03 0.  0.
        1    1    3    3  502    0  0.14840110751E+03 -0.41524563684E+03 -0.97797691108E+03  0.10727957244E+04  0.50400001928E-02 0. -1.
       -1    1    3    3    0  502 -0.14840110751E+03  0.41524563684E+03 -0.73877280301E+03  0.86037031685E+03  0.50400001928E-02 0.  1.
</event>
<event>
 5   0  0.1033749E-02  0.9023277E+03  0.7818609E-02  0.9422676E-01
        2   -1    0    0  501    0  0.00000000000E+00  0.00000000000E+00  0.66338306086E+03  0.66338306086E+03  0.25500000920E-02 0.  1.
       -2   -1    0    0    0  501  0.00000000000E+00  0.00000000000E+00 -0.30683448934E+03  0.30683448935E+03  0.25500000920E-02 0. -1.
    10030    2    1    2    0    0  0.00000000000E+00  0.00000000000E+00  0.35654857152E+03  0.97021755021E+03  0.90232766270E+03 0.  0.
        5    1    3    3  502    0  0.18069830372E+03 -0.15891067284E+03 -0.23204194721E+03  0.33432025690E+03  0.46999998093E+01 0. -1.
       -5    1    3    3    0  502 -0.18069830372E+03  0.15891067284E+03  0.58859051873E+03  0.63589729331E+03  0.46999998093E+01 0.  1.
</event>
<event>
 5   0  0.6015709E-03  0.9172057E+03  0.7818609E-02  0.9404325E-01
        1   -1    0    0  501    0  0.00000000000E+00  0.00000000000E+00  0.76567530473E+03  0.76567530475E+03  0.50400001928E-02 0.  1.
       -1   -1    0    0    0  501  0.00000000000E+00  0.00000000000E+00 -0.27468113252E+03  0.27468113257E+03  0.50400001928E-02 0. -1.
    10030    2    1    2    0    0  0.00000000000E+00  0.00000000000E+00  0.49099417221E+03  0.10403564373E+04  0.91720566915E+03 0.  0.
        3    1    3    3  502    0 -0.33129978928E+03 -0.29423939803E+03  0.37961035466E+03  0.58347271169E+03  0.10100000352E+00 0. -1.
       -3    1    3    3    0  502  0.33129978928E+03  0.29423939803E+03  0.11138381755E+03  0.45688372562E+03  0.10100000352E+00 0.  1.
</event>
<event>
 5   0  0.3996375E-03  0.8870220E+03  0.7818609E-02  0.9441952E-01
        3   -1    0    0  501    0  0.00000000000E+00  0.00000000000E+00  0.15107100388E+03  0.15107103764E+03  0.10100000352E+00 0.  1.
       -3   -1    0    0    0  501  0.00000000000E+00  0.00000000000E+00 -0.13020498620E+04  0.13020498660E+04  0.10100000352E+00 0. -1.
    10030    2    1    2    0    0  0.00000000000E+00  0.00000000000E+00 -0.11509788582E+04  0.14531209036E+04  0.88702200002E+03 0.  0.
        2    1    3    3  502    0  0.12976409263E+03  0.28890619998E+03 -0.10841147542E+04  0.11294291976E+04  0.25500000920E-02 0. -1.
       -2    1    3    3    0  502 -0.12976409263E+03 -0.28890619998E+03 -0.66864103971E+02  0.32369170600E+03  0.25500000920E-02 0.  1.
</event>
<event>
 5   0  0.6211218E-03  0.9047321E+03  0.7818609E-02  0.9419685E-01
        1   -1    0    0  501    0  0.00000000000E+00  0.00000000000E+00  0.48934686464E+03  0.48934686467E+03  0.50400001928E-02 0.  1.
       -1   -1    0    0    0  501  0.00000000000E+00  0.00000000000E+00 -0.41817991899E+03  0.41817991902E+03  0.50400001928E-02 0. -1.
    10030    2    1    2    0    0  0.00000000000E+00  0.00000000000E+00  0.71166945657E+02  0.90752678368E+03  0.90473207578E+03 0.  0.
        5    1    3    3  502    0 -0.31113765745E+03 -0.32831117922E+03  0.39847480064E+02  0.45409776916E+03  0.46999998093E+01 0.  1.
       -5    1    3    3    0  502  0.31113765745E+03  0.32831117922E+03  0.31319465593E+02  0.45342901453E+03  0.46999998093E+01 0. -1.
</event>
<event>
 5   0  0.1003252E-02  0.9032290E+03  0.7818609E-02  0.9421554E-01
        2   -1    0    0  501    0  0.00000000000E+00  0.00000000000E+00  0.10198060982E+04  0.10198060982E+04  0.25500000920E-02 0.  1.
       -2   -1    0    0    0  501  0.00000000000E+00  0.00000000000E+00 -0.19999454448E+03  0.19999454450E+03  0.25500000920E-02 0. -1.
    10030    2    1    2    0    0  0.00000000000E+00  0.00000000000E+00  0.81981155373E+03  0.12198006427E+04  0.90322899883E+03 0.  0.
        2    1    3    3  502    0  0.16754501129E+03 -0.40924530873E+03  0.28611226142E+03  0.52670036992E+03  0.25500000920E-02 0. -1.
       -2    1    3    3    0  502 -0.16754501129E+03  0.40924530873E+03  0.53369929231E+03  0.69310027279E+03  0.25500000920E-02 0.  1.
</event>
<event>
 5   0  0.3996375E-03  0.8821745E+03  0.7818609E-02  0.9448143E-01
        3   -1    0    0  501    0  0.00000000000E+00  0.00000000000E+00  0.74414004224E+03  0.74414004909E+03  0.10100000352E+00 0.  1.
       -3   -1    0    0    0  501  0.00000000000E+00  0.00000000000E+00 -0.26145337704E+03  0.26145339655E+03  0.10100000352E+00 0. -1.
    10030    2    1    2    0    0  0.00000000000E+00  0.00000000000E+00  0.48268666519E+03  0.10055934456E+04  0.88217445053E+03 0.  0.
        2    1    3    3  502    0  0.22746662568E+03  0.11059216784E+03 -0.17058027136E+03  0.30507265097E+03  0.25500000920E-02 0. -1.
       -2    1    3    3    0  502 -0.22746662568E+03 -0.11059216784E+03  0.65326693655E+03  0.70052079468E+03  0.25500000920E-02 0.  1.
</event>
<event>
 5   0  0.6288003E-03  0.9021805E+03  0.7818609E-02  0.9422860E-01
        1   -1    0    0  501    0  0.00000000000E+00  0.00000000000E+00  0.26445370784E+03  0.26445370789E+03  0.50400001928E-02 0. -1.
       -1   -1    0    0    0  501  0.00000000000E+00  0.00000000000E+00 -0.76944436853E+03  0.76944436855E+03  0.50400001928E-02 0.  1.
    10030    2    1    2    0    0  0.00000000000E+00  0.00000000000E+00 -0.50499066069E+03  0.10338980764E+04  0.90218050582E+03 0.  0.
        1    1    3    3  502    0  0.22712733279E+03  0.37062502110E+03 -0.11434331845E+03  0.44947094018E+03  0.50400001928E-02 0.  1.
       -1    1    3    3    0  502 -0.22712733279E+03 -0.37062502110E+03 -0.39064734224E+03  0.58442713626E+03  0.50400001928E-02 0. -1.
</event>
<event>
 5   0  0.1003252E-02  0.8934949E+03  0.7818609E-02  0.9433750E-01
        2   -1    0    0  501    0  0.00000000000E+00  0.00000000000E+00  0.30261091673E+04  0.30261091673E+04  0.25500000920E-02 0.  1.
       -2   -1    0    0    0  501  0.00000000000E+00  0.00000000000E+00 -0.65953766291E+02  0.65953766340E+02  0.25500000920E-02 0. -1.
    10030    2    1    2    0    0  0.00000000000E+00  0.00000000000E+00  0.29601554010E+04  0.30920629336E+04  0.89349492862E+03 0.  0.
        2    1    3    3  502    0  0.64972217735E+02 -0.41500548093E+03  0.20064174758E+04  0.20499175655E+04  0.25500000920E-02 0.  1.
       -2    1    3    3    0  502 -0.64972217735E+02  0.41500548093E+03  0.95373792518E+03  0.10421453681E+04  0.25500000920E-02 0. -1.
</event>
<event>
 5   0  0.3996375E-03  0.8707342E+03  0.7818609E-02  0.9462923E-01
        4   -1    0    0  501    0  0.00000000000E+00  0.00000000000E+00  0.25987160616E+03  0.25987470940E+03  0.12699999809E+01 0. -1.
       -4   -1    0    0    0  501  0.00000000000E+00  0.00000000000E+00 -0.72936953045E+03  0.72937063613E+03  0.12699999809E+01 0.  1.
    10030    2    1    2    0    0  0.00000000000E+00  0.00000000000E+00 -0.46949792429E+03  0.98924534553E+03  0.87073420327E+03 0.  0.
        5    1    3    3  502    0 -0.63503827497E+02 -0.22220230024E+03 -0.65390209922E+03  0.69355363434E+03  0.46999998093E+01 0.  1.
       -5    1    3    3    0  502  0.63503827497E+02  0.22220230024E+03  0.18440417493E+03  0.29569171119E+03  0.46999998093E+01 0. -1.
</event>
<event>
 5   0  0.6092779E-03  0.8334375E+03  0.7818609E-02  0.9512840E-01
       -1   -1    0    0    0  501  0.00000000000E+00  0.00000000000E+00  0.24801648709E+03  0.24801648714E+03  0.50400001928E-02 0.  1.
        1   -1    0    0  501    0  0.00000000000E+00  0.00000000000E+00 -0.70017335145E+03  0.70017335146E+03  0.50400001928E-02 0. -1.
    10030    2    1    2    0    0  0.00000000000E+00  0.00000000000E+00 -0.45215686436E+03  0.94818983860E+03  0.83343754418E+03 0.  0.
        2    1    3    3  502    0  0.20239183686E+03  0.12493063212E+03  0.16321025614E+03  0.28845745993E+03  0.25500000920E-02 0.  1.
       -2    1    3    3    0  502 -0.20239183686E+03 -0.12493063212E+03 -0.61536712050E+03  0.65973237867E+03  0.25500000920E-02 0. -1.
</event>
<event>
 5   0  0.6137243E-03  0.9047800E+03  0.7818609E-02  0.9419626E-01
       -1   -1    0    0    0  501  0.00000000000E+00  0.00000000000E+00  0.17311695781E+03  0.17311695789E+03  0.50400001928E-02 0. -1.
        1   -1    0    0  501    0  0.00000000000E+00  0.00000000000E+00 -0.11821875586E+04  0.11821875586E+04  0.50400001928E-02 0.  1.
    10030    2    1    2    0    0  0.00000000000E+00  0.00000000000E+00 -0.10090706008E+04  0.13553045165E+04  0.90478000370E+03 0.  0.
        4    1    3    3  502    0  0.13720119944E+03 -0.42737079465E+03 -0.58907444647E+03  0.74059454605E+03  0.12699999809E+01 0. -1.
       -4    1    3    3    0  502 -0.13720119944E+03  0.42737079465E+03 -0.41999615434E+03  0.61470997048E+03  0.12699999809E+01 0.  1.
</event>
<event>
 5   0  0.6137243E-03  0.8971569E+03  0.7818609E-02  0.9429142E-01
        1   -1    0    0  501    0  0.00000000000E+00  0.00000000000E+00  0.98287509298E+03  0.98287509300E+03  0.50400001928E-02 0. -1.
       -1   -1    0    0    0  501  0.00000000000E+00  0.00000000000E+00 -0.20472860144E+03  0.20472860150E+03  0.50400001928E-02 0.  1.
    10030    2    1    2    0    0  0.00000000000E+00  0.00000000000E+00  0.77814649154E+03  0.11876036945E+04  0.89715693883E+03 0.  0.
        4    1    3    3  502    0  0.27524275053E+03 -0.80449385811E+02  0.84569752481E+03  0.89299305248E+03  0.12699999809E+01 0.  1.
       -4    1    3    3    0  502 -0.27524275053E+03  0.80449385811E+02 -0.67551033267E+02  0.29461064202E+03  0.12699999809E+01 0. -1.
</event>
<event>
 5   0  0.6211218E-03  0.9053001E+03  0.7818609E-02  0.9418980E-01
        1   -1    0    0  501    0  0.00000000000E+00  0.00000000000E+00  0.57896779655E+03  0.57896779657E+03  0.50400001928E-02 0. -1.
       -1   -1    0    0    0  501  0.00000000000E+00  0.00000000000E+00 -0.35389202109E+03  0.35389202112E+03  0.50400001928E-02 0.  1.
    10030    2    1    2    0    0  0.00000000000E+00  0.00000000000E+00  0.22507577546E+03  0.93285981769E+03  0.90530013519E+03 0.  0.
        5    1    3    3  502    0 -0.14452752543E+03  0.16032505575E+02 -0.32914200651E+03  0.35986358150E+03  0.46999998093E+01 0.  1.
       -5    1    3    3    0  502  0.14452752543E+03 -0.16032505575E+02  0.55421778197E+03  0.57299623619E+03  0.46999998093E+01 0. -1.
</event>
<event>
 5   0  0.6015709E-03  0.9027275E+03  0.7818609E-02  0.9422178E-01
        1   -1    0    0  501    0  0.00000000000E+00  0.00000000000E+00  0.14359420123E+04  0.14359420123E+04  0.50400001928E-02 0.  1.
       -1   -1    0    0    0  501  0.00000000000E+00  0.00000000000E+00 -0.14187844194E+03  0.14187844203E+03  0.50400001928E-02 0. -1.
    10030    2    1    2    0    0  0.00000000000E+00  0.00000000000E+00  0.12940635703E+04  0.15778204543E+04  0.90272745720E+03 0.  0.
        3    1    3    3  502    0  0.25458656125E+02  0.35672128122E+03  0.11283411276E+04  0.11836603931E+04  0.10100000352E+00 0.  1.
       -3    1    3    3    0  502 -0.25458656125E+02 -0.35672128122E+03  0.16572244269E+03  0.39416006122E+03  0.10100000352E+00 0. -1.
</event>
<event>
 5   0  0.1033749E-02  0.8827903E+03  0.7818609E-02  0.9447354E-01
        2   -1    0    0  501    0  0.00000000000E+00  0.00000000000E+00  0.26579791418E+03  0.26579791420E+03  0.25500000920E-02 0. -1.
       -2   -1    0    0    0  501  0.00000000000E+00  0.00000000000E+00 -0.73299929845E+03  0.73299929845E+03  0.25500000920E-02 0.  1.
    10030    2    1    2    0    0  0.00000000000E+00  0.00000000000E+00 -0.46720138426E+03  0.99879721265E+03  0.88279031403E+03 0.  0.
        5    1    3    3  502    0 -0.48739150123E+02  0.41243028699E+03 -0.64518962698E+02  0.42030825941E+03  0.46999998093E+01 0. -1.
       -5    1    3    3    0  502  0.48739150123E+02 -0.41243028699E+03 -0.40268242157E+03  0.57848895324E+03  0.46999998093E+01 0.  1.
</event>
<event>
 5   0  0.6211218E-03  0.9139167E+03  0.7818609E-02  0.9408350E-01
       -1   -1    0    0    0  501  0.00000000000E+00  0.00000000000E+00  0.28744943313E+03  0.28744943317E+03  0.50400001928E-02 0.  1.
        1   -1    0    0  501    0  0.00000000000E+00  0.00000000000E+00 -0.72642674553E+03  0.72642674555E+03  0.50400001928E-02 0. -1.
    10030    2    1    2    0    0  0.00000000000E+00  0.00000000000E+00 -0.43897731240E+03  0.10138761787E+04  0.91391674948E+03 0.  0.
        5    1    3    3  502    0 -0.25661864630E+03  0.32445900645E+03 -0.43478194376E+03  0.60015348463E+03  0.46999998093E+01 0. -1.
       -5    1    3    3    0  502  0.25661864630E+03 -0.32445900645E+03 -0.41953686459E+01  0.41372269410E+03  0.46999998093E+01 0.  1.
</event>
<event>
 5   0  0.1017079E-02  0.9001477E+03  0.7818609E-02  0.9425397E-01
        2   -1    0    0  501    0  0.00000000000E+00  0.00000000000E+00  0.40941325631E+03  0.40941325632E+03  0.25500000920E-02 0.  1.
       -2   -1    0    0    0  501  0.00000000000E+00  0.00000000000E+00 -0.49477261353E+03  0.49477261354E+03  0.25500000920E-02 0. -1.
    10030    2    1    2    0    0  0.00000000000E+00  0.00000000000E+00 -0.85359357223E+02  0.90418586985E+03  0.90014769198E+03 0.  0.
        1    1    3    3  502    0 -0.30602300879E+03  0.19253562791E+03  0.22656461064E+03  0.42667502006E+03  0.50400001928E-02 0.  1.
       -1    1    3    3    0  502  0.30602300879E+03 -0.19253562791E+03 -0.31192396786E+03  0.47751084980E+03  0.50400001928E-02 0. -1.
</event>
<event>
 5   0  0.6015709E-03  0.9003308E+03  0.7818609E-02  0.9425168E-01
       -1   -1    0    0    0  501  0.00000000000E+00  0.00000000000E+00  0.18270448536E+03  0.18270448543E+03  0.50400001928E-02 0. -1.
        1   -1    0    0  501    0  0.00000000000E+00  0.00000000000E+00 -0.11091621914E+04  0.11091621914E+04  0.50400001928E-02 0.  1.
    10030    2    1    2    0    0  0.00000000000E+00  0.00000000000E+00 -0.92645770606E+03  0.12918666769E+04  0.90033084456E+03 0.  0.
        3    1    3    3  502    0  0.10134582306E+03 -0.18729394812E+03 -0.10323155158E+04  0.10540518646E+04  0.10100000352E+00 0.  1.
       -3    1    3    3    0  502 -0.10134582306E+03  0.18729394812E+03  0.10585780975E+03  0.23781481228E+03  0.10100000352E+00 0. -1.
</event>
<event>
 5   0  0.6092779E-03  0.9249891E+03  0.7818609E-02  0.9394872E-01
       -1   -1    0    0    0  501  0.00000000000E+00  0.00000000000E+00  0.31130370721E+03  0.31130370725E+03  0.50400001928E-02 0.  1.
        1   -1    0    0  501    0  0.00000000000E+00  0.00000000000E+00 -0.68711417710E+03  0.68711417712E+03  0.50400001928E-02 0. -1.
    10030    2    1    2    0    0  0.00000000000E+00  0.00000000000E+00 -0.37581046989E+03  0.99841788437E+03  0.92498906077E+03 0.  0.
        2    1    3    3  502    0  0.31567300748E+03 -0.39385502900E+02 -0.55026396171E+03  0.63560293663E+03  0.25500000920E-02 0. -1.
       -2    1    3    3    0  502 -0.31567300748E+03  0.39385502900E+02  0.17445349182E+03  0.36281494774E+03  0.25500000920E-02 0.  1.
</event>
<event>
 5   0  0.3996375E-03  0.8977334E+03  0.7818609E-02  0.9428419E-01
       -3   -1    0    0    0  501  0.00000000000E+00  0.00000000000E+00  0.18426563843E+03  0.18426566611E+03  0.10100000352E+00 0.  1.
        3   -1    0    0  501    0  0.00000000000E+00  0.00000000000E+00 -0.10934283606E+04  0.10934283652E+04  0.10100000352E+00 0. -1.
    10030    2    1    2    0    0  0.00000000000E+00  0.00000000000E+00 -0.90916272213E+03  0.12776940313E+04  0.89773335818E+03 0.  0.
        3    1    3    3  502    0 -0.41438346627E+03  0.14640159680E+03 -0.58451197215E+03  0.73130112844E+03  0.10100000352E+00 0. -1.
       -3    1    3    3    0  502  0.41438346627E+03 -0.14640159680E+03 -0.32465074997E+03  0.54639290289E+03  0.10100000352E+00 0.  1.
</event>
<event>
 5   0  0.1017079E-02  0.9080107E+03  0.7818609E-02  0.9415623E-01
       -2   -1    0    0    0  501  0.00000000000E+00  0.00000000000E+00  0.38638573621E+03  0.38638573622E+03  0.25500000920E-02 0. -1.
        2   -1    0    0  501    0  0.00000000000E+00  0.00000000000E+00 -0.53345872167E+03  0.53345872168E+03  0.25500000920E-02 0.  1.
    10030    2    1    2    0    0  0.00000000000E+00  0.00000000000E+00 -0.14707298547E+03  0.91984445789E+03  0.90801066275E+03 0.  0.
        1    1    3    3  502    0 -0.99977043010E+02  0.38603638345E+03  0.14632040219E+03  0.42476953587E+03  0.50400001928E-02 0. -1.
       -1    1    3    3    0  502  0.99977043010E+02 -0.38603638345E+03 -0.29339338765E+03  0.49507492203E+03  0.50400001928E-02 0.  1.
</event>
<event>
 5   0  0.1028978E-02  0.8984669E+03  0.7818609E-02  0.9427500E-01
       -2   -1    0    0    0  501  0.00000000000E+00  0.00000000000E+00  0.51277158161E+03  0.51277158161E+03  0.25500000920E-02 0. -1.
        2   -1    0    0  501    0  0.00000000000E+00  0.00000000000E+00 -0.39356839747E+03  0.39356839747E+03  0.25500000920E-02 0.  1.
    10030    2    1    2    0    0  0.00000000000E+00  0.00000000000E+00  0.11920318414E+03  0.90633997909E+03  0.89846689343E+03 0.  0.
        3    1    3    3  502    0  0.28428846489E+03  0.17426377557E+03  0.36327586453E+03  0.49310968221E+03  0.10100000352E+00 0. -1.
       -3    1    3    3    0  502 -0.28428846489E+03 -0.17426377557E+03 -0.24407268038E+03  0.41323029687E+03  0.10100000352E+00 0.  1.
</event>
<event>
 5   0  0.1017079E-02  0.8982157E+03  0.7818609E-02  0.9427815E-01
       -2   -1    0    0    0  501  0.00000000000E+00  0.00000000000E+00  0.19848924760E+03  0.19848924762E+03  0.25500000920E-02 0.  1.
        2   -1    0    0  501    0  0.00000000000E+00  0.00000000000E+00 -0.10161650995E+04  0.10161650995E+04  0.25500000920E-02 0. -1.
    10030    2    1    2    0    0  0.00000000000E+00  0.00000000000E+00 -0.81767585185E+03  0.12146543471E+04  0.89821566685E+03 0.  0.
        1    1    3    3  502    0  0.15335486931E+03  0.19348744526E+03 -0.91616154469E+03  0.94884513142E+03  0.50400001928E-02 0. -1.
       -1    1    3    3    0  502 -0.15335486931E+03 -0.19348744526E+03  0.98485692836E+02  0.26580921567E+03  0.50400001928E-02 0.  1.
</event>
<event>
 5   0  0.1028978E-02  0.8994275E+03  0.7818609E-02  0.9426297E-01
        2   -1    0    0  501    0  0.00000000000E+00  0.00000000000E+00  0.99096210387E+03  0.99096210388E+03  0.25500000920E-02 0. -1.
       -2   -1    0    0    0  501  0.00000000000E+00  0.00000000000E+00 -0.20408698394E+03  0.20408698395E+03  0.25500000920E-02 0.  1.
    10030    2    1    2    0    0  0.00000000000E+00  0.00000000000E+00  0.78687511994E+03  0.11950490878E+04  0.89942752234E+03 0.  0.
        3    1    3    3  502    0  0.26330954018E+03  0.76944612558E+02  0.86692062715E+03  0.90928750752E+03  0.10100000352E+00 0. -1.
       -3    1    3    3    0  502 -0.26330954018E+03 -0.76944612558E+02 -0.80045507216E+02  0.28576158031E+03  0.10100000352E+00 0.  1.
</event>
<event>
 5   0  0.1003252E-02  0.9097660E+03  0.7818609E-02  0.9413455E-01
       -2   -1    0    0    0  501  0.00000000000E+00  0.00000000000E+00  0.47779817836E+03  0.47779817836E+03  0.25500000920E-02 0.  1.
        2   -1    0    0  501    0  0.00000000000E+00  0.00000000000E+00 -0.43306681763E+03  0.43306681764E+03  0.25500000920E-02 0. -1.
    10030    2    1    2    0    0  0.00000000000E+00  0.00000000000E+00  0.44731360727E+02  0.91086499600E+03  0.90976598437E+03 0.  0.
        2    1    3    3  502    0  0.35950940993E+03 -0.14091813910E+03  0.26310072695E+03  0.46725467391E+03  0.25500000920E-02 0.  1.
       -2    1    3    3    0  502 -0.35950940993E+03  0.14091813910E+03 -0.21836936623E+03  0.44361032210E+03  0.25500000920E-02 0. -1.
</event>
<event>
 5   0  0.1017079E-02  0.9151233E+03  0.7818609E-02  0.9406872E-01
       -2   -1    0    0    0  501  0.00000000000E+00  0.00000000000E+00  0.24937656959E+03  0.24937656961E+03  0.25500000920E-02 0. -1.
        2   -1    0    0  501    0  0.00000000000E+00  0.00000000000E+00 -0.83954421292E+03  0.83954421292E+03  0.25500000920E-02 0.  1.
    10030    2    1    2    0    0  0.00000000000E+00  0.00000000000E+00 -0.59016764332E+03  0.10889207825E+04  0.91512328316E+03 0.  0.
        1    1    3    3  502    0 -0.10669355518E+03 -0.12721831700E+03 -0.80243330191E+03  0.81943103367E+03  0.50400001928E-02 0.  1.
       -1    1    3    3    0  502  0.10669355518E+03  0.12721831700E+03  0.21226565859E+03  0.26948974886E+03  0.50400001928E-02 0. -1.
</event>
<event>
 5   0  0.6211218E-03  0.8955851E+03  0.7818609E-02  0.9431117E-01
        1   -1    0    0  501    0  0.00000000000E+00  0.00000000000E+00  0.10646300225E+04  0.10646300225E+04  0.50400001928E-02 0.  1.
       -1   -1    0    0    0  501  0.00000000000E+00  0.00000000000E+00 -0.18834539121E+03  0.18834539128E+03  0.50400001928E-02 0. -1.
    10030    2    1    2    0    0  0.00000000000E+00  0.00000000000E+00  0.87628463133E+03  0.12529754138E+04  0.89558507834E+03 0.  0.
        5    1    3    3  502    0  0.10256566539E+02  0.38835988443E+03  0.74962512385E+03  0.84432725486E+03  0.46999998093E+01 0.  1.
       -5    1    3    3    0  502 -0.10256566539E+02 -0.38835988443E+03  0.12665950748E+03  0.40864815896E+03  0.46999998093E+01 0. -1.
</event>
<event>
 5   0  0.6211218E-03  0.8744454E+03  0.7818609E-02  0.9458102E-01
        1   -1    0    0  501    0  0.00000000000E+00  0.00000000000E+00  0.43897464659E+03  0.43897464662E+03  0.50400001928E-02 0.  1.
       -1   -1    0    0    0  501  0.00000000000E+00  0.00000000000E+00 -0.43547769963E+03  0.43547769966E+03  0.50400001928E-02 0. -1.
    10030    2    1    2    0    0  0.00000000000E+00  0.00000000000E+00  0.34969469583E+01  0.87445234628E+03  0.87444535408E+03 0.  0.
        5    1    3    3  502    0 -0.17227382354E+03 -0.92942470877E+02  0.39267998945E+03  0.43878951365E+03  0.46999998093E+01 0.  1.
       -5    1    3    3    0  502  0.17227382354E+03  0.92942470877E+02 -0.38918304250E+03  0.43566283263E+03  0.46999998093E+01 0. -1.
</event>
<event>
 5   0  0.1003252E-02  0.8986209E+03  0.7818609E-02  0.9427307E-01
        2   -1    0    0  501    0  0.00000000000E+00  0.00000000000E+00  0.15011358941E+04  0.15011358941E+04  0.25500000920E-02 0.  1.
       -2   -1    0    0    0  501  0.00000000000E+00  0.00000000000E+00 -0.13448475062E+03  0.13448475064E+03  0.25500000920E-02 0. -1.
    10030    2    1    2    0    0  0.00000000000E+00  0.00000000000E+00  0.13666511435E+04  0.16356206447E+04  0.89862091314E+03 0.  0.
        2    1    3    3  502    0  0.21538102387E+03  0.24346894605E+03  0.12479045267E+04  0.12895471379E+04  0.25500000920E-02 0.  1.
       -2    1    3    3    0  502 -0.21538102387E+03 -0.24346894605E+03  0.11874661680E+03  0.34607350685E+03  0.25500000920E-02 0. -1.
</event>
<event>
 5   0  0.6015709E-03  0.8891814E+03  0.7818609E-02  0.9439207E-01
       -1   -1    0    0    0  501  0.00000000000E+00  0.00000000000E+00  0.41457881050E+03  0.41457881053E+03  0.50400001928E-02 0.  1.
        1   -1    0    0  501    0  0.00000000000E+00  0.00000000000E+00 -0.47677522998E+03  0.47677523000E+03  0.50400001928E-02 0. -1.
    10030    2    1    2    0    0  0.00000000000E+00  0.00000000000E+00 -0.62196419480E+02  0.89135404053E+03  0.88918143873E+03 0.  0.
        3    1    3    3  502    0  0.30886617485E+03 -0.27609899860E+03 -0.19283655822E+03  0.45696271115E+03  0.10100000352E+00 0. -1.
       -3    1    3    3    0  502 -0.30886617485E+03  0.27609899860E+03  0.13064013874E+03  0.43439132938E+03  0.10100000352E+00 0.  1.
</event>
<event>
 5   0  0.6211218E-03  0.8974351E+03  0.7818609E-02  0.9428793E-01
        1   -1    0    0  501    0  0.00000000000E+00  0.00000000000E+00  0.37718518065E+03  0.37718518068E+03  0.50400001928E-02 0.  1.
       -1   -1    0    0    0  501  0.00000000000E+00  0.00000000000E+00 -0.53381591947E+03  0.53381591950E+03  0.50400001928E-02 0. -1.
    10030    2    1    2    0    0  0.00000000000E+00  0.00000000000E+00 -0.15663073883E+03  0.91100110018E+03  0.89743513202E+03 0.  0.
        5    1    3    3  502    0 -0.70438837768E+02  0.35025266204E+03 -0.35387189696E+03  0.50287768552E+03  0.46999998093E+01 0. -1.
       -5    1    3    3    0  502  0.70438837768E+02 -0.35025266204E+03  0.19724115814E+03  0.40812341466E+03  0.46999998093E+01 0.  1.
</event>
<event>
 5   0  0.3996375E-03  0.9078428E+03  0.7818609E-02  0.9415830E-01
        4   -1    0    0  501    0  0.00000000000E+00  0.00000000000E+00  0.17028914231E+03  0.17029387801E+03  0.12699999809E+01 0. -1.
       -4   -1    0    0    0  501  0.00000000000E+00  0.00000000000E+00 -0.12099473274E+04  0.12099479940E+04  0.12699999809E+01 0.  1.
    10030    2    1    2    0    0  0.00000000000E+00  0.00000000000E+00 -0.10396581851E+04  0.13802418720E+04  0.90784276350E+03 0.  0.
        2    1    3    3  502    0 -0.24416861312E+03 -0.37456539780E+03 -0.40082249134E+03  0.60047999003E+03  0.25500000920E-02 0. -1.
       -2    1    3    3    0  502  0.24416861312E+03  0.37456539780E+03 -0.63883569379E+03  0.77976188194E+03  0.25500000920E-02 0.  1.
</event>
<event>
 5   0  0.1028978E-02  0.8996007E+03  0.7818609E-02  0.9426081E-01
        2   -1    0    0  501    0  0.00000000000E+00  0.00000000000E+00  0.72449963564E+03  0.72449963565E+03  0.25500000920E-02 0. -1.
       -2   -1    0    0    0  501  0.00000000000E+00  0.00000000000E+00 -0.27925529473E+03  0.27925529474E+03  0.25500000920E-02 0.  1.
    10030    2    1    2    0    0  0.00000000000E+00  0.00000000000E+00  0.44524434092E+03  0.10037549304E+04  0.89960070985E+03 0.  0.
        3    1    3    3  502    0  0.34748132649E+03 -0.27357331839E+03  0.13105547212E+03  0.46126042510E+03  0.10100000352E+00 0.  1.
       -3    1    3    3    0  502 -0.34748132649E+03  0.27357331839E+03  0.31418886880E+03  0.54249450529E+03  0.10100000352E+00 0. -1.
</event>
<event>
 5   0  0.6211218E-03  0.9011134E+03  0.7818609E-02  0.9424191E-01
        1   -1    0    0  501    0  0.00000000000E+00  0.00000000000E+00  0.13275647373E+04  0.13275647373E+04  0.50400001928E-02 0.  1.
       -1   -1    0    0    0  501  0.00000000000E+00  0.00000000000E+00 -0.15291258778E+03  0.15291258786E+03  0.50400001928E-02 0. -1.
    10030    2    1    2    0    0  0.00000000000E+00  0.00000000000E+00  0.11746521495E+04  0.14804773251E+04  0.90111344344E+03 0.  0.
        5    1    3    3  502    0  0.21391360730E+03 -0.38399236002E+02  0.12357072168E+04  0.12546824094E+04  0.46999998093E+01 0.  1.
       -5    1    3    3    0  502 -0.21391360730E+03  0.38399236002E+02 -0.61055067372E+02  0.22579491572E+03  0.46999998093E+01 0. -1.
</event>
<event>
 5   0  0.1003252E-02  0.9007588E+03  0.7818609E-02  0.9424633E-01
       -2   -1    0    0    0  501  0.00000000000E+00  0.00000000000E+00  0.61518567503E+03  0.61518567503E+03  0.25500000920E-02 0.  1.
        2   -1    0    0  501    0  0.00000000000E+00  0.00000000000E+00 -0.32972418820E+03  0.32972418821E+03  0.25500000920E-02 0. -1.
    10030    2    1    2    0    0  0.00000000000E+00  0.00000000000E+00  0.28546148683E+03  0.94490986324E+03  0.90075878524E+03 0.  0.
        2    1    3    3  502    0 -0.31292245130E+03  0.13696919473E+03 -0.16518803399E+03  0.37943129472E+03  0.25500000920E-02 0. -1.
       -2    1    3    3    0  502  0.31292245130E+03 -0.13696919473E+03  0.45064952082E+03  0.56547856852E+03  0.25500000920E-02 0.  1.
</event>
<event>
 5   0  0.6288003E-03  0.8799504E+03  0.7818609E-02  0.9450997E-01
        1   -1    0    0  501    0  0.00000000000E+00  0.00000000000E+00  0.66142480393E+03  0.66142480395E+03  0.50400001928E-02 0.  1.
       -1   -1    0    0    0  501  0.00000000000E+00  0.00000000000E+00 -0.29266845126E+03  0.29266845130E+03  0.50400001928E-02 0. -1.
    10030    2    1    2    0    0  0.00000000000E+00  0.00000000000E+00  0.36875635267E+03  0.95409325526E+03  0.87995039183E+03 0.  0.
        1    1    3    3  502    0  0.12936364982E+03  0.34733882897E+02  0.63878031379E+03  0.65267272490E+03  0.50400001928E-02 0.  1.
       -1    1    3    3    0  502 -0.12936364982E+03 -0.34733882897E+02 -0.27002396112E+03  0.30142053036E+03  0.50400001928E-02 0. -1.
</event>
<event>
 5   0  0.3996375E-03  0.9185006E+03  0.7818609E-02  0.9402746E-01
        3   -1    0    0  501    0  0.00000000000E+00  0.00000000000E+00  0.71892995758E+03  0.71892996468E+03  0.10100000352E+00 0.  1.
       -3   -1    0    0    0  501  0.00000000000E+00  0.00000000000E+00 -0.29336768659E+03  0.29336770397E+03  0.10100000352E+00 0. -1.
    10030    2    1    2    0    0  0.00000000000E+00  0.00000000000E+00  0.42556227099E+03  0.10122976687E+04  0.91850058436E+03 0.  0.
        1    1    3    3  502    0 -0.62365415204E+02 -0.91477605588E+02 -0.27843951849E+03  0.29964339275E+03  0.50400001928E-02 0. -1.
       -1    1    3    3    0  502  0.62365415204E+02  0.91477605588E+02  0.70400178948E+03  0.71265427590E+03  0.50400001928E-02 0.  1.
</event>
<event>
 5   0  0.1028978E-02  0.8979654E+03  0.7818609E-02  0.9428128E-01
       -2   -1    0    0    0  501  0.00000000000E+00  0.00000000000E+00  0.14256618171E+03  0.14256618174E+03  0.25500000920E-02 0.  1.
        2   -1    0    0  501    0  0.00000000000E+00  0.00000000000E+00 -0.14139781005E+04  0.14139781005E+04  0.25500000920E-02 0. -1.
    10030    2    1    2    0    0  0.00000000000E+00  0.00000000000E+00 -0.12714119188E+04  0.15565442822E+04  0.89796538650E+03 0.  0.
        3    1    3    3  502    0 -0.59178756352E+02 -0.25439216981E+03 -0.26711122484E+01  0.26119848067E+03  0.10100000352E+00 0.  1.
       -3    1    3    3    0  502  0.59178756352E+02  0.25439216981E+03 -0.12687408065E+04  0.12953458016E+04  0.10100000352E+00 0. -1.
</event>
<event>
 5   0  0.6092779E-03  0.8936975E+03  0.7818609E-02  0.9433494E-01
        1   -1    0    0  501    0  0.00000000000E+00  0.00000000000E+00  0.24059920184E+03  0.24059920190E+03  0.50400001928E-02 0.  1.
       -1   -1    0    0    0  501  0.00000000000E+00  0.00000000000E+00 -0.82990211390E+03  0.82990211392E+03  0.50400001928E-02 0. -1.
    10030    2    1    2    0    0  0.00000000000E+00  0.00000000000E+00 -0.58930291206E+03  0.10705013158E+04  0.89369745720E+03 0.  0.
        2    1    3    3  502    0  0.80436915864E+02 -0.39448272072E+03 -0.52688017704E+03  0.66309081983E+03  0.25500000920E-02 0. -1.
       -2    1    3    3    0  502 -0.80436915864E+02  0.39448272072E+03 -0.62422735016E+02  0.40741049598E+03  0.25500000920E-02 0.  1.
</event>
<event>
 5   0  0.6015709E-03  0.9272821E+03  0.7818609E-02  0.9392106E-01
       -1   -1    0    0    0  501  0.00000000000E+00  0.00000000000E+00  0.71141959456E+03  0.71141959458E+03  0.50400001928E-02 0. -1.
        1   -1    0    0  501    0  0.00000000000E+00  0.00000000000E+00 -0.30216070061E+03  0.30216070065E+03  0.50400001928E-02 0.  1.
    10030    2    1    2    0    0  0.00000000000E+00  0.00000000000E+00  0.40925889395E+03  0.10135802952E+04  0.92728214293E+03 0.  0.
        3    1    3    3  502    0 -0.16048120911E+02  0.37407114587E+03 -0.94272096242E+02  0.38610102653E+03  0.10100000352E+00 0.  1.
       -3    1    3    3    0  502  0.16048120911E+02 -0.37407114587E+03  0.50353099019E+03  0.62747926869E+03  0.10100000352E+00 0. -1.
</event>
<event>
 5   0  0.6211218E-03  0.9080748E+03  0.7818609E-02  0.9415543E-01
        1   -1    0    0  501    0  0.00000000000E+00  0.00000000000E+00  0.29781227196E+03  0.29781227200E+03  0.50400001928E-02 0.  1.
       -1   -1    0    0    0  501  0.00000000000E+00  0.00000000000E+00 -0.69221453466E+03  0.69221453468E+03  0.50400001928E-02 0. -1.
    10030    2    1    2    0    0  0.00000000000E+00  0.00000000000E+00 -0.39440226270E+03  0.99002680667E+03  0.90807484995E+03 0.  0.
        5    1    3    3  502    0  0.19212573272E+03  0.16670110786E+03 -0.60720735828E+03  0.65834977214E+03  0.46999998093E+01 0. -1.
       -5    1    3    3    0  502 -0.19212573272E+03 -0.16670110786E+03  0.21280509558E+03  0.33167703453E+03  0.46999998093E+01 0.  1.
</event>
<event>
 5   0  0.6092779E-03  0.9070127E+03  0.7818609E-02  0.9416857E-01
       -1   -1    0    0    0  501  0.00000000000E+00  0.00000000000E+00  0.14556370405E+03  0.14556370414E+03  0.50400001928E-02 0. -1.
        1   -1    0    0  501    0  0.00000000000E+00  0.00000000000E+00 -0.14129072485E+04  0.14129072485E+04  0.50400001928E-02 0.  1.
    10030    2    1    2    0    0  0.00000000000E+00  0.00000000000E+00 -0.12673435444E+04  0.15584709526E+04  0.90701270696E+03 0.  0.
        2    1    3    3  502    0 -0.10672856684E+03 -0.37451804722E+03 -0.10330050727E+04  0.11039720263E+04  0.25500000920E-02 0.  1.
       -2    1    3    3    0  502  0.10672856684E+03  0.37451804722E+03 -0.23433847173E+03  0.45449892631E+03  0.25500000920E-02 0. -1.
</event>
<event>
 5   0  0.1041727E-02  0.9031323E+03  0.7818609E-02  0.9421674E-01
        2   -1    0    0  501    0  0.00000000000E+00  0.00000000000E+00  0.25536025931E+03  0.25536025932E+03  0.25500000920E-02 0. -1.
       -2   -1    0    0    0  501  0.00000000000E+00  0.00000000000E+00 -0.79852665513E+03  0.79852665513E+03  0.25500000920E-02 0.  1.
    10030    2    1    2    0    0  0.00000000000E+00  0.00000000000E+00 -0.54316639582E+03  0.10538869145E+04  0.90313226878E+03 0.  0.
        4    1    3    3  502    0  0.41477605275E+03 -0.22499709971E+02 -0.47824725539E+03  0.63345675548E+03  0.12699999809E+01 0.  1.
       -4    1    3    3    0  502 -0.41477605275E+03  0.22499709971E+02 -0.64919140434E+02  0.42043015897E+03  0.12699999809E+01 0. -1.
</event>
<event>
 5   0  0.6137243E-03  0.8997867E+03  0.7818609E-02  0.9425848E-01
       -1   -1    0    0    0  501  0.00000000000E+00  0.00000000000E+00  0.11822721647E+03  0.11822721658E+03  0.50400001928E-02 0. -1.
        1   -1    0    0  501    0  0.00000000000E+00  0.00000000000E+00 -0.17119917127E+04  0.17119917128E+04  0.50400001928E-02 0.  1.
    10030    2    1    2    0    0  0.00000000000E+00  0.00000000000E+00 -0.15937644963E+04  0.18302189293E+04  0.89978667454E+03 0.  0.
        4    1    3    3  502    0 -0.48033221229E+02  0.26286832930E+03 -0.15330751001E+04  0.15561901633E+04  0.12699999809E+01 0.  1.
       -4    1    3    3    0  502  0.48033221229E+02 -0.26286832930E+03 -0.60689396137E+02  0.27402876599E+03  0.12699999809E+01 0. -1.
</event>
<event>
 5   0  0.6015709E-03  0.9121835E+03  0.7818609E-02  0.9410478E-01
        1   -1    0    0  501    0  0.00000000000E+00  0.00000000000E+00  0.51233354114E+03  0.51233354117E+03  0.50400001928E-02 0. -1.
       -1   -1    0    0    0  501  0.00000000000E+00  0.00000000000E+00 -0.40602394900E+03  0.40602394904E+03  0.50400001928E-02 0.  1.
    10030    2    1    2    0    0  0.00000000000E+00  0.00000000000E+00  0.10630959214E+03  0.91835749020E+03  0.91218350700E+03 0.  0.
        3    1    3    3  502    0  0.37663636243E+03  0.19205242508E+03  0.22542870091E+03  0.47912127157E+03  0.10100000352E+00 0. -1.
       -3    1    3    3    0  502 -0.37663636243E+03 -0.19205242508E+03 -0.11911910877E+03  0.43923621863E+03  0.10100000352E+00 0.  1.
</event>
<event>
 5   0  0.3996375E-03  0.7575344E+03  0.7818609E-02  0.9623604E-01
        4   -1    0    0  501    0  0.00000000000E+00  0.00000000000E+00  0.42026625016E+03  0.42026816906E+03  0.12699999809E+01 0. -1.
       -4   -1    0    0    0  501  0.00000000000E+00  0.00000000000E+00 -0.34136208438E+03  0.34136444681E+03  0.12699999809E+01 0.  1.
    10030    2    1    2    0    0  0.00000000000E+00  0.00000000000E+00  0.78904165787E+02  0.76163261587E+03  0.75753440462E+03 0.  0.
        1    1    3    3  502    0 -0.12927389853E+03  0.10660841133E+03  0.38097712437E+03  0.41619786583E+03  0.50400001928E-02 0. -1.
       -1    1    3    3    0  502  0.12927389853E+03 -0.10660841133E+03 -0.30207295858E+03  0.34543475004E+03  0.50400001928E-02 0.  1.
</event>
<event>
 5   0  0.1017079E-02  0.8986072E+03  0.7818609E-02  0.9427324E-01
       -2   -1    0    0    0  501  0.00000000000E+00  0.00000000000E+00  0.31342309960E+03  0.31342309961E+03  0.25500000920E-02 0. -1.
        2   -1    0    0  501    0  0.00000000000E+00  0.00000000000E+00 -0.64409335664E+03  0.64409335665E+03  0.25500000920E-02 0.  1.
    10030    2    1    2    0    0  0.00000000000E+00  0.00000000000E+00 -0.33067025704E+03  0.95751645625E+03  0.89860722515E+03 0.  0.
        1    1    3    3  502    0 -0.42225923323E+03 -0.15343087037E+03 -0.17115624745E+03  0.48076850260E+03  0.50400001928E-02 0.  1.
       -1    1    3    3    0  502  0.42225923323E+03  0.15343087037E+03 -0.15951400959E+03  0.47674795365E+03  0.50400001928E-02 0. -1.
</event>
<event>
 5   0  0.1028978E-02  0.8026113E+03  0.7818609E-02  0.9556245E-01
       -2   -1    0    0    0  501  0.00000000000E+00  0.00000000000E+00  0.93227974407E+02  0.93227974441E+02  0.25500000920E-02 0.  1.
        2   -1    0    0  501    0  0.00000000000E+00  0.00000000000E+00 -0.17274453364E+04  0.17274453364E+04  0.25500000920E-02 0. -1.
    10030    2    1    2    0    0  0.00000000000E+00  0.00000000000E+00 -0.16342173620E+04  0.18206733108E+04  0.80261131227E+03 0.  0.
        3    1    3    3  502    0  0.35504722903E+03 -0.60233200391E+02 -0.41539897384E+03  0.54976621480E+03  0.10100000352E+00 0.  1.
       -3    1    3    3    0  502 -0.35504722903E+03  0.60233200391E+02 -0.12188183882E+04  0.12709070960E+04  0.10100000352E+00 0. -1.
</event>
<event>
 5   0  0.1028978E-02  0.8979861E+03  0.7818609E-02  0.9428102E-01
       -2   -1    0    0    0  501  0.00000000000E+00  0.00000000000E+00  0.19172573223E+03  0.19172573224E+03  0.25500000920E-02 0.  1.
        2   -1    0    0  501    0  0.00000000000E+00  0.00000000000E+00 -0.10514747505E+04  0.10514747505E+04  0.25500000920E-02 0. -1.
    10030    2    1    2    0    0  0.00000000000E+00  0.00000000000E+00 -0.85974901827E+03  0.12432004827E+04  0.89798611675E+03 0.  0.
        3    1    3    3  502    0 -0.13764327709E+03  0.15609002677E+03 -0.98067131325E+03  0.10025098518E+04  0.10100000352E+00 0. -1.
       -3    1    3    3    0  502  0.13764327709E+03 -0.15609002677E+03  0.12092229498E+03  0.24069063091E+03  0.10100000352E+00 0.  1.
</event>
<event>
 5   0  0.6137243E-03  0.8915946E+03  0.7818609E-02  0.9436150E-01
        1   -1    0    0  501    0  0.00000000000E+00  0.00000000000E+00  0.90976535598E+03  0.90976535599E+03  0.50400001928E-02 0. -1.
       -1   -1    0    0    0  501  0.00000000000E+00  0.00000000000E+00 -0.21844670735E+03  0.21844670741E+03  0.50400001928E-02 0.  1.
    10030    2    1    2    0    0  0.00000000000E+00  0.00000000000E+00  0.69131864862E+03  0.11282120634E+04  0.89159463102E+03 0.  0.
        4    1    3    3  502    0 -0.17584745691E+03  0.14073800354E+03 -0.14115146702E+03  0.26580982541E+03  0.12699999809E+01 0.  1.
       -4    1    3    3    0  502  0.17584745691E+03 -0.14073800354E+03  0.83247011565E+03  0.86240223799E+03  0.12699999809E+01 0. -1.
</event>
<event>
 5   0  0.1017079E-02  0.9205293E+03  0.7818609E-02  0.9400277E-01
       -2   -1    0    0    0  501  0.00000000000E+00  0.00000000000E+00  0.12079520368E+03  0.12079520371E+03  0.25500000920E-02 0.  1.
        2   -1    0    0  501    0  0.00000000000E+00  0.00000000000E+00 -0.17537412941E+04  0.17537412941E+04  0.25500000920E-02 0. -1.
    10030    2    1    2    0    0  0.00000000000E+00  0.00000000000E+00 -0.16329460904E+04  0.18745364978E+04  0.92052927567E+03 0.  0.
        1    1    3    3  502    0  0.92810845674E+02  0.42514798644E+03 -0.51116126178E+03  0.67130507150E+03  0.50400001928E-02 0. -1.
       -1    1    3    3    0  502 -0.92810845674E+02 -0.42514798644E+03 -0.11217848286E+04  0.12032314263E+04  0.50400001928E-02 0.  1.
</event>
<event>
 5   0  0.6092779E-03  0.9062520E+03  0.7818609E-02  0.9417800E-01
       -1   -1    0    0    0  501  0.00000000000E+00  0.00000000000E+00  0.34461824118E+03  0.34461824122E+03  0.50400001928E-02 0.  1.
        1   -1    0    0  501    0  0.00000000000E+00  0.00000000000E+00 -0.59579885229E+03  0.59579885231E+03  0.50400001928E-02 0. -1.
    10030    2    1    2    0    0  0.00000000000E+00  0.00000000000E+00 -0.25118061111E+03  0.94041709353E+03  0.90625195746E+03 0.  0.
        2    1    3    3  502    0  0.32520373127E+03  0.29369123365E+03 -0.24531376700E+03  0.50218607292E+03  0.25500000920E-02 0. -1.
       -2    1    3    3    0  502 -0.32520373127E+03 -0.29369123365E+03 -0.58668441046E+01  0.43823102060E+03  0.25500000920E-02 0.  1.
</event>
<event>
 5   0  0.6288003E-03  0.8968468E+03  0.7818609E-02  0.9429532E-01
       -1   -1    0    0    0  501  0.00000000000E+00  0.00000000000E+00  0.97588092650E+03  0.97588092651E+03  0.50400001928E-02 0.  1.
        1   -1    0    0  501    0  0.00000000000E+00  0.00000000000E+00 -0.20605335011E+03  0.20605335017E+03  0.50400001928E-02 0. -1.
    10030    2    1    2    0    0  0.00000000000E+00  0.00000000000E+00  0.76982757639E+03  0.11819342767E+04  0.89684677456E+03 0.  0.
        1    1    3    3  502    0  0.27564033394E+03  0.15661138974E+03  0.80286763836E+03  0.86319242689E+03  0.50400001928E-02 0.  1.
       -1    1    3    3    0  502 -0.27564033394E+03 -0.15661138974E+03 -0.33040061972E+02  0.31874184979E+03  0.50400001928E-02 0. -1.
</event>
<event>
 5   0  0.6211218E-03  0.8989235E+03  0.7818609E-02  0.9426928E-01
        1   -1    0    0  501    0  0.00000000000E+00  0.00000000000E+00  0.42426821207E+03  0.42426821210E+03  0.50400001928E-02 0. -1.
       -1   -1    0    0    0  501  0.00000000000E+00  0.00000000000E+00 -0.47615129153E+03  0.47615129155E+03  0.50400001928E-02 0.  1.
    10030    2    1    2    0    0  0.00000000000E+00  0.00000000000E+00 -0.51883079457E+02  0.90041950365E+03  0.89892348318E+03 0.  0.
        5    1    3    3  502    0 -0.68766285978E+02 -0.34219478512E+03  0.25766867166E+03  0.43386784555E+03  0.46999998093E+01 0. -1.
       -5    1    3    3    0  502  0.68766285978E+02  0.34219478512E+03 -0.30955175112E+03  0.46655165810E+03  0.46999998093E+01 0.  1.
</event>
<event>
 5   0  0.1003252E-02  0.9071616E+03  0.7818609E-02  0.9416673E-01
       -2   -1    0    0    0  501  0.00000000000E+00  0.00000000000E+00  0.22458439205E+03  0.22458439206E+03  0.25500000920E-02 0.  1.
        2   -1    0    0  501    0  0.00000000000E+00  0.00000000000E+00 -0.91607237903E+03  0.91607237903E+03  0.25500000920E-02 0. -1.
    10030    2    1    2    0    0  0.00000000000E+00  0.00000000000E+00 -0.69148798698E+03  0.11406567711E+04  0.90716163571E+03 0.  0.
        2    1    3    3  502    0  0.31655954172E+03  0.61388956918E+02  0.55355836471E+02  0.32717398448E+03  0.25500000920E-02 0.  1.
       -2    1    3    3    0  502 -0.31655954172E+03 -0.61388956918E+02 -0.74684382345E+03  0.81348278661E+03  0.25500000920E-02 0. -1.
</event>
<event>
 5   0  0.1017079E-02  0.9014997E+03  0.7818609E-02  0.9423709E-01
       -2   -1    0    0    0  501  0.00000000000E+00  0.00000000000E+00  0.44603283652E+03  0.44603283653E+03  0.25500000920E-02 0.  1.
        2   -1    0    0  501    0  0.00000000000E+00  0.00000000000E+00 -0.45551678907E+03  0.45551678908E+03  0.25500000920E-02 0. -1.
    10030    2    1    2    0    0  0.00000000000E+00  0.00000000000E+00 -0.94839525476E+01  0.90154962560E+03  0.90149974047E+03 0.  0.
        1    1    3    3  502    0 -0.21529662793E+03  0.60256497348E+02 -0.39616108217E+03  0.45489239005E+03  0.50400001928E-02 0. -1.
       -1    1    3    3    0  502  0.21529662793E+03 -0.60256497348E+02  0.38667712963E+03  0.44665723555E+03  0.50400001928E-02 0.  1.
</event>
<event>
 5   0  0.1033749E-02  0.8765975E+03  0.7818609E-02  0.9455318E-01
        2   -1    0    0  501    0  0.00000000000E+00  0.00000000000E+00  0.14973223753E+03  0.14973223755E+03  0.25500000920E-02 0. -1.
       -2   -1    0    0    0  501  0.00000000000E+00  0.00000000000E+00 -0.12829954798E+04  0.12829954798E+04  0.25500000920E-02 0.  1.
    10030    2    1    2    0    0  0.00000000000E+00  0.00000000000E+00 -0.11332632423E+04  0.14327277173E+04  0.87659747649E+03 0.  0.
        5    1    3    3  502    0  0.37178551717E+03  0.20307431518E+03 -0.75024059784E+03  0.86159543459E+03  0.46999998093E+01 0.  1.
       -5    1    3    3    0  502 -0.37178551717E+03 -0.20307431518E+03 -0.38302264443E+03  0.57113228276E+03  0.46999998093E+01 0. -1.
</event>
<event>
 5   0  0.3996375E-03  0.9714195E+03  0.7818609E-02  0.9340459E-01
        3   -1    0    0  501    0  0.00000000000E+00  0.00000000000E+00  0.47170238841E+03  0.47170239922E+03  0.10100000352E+00 0.  1.
       -3   -1    0    0    0  501  0.00000000000E+00  0.00000000000E+00 -0.50013308152E+03  0.50013309172E+03  0.10100000352E+00 0. -1.
    10030    2    1    2    0    0  0.00000000000E+00  0.00000000000E+00 -0.28430693116E+02  0.97183549094E+03  0.97141953714E+03 0.  0.
        4    1    3    3  502    0  0.29942659834E+03 -0.38046510471E+03  0.24561832114E+02  0.48478333324E+03  0.12699999809E+01 0. -1.
       -4    1    3    3    0  502 -0.29942659834E+03  0.38046510471E+03 -0.52992525230E+02  0.48705215770E+03  0.12699999809E+01 0.  1.
</event>
<event>
 5   0  0.3996375E-03  0.8994134E+03  0.7818609E-02  0.9426315E-01
       -4   -1    0    0    0  501  0.00000000000E+00  0.00000000000E+00  0.18219080981E+03  0.18219523616E+03  0.12699999809E+01 0. -1.
        4   -1    0    0  501    0  0.00000000000E+00  0.00000000000E+00 -0.11100054945E+04  0.11100062210E+04  0.12699999809E+01 0.  1.
    10030    2    1    2    0    0  0.00000000000E+00  0.00000000000E+00 -0.92781468470E+03  0.12922014572E+04  0.89941342932E+03 0.  0.
        4    1    3    3  502    0 -0.16308569242E+03 -0.25510242862E+03 -0.94162413772E+03  0.98910657757E+03  0.12699999809E+01 0.  1.
       -4    1    3    3    0  502  0.16308569242E+03  0.25510242862E+03  0.13809453019E+02  0.30309487962E+03  0.12699999809E+01 0. -1.
</event>
<event>
 5   0  0.1041727E-02  0.8991690E+03  0.7818609E-02  0.9426621E-01
       -2   -1    0    0    0  501  0.00000000000E+00  0.00000000000E+00  0.40288720457E+03  0.40288720458E+03  0.25500000920E-02 0.  1.
        2   -1    0    0  501    0  0.00000000000E+00  0.00000000000E+00 -0.50169428434E+03  0.50169428435E+03  0.25500000920E-02 0. -1.
    10030    2    1    2    0    0  0.00000000000E+00  0.00000000000E+00 -0.98807079769E+02  0.90458148892E+03  0.89916896693E+03 0.  0.
        4    1    3    3  502    0  0.34134938251E+03  0.24839131429E+03 -0.20495298398E+03  0.46928134898E+03  0.12699999809E+01 0.  1.
       -4    1    3    3    0  502 -0.34134938251E+03 -0.24839131429E+03  0.10614590421E+03  0.43530013995E+03  0.12699999809E+01 0. -1.
</event>
<event>
 5   0  0.1017079E-02  0.9003853E+03  0.7818609E-02  0.9425100E-01
       -2   -1    0    0    0  501  0.00000000000E+00  0.00000000000E+00  0.19021016476E+03  0.19021016478E+03  0.25500000920E-02 0.  1.
        2   -1    0    0  501    0  0.00000000000E+00  0.00000000000E+00 -0.10655235253E+04  0.10655235253E+04  0.25500000920E-02 0. -1.
    10030    2    1    2    0    0  0.00000000000E+00  0.00000000000E+00 -0.87531336049E+03  0.12557336900E+04  0.90038526267E+03 0.  0.
        1    1    3    3  502    0  0.31813436058E+03 -0.22872008399E+03 -0.74685391369E+03  0.84339380875E+03  0.50400001928E-02 0. -1.
       -1    1    3    3    0  502 -0.31813436058E+03  0.22872008399E+03 -0.12845944680E+03  0.41233988129E+03  0.50400001928E-02 0.  1.
</event>
<event>
 5   0  0.6288003E-03  0.8980303E+03  0.7818609E-02  0.9428047E-01
       -1   -1    0    0    0  501  0.00000000000E+00  0.00000000000E+00  0.23384703968E+03  0.23384703974E+03  0.50400001928E-02 0.  1.
        1   -1    0    0  501    0  0.00000000000E+00  0.00000000000E+00 -0.86216439294E+03  0.86216439296E+03  0.50400001928E-02 0. -1.
    10030    2    1    2    0    0  0.00000000000E+00  0.00000000000E+00 -0.62831735326E+03  0.10960114327E+04  0.89803026908E+03 0.  0.
        1    1    3    3  502    0  0.82248447819E+02 -0.96794431895E+02 -0.83978049058E+03  0.84933223275E+03  0.50400001928E-02 0. -1.
       -1    1    3    3    0  502 -0.82248447819E+02  0.96794431895E+02  0.21146313732E+03  0.24667919994E+03  0.50400001928E-02 0.  1.
</event>
<event>
 5   0  0.6211218E-03  0.8944445E+03  0.7818609E-02  0.9432553E-01
       -1   -1    0    0    0  501  0.00000000000E+00  0.00000000000E+00  0.27431664563E+03  0.27431664568E+03  0.50400001928E-02 0.  1.
        1   -1    0    0  501    0  0.00000000000E+00  0.00000000000E+00 -0.72911272812E+03  0.72911272814E+03  0.50400001928E-02 0. -1.
    10030    2    1    2    0    0  0.00000000000E+00  0.00000000000E+00 -0.45479608249E+03  0.10034293738E+04  0.89444453802E+03 0.  0.
        5    1    3    3  502    0  0.34720265898E+03  0.35896603168E+02  0.86212537001E+02  0.35957328051E+03  0.46999998093E+01 0.  1.
       -5    1    3    3    0  502 -0.34720265898E+03 -0.35896603168E+02 -0.54100861950E+03  0.64385609331E+03  0.46999998093E+01 0. -1.
</event>
<event>
 5   0  0.1033749E-02  0.8948690E+03  0.7818609E-02  0.9432018E-01
       -2   -1    0    0    0  501  0.00000000000E+00  0.00000000000E+00  0.18464362806E+03  0.18464362808E+03  0.25500000920E-02 0.  1.
        2   -1    0    0  501    0  0.00000000000E+00  0.00000000000E+00 -0.10842379756E+04  0.10842379756E+04  0.25500000920E-02 0. -1.
    10030    2    1    2    0    0  0.00000000000E+00  0.00000000000E+00 -0.89959434754E+03  0.12688816037E+04  0.89486900384E+03 0.  0.
        5    1    3    3  502    0 -0.94316506451E+02  0.33992501208E+03 -0.59587286033E+02  0.35779512557E+03  0.46999998093E+01 0.  1.
       -5    1    3    3    0  502  0.94316506451E+02 -0.33992501208E+03 -0.84000706151E+03  0.91108647812E+03  0.46999998093E+01 0. -1.
</event>
<event>
 5   0  0.1033749E-02  0.9246143E+03  0.7818609E-02  0.9395325E-01
       -2   -1    0    0    0  501  0.00000000000E+00  0.00000000000E+00  0.27663030483E+03  0.27663030484E+03  0.25500000920E-02 0.  1.
        2   -1    0    0  501    0  0.00000000000E+00  0.00000000000E+00 -0.77261195527E+03  0.77261195527E+03  0.25500000920E-02 0. -1.
    10030    2    1    2    0    0  0.00000000000E+00  0.00000000000E+00 -0.49598165044E+03  0.10492422601E+04  0.92461425623E+03 0.  0.
        5    1    3    3  502    0  0.25636490264E+03 -0.32584124281E+03 -0.15954011873E+02  0.41493625934E+03  0.46999998093E+01 0.  1.
       -5    1    3    3    0  502 -0.25636490264E+03  0.32584124281E+03 -0.48002763857E+03  0.63430600077E+03  0.46999998093E+01 0. -1.
</event>
<event>
 5   0  0.1033749E-02  0.9073877E+03  0.7818609E-02  0.9416393E-01
       -2   -1    0    0    0  501  0.00000000000E+00  0.00000000000E+00  0.41254705519E+03  0.41254705520E+03  0.25500000920E-02 0. -1.
        2   -1    0    0  501    0  0.00000000000E+00  0.00000000000E+00 -0.49894456737E+03  0.49894456738E+03  0.25500000920E-02 0.  1.
    10030    2    1    2    0    0  0.00000000000E+00  0.00000000000E+00 -0.86397512179E+02  0.91149162257E+03  0.90738770540E+03 0.  0.
        5    1    3    3  502    0  0.23314048172E+03  0.29300707903E+03  0.21410106202E+03  0.43135714592E+03  0.46999998093E+01 0. -1.
       -5    1    3    3    0  502 -0.23314048172E+03 -0.29300707903E+03 -0.30049857420E+03  0.48013447666E+03  0.46999998093E+01 0.  1.
</event>
<event>
 5   0  0.1041727E-02  0.8932203E+03  0.7818609E-02  0.9434096E-01
        2   -1    0    0  501    0  0.00000000000E+00  0.00000000000E+00  0.59191956065E+03  0.59191956066E+03  0.25500000920E-02 0.  1.
       -2   -1    0    0    0  501  0.00000000000E+00  0.00000000000E+00 -0.33697250303E+03  0.33697250304E+03  0.25500000920E-02 0. -1.
    10030    2    1    2    0    0  0.00000000000E+00  0.00000000000E+00  0.25494705762E+03  0.92889206370E+03  0.89322027732E+03 0.  0.
        4    1    3    3  502    0 -0.29447013097E+03 -0.11768205778E+03  0.45451200356E+03  0.55420618819E+03  0.12699999809E+01 0.  1.
       -4    1    3    3    0  502  0.29447013097E+03  0.11768205778E+03 -0.19956494594E+03  0.37468587550E+03  0.12699999809E+01 0. -1.
</event>
<event>
 5   0  0.1041727E-02  0.8977287E+03  0.7818609E-02  0.9428425E-01
       -2   -1    0    0    0  501  0.00000000000E+00  0.00000000000E+00  0.64363269437E+03  0.64363269438E+03  0.25500000920E-02 0. -1.
        2   -1    0    0  501    0  0.00000000000E+00  0.00000000000E+00 -0.31303444544E+03  0.31303444545E+03  0.25500000920E-02 0.  1.
    10030    2    1    2    0    0  0.00000000000E+00  0.00000000000E+00  0.33059824893E+03  0.95666713983E+03  0.89772869745E+03 0.  0.
        4    1    3    3  502    0 -0.38614304910E+03  0.19859920929E+03  0.28647228948E+03  0.52020773335E+03  0.12699999809E+01 0.  1.
       -4    1    3    3    0  502  0.38614304910E+03 -0.19859920929E+03  0.44125959453E+02  0.43645940647E+03  0.12699999809E+01 0. -1.
</event>
<event>
 5   0  0.6211218E-03  0.8988329E+03  0.7818609E-02  0.9427041E-01
        1   -1    0    0  501    0  0.00000000000E+00  0.00000000000E+00  0.54288443819E+03  0.54288443821E+03  0.50400001928E-02 0. -1.
       -1   -1    0    0    0  501  0.00000000000E+00  0.00000000000E+00 -0.37204081129E+03  0.37204081132E+03  0.50400001928E-02 0.  1.
    10030    2    1    2    0    0  0.00000000000E+00  0.00000000000E+00  0.17084362691E+03  0.91492524953E+03  0.89883294743E+03 0.  0.
        5    1    3    3  502    0 -0.22998044447E+03 -0.32903568982E+03 -0.12017854497E+03  0.41907095185E+03  0.46999998093E+01 0.  1.
       -5    1    3    3    0  502  0.22998044447E+03  0.32903568982E+03  0.29102217188E+03  0.49585429769E+03  0.46999998093E+01 0. -1.
</event>
<event>
 5   0  0.1028978E-02  0.8732846E+03  0.7818609E-02  0.9459607E-01
        2   -1    0    0  501    0  0.00000000000E+00  0.00000000000E+00  0.43364510738E+03  0.43364510739E+03  0.25500000920E-02 0. -1.
       -2   -1    0    0    0  501  0.00000000000E+00  0.00000000000E+00 -0.43966024057E+03  0.43966024057E+03  0.25500000920E-02 0.  1.
    10030    2    1    2    0    0  0.00000000000E+00  0.00000000000E+00 -0.60151331818E+01  0.87330534796E+03  0.87328463227E+03 0.  0.
        3    1    3    3  502    0  0.28089685806E+03  0.61014795045E+02 -0.33169553007E+03  0.43891660364E+03  0.10100000352E+00 0.  1.
       -3    1    3    3    0  502 -0.28089685806E+03 -0.61014795045E+02  0.32568039688E+03  0.43438874433E+03  0.10100000352E+00 0. -1.
</event>
<event>
 5   0  0.1003252E-02  0.9384986E+03  0.7818609E-02  0.9378696E-01
       -2   -1    0    0    0  501  0.00000000000E+00  0.00000000000E+00  0.26959601001E+03  0.26959601002E+03  0.25500000920E-02 0.  1.
        2   -1    0    0  501    0  0.00000000000E+00  0.00000000000E+00 -0.81675875361E+03  0.81675875362E+03  0.25500000920E-02 0. -1.
    10030    2    1    2    0    0  0.00000000000E+00  0.00000000000E+00 -0.54716274360E+03  0.10863547636E+04  0.93849859057E+03 0.  0.
        2    1    3    3  502    0 -0.46350467896E+03 -0.60751690141E+02 -0.22631231468E+03  0.51936944371E+03  0.25500000920E-02 0. -1.
       -2    1    3    3    0  502  0.46350467896E+03  0.60751690141E+02 -0.32085042892E+03  0.56698531994E+03  0.25500000920E-02 0.  1.
</event>
<event>
 5   0  0.6015709E-03  0.9040042E+03  0.7818609E-02  0.9420590E-01
       -1   -1    0    0    0  501  0.00000000000E+00  0.00000000000E+00  0.95952457536E+03  0.95952457538E+03  0.50400001928E-02 0.  1.
        1   -1    0    0  501    0  0.00000000000E+00  0.00000000000E+00 -0.21292410741E+03  0.21292410747E+03  0.50400001928E-02 0. -1.
    10030    2    1    2    0    0  0.00000000000E+00  0.00000000000E+00  0.74660046795E+03  0.11724486828E+04  0.90400423405E+03 0.  0.
        3    1    3    3  502    0  0.79704600203E+02  0.41013813009E+03  0.59696231453E+03  0.72864952083E+03  0.10100000352E+00 0.  1.
       -3    1    3    3    0  502 -0.79704600203E+02 -0.41013813009E+03  0.14963815342E+03  0.44379916202E+03  0.10100000352E+00 0. -1.
</event>
<event>
 5   0  0.1033749E-02  0.8978595E+03  0.7818609E-02  0.9428261E-01
       -2   -1    0    0    0  501  0.00000000000E+00  0.00000000000E+00  0.68141995647E+03  0.68141995647E+03  0.25500000920E-02 0. -1.
        2   -1    0    0  501    0  0.00000000000E+00  0.00000000000E+00 -0.29576168397E+03  0.29576168398E+03  0.25500000920E-02 0.  1.
    10030    2    1    2    0    0  0.00000000000E+00  0.00000000000E+00  0.38565827250E+03  0.97718164046E+03  0.89785948527E+03 0.  0.
        5    1    3    3  502    0 -0.29734905878E+03  0.32844726434E+03  0.27147487477E+03  0.51962945051E+03  0.46999998093E+01 0.  1.
       -5    1    3    3    0  502  0.29734905878E+03 -0.32844726434E+03  0.11418339773E+03  0.45755218995E+03  0.46999998093E+01 0. -1.
</event>
<event>
 5   0  0.1003252E-02  0.9008457E+03  0.7818609E-02  0.9424525E-01
        2   -1    0    0  501    0  0.00000000000E+00  0.00000000000E+00  0.88345019037E+03  0.88345019038E+03  0.25500000920E-02 0. -1.
       -2   -1    0    0    0  501  0.00000000000E+00  0.00000000000E+00 -0.22964594522E+03  0.22964594524E+03  0.25500000920E-02 0.  1.
    10030    2    1    2    0    0  0.00000000000E+00  0.00000000000E+00  0.65380424515E+03  0.11130961356E+04  0.90084572272E+03 0.  0.
        2    1    3    3  502    0 -0.21332571696E+03  0.20468503421E+03 -0.92982401173E+02  0.30991862106E+03  0.25500000920E-02 0.  1.
       -2    1    3    3    0  502  0.21332571696E+03 -0.20468503421E+03  0.74678664633E+03  0.80317751455E+03  0.25500000920E-02 0. -1.
</event>
<event>
 5   0  0.6288003E-03  0.8699754E+03  0.7818609E-02  0.9463912E-01
       -1   -1    0    0    0  501  0.00000000000E+00  0.00000000000E+00  0.31216243933E+03  0.31216243937E+03  0.50400001928E-02 0. -1.
        1   -1    0    0  501    0  0.00000000000E+00  0.00000000000E+00 -0.60614047377E+03  0.60614047379E+03  0.50400001928E-02 0.  1.
    10030    2    1    2    0    0  0.00000000000E+00  0.00000000000E+00 -0.29397803444E+03  0.91830291317E+03  0.86997537643E+03 0.  0.
        1    1    3    3  502    0 -0.17129117573E+03 -0.39337740584E+03 -0.71402179998E+02  0.43495370058E+03  0.50400001928E-02 0. -1.
       -1    1    3    3    0  502  0.17129117573E+03  0.39337740584E+03 -0.22257585444E+03  0.48334921259E+03  0.50400001928E-02 0.  1.
</event>
<event>
 5   0  0.1033749E-02  0.9240713E+03  0.7818609E-02  0.9395981E-01
       -2   -1    0    0    0  501  0.00000000000E+00  0.00000000000E+00  0.21833160664E+03  0.21833160666E+03  0.25500000920E-02 0. -1.
        2   -1    0    0  501    0  0.00000000000E+00  0.00000000000E+00 -0.97776480312E+03  0.97776480313E+03  0.25500000920E-02 0.  1.
    10030    2    1    2    0    0  0.00000000000E+00  0.00000000000E+00 -0.75943319648E+03  0.11960964098E+04  0.92407134009E+03 0.  0.
        5    1    3    3  502    0  0.33040364236E+03  0.31713503177E+03 -0.30083737217E+03  0.54796570125E+03  0.46999998093E+01 0.  1.
       -5    1    3    3    0  502 -0.33040364236E+03 -0.31713503177E+03 -0.45859582432E+03  0.64813070853E+03  0.46999998093E+01 0. -1.
</event>
<event>
 5   0  0.3996375E-03  0.8881566E+03  0.7818609E-02  0.9440509E-01
       -4   -1    0    0    0  501  0.00000000000E+00  0.00000000000E+00  0.80962277754E+03  0.80962377362E+03  0.12699999809E+01 0. -1.
        4   -1    0    0  501    0  0.00000000000E+00  0.00000000000E+00 -0.24357425677E+03  0.24357756764E+03  0.12699999809E+01 0.  1.
    10030    2    1    2    0    0  0.00000000000E+00  0.00000000000E+00  0.56604852078E+03  0.10532013413E+04  0.88815659507E+03 0.  0.
        2    1    3    3  502    0  0.13234261100E+03 -0.41908577955E+03  0.35856513377E+03  0.56720050464E+03  0.25500000920E-02 0. -1.
       -2    1    3    3    0  502 -0.13234261100E+03  0.41908577955E+03  0.20748338701E+03  0.48600083662E+03  0.25500000920E-02 0.  1.
</event>
<event>
 5   0  0.1028978E-02  0.8905874E+03  0.7818609E-02  0.9437425E-01
        2   -1    0    0  501    0  0.00000000000E+00  0.00000000000E+00  0.65767831695E+03  0.65767831695E+03  0.25500000920E-02 0.  1.
       -2   -1    0    0    0  501  0.00000000000E+00  0.00000000000E+00 -0.30149465107E+03  0.30149465108E+03  0.25500000920E-02 0. -1.
    10030    2    1    2    0    0  0.00000000000E+00  0.00000000000E+00  0.35618366587E+03  0.95917296804E+03  0.89058743466E+03 0.  0.
        3    1    3    3  502    0  0.21153186489E+03  0.36136948440E+03  0.14922446615E+02  0.41899441969E+03  0.10100000352E+00 0. -1.
       -3    1    3    3    0  502 -0.21153186489E+03 -0.36136948440E+03  0.34126121926E+03  0.54017854834E+03  0.10100000352E+00 0.  1.
</event>
<event>
 5   0  0.3996375E-03  0.8955157E+03  0.7818609E-02  0.9431204E-01
       -4   -1    0    0    0  501  0.00000000000E+00  0.00000000000E+00  0.70868057650E+03  0.70868171446E+03  0.12699999809E+01 0. -1.
        4   -1    0    0  501    0  0.00000000000E+00  0.00000000000E+00 -0.28289914796E+03  0.28290199860E+03  0.12699999809E+01 0.  1.
    10030    2    1    2    0    0  0.00000000000E+00  0.00000000000E+00  0.42578142854E+03  0.99158371306E+03  0.89551573695E+03 0.  0.
        5    1    3    3  502    0  0.11281001664E+03  0.41632289968E+03  0.34582924176E+03  0.55287504114E+03  0.46999998093E+01 0. -1.
       -5    1    3    3    0  502 -0.11281001664E+03 -0.41632289968E+03  0.79952186780E+02  0.43870867193E+03  0.46999998093E+01 0.  1.
</event>
<event>
 5   0  0.6211218E-03  0.9054138E+03  0.7818609E-02  0.9418839E-01
        1   -1    0    0  501    0  0.00000000000E+00  0.00000000000E+00  0.51739560663E+03  0.51739560666E+03  0.50400001928E-02 0. -1.
       -1   -1    0    0    0  501  0.00000000000E+00  0.00000000000E+00 -0.39610603489E+03  0.39610603492E+03  0.50400001928E-02 0.  1.
    10030    2    1    2    0    0  0.00000000000E+00  0.00000000000E+00  0.12128957174E+03  0.91350164158E+03  0.90541376672E+03 0.  0.
        5    1    3    3  502    0 -0.19955287630E+03 -0.32159868783E+03 -0.18991685509E+03  0.42348266588E+03  0.46999998093E+01 0.  1.
       -5    1    3    3    0  502  0.19955287630E+03  0.32159868783E+03  0.31120642682E+03  0.49001897570E+03  0.46999998093E+01 0. -1.
</event>
<event>
 5   0  0.1003252E-02  0.9065813E+03  0.7818609E-02  0.9417392E-01
        2   -1    0    0  501    0  0.00000000000E+00  0.00000000000E+00  0.17094533454E+04  0.17094533454E+04  0.25500000920E-02 0.  1.
       -2   -1    0    0    0  501  0.00000000000E+00  0.00000000000E+00 -0.12019771981E+03  0.12019771984E+03  0.25500000920E-02 0. -1.
    10030    2    1    2    0    0  0.00000000000E+00  0.00000000000E+00  0.15892556256E+04  0.18296510652E+04  0.90658125783E+03 0.  0.
        2    1    3    3  502    0 -0.33729248841E+03 -0.22339369452E+03  0.38200132860E+03  0.55641349781E+03  0.25500000920E-02 0. -1.
       -2    1    3    3    0  502  0.33729248841E+03  0.22339369452E+03  0.12072542970E+04  0.12732375674E+04  0.25500000920E-02 0.  1.
</event>
<event>
 5   0  0.1017079E-02  0.9038023E+03  0.7818609E-02  0.9420841E-01
       -2   -1    0    0    0  501  0.00000000000E+00  0.00000000000E+00  0.21766797379E+03  0.21766797381E+03  0.25500000920E-02 0.  1.
        2   -1    0    0  501    0  0.00000000000E+00  0.00000000000E+00 -0.93819343830E+03  0.93819343830E+03  0.25500000920E-02 0. -1.
    10030    2    1    2    0    0  0.00000000000E+00  0.00000000000E+00 -0.72052546451E+03  0.11558614121E+04  0.90380233403E+03 0.  0.
        1    1    3    3  502    0  0.27926376066E+03 -0.24344075208E+03 -0.69120315148E+03  0.78422792888E+03  0.50400001928E-02 0. -1.
       -1    1    3    3    0  502 -0.27926376066E+03  0.24344075208E+03 -0.29322313026E+02  0.37163348323E+03  0.50400001928E-02 0.  1.
</event>
<event>
 5   0  0.6092779E-03  0.9045848E+03  0.7818609E-02  0.9419868E-01
       -1   -1    0    0    0  501  0.00000000000E+00  0.00000000000E+00  0.32440166825E+03  0.32440166829E+03  0.50400001928E-02 0.  1.
        1   -1    0    0  501    0  0.00000000000E+00  0.00000000000E+00 -0.63060225215E+03  0.63060225217E+03  0.50400001928E-02 0. -1.
    10030    2    1    2    0    0  0.00000000000E+00  0.00000000000E+00 -0.30620058390E+03  0.95500392046E+03  0.90458481666E+03 0.  0.
        2    1    3    3  502    0  0.14085745662E+03 -0.64806515240E+02 -0.60166779069E+03  0.62132506618E+03  0.25500000920E-02 0. -1.
       -2    1    3    3    0  502 -0.14085745662E+03  0.64806515240E+02  0.29546720679E+03  0.33367885429E+03  0.25500000920E-02 0.  1.
</event>
<event>
 5   0  0.6015709E-03  0.1040406E+04  0.7818609E-02  0.9265306E-01
        1   -1    0    0  501    0  0.00000000000E+00  0.00000000000E+00  0.86864114939E+03  0.86864114941E+03  0.50400001928E-02 0.  1.
       -1   -1    0    0    0  501  0.00000000000E+00  0.00000000000E+00 -0.31153385126E+03  0.31153385130E+03  0.50400001928E-02 0. -1.
    10030    2    1    2    0    0  0.00000000000E+00  0.00000000000E+00  0.55710729813E+03  0.11801750007E+04  0.10404059259E+04 0.  0.
        3    1    3    3  502    0 -0.44936138198E+03  0.13138723779E+03  0.53578368862E+03  0.71151418051E+03  0.10100000352E+00 0.  1.
       -3    1    3    3    0  502  0.44936138198E+03 -0.13138723779E+03  0.21323609514E+02  0.46866082021E+03  0.10100000352E+00 0. -1.
</event>
<event>
 5   0  0.1003252E-02  0.9017204E+03  0.7818609E-02  0.9423433E-01
        2   -1    0    0  501    0  0.00000000000E+00  0.00000000000E+00  0.12670158857E+04  0.12670158857E+04  0.25500000920E-02 0.  1.
       -2   -1    0    0    0  501  0.00000000000E+00  0.00000000000E+00 -0.16043596950E+03  0.16043596952E+03  0.25500000920E-02 0. -1.
    10030    2    1    2    0    0  0.00000000000E+00  0.00000000000E+00  0.11065799162E+04  0.14274518552E+04  0.90172040458E+03 0.  0.
        2    1    3    3  502    0  0.10682350009E+03 -0.44174704975E+02  0.12431580688E+04  0.12485209845E+04  0.25500000920E-02 0.  1.
       -2    1    3    3    0  502 -0.10682350009E+03  0.44174704975E+02 -0.13657815258E+03  0.17893087073E+03  0.25500000920E-02 0. -1.
</event>
<event>
 5   0  0.6288003E-03  0.8913573E+03  0.7818609E-02  0.9436450E-01
        1   -1    0    0  501    0  0.00000000000E+00  0.00000000000E+00  0.95345510353E+03  0.95345510354E+03  0.50400001928E-02 0.  1.
       -1   -1    0    0    0  501  0.00000000000E+00  0.00000000000E+00 -0.20832597940E+03  0.20832597946E+03  0.50400001928E-02 0. -1.
    10030    2    1    2    0    0  0.00000000000E+00  0.00000000000E+00  0.74512912413E+03  0.11617810830E+04  0.89135732071E+03 0.  0.
        1    1    3    3  502    0 -0.17720358125E+03 -0.17641848642E+03 -0.10828509233E+03  0.27248899575E+03  0.50400001928E-02 0. -1.
       -1    1    3    3    0  502  0.17720358125E+03  0.17641848642E+03  0.85341421646E+03  0.88929208725E+03  0.50400001928E-02 0.  1.
</event>
<event>
 5   0  0.6288003E-03  0.9177368E+03  0.7818609E-02  0.9403677E-01
       -1   -1    0    0    0  501  0.00000000000E+00  0.00000000000E+00  0.28483235828E+03  0.28483235832E+03  0.50400001928E-02 0.  1.
        1   -1    0    0  501    0  0.00000000000E+00  0.00000000000E+00 -0.73924263328E+03  0.73924263330E+03  0.50400001928E-02 0. -1.
    10030    2    1    2    0    0  0.00000000000E+00  0.00000000000E+00 -0.45441027500E+03  0.10240749916E+04  0.91773683070E+03 0.  0.
        1    1    3    3  502    0 -0.32876612151E+03  0.24590969841E+03 -0.45589446487E+03  0.61351324806E+03  0.50400001928E-02 0.  1.
       -1    1    3    3    0  502  0.32876612151E+03 -0.24590969841E+03  0.14841898699E+01  0.41056174355E+03  0.50400001928E-02 0. -1.
</event>
<event>
 5   0  0.6092779E-03  0.9019344E+03  0.7818609E-02  0.9423167E-01
       -1   -1    0    0    0  501  0.00000000000E+00  0.00000000000E+00  0.34152435176E+03  0.34152435180E+03  0.50400001928E-02 0.  1.
        1   -1    0    0  501    0  0.00000000000E+00  0.00000000000E+00 -0.59548139829E+03  0.59548139831E+03  0.50400001928E-02 0. -1.
    10030    2    1    2    0    0  0.00000000000E+00  0.00000000000E+00 -0.25395704653E+03  0.93700575011E+03  0.90193436250E+03 0.  0.
        2    1    3    3  502    0  0.28655799411E+03  0.11533780720E+03 -0.46831672129E+03  0.56101590459E+03  0.25500000920E-02 0. -1.
       -2    1    3    3    0  502 -0.28655799411E+03 -0.11533780720E+03  0.21435967476E+03  0.37598984551E+03  0.25500000920E-02 0.  1.
</event>
<event>
 5   0  0.1041727E-02  0.9182456E+03  0.7818609E-02  0.9403057E-01
       -2   -1    0    0    0  501  0.00000000000E+00  0.00000000000E+00  0.84928138085E+03  0.84928138086E+03  0.25500000920E-02 0.  1.
        2   -1    0    0  501    0  0.00000000000E+00  0.00000000000E+00 -0.24820248782E+03  0.24820248783E+03  0.25500000920E-02 0. -1.
    10030    2    1    2    0    0  0.00000000000E+00  0.00000000000E+00  0.60107889303E+03  0.10974838687E+04  0.91824561332E+03 0.  0.
        4    1    3    3  502    0  0.29220840518E+03  0.21695884534E+02  0.72299645307E+03  0.78011662430E+03  0.12699999809E+01 0.  1.
       -4    1    3    3    0  502 -0.29220840518E+03 -0.21695884534E+02 -0.12191756003E+03  0.31736724439E+03  0.12699999809E+01 0. -1.
</event>
<event>
 5   0  0.3996375E-03  0.8983287E+03  0.7818609E-02  0.9427673E-01
        4   -1    0    0  501    0  0.00000000000E+00  0.00000000000E+00  0.78500801615E+03  0.78500904347E+03  0.12699999809E+01 0.  1.
       -4   -1    0    0    0  501  0.00000000000E+00  0.00000000000E+00 -0.25699919475E+03  0.25700233268E+03  0.12699999809E+01 0. -1.
    10030    2    1    2    0    0  0.00000000000E+00  0.00000000000E+00  0.52800882140E+03  0.10420113761E+04  0.89832866622E+03 0.  0.
        2    1    3    3  502    0  0.16163560009E+03  0.41331018904E+03  0.18366438729E+03  0.48029572843E+03  0.25500000920E-02 0. -1.
       -2    1    3    3    0  502 -0.16163560009E+03 -0.41331018904E+03  0.34434443411E+03  0.56171564772E+03  0.25500000920E-02 0.  1.
</event>
<event>
 5   0  0.1041727E-02  0.8928155E+03  0.7818609E-02  0.9434607E-01
       -2   -1    0    0    0  501  0.00000000000E+00  0.00000000000E+00  0.38873467816E+03  0.38873467816E+03  0.25500000920E-02 0.  1.
        2   -1    0    0  501    0  0.00000000000E+00  0.00000000000E+00 -0.51263723006E+03  0.51263723007E+03  0.25500000920E-02 0. -1.
    10030    2    1    2    0    0  0.00000000000E+00  0.00000000000E+00 -0.12390255191E+03  0.90137190823E+03  0.89281547622E+03 0.  0.
        4    1    3    3  502    0 -0.38436076168E+03  0.13931805736E+02  0.16682796542E+03  0.41923796736E+03  0.12699999809E+01 0.  1.
       -4    1    3    3    0  502  0.38436076168E+03 -0.13931805736E+02 -0.29073051732E+03  0.48213394087E+03  0.12699999809E+01 0. -1.
</event>
<event>
 5   0  0.1017079E-02  0.8946221E+03  0.7818609E-02  0.9432329E-01
        2   -1    0    0  501    0  0.00000000000E+00  0.00000000000E+00  0.78237356008E+03  0.78237356008E+03  0.25500000920E-02 0. -1.
       -2   -1    0    0    0  501  0.00000000000E+00  0.00000000000E+00 -0.25574377037E+03  0.25574377038E+03  0.25500000920E-02 0.  1.
    10030    2    1    2    0    0  0.00000000000E+00  0.00000000000E+00  0.52662978971E+03  0.10381173305E+04  0.89462207462E+03 0.  0.
        1    1    3    3  502    0  0.31436888769E+03 -0.12948319737E+03  0.60061649343E+03  0.69016944887E+03  0.50400001928E-02 0. -1.
       -1    1    3    3    0  502 -0.31436888769E+03  0.12948319737E+03 -0.73986703723E+02  0.34794788159E+03  0.50400001928E-02 0.  1.
</event>
<event>
 5   0  0.1033749E-02  0.9027248E+03  0.7818609E-02  0.9422182E-01
        2   -1    0    0  501    0  0.00000000000E+00  0.00000000000E+00  0.28544388528E+03  0.28544388530E+03  0.25500000920E-02 0. -1.
       -2   -1    0    0    0  501  0.00000000000E+00  0.00000000000E+00 -0.71372358549E+03  0.71372358549E+03  0.25500000920E-02 0.  1.
    10030    2    1    2    0    0  0.00000000000E+00  0.00000000000E+00 -0.42827970020E+03  0.99916747079E+03  0.90272483796E+03 0.  0.
        5    1    3    3  502    0 -0.37615659246E+03 -0.96250851438E+02  0.40547519087E+02  0.39041541946E+03  0.46999998093E+01 0. -1.
       -5    1    3    3    0  502  0.37615659246E+03  0.96250851438E+02 -0.46882721929E+03  0.60875205133E+03  0.46999998093E+01 0.  1.
</event>
<event>
 5   0  0.1028978E-02  0.8776954E+03  0.7818609E-02  0.9453901E-01
        2   -1    0    0  501    0  0.00000000000E+00  0.00000000000E+00  0.13911717370E+04  0.13911717370E+04  0.25500000920E-02 0.  1.
       -2   -1    0    0    0  501  0.00000000000E+00  0.00000000000E+00 -0.13843532754E+03  0.13843532756E+03  0.25500000920E-02 0. -1.
    10030    2    1    2    0    0  0.00000000000E+00  0.00000000000E+00  0.12527364094E+04  0.15296070645E+04  0.87769542574E+03 0.  0.
        3    1    3    3  502    0 -0.38457683539E+03  0.18643489468E+03  0.45270392132E+03  0.62257382121E+03  0.10100000352E+00 0.  1.
       -3    1    3    3    0  502  0.38457683539E+03 -0.18643489468E+03  0.80003248810E+03  0.90703324332E+03  0.10100000352E+00 0. -1.
</event>
<event>
 5   0  0.1041727E-02  0.8979454E+03  0.7818609E-02  0.9428153E-01
       -2   -1    0    0    0  501  0.00000000000E+00  0.00000000000E+00  0.19566910223E+03  0.19566910225E+03  0.25500000920E-02 0.  1.
        2   -1    0    0  501    0  0.00000000000E+00  0.00000000000E+00 -0.10301906436E+04  0.10301906436E+04  0.25500000920E-02 0. -1.
    10030    2    1    2    0    0  0.00000000000E+00  0.00000000000E+00 -0.83452154138E+03  0.12258597459E+04  0.89794538447E+03 0.  0.
        4    1    3    3  502    0 -0.41542589913E+03 -0.12881398502E+03 -0.26522115146E+03  0.50942672926E+03  0.12699999809E+01 0. -1.
       -4    1    3    3    0  502  0.41542589913E+03  0.12881398502E+03 -0.56930038992E+03  0.71643301660E+03  0.12699999809E+01 0.  1.
</event>
<event>
 5   0  0.6015709E-03  0.8930402E+03  0.7818609E-02  0.9434324E-01
       -1   -1    0    0    0  501  0.00000000000E+00  0.00000000000E+00  0.30522720882E+03  0.30522720886E+03  0.50400001928E-02 0.  1.
        1   -1    0    0  501    0  0.00000000000E+00  0.00000000000E+00 -0.65321898751E+03  0.65321898753E+03  0.50400001928E-02 0. -1.
    10030    2    1    2    0    0  0.00000000000E+00  0.00000000000E+00 -0.34799177869E+03  0.95844619638E+03  0.89304021932E+03 0.  0.
        3    1    3    3  502    0 -0.30322474976E+03 -0.16065233912E+03  0.13263110026E+03  0.36789324795E+03  0.10100000352E+00 0.  1.
       -3    1    3    3    0  502  0.30322474976E+03  0.16065233912E+03 -0.48062287895E+03  0.59055294843E+03  0.10100000352E+00 0. -1.
</event>
<event>
 5   0  0.6092779E-03  0.8897561E+03  0.7818609E-02  0.9438478E-01
       -1   -1    0    0    0  501  0.00000000000E+00  0.00000000000E+00  0.14989050970E+03  0.14989050979E+03  0.50400001928E-02 0. -1.
        1   -1    0    0  501    0  0.00000000000E+00  0.00000000000E+00 -0.13204068639E+04  0.13204068639E+04  0.50400001928E-02 0.  1.
    10030    2    1    2    0    0  0.00000000000E+00  0.00000000000E+00 -0.11705163542E+04  0.14702973737E+04  0.88975605177E+03 0.  0.
        2    1    3    3  502    0  0.15107223153E+02  0.43794540682E+03 -0.71210145482E+03  0.83612970855E+03  0.25500000920E-02 0.  1.
       -2    1    3    3    0  502 -0.15107223153E+02 -0.43794540682E+03 -0.45841489938E+03  0.63416766516E+03  0.25500000920E-02 0. -1.
</event>
<event>
 5   0  0.6015709E-03  0.9095776E+03  0.7818609E-02  0.9413688E-01
        1   -1    0    0  501    0  0.00000000000E+00  0.00000000000E+00  0.87596030273E+03  0.87596030275E+03  0.50400001928E-02 0.  1.
       -1   -1    0    0    0  501  0.00000000000E+00  0.00000000000E+00 -0.23612125494E+03  0.23612125500E+03  0.50400001928E-02 0. -1.
    10030    2    1    2    0    0  0.00000000000E+00  0.00000000000E+00  0.63983904779E+03  0.11120815577E+04  0.90957758548E+03 0.  0.
        3    1    3    3  502    0 -0.19815502902E+02  0.44124932787E+03  0.18744988043E+03  0.47982402125E+03  0.10100000352E+00 0. -1.
       -3    1    3    3    0  502  0.19815502902E+02 -0.44124932787E+03  0.45238916736E+03  0.63225753649E+03  0.10100000352E+00 0.  1.
</event>
<event>
 5   0  0.1041727E-02  0.9033537E+03  0.7818609E-02  0.9421399E-01
        2   -1    0    0  501    0  0.00000000000E+00  0.00000000000E+00  0.74677113652E+03  0.74677113652E+03  0.25500000920E-02 0.  1.
       -2   -1    0    0    0  501  0.00000000000E+00  0.00000000000E+00 -0.27319211951E+03  0.27319211953E+03  0.25500000920E-02 0. -1.
    10030    2    1    2    0    0  0.00000000000E+00  0.00000000000E+00  0.47357901700E+03  0.10199632560E+04  0.90335372825E+03 0.  0.
        4    1    3    3  502    0 -0.43144744326E+03  0.55971984008E+02  0.99752723808E+02  0.44635409497E+03  0.12699999809E+01 0. -1.
       -4    1    3    3    0  502  0.43144744326E+03 -0.55971984008E+02  0.37382629319E+03  0.57360916108E+03  0.12699999809E+01 0.  1.
</event>
<event>
 5   0  0.6288003E-03  0.9030219E+03  0.7818609E-02  0.9421812E-01
        1   -1    0    0  501    0  0.00000000000E+00  0.00000000000E+00  0.29655479473E+03  0.29655479478E+03  0.50400001928E-02 0. -1.
       -1   -1    0    0    0  501  0.00000000000E+00  0.00000000000E+00 -0.68743498305E+03  0.68743498307E+03  0.50400001928E-02 0.  1.
    10030    2    1    2    0    0  0.00000000000E+00  0.00000000000E+00 -0.39088018832E+03  0.98398977785E+03  0.90302190521E+03 0.  0.
        1    1    3    3  502    0  0.36953158251E+03 -0.94602713976E+02  0.67796196247E+02  0.38742688112E+03  0.50400001928E-02 0. -1.
       -1    1    3    3    0  502 -0.36953158251E+03  0.94602713976E+02 -0.45867638456E+03  0.59656289672E+03  0.50400001928E-02 0.  1.
</event>
<event>
 5   0  0.6211218E-03  0.9153204E+03  0.7818609E-02  0.9406630E-01
       -1   -1    0    0    0  501  0.00000000000E+00  0.00000000000E+00  0.26258947229E+03  0.26258947234E+03  0.50400001928E-02 0.  1.
        1   -1    0    0  501    0  0.00000000000E+00  0.00000000000E+00 -0.79764385083E+03  0.79764385085E+03  0.50400001928E-02 0. -1.
    10030    2    1    2    0    0  0.00000000000E+00  0.00000000000E+00 -0.53505437854E+03  0.10602333232E+04  0.91532044204E+03 0.  0.
        5    1    3    3  502    0 -0.35571266875E+02 -0.40008328032E+03 -0.52156338316E+03  0.65831785550E+03  0.46999998093E+01 0. -1.
       -5    1    3    3    0  502  0.35571266875E+02  0.40008328032E+03 -0.13490995379E+02  0.40191546769E+03  0.46999998093E+01 0.  1.
</event>
<event>
 5   0  0.6288003E-03  0.8977963E+03  0.7818609E-02  0.9428340E-01
        1   -1    0    0  501    0  0.00000000000E+00  0.00000000000E+00  0.43207581349E+03  0.43207581352E+03  0.50400001928E-02 0. -1.
       -1   -1    0    0    0  501  0.00000000000E+00  0.00000000000E+00 -0.46637543402E+03  0.46637543405E+03  0.50400001928E-02 0.  1.
    10030    2    1    2    0    0  0.00000000000E+00  0.00000000000E+00 -0.34299620526E+02  0.89845124757E+03  0.89779629109E+03 0.  0.
        1    1    3    3  502    0 -0.39459317171E+03  0.21117643049E+03  0.17664778412E+02  0.44789652865E+03  0.50400001928E-02 0. -1.
       -1    1    3    3    0  502  0.39459317171E+03 -0.21117643049E+03 -0.51964398938E+02  0.45055471892E+03  0.50400001928E-02 0.  1.
</event>
<event>
 5   0  0.6092779E-03  0.8981145E+03  0.7818609E-02  0.9427942E-01
       -1   -1    0    0    0  501  0.00000000000E+00  0.00000000000E+00  0.19868800222E+03  0.19868800228E+03  0.50400001928E-02 0. -1.
        1   -1    0    0  501    0  0.00000000000E+00  0.00000000000E+00 -0.10149198348E+04  0.10149198349E+04  0.50400001928E-02 0.  1.
    10030    2    1    2    0    0  0.00000000000E+00  0.00000000000E+00 -0.81623183262E+03  0.12136078371E+04  0.89811445695E+03 0.  0.
        2    1    3    3  502    0  0.15340478323E+03  0.59464281092E+02  0.15649349963E+03  0.22706660625E+03  0.25500000920E-02 0. -1.
       -2    1    3    3    0  502 -0.15340478323E+03 -0.59464281092E+02 -0.97272533224E+03  0.98654123089E+03  0.25500000920E-02 0.  1.
</event>
<event>
 5   0  0.1033749E-02  0.8990184E+03  0.7818609E-02  0.9426809E-01
        2   -1    0    0  501    0  0.00000000000E+00  0.00000000000E+00  0.11135716660E+04  0.11135716660E+04  0.25500000920E-02 0.  1.
       -2   -1    0    0    0  501  0.00000000000E+00  0.00000000000E+00 -0.18145082659E+03  0.18145082661E+03  0.25500000920E-02 0. -1.
    10030    2    1    2    0    0  0.00000000000E+00  0.00000000000E+00  0.93212083943E+03  0.12950224926E+04  0.89901835194E+03 0.  0.
        5    1    3    3  502    0  0.28511726194E+01  0.13431399309E+03 -0.15181873054E+03  0.20277917759E+03  0.46999998093E+01 0. -1.
       -5    1    3    3    0  502 -0.28511726194E+01 -0.13431399309E+03  0.10839395700E+04  0.10922433150E+04  0.46999998093E+01 0.  1.
</event>
<event>
 5   0  0.1041727E-02  0.9010990E+03  0.7818609E-02  0.9424209E-01
       -2   -1    0    0    0  501  0.00000000000E+00  0.00000000000E+00  0.24771462577E+03  0.24771462578E+03  0.25500000920E-02 0. -1.
        2   -1    0    0  501    0  0.00000000000E+00  0.00000000000E+00 -0.81947052410E+03  0.81947052411E+03  0.25500000920E-02 0.  1.
    10030    2    1    2    0    0  0.00000000000E+00  0.00000000000E+00 -0.57175589834E+03  0.10671851499E+04  0.90109896064E+03 0.  0.
        4    1    3    3  502    0  0.96438799174E+02  0.26028728507E+03  0.13441764130E+03  0.30841470125E+03  0.12699999809E+01 0. -1.
       -4    1    3    3    0  502 -0.96438799174E+02 -0.26028728507E+03 -0.70617353963E+03  0.75877044864E+03  0.12699999809E+01 0.  1.
</event>
<event>
 5   0  0.6015709E-03  0.8899537E+03  0.7818609E-02  0.9438228E-01
       -1   -1    0    0    0  501  0.00000000000E+00  0.00000000000E+00  0.43771093017E+03  0.43771093020E+03  0.50400001928E-02 0. -1.
        1   -1    0    0  501    0  0.00000000000E+00  0.00000000000E+00 -0.45236340318E+03  0.45236340321E+03  0.50400001928E-02 0.  1.
    10030    2    1    2    0    0  0.00000000000E+00  0.00000000000E+00 -0.14652473013E+02  0.89007433341E+03  0.88995372016E+03 0.  0.
        3    1    3    3  502    0  0.27105305653E+03 -0.18238429805E+03 -0.30947743246E+03  0.45001120323E+03  0.10100000352E+00 0.  1.
       -3    1    3    3    0  502 -0.27105305653E+03  0.18238429805E+03  0.29482495945E+03  0.44006313018E+03  0.10100000352E+00 0. -1.
</event>
<event>
 5   0  0.6092779E-03  0.8988100E+03  0.7818609E-02  0.9427070E-01
       -1   -1    0    0    0  501  0.00000000000E+00  0.00000000000E+00  0.31152535519E+03  0.31152535523E+03  0.50400001928E-02 0. -1.
        1   -1    0    0  501    0  0.00000000000E+00  0.00000000000E+00 -0.64830951995E+03  0.64830951997E+03  0.50400001928E-02 0.  1.
    10030    2    1    2    0    0  0.00000000000E+00  0.00000000000E+00 -0.33678416475E+03  0.95983487520E+03  0.89880999884E+03 0.  0.
        2    1    3    3  502    0 -0.95869674793E+02  0.17446437611E+03 -0.59865716693E+03  0.63088764182E+03  0.25500000920E-02 0.  1.
       -2    1    3    3    0  502  0.95869674793E+02 -0.17446437611E+03  0.26187300218E+03  0.32894723338E+03  0.25500000920E-02 0. -1.
</event>
<event>
 5   0  0.1041727E-02  0.9047864E+03  0.7818609E-02  0.9419618E-01
        2   -1    0    0  501    0  0.00000000000E+00  0.00000000000E+00  0.92398803926E+03  0.92398803926E+03  0.25500000920E-02 0.  1.
       -2   -1    0    0    0  501  0.00000000000E+00  0.00000000000E+00 -0.22149593402E+03  0.22149593403E+03  0.25500000920E-02 0. -1.
    10030    2    1    2    0    0  0.00000000000E+00  0.00000000000E+00  0.70249210524E+03  0.11454839733E+04  0.90478636990E+03 0.  0.
        4    1    3    3  502    0 -0.17711619473E+03  0.38550982295E+03  0.15239511731E+03  0.45079247410E+03  0.12699999809E+01 0. -1.
       -4    1    3    3    0  502  0.17711619473E+03 -0.38550982295E+03  0.55009698794E+03  0.69469149920E+03  0.12699999809E+01 0.  1.
</event>
<event>
 5   0  0.6288003E-03  0.8960518E+03  0.7818609E-02  0.9430530E-01
        1   -1    0    0  501    0  0.00000000000E+00  0.00000000000E+00  0.31349780765E+03  0.31349780769E+03  0.50400001928E-02 0. -1.
       -1   -1    0    0    0  501  0.00000000000E+00  0.00000000000E+00 -0.64028264300E+03  0.64028264302E+03  0.50400001928E-02 0.  1.
    10030    2    1    2    0    0  0.00000000000E+00  0.00000000000E+00 -0.32678483534E+03  0.95378045071E+03  0.89605179513E+03 0.  0.
        1    1    3    3  502    0 -0.84780340771E+02 -0.29221971546E+03 -0.51343656033E+03  0.59682256139E+03  0.50400001928E-02 0.  1.
       -1    1    3    3    0  502  0.84780340771E+02  0.29221971546E+03  0.18665172498E+03  0.35695788932E+03  0.50400001928E-02 0. -1.
</event>
<event>
 5   0  0.1017079E-02  0.9344767E+03  0.7818609E-02  0.9383481E-01
       -2   -1    0    0    0  501  0.00000000000E+00  0.00000000000E+00  0.25328964383E+03  0.25328964384E+03  0.25500000920E-02 0.  1.
        2   -1    0    0  501    0  0.00000000000E+00  0.00000000000E+00 -0.86190518363E+03  0.86190518364E+03  0.25500000920E-02 0. -1.
    10030    2    1    2    0    0  0.00000000000E+00  0.00000000000E+00 -0.60861553980E+03  0.11151948275E+04  0.93447665992E+03 0.  0.
        1    1    3    3  502    0 -0.43032931072E+03 -0.17650889022E+03 -0.35731567655E+03  0.58652638196E+03  0.50400001928E-02 0. -1.
       -1    1    3    3    0  502  0.43032931072E+03  0.17650889022E+03 -0.25129986325E+03  0.52866844552E+03  0.50400001928E-02 0.  1.
</event>
<event>
 5   0  0.6288003E-03  0.8965375E+03  0.7818609E-02  0.9429920E-01
        1   -1    0    0  501    0  0.00000000000E+00  0.00000000000E+00  0.81846785706E+03  0.81846785708E+03  0.50400001928E-02 0. -1.
       -1   -1    0    0    0  501  0.00000000000E+00  0.00000000000E+00 -0.24551346288E+03  0.24551346293E+03  0.50400001928E-02 0.  1.
    10030    2    1    2    0    0  0.00000000000E+00  0.00000000000E+00  0.57295439418E+03  0.10639813200E+04  0.89653751261E+03 0.  0.
        1    1    3    3  502    0 -0.23848428931E+02  0.43444582595E+03  0.41447736931E+03  0.60091880729E+03  0.50400001928E-02 0. -1.
       -1    1    3    3    0  502  0.23848428931E+02 -0.43444582595E+03  0.15847702487E+03  0.46306251272E+03  0.50400001928E-02 0.  1.
</event>
<event>
 5   0  0.6288003E-03  0.9117970E+03  0.7818609E-02  0.9410954E-01
        1   -1    0    0  501    0  0.00000000000E+00  0.00000000000E+00  0.79182057583E+03  0.79182057584E+03  0.50400001928E-02 0.  1.
       -1   -1    0    0    0  501  0.00000000000E+00  0.00000000000E+00 -0.26248808022E+03  0.26248808027E+03  0.50400001928E-02 0. -1.
    10030    2    1    2    0    0  0.00000000000E+00  0.00000000000E+00  0.52933249560E+03  0.10543086561E+04  0.91179704510E+03 0.  0.
        1    1    3    3  502    0 -0.29874610260E+03  0.18703304430E+03  0.59901996473E+03  0.69502195047E+03  0.50400001928E-02 0.  1.
       -1    1    3    3    0  502  0.29874610260E+03 -0.18703304430E+03 -0.69687469121E+02  0.35928670564E+03  0.50400001928E-02 0. -1.
</event>
<event>
 5   0  0.1028978E-02  0.9018232E+03  0.7818609E-02  0.9423305E-01
        2   -1    0    0  501    0  0.00000000000E+00  0.00000000000E+00  0.12396960781E+04  0.12396960781E+04  0.25500000920E-02 0. -1.
       -2   -1    0    0    0  501  0.00000000000E+00  0.00000000000E+00 -0.16400898269E+03  0.16400898271E+03  0.25500000920E-02 0.  1.
    10030    2    1    2    0    0  0.00000000000E+00  0.00000000000E+00  0.10756870954E+04  0.14037050608E+04  0.90182324793E+03 0.  0.
        3    1    3    3  502    0 -0.50659441067E+02 -0.25918772886E+02 -0.15839756596E+03  0.16830912292E+03  0.10100000352E+00 0.  1.
       -3    1    3    3    0  502  0.50659441067E+02  0.25918772886E+02  0.12340846613E+04  0.12353959378E+04  0.10100000352E+00 0. -1.
</event>
<event>
 5   0  0.6211218E-03  0.9088418E+03  0.7818609E-02  0.9414596E-01
       -1   -1    0    0    0  501  0.00000000000E+00  0.00000000000E+00  0.23745499819E+03  0.23745499824E+03  0.50400001928E-02 0.  1.
        1   -1    0    0  501    0  0.00000000000E+00  0.00000000000E+00 -0.86963147469E+03  0.86963147470E+03  0.50400001928E-02 0. -1.
    10030    2    1    2    0    0  0.00000000000E+00  0.00000000000E+00 -0.63217647650E+03  0.11070864729E+04  0.90884176903E+03 0.  0.
        5    1    3    3  502    0  0.24319905040E+03 -0.18939338300E+03 -0.72276933918E+03  0.78576920231E+03  0.46999998093E+01 0. -1.
       -5    1    3    3    0  502 -0.24319905040E+03  0.18939338300E+03  0.90592862676E+02  0.32131727064E+03  0.46999998093E+01 0.  1.
</event>
<event>
 5   0  0.1028978E-02  0.9069720E+03  0.7818609E-02  0.9416908E-01
       -2   -1    0    0    0  501  0.00000000000E+00  0.00000000000E+00  0.12866979343E+03  0.12866979346E+03  0.25500000920E-02 0.  1.
        2   -1    0    0  501    0  0.00000000000E+00  0.00000000000E+00 -0.15982737244E+04  0.15982737244E+04  0.25500000920E-02 0. -1.
    10030    2    1    2    0    0  0.00000000000E+00  0.00000000000E+00 -0.14696039310E+04  0.17269435178E+04  0.90697199513E+03 0.  0.
        3    1    3    3  502    0  0.20846823573E+03  0.18427215533E+03 -0.52955849193E+02  0.28323058575E+03  0.10100000352E+00 0.  1.
       -3    1    3    3    0  502 -0.20846823573E+03 -0.18427215533E+03 -0.14166480818E+04  0.14437129321E+04  0.10100000352E+00 0. -1.
</event>
<event>
 5   0  0.1041727E-02  0.9074586E+03  0.7818609E-02  0.9416306E-01
       -2   -1    0    0    0  501  0.00000000000E+00  0.00000000000E+00  0.44310123757E+03  0.44310123758E+03  0.25500000920E-02 0.  1.
        2   -1    0    0  501    0  0.00000000000E+00  0.00000000000E+00 -0.46461226747E+03  0.46461226747E+03  0.25500000920E-02 0. -1.
    10030    2    1    2    0    0  0.00000000000E+00  0.00000000000E+00 -0.21511029894E+02  0.90771350505E+03  0.90745858465E+03 0.  0.
        4    1    3    3  502    0  0.24407353903E+03 -0.25595518842E+03 -0.29506010559E+03  0.46059421376E+03  0.12699999809E+01 0. -1.
       -4    1    3    3    0  502 -0.24407353903E+03  0.25595518842E+03  0.27354907569E+03  0.44711929130E+03  0.12699999809E+01 0.  1.
</event>
<event>
 5   0  0.1028978E-02  0.9388159E+03  0.7818609E-02  0.9378319E-01
        2   -1    0    0  501    0  0.00000000000E+00  0.00000000000E+00  0.69589777002E+03  0.69589777002E+03  0.25500000920E-02 0. -1.
       -2   -1    0    0    0  501  0.00000000000E+00  0.00000000000E+00 -0.31663247588E+03  0.31663247589E+03  0.25500000920E-02 0.  1.
    10030    2    1    2    0    0  0.00000000000E+00  0.00000000000E+00  0.37926529414E+03  0.10125302459E+04  0.93881592207E+03 0.  0.
        3    1    3    3  502    0  0.22388063201E+03 -0.44476626973E+02  0.63201338649E+03  0.67196848040E+03  0.10100000352E+00 0. -1.
       -3    1    3    3    0  502 -0.22388063201E+03  0.44476626973E+02 -0.25274809236E+03  0.34056176551E+03  0.10100000352E+00 0.  1.
</event>
<event>
 5   0  0.1017079E-02  0.8990377E+03  0.7818609E-02  0.9426785E-01
       -2   -1    0    0    0  501  0.00000000000E+00  0.00000000000E+00  0.10003508767E+03  0.10003508770E+03  0.25500000920E-02 0.  1.
        2   -1    0    0  501    0  0.00000000000E+00  0.00000000000E+00 -0.20199632262E+04  0.20199632262E+04  0.25500000920E-02 0. -1.
    10030    2    1    2    0    0  0.00000000000E+00  0.00000000000E+00 -0.19199281385E+04  0.21199983139E+04  0.89903770433E+03 0.  0.
        1    1    3    3  502    0 -0.39734187709E+03  0.20674948412E+03 -0.10494865451E+04  0.11410731461E+04  0.50400001928E-02 0. -1.
       -1    1    3    3    0  502  0.39734187709E+03 -0.20674948412E+03 -0.87044159345E+03  0.97892516778E+03  0.50400001928E-02 0.  1.
</event>
<event>
 5   0  0.6092779E-03  0.9006781E+03  0.7818609E-02  0.9424734E-01
        1   -1    0    0  501    0  0.00000000000E+00  0.00000000000E+00  0.23832081060E+03  0.23832081065E+03  0.50400001928E-02 0.  1.
       -1   -1    0    0    0  501  0.00000000000E+00  0.00000000000E+00 -0.85097583409E+03  0.85097583410E+03  0.50400001928E-02 0. -1.
    10030    2    1    2    0    0  0.00000000000E+00  0.00000000000E+00 -0.61265502349E+03  0.10892966448E+04  0.90067807926E+03 0.  0.
        2    1    3    3  502    0  0.15290264930E+03  0.11408311848E+02 -0.81843571071E+03  0.83267423541E+03  0.25500000920E-02 0. -1.
       -2    1    3    3    0  502 -0.15290264930E+03 -0.11408311848E+02  0.20578068722E+03  0.25662240935E+03  0.25500000920E-02 0.  1.
</event>
<event>
 5   0  0.6137243E-03  0.8838589E+03  0.7818609E-02  0.9445987E-01
       -1   -1    0    0    0  501  0.00000000000E+00  0.00000000000E+00  0.13788837023E+03  0.13788837032E+03  0.50400001928E-02 0.  1.
        1   -1    0    0  501    0  0.00000000000E+00  0.00000000000E+00 -0.14163749898E+04  0.14163749898E+04  0.50400001928E-02 0. -1.
    10030    2    1    2    0    0  0.00000000000E+00  0.00000000000E+00 -0.12784866196E+04  0.15542633602E+04  0.88385890064E+03 0.  0.
        4    1    3    3  502    0 -0.37139828073E+03 -0.14809308341E+02 -0.10596088362E+04  0.11229107254E+04  0.12699999809E+01 0. -1.
       -4    1    3    3    0  502  0.37139828073E+03  0.14809308341E+02 -0.21887778336E+03  0.43135263473E+03  0.12699999809E+01 0.  1.
</event>
<event>
 5   0  0.1033749E-02  0.8984467E+03  0.7818609E-02  0.9427525E-01
       -2   -1    0    0    0  501  0.00000000000E+00  0.00000000000E+00  0.73387542621E+03  0.73387542621E+03  0.25500000920E-02 0.  1.
        2   -1    0    0  501    0  0.00000000000E+00  0.00000000000E+00 -0.27498074631E+03  0.27498074632E+03  0.25500000920E-02 0. -1.
    10030    2    1    2    0    0  0.00000000000E+00  0.00000000000E+00  0.45889467990E+03  0.10088561725E+04  0.89844668713E+03 0.  0.
        5    1    3    3  502    0  0.18186694497E+03 -0.81445718462E+02 -0.22260526092E+03  0.29880458985E+03  0.46999998093E+01 0. -1.
       -5    1    3    3    0  502 -0.18186694497E+03  0.81445718462E+02  0.68149994082E+03  0.71005158268E+03  0.46999998093E+01 0.  1.
</event>
<event>
 5   0  0.6288003E-03  0.8807921E+03  0.7818609E-02  0.9449916E-01
       -1   -1    0    0    0  501  0.00000000000E+00  0.00000000000E+00  0.14665365035E+03  0.14665365044E+03  0.50400001928E-02 0. -1.
        1   -1    0    0  501    0  0.00000000000E+00  0.00000000000E+00 -0.13224948231E+04  0.13224948231E+04  0.50400001928E-02 0.  1.
    10030    2    1    2    0    0  0.00000000000E+00  0.00000000000E+00 -0.11758411727E+04  0.14691484735E+04  0.88079212857E+03 0.  0.
        1    1    3    3  502    0  0.39689947861E+02  0.13165292329E+03 -0.12857705235E+04  0.12931023251E+04  0.50400001928E-02 0.  1.
       -1    1    3    3    0  502 -0.39689947861E+02 -0.13165292329E+03  0.10992935077E+03  0.17604614838E+03  0.50400001928E-02 0. -1.
</event>
<event>
 5   0  0.6137243E-03  0.8953205E+03  0.7818609E-02  0.9431450E-01
       -1   -1    0    0    0  501  0.00000000000E+00  0.00000000000E+00  0.15012860384E+03  0.15012860393E+03  0.50400001928E-02 0. -1.
        1   -1    0    0  501    0  0.00000000000E+00  0.00000000000E+00 -0.13348534273E+04  0.13348534273E+04  0.50400001928E-02 0.  1.
    10030    2    1    2    0    0  0.00000000000E+00  0.00000000000E+00 -0.11847248234E+04  0.14849820312E+04  0.89532045983E+03 0.  0.
        4    1    3    3  502    0  0.33074345398E+03  0.13443187480E+03 -0.10402926766E+04  0.10998516387E+04  0.12699999809E+01 0.  1.
       -4    1    3    3    0  502 -0.33074345398E+03 -0.13443187480E+03 -0.14443214689E+03  0.38513039255E+03  0.12699999809E+01 0. -1.
</event>
<event>
 5   0  0.6211218E-03  0.9009980E+03  0.7818609E-02  0.9424335E-01
        1   -1    0    0  501    0  0.00000000000E+00  0.00000000000E+00  0.11305921714E+04  0.11305921714E+04  0.50400001928E-02 0.  1.
       -1   -1    0    0    0  501  0.00000000000E+00  0.00000000000E+00 -0.17950713622E+03  0.17950713629E+03  0.50400001928E-02 0. -1.
    10030    2    1    2    0    0  0.00000000000E+00  0.00000000000E+00  0.95108503514E+03  0.13100993077E+04  0.90099803102E+03 0.  0.
        5    1    3    3  502    0 -0.65797627336E+02 -0.42710221297E+03  0.29057660123E+03  0.52077104304E+03  0.46999998093E+01 0. -1.
       -5    1    3    3    0  502  0.65797627336E+02  0.42710221297E+03  0.66050843391E+03  0.78932826463E+03  0.46999998093E+01 0.  1.
</event>
<event>
 5   0  0.1041727E-02  0.9031271E+03  0.7818609E-02  0.9421681E-01
        2   -1    0    0  501    0  0.00000000000E+00  0.00000000000E+00  0.51420523059E+03  0.51420523060E+03  0.25500000920E-02 0.  1.
       -2   -1    0    0    0  501  0.00000000000E+00  0.00000000000E+00 -0.39655302083E+03  0.39655302084E+03  0.25500000920E-02 0. -1.
    10030    2    1    2    0    0  0.00000000000E+00  0.00000000000E+00  0.11765220976E+03  0.91075825143E+03  0.90312709521E+03 0.  0.
        4    1    3    3  502    0 -0.29168953971E+03  0.28905840082E+03  0.24821735693E+03  0.47984478307E+03  0.12699999809E+01 0.  1.
       -4    1    3    3    0  502  0.29168953971E+03 -0.28905840082E+03 -0.13056514717E+03  0.43091346836E+03  0.12699999809E+01 0. -1.
</event>
<event>
 5   0  0.6288003E-03  0.8979257E+03  0.7818609E-02  0.9428178E-01
       -1   -1    0    0    0  501  0.00000000000E+00  0.00000000000E+00  0.44934479841E+03  0.44934479843E+03  0.50400001928E-02 0.  1.
        1   -1    0    0  501    0  0.00000000000E+00  0.00000000000E+00 -0.44858121393E+03  0.44858121396E+03  0.50400001928E-02 0. -1.
    10030    2    1    2    0    0  0.00000000000E+00  0.00000000000E+00  0.76358447034E+00  0.89792601240E+03  0.89792568773E+03 0.  0.
        1    1    3    3  502    0  0.23628901084E+03  0.30918143334E+03  0.22430592233E+03  0.44915342833E+03  0.50400001928E-02 0.  1.
       -1    1    3    3    0  502 -0.23628901084E+03 -0.30918143334E+03 -0.22354233786E+03  0.44877258406E+03  0.50400001928E-02 0. -1.
</event>
<event>
 5   0  0.1003252E-02  0.8853910E+03  0.7818609E-02  0.9444030E-01
        2   -1    0    0  501    0  0.00000000000E+00  0.00000000000E+00  0.28360525600E+03  0.28360525601E+03  0.25500000920E-02 0. -1.
       -2   -1    0    0    0  501  0.00000000000E+00  0.00000000000E+00 -0.69102839119E+03  0.69102839120E+03  0.25500000920E-02 0.  1.
    10030    2    1    2    0    0  0.00000000000E+00  0.00000000000E+00 -0.40742313520E+03  0.97463364720E+03  0.88539095047E+03 0.  0.
        2    1    3    3  502    0 -0.13494134277E+03  0.29184543077E+03  0.13125640486E+03  0.34729118225E+03  0.25500000920E-02 0. -1.
       -2    1    3    3    0  502  0.13494134277E+03 -0.29184543077E+03 -0.53867954005E+03  0.62734246495E+03  0.25500000920E-02 0.  1.
</event>
<event>
 5   0  0.1033749E-02  0.9115873E+03  0.7818609E-02  0.9411212E-01
       -2   -1    0    0    0  501  0.00000000000E+00  0.00000000000E+00  0.30137251939E+03  0.30137251940E+03  0.25500000920E-02 0.  1.
        2   -1    0    0  501    0  0.00000000000E+00  0.00000000000E+00 -0.68933910112E+03  0.68933910112E+03  0.25500000920E-02 0. -1.
    10030    2    1    2    0    0  0.00000000000E+00  0.00000000000E+00 -0.38796658173E+03  0.99071162052E+03  0.91158732247E+03 0.  0.
        5    1    3    3  502    0  0.74715431667E+02 -0.36989262612E+03 -0.47175080124E+03  0.60413066389E+03  0.46999998093E+01 0. -1.
       -5    1    3    3    0  502 -0.74715431667E+02  0.36989262612E+03  0.83784219509E+02  0.38658095663E+03  0.46999998093E+01 0.  1.
</event>
<event>
 5   0  0.6015709E-03  0.8983161E+03  0.7818609E-02  0.9427689E-01
       -1   -1    0    0    0  501  0.00000000000E+00  0.00000000000E+00  0.33940147763E+03  0.33940147766E+03  0.50400001928E-02 0.  1.
        1   -1    0    0  501    0  0.00000000000E+00  0.00000000000E+00 -0.59440805722E+03  0.59440805724E+03  0.50400001928E-02 0. -1.
    10030    2    1    2    0    0  0.00000000000E+00  0.00000000000E+00 -0.25500657959E+03  0.93380953491E+03  0.89831614248E+03 0.  0.
        3    1    3    3  502    0 -0.83383467801E+02 -0.12266733345E+03 -0.56821536974E+03  0.58725530564E+03  0.10100000352E+00 0. -1.
       -3    1    3    3    0  502  0.83383467801E+02  0.12266733345E+03  0.31320879014E+03  0.34655422926E+03  0.10100000352E+00 0.  1.
</event>
<event>
 5   0  0.3996375E-03  0.9318952E+03  0.7818609E-02  0.9386566E-01
        3   -1    0    0  501    0  0.00000000000E+00  0.00000000000E+00  0.25067579194E+03  0.25067581229E+03  0.10100000352E+00 0. -1.
       -3   -1    0    0    0  501  0.00000000000E+00  0.00000000000E+00 -0.86608743164E+03  0.86608743753E+03  0.10100000352E+00 0.  1.
    10030    2    1    2    0    0  0.00000000000E+00  0.00000000000E+00 -0.61541163970E+03  0.11167632498E+04  0.93189520326E+03 0.  0.
        3    1    3    3  502    0  0.29024098070E+03 -0.30824299532E+03 -0.54086233353E+03  0.68686654095E+03  0.10100000352E+00 0.  1.
       -3    1    3    3    0  502 -0.29024098070E+03  0.30824299532E+03 -0.74549306161E+02  0.42989670886E+03  0.10100000352E+00 0. -1.
</event>
<event>
 5   0  0.6211218E-03  0.7243265E+03  0.7818609E-02  0.9676512E-01
       -1   -1    0    0    0  501  0.00000000000E+00  0.00000000000E+00  0.62913703641E+02  0.62913703843E+02  0.50400001928E-02 0. -1.
        1   -1    0    0  501    0  0.00000000000E+00  0.00000000000E+00 -0.20847956738E+04  0.20847956738E+04  0.50400001928E-02 0.  1.
    10030    2    1    2    0    0  0.00000000000E+00  0.00000000000E+00 -0.20218819702E+04  0.21477093776E+04  0.72432649377E+03 0.  0.
        5    1    3    3  502    0 -0.34322698503E+03  0.10244216103E+03 -0.11689836330E+04  0.12226381246E+04  0.46999998093E+01 0.  1.
       -5    1    3    3    0  502  0.34322698503E+03 -0.10244216103E+03 -0.85289833720E+03  0.92507125304E+03  0.46999998093E+01 0. -1.
</event>
<event>
 5   0  0.1003252E-02  0.8893715E+03  0.7818609E-02  0.9438966E-01
       -2   -1    0    0    0  501  0.00000000000E+00  0.00000000000E+00  0.90683610175E+03  0.90683610176E+03  0.25500000920E-02 0.  1.
        2   -1    0    0  501    0  0.00000000000E+00  0.00000000000E+00 -0.21806080780E+03  0.21806080781E+03  0.25500000920E-02 0. -1.
    10030    2    1    2    0    0  0.00000000000E+00  0.00000000000E+00  0.68877529396E+03  0.11248969096E+04  0.88937149245E+03 0.  0.
        2    1    3    3  502    0 -0.99730849166E+02 -0.97125167380E+02  0.87856491210E+03  0.88952562930E+03  0.25500000920E-02 0.  1.
       -2    1    3    3    0  502  0.99730849166E+02  0.97125167380E+02 -0.18978961814E+03  0.23537128026E+03  0.25500000920E-02 0. -1.
</event>
<event>
 5   0  0.6137243E-03  0.9228705E+03  0.7818609E-02  0.9397435E-01
       -1   -1    0    0    0  501  0.00000000000E+00  0.00000000000E+00  0.23967789694E+03  0.23967789699E+03  0.50400001928E-02 0. -1.
        1   -1    0    0  501    0  0.00000000000E+00  0.00000000000E+00 -0.88836933142E+03  0.88836933144E+03  0.50400001928E-02 0.  1.
    10030    2    1    2    0    0  0.00000000000E+00  0.00000000000E+00 -0.64869143448E+03  0.11280472284E+04  0.92287050684E+03 0.  0.
        4    1    3    3  502    0  0.10021530960E+03 -0.29804066735E+03  0.88448182405E+02  0.32664360019E+03  0.12699999809E+01 0. -1.
       -4    1    3    3    0  502 -0.10021530960E+03  0.29804066735E+03 -0.73713961689E+03  0.80140362824E+03  0.12699999809E+01 0.  1.
</event>
<event>
 5   0  0.1028978E-02  0.9395612E+03  0.7818609E-02  0.9377436E-01
        2   -1    0    0  501    0  0.00000000000E+00  0.00000000000E+00  0.15158423612E+04  0.15158423612E+04  0.25500000920E-02 0. -1.
       -2   -1    0    0    0  501  0.00000000000E+00  0.00000000000E+00 -0.14559154348E+03  0.14559154350E+03  0.25500000920E-02 0.  1.
    10030    2    1    2    0    0  0.00000000000E+00  0.00000000000E+00  0.13702508177E+04  0.16614339047E+04  0.93956123602E+03 0.  0.
        3    1    3    3  502    0  0.33762165666E+03  0.11425532271E+03  0.12262715326E+04  0.12770217475E+04  0.10100000352E+00 0. -1.
       -3    1    3    3    0  502 -0.33762165666E+03 -0.11425532271E+03  0.14397928507E+03  0.38441215712E+03  0.10100000352E+00 0.  1.
</event>
<event>
 5   0  0.1033749E-02  0.9058327E+03  0.7818609E-02  0.9418320E-01
        2   -1    0    0  501    0  0.00000000000E+00  0.00000000000E+00  0.66221667101E+03  0.66221667102E+03  0.25500000920E-02 0.  1.
       -2   -1    0    0    0  501  0.00000000000E+00  0.00000000000E+00 -0.30976750891E+03  0.30976750892E+03  0.25500000920E-02 0. -1.
    10030    2    1    2    0    0  0.00000000000E+00  0.00000000000E+00  0.35244916210E+03  0.97198417993E+03  0.90583267449E+03 0.  0.
        5    1    3    3  502    0 -0.17519875061E+03  0.41268350239E+03  0.10744318327E+03  0.46105141036E+03  0.46999998093E+01 0. -1.
       -5    1    3    3    0  502  0.17519875061E+03 -0.41268350239E+03  0.24500597884E+03  0.51093276958E+03  0.46999998093E+01 0.  1.
</event>
<event>
 5   0  0.1017079E-02  0.8995832E+03  0.7818609E-02  0.9426103E-01
       -2   -1    0    0    0  501  0.00000000000E+00  0.00000000000E+00  0.27537940958E+03  0.27537940959E+03  0.25500000920E-02 0.  1.
        2   -1    0    0  501    0  0.00000000000E+00  0.00000000000E+00 -0.73466809716E+03  0.73466809716E+03  0.25500000920E-02 0. -1.
    10030    2    1    2    0    0  0.00000000000E+00  0.00000000000E+00 -0.45928868758E+03  0.10100475067E+04  0.89958316311E+03 0.  0.
        1    1    3    3  502    0 -0.20169529551E+03  0.12838965129E+03  0.19812077717E+03  0.31051044614E+03  0.50400001928E-02 0.  1.
       -1    1    3    3    0  502  0.20169529551E+03 -0.12838965129E+03 -0.65740946476E+03  0.69953706061E+03  0.50400001928E-02 0. -1.
</event>
<event>
 5   0  0.6137243E-03  0.8971365E+03  0.7818609E-02  0.9429168E-01
       -1   -1    0    0    0  501  0.00000000000E+00  0.00000000000E+00  0.42583903684E+03  0.42583903687E+03  0.50400001928E-02 0.  1.
        1   -1    0    0  501    0  0.00000000000E+00  0.00000000000E+00 -0.47251062938E+03  0.47251062941E+03  0.50400001928E-02 0. -1.
    10030    2    1    2    0    0  0.00000000000E+00  0.00000000000E+00 -0.46671592543E+02  0.89834966628E+03  0.89713649204E+03 0.  0.
        4    1    3    3  502    0  0.17270469204E+03  0.28557365454E+03 -0.32346203061E+03  0.46476716856E+03  0.12699999809E+01 0. -1.
       -4    1    3    3    0  502 -0.17270469204E+03 -0.28557365454E+03  0.27679043807E+03  0.43358249772E+03  0.12699999809E+01 0.  1.
</event>
<event>
 5   0  0.1017079E-02  0.8918243E+03  0.7818609E-02  0.9435859E-01
       -2   -1    0    0    0  501  0.00000000000E+00  0.00000000000E+00  0.47801303049E+03  0.47801303049E+03  0.25500000920E-02 0. -1.
        2   -1    0    0  501    0  0.00000000000E+00  0.00000000000E+00 -0.41596702843E+03  0.41596702844E+03  0.25500000920E-02 0.  1.
    10030    2    1    2    0    0  0.00000000000E+00  0.00000000000E+00  0.62046002058E+02  0.89398005893E+03  0.89182433214E+03 0.  0.
        1    1    3    3  502    0  0.19084606253E+03 -0.33224479283E+03 -0.19762666799E+03  0.43112077411E+03  0.50400001928E-02 0.  1.
       -1    1    3    3    0  502 -0.19084606253E+03  0.33224479283E+03  0.25967267005E+03  0.46285928482E+03  0.50400001928E-02 0. -1.
</event>
<event>
 5   0  0.6137243E-03  0.9009060E+03  0.7818609E-02  0.9424450E-01
        1   -1    0    0  501    0  0.00000000000E+00  0.00000000000E+00  0.51771086184E+03  0.51771086187E+03  0.50400001928E-02 0. -1.
       -1   -1    0    0    0  501  0.00000000000E+00  0.00000000000E+00 -0.39193284712E+03  0.39193284715E+03  0.50400001928E-02 0.  1.
    10030    2    1    2    0    0  0.00000000000E+00  0.00000000000E+00  0.12577801473E+03  0.90964370901E+03  0.90090597088E+03 0.  0.
        4    1    3    3  502    0 -0.85103930687E+02 -0.33169150596E+00  0.50951783696E+03  0.51657799809E+03  0.12699999809E+01 0. -1.
       -4    1    3    3    0  502  0.85103930687E+02  0.33169150596E+00 -0.38373982223E+03  0.39306571092E+03  0.12699999809E+01 0.  1.
</event>
<event>
 5   0  0.1041727E-02  0.8957934E+03  0.7818609E-02  0.9430855E-01
       -2   -1    0    0    0  501  0.00000000000E+00  0.00000000000E+00  0.16039312870E+04  0.16039312870E+04  0.25500000920E-02 0.  1.
        2   -1    0    0  501    0  0.00000000000E+00  0.00000000000E+00 -0.12507483370E+03  0.12507483373E+03  0.25500000920E-02 0. -1.
    10030    2    1    2    0    0  0.00000000000E+00  0.00000000000E+00  0.14788564533E+04  0.17290061207E+04  0.89579336681E+03 0.  0.
        4    1    3    3  502    0  0.24119511377E+02 -0.38540060457E+03  0.30143348426E+03  0.48987665301E+03  0.12699999809E+01 0. -1.
       -4    1    3    3    0  502 -0.24119511377E+02  0.38540060457E+03  0.11774229690E+04  0.12391294677E+04  0.12699999809E+01 0.  1.
</event>
<event>
 5   0  0.6288003E-03  0.8977170E+03  0.7818609E-02  0.9428440E-01
       -1   -1    0    0    0  501  0.00000000000E+00  0.00000000000E+00  0.20231256582E+03  0.20231256588E+03  0.50400001928E-02 0.  1.
        1   -1    0    0  501    0  0.00000000000E+00  0.00000000000E+00 -0.99585483866E+03  0.99585483868E+03  0.50400001928E-02 0. -1.
    10030    2    1    2    0    0  0.00000000000E+00  0.00000000000E+00 -0.79354227284E+03  0.11981674046E+04  0.89771698801E+03 0.  0.
        1    1    3    3  502    0  0.20823055618E+03  0.38019707005E+03 -0.24132687802E+03  0.49613348878E+03  0.50400001928E-02 0.  1.
       -1    1    3    3    0  502 -0.20823055618E+03 -0.38019707005E+03 -0.55221539482E+03  0.70203391578E+03  0.50400001928E-02 0. -1.
</event>
<event>
 5   0  0.1033749E-02  0.8988921E+03  0.7818609E-02  0.9426967E-01
       -2   -1    0    0    0  501  0.00000000000E+00  0.00000000000E+00  0.20602184175E+03  0.20602184176E+03  0.25500000920E-02 0.  1.
        2   -1    0    0  501    0  0.00000000000E+00  0.00000000000E+00 -0.98048704416E+03  0.98048704416E+03  0.25500000920E-02 0. -1.
    10030    2    1    2    0    0  0.00000000000E+00  0.00000000000E+00 -0.77446520241E+03  0.11865088859E+04  0.89889208843E+03 0.  0.
        5    1    3    3  502    0 -0.54453450226E+02  0.30021301634E+03  0.48330119514E+02  0.30895132929E+03  0.46999998093E+01 0.  1.
       -5    1    3    3    0  502  0.54453450226E+02 -0.30021301634E+03 -0.82279532192E+03  0.87755755663E+03  0.46999998093E+01 0. -1.
</event>
<event>
 5   0  0.1033749E-02  0.8939325E+03  0.7818609E-02  0.9433198E-01
       -2   -1    0    0    0  501  0.00000000000E+00  0.00000000000E+00  0.31586386331E+03  0.31586386332E+03  0.25500000920E-02 0.  1.
        2   -1    0    0  501    0  0.00000000000E+00  0.00000000000E+00 -0.63248401344E+03  0.63248401345E+03  0.25500000920E-02 0. -1.
    10030    2    1    2    0    0  0.00000000000E+00  0.00000000000E+00 -0.31662015014E+03  0.94834787676E+03  0.89393253431E+03 0.  0.
        5    1    3    3  502    0  0.12119794797E+03  0.11205262680E+03 -0.59893860464E+03  0.62128437603E+03  0.46999998093E+01 0. -1.
       -5    1    3    3    0  502 -0.12119794797E+03 -0.11205262680E+03  0.28231845450E+03  0.32706350074E+03  0.46999998093E+01 0.  1.
</event>
<event>
 5   0  0.1003252E-02  0.8695270E+03  0.7818609E-02  0.9464497E-01
       -2   -1    0    0    0  501  0.00000000000E+00  0.00000000000E+00  0.16064319082E+03  0.16064319084E+03  0.25500000920E-02 0.  1.
        2   -1    0    0  501    0  0.00000000000E+00  0.00000000000E+00 -0.11766406775E+04  0.11766406776E+04  0.25500000920E-02 0. -1.
    10030    2    1    2    0    0  0.00000000000E+00  0.00000000000E+00 -0.10159974867E+04  0.13372838684E+04  0.86952702753E+03 0.  0.
        2    1    3    3  502    0  0.20842679698E+03 -0.17168313748E+02  0.78203760071E+02  0.22327630593E+03  0.25500000920E-02 0.  1.
       -2    1    3    3    0  502 -0.20842679698E+03  0.17168313748E+02 -0.10942012468E+04  0.11140075625E+04  0.25500000920E-02 0. -1.
</event>
<event>
 5   0  0.1003252E-02  0.9144870E+03  0.7818609E-02  0.9407651E-01
        2   -1    0    0  501    0  0.00000000000E+00  0.00000000000E+00  0.15263730821E+04  0.15263730821E+04  0.25500000920E-02 0.  1.
       -2   -1    0    0    0  501  0.00000000000E+00  0.00000000000E+00 -0.13697282533E+03  0.13697282535E+03  0.25500000920E-02 0. -1.
    10030    2    1    2    0    0  0.00000000000E+00  0.00000000000E+00  0.13894002568E+04  0.16633459074E+04  0.91448703342E+03 0.  0.
        2    1    3    3  502    0  0.27806786896E+03  0.26105955496E+03  0.23600294099E+03  0.44852114682E+03  0.25500000920E-02 0. -1.
       -2    1    3    3    0  502 -0.27806786896E+03 -0.26105955496E+03  0.11533973158E+04  0.12148247606E+04  0.25500000920E-02 0.  1.
</event>
<event>
 5   0  0.1017079E-02  0.9038637E+03  0.7818609E-02  0.9420764E-01
        2   -1    0    0  501    0  0.00000000000E+00  0.00000000000E+00  0.54401795906E+03  0.54401795907E+03  0.25500000920E-02 0. -1.
       -2   -1    0    0    0  501  0.00000000000E+00  0.00000000000E+00 -0.37543321460E+03  0.37543321461E+03  0.25500000920E-02 0.  1.
    10030    2    1    2    0    0  0.00000000000E+00  0.00000000000E+00  0.16858474447E+03  0.91945117367E+03  0.90386373127E+03 0.  0.
        1    1    3    3  502    0  0.34893806430E+03 -0.23689738114E+02  0.37545108293E+03  0.51311060417E+03  0.50400001928E-02 0. -1.
       -1    1    3    3    0  502 -0.34893806430E+03  0.23689738114E+02 -0.20686633846E+03  0.40634056951E+03  0.50400001928E-02 0.  1.
</event>
<event>
 5   0  0.6015709E-03  0.8675270E+03  0.7818609E-02  0.9467110E-01
        1   -1    0    0  501    0  0.00000000000E+00  0.00000000000E+00  0.60962705244E+03  0.60962705246E+03  0.50400001928E-02 0.  1.
       -1   -1    0    0    0  501  0.00000000000E+00  0.00000000000E+00 -0.30863256569E+03  0.30863256573E+03  0.50400001928E-02 0. -1.
    10030    2    1    2    0    0  0.00000000000E+00  0.00000000000E+00  0.30099448675E+03  0.91825961819E+03  0.86752697096E+03 0.  0.
        3    1    3    3  502    0 -0.29623911020E+03  0.22584825745E+03 -0.84727568966E+02  0.38202593753E+03  0.10100000352E+00 0. -1.
       -3    1    3    3    0  502  0.29623911020E+03 -0.22584825745E+03  0.38572205572E+03  0.53623368066E+03  0.10100000352E+00 0.  1.
</event>
<event>
 5   0  0.6015709E-03  0.8982577E+03  0.7818609E-02  0.9427762E-01
        1   -1    0    0  501    0  0.00000000000E+00  0.00000000000E+00  0.91444805978E+03  0.91444805980E+03  0.50400001928E-02 0. -1.
       -1   -1    0    0    0  501  0.00000000000E+00  0.00000000000E+00 -0.22058847763E+03  0.22058847769E+03  0.50400001928E-02 0.  1.
    10030    2    1    2    0    0  0.00000000000E+00  0.00000000000E+00  0.69385958215E+03  0.11350365375E+04  0.89825765886E+03 0.  0.
        3    1    3    3  502    0  0.24188975943E+03 -0.89960724881E+02 -0.11754019405E+03  0.28358295992E+03  0.10100000352E+00 0.  1.
       -3    1    3    3    0  502 -0.24188975943E+03  0.89960724881E+02  0.81139977620E+03  0.85145357757E+03  0.10100000352E+00 0. -1.
</event>
<event>
 5   0  0.3996375E-03  0.9002587E+03  0.7818609E-02  0.9425258E-01
        3   -1    0    0  501    0  0.00000000000E+00  0.00000000000E+00  0.55228027313E+03  0.55228028236E+03  0.10100000352E+00 0. -1.
       -3   -1    0    0    0  501  0.00000000000E+00  0.00000000000E+00 -0.36687243293E+03  0.36687244684E+03  0.10100000352E+00 0.  1.
    10030    2    1    2    0    0  0.00000000000E+00  0.00000000000E+00  0.18540784019E+03  0.91915272920E+03  0.90025866971E+03 0.  0.
        1    1    3    3  502    0  0.26511125000E+03 -0.60443448845E+02  0.45895107731E+03  0.53345428743E+03  0.50400001928E-02 0. -1.
       -1    1    3    3    0  502 -0.26511125000E+03  0.60443448845E+02 -0.27354323711E+03  0.38569844177E+03  0.50400001928E-02 0.  1.
</event>
<event>
 5   0  0.1028978E-02  0.8731934E+03  0.7818609E-02  0.9459726E-01
       -2   -1    0    0    0  501  0.00000000000E+00  0.00000000000E+00  0.17267531911E+03  0.17267531913E+03  0.25500000920E-02 0.  1.
        2   -1    0    0  501    0  0.00000000000E+00  0.00000000000E+00 -0.11039023717E+04  0.11039023717E+04  0.25500000920E-02 0. -1.
    10030    2    1    2    0    0  0.00000000000E+00  0.00000000000E+00 -0.93122705259E+03  0.12765776908E+04  0.87319343633E+03 0.  0.
        3    1    3    3  502    0  0.12499568622E+03 -0.41423708330E+03 -0.38036205586E+03  0.57610032676E+03  0.10100000352E+00 0.  1.
       -3    1    3    3    0  502 -0.12499568622E+03  0.41423708330E+03 -0.55086499673E+03  0.70047736407E+03  0.10100000352E+00 0. -1.
</event>
<event>
 5   0  0.6288003E-03  0.9054358E+03  0.7818609E-02  0.9418812E-01
        1   -1    0    0  501    0  0.00000000000E+00  0.00000000000E+00  0.25323572777E+03  0.25323572782E+03  0.50400001928E-02 0. -1.
       -1   -1    0    0    0  501  0.00000000000E+00  0.00000000000E+00 -0.80933881873E+03  0.80933881874E+03  0.50400001928E-02 0.  1.
    10030    2    1    2    0    0  0.00000000000E+00  0.00000000000E+00 -0.55610309096E+03  0.10625745466E+04  0.90543581729E+03 0.  0.
        1    1    3    3  502    0 -0.36870480791E+03 -0.12276567978E+03 -0.54975149471E+01  0.38864491532E+03  0.50400001928E-02 0. -1.
       -1    1    3    3    0  502  0.36870480791E+03  0.12276567978E+03 -0.55060557601E+03  0.67392963124E+03  0.50400001928E-02 0.  1.
</event>
<event>
 5   0  0.1003252E-02  0.8569667E+03  0.7818609E-02  0.9481034E-01
        2   -1    0    0  501    0  0.00000000000E+00  0.00000000000E+00  0.35108759007E+03  0.35108759008E+03  0.25500000920E-02 0.  1.
       -2   -1    0    0    0  501  0.00000000000E+00  0.00000000000E+00 -0.52294065346E+03  0.52294065347E+03  0.25500000920E-02 0. -1.
    10030    2    1    2    0    0  0.00000000000E+00  0.00000000000E+00 -0.17185306339E+03  0.87402824354E+03  0.85696668261E+03 0.  0.
        2    1    3    3  502    0 -0.30757770398E+03 -0.23752264933E+03 -0.27001074479E+03  0.47320910308E+03  0.25500000920E-02 0. -1.
       -2    1    3    3    0  502  0.30757770398E+03  0.23752264933E+03  0.98157681397E+02  0.40081914046E+03  0.25500000920E-02 0.  1.
</event>
<event>
 5   0  0.6137243E-03  0.9082429E+03  0.7818609E-02  0.9415336E-01
       -1   -1    0    0    0  501  0.00000000000E+00  0.00000000000E+00  0.41863225571E+03  0.41863225574E+03  0.50400001928E-02 0.  1.
        1   -1    0    0  501    0  0.00000000000E+00  0.00000000000E+00 -0.49261922465E+03  0.49261922467E+03  0.50400001928E-02 0. -1.
    10030    2    1    2    0    0  0.00000000000E+00  0.00000000000E+00 -0.73986968939E+02  0.91125148041E+03  0.90824291298E+03 0.  0.
        4    1    3    3  502    0  0.27480841600E+03 -0.13842746111E+02  0.32546959536E+03  0.42619638376E+03  0.12699999809E+01 0.  1.
       -4    1    3    3    0  502 -0.27480841600E+03  0.13842746111E+02 -0.39945656430E+03  0.48505509665E+03  0.12699999809E+01 0. -1.
</event>
<event>
 5   0  0.6288003E-03  0.8942696E+03  0.7818609E-02  0.9432773E-01
       -1   -1    0    0    0  501  0.00000000000E+00  0.00000000000E+00  0.92497705853E+03  0.92497705854E+03  0.50400001928E-02 0. -1.
        1   -1    0    0  501    0  0.00000000000E+00  0.00000000000E+00 -0.21614539771E+03  0.21614539776E+03  0.50400001928E-02 0.  1.
    10030    2    1    2    0    0  0.00000000000E+00  0.00000000000E+00  0.70883166082E+03  0.11411224563E+04  0.89426961086E+03 0.  0.
        1    1    3    3  502    0  0.14853563149E+03  0.42009714973E+03  0.30692584692E+03  0.54106184911E+03  0.50400001928E-02 0. -1.
       -1    1    3    3    0  502 -0.14853563149E+03 -0.42009714973E+03  0.40190581391E+03  0.60006060720E+03  0.50400001928E-02 0.  1.
</event>
<event>
 5   0  0.6092779E-03  0.9242503E+03  0.7818609E-02  0.9395765E-01
        1   -1    0    0  501    0  0.00000000000E+00  0.00000000000E+00  0.98905531314E+03  0.98905531315E+03  0.50400001928E-02 0.  1.
       -1   -1    0    0    0  501  0.00000000000E+00  0.00000000000E+00 -0.21592287021E+03  0.21592287027E+03  0.50400001928E-02 0. -1.
    10030    2    1    2    0    0  0.00000000000E+00  0.00000000000E+00  0.77313244292E+03  0.12049781834E+04  0.92425031686E+03 0.  0.
        2    1    3    3  502    0 -0.79394012738E+02 -0.44452957215E+03  0.25849641362E+03  0.52031754308E+03  0.25500000920E-02 0.  1.
       -2    1    3    3    0  502  0.79394012738E+02  0.44452957215E+03  0.51463602930E+03  0.68466064035E+03  0.25500000920E-02 0. -1.
</event>
<event>
 5   0  0.6015709E-03  0.9012114E+03  0.7818609E-02  0.9424068E-01
       -1   -1    0    0    0  501  0.00000000000E+00  0.00000000000E+00  0.10863157150E+03  0.10863157162E+03  0.50400001928E-02 0. -1.
        1   -1    0    0  501    0  0.00000000000E+00  0.00000000000E+00 -0.18691203075E+04  0.18691203075E+04  0.50400001928E-02 0.  1.
    10030    2    1    2    0    0  0.00000000000E+00  0.00000000000E+00 -0.17604887360E+04  0.19777518791E+04  0.90121135469E+03 0.  0.
        3    1    3    3  502    0 -0.35691445017E+03  0.16698553050E+03 -0.40057928135E+03  0.56190378446E+03  0.10100000352E+00 0. -1.
       -3    1    3    3    0  502  0.35691445017E+03 -0.16698553050E+03 -0.13599094547E+04  0.14158480947E+04  0.10100000352E+00 0.  1.
</event>
<event>
 5   0  0.1041727E-02  0.8909676E+03  0.7818609E-02  0.9436943E-01
        2   -1    0    0  501    0  0.00000000000E+00  0.00000000000E+00  0.55093416260E+03  0.55093416260E+03  0.25500000920E-02 0. -1.
       -2   -1    0    0    0  501  0.00000000000E+00  0.00000000000E+00 -0.36021689986E+03  0.36021689987E+03  0.25500000920E-02 0.  1.
    10030    2    1    2    0    0  0.00000000000E+00  0.00000000000E+00  0.19071726274E+03  0.91115106247E+03  0.89096755516E+03 0.  0.
        4    1    3    3  502    0 -0.19631782503E+03  0.14867509530E+03 -0.28427757015E+03  0.37611211384E+03  0.12699999809E+01 0.  1.
       -4    1    3    3    0  502  0.19631782503E+03 -0.14867509530E+03  0.47499483289E+03  0.53503894864E+03  0.12699999809E+01 0. -1.
</event>
<event>
 5   0  0.1041727E-02  0.8906999E+03  0.7818609E-02  0.9437282E-01
       -2   -1    0    0    0  501  0.00000000000E+00  0.00000000000E+00  0.32686926027E+03  0.32686926028E+03  0.25500000920E-02 0. -1.
        2   -1    0    0  501    0  0.00000000000E+00  0.00000000000E+00 -0.60677643919E+03  0.60677643919E+03  0.25500000920E-02 0.  1.
    10030    2    1    2    0    0  0.00000000000E+00  0.00000000000E+00 -0.27990717891E+03  0.93364569947E+03  0.89069987276E+03 0.  0.
        4    1    3    3  502    0  0.10086136587E+03  0.13703748597E+03  0.29145142810E+03  0.33748753389E+03  0.12699999809E+01 0. -1.
       -4    1    3    3    0  502 -0.10086136587E+03 -0.13703748597E+03 -0.57135860701E+03  0.59615816559E+03  0.12699999809E+01 0.  1.
</event>
<event>
 5   0  0.6092779E-03  0.8942497E+03  0.7818609E-02  0.9432798E-01
        1   -1    0    0  501    0  0.00000000000E+00  0.00000000000E+00  0.12855625223E+04  0.12855625224E+04  0.50400001928E-02 0. -1.
       -1   -1    0    0    0  501  0.00000000000E+00  0.00000000000E+00 -0.15551219669E+03  0.15551219677E+03  0.50400001928E-02 0.  1.
    10030    2    1    2    0    0  0.00000000000E+00  0.00000000000E+00  0.11300503257E+04  0.14410747191E+04  0.89424974565E+03 0.  0.
        2    1    3    3  502    0  0.51994998110E+02 -0.47829300061E+02  0.12765113811E+04  0.12784648715E+04  0.25500000920E-02 0. -1.
       -2    1    3    3    0  502 -0.51994998110E+02  0.47829300061E+02 -0.14646105541E+03  0.16260984758E+03  0.25500000920E-02 0.  1.
</event>
<event>
 5   0  0.1041727E-02  0.9013877E+03  0.7818609E-02  0.9423848E-01
       -2   -1    0    0    0  501  0.00000000000E+00  0.00000000000E+00  0.67153727217E+03  0.67153727217E+03  0.25500000920E-02 0. -1.
        2   -1    0    0  501    0  0.00000000000E+00  0.00000000000E+00 -0.30247755232E+03  0.30247755233E+03  0.25500000920E-02 0.  1.
    10030    2    1    2    0    0  0.00000000000E+00  0.00000000000E+00  0.36905971984E+03  0.97401482451E+03  0.90138770878E+03 0.  0.
        4    1    3    3  502    0 -0.43739410114E+03  0.10032321736E+03  0.13939102080E+03  0.46990405109E+03  0.12699999809E+01 0. -1.
       -4    1    3    3    0  502  0.43739410114E+03 -0.10032321736E+03  0.22966869904E+03  0.50411077341E+03  0.12699999809E+01 0.  1.
</event>
<event>
 5   0  0.1017079E-02  0.8839728E+03  0.7818609E-02  0.9445841E-01
       -2   -1    0    0    0  501  0.00000000000E+00  0.00000000000E+00  0.35699081051E+03  0.35699081052E+03  0.25500000920E-02 0.  1.
        2   -1    0    0  501    0  0.00000000000E+00  0.00000000000E+00 -0.54721852656E+03  0.54721852656E+03  0.25500000920E-02 0. -1.
    10030    2    1    2    0    0  0.00000000000E+00  0.00000000000E+00 -0.19022771605E+03  0.90420933708E+03  0.88397281706E+03 0.  0.
        1    1    3    3  502    0  0.40841619323E+03  0.30403726263E+02 -0.26512284541E+03  0.48787118858E+03  0.50400001928E-02 0. -1.
       -1    1    3    3    0  502 -0.40841619323E+03 -0.30403726263E+02  0.74895129365E+02  0.41633814849E+03  0.50400001928E-02 0.  1.
</event>
<event>
 5   0  0.1041727E-02  0.8962181E+03  0.7818609E-02  0.9430321E-01
       -2   -1    0    0    0  501  0.00000000000E+00  0.00000000000E+00  0.17777557002E+03  0.17777557004E+03  0.25500000920E-02 0.  1.
        2   -1    0    0  501    0  0.00000000000E+00  0.00000000000E+00 -0.11295237125E+04  0.11295237125E+04  0.25500000920E-02 0. -1.
    10030    2    1    2    0    0  0.00000000000E+00  0.00000000000E+00 -0.95174814250E+03  0.13072992826E+04  0.89621810262E+03 0.  0.
        4    1    3    3  502    0 -0.20868264782E+03 -0.80198168530E+02 -0.10423619963E+04  0.10660676986E+04  0.12699999809E+01 0. -1.
       -4    1    3    3    0  502  0.20868264782E+03  0.80198168530E+02  0.90613853759E+02  0.24123158402E+03  0.12699999809E+01 0.  1.
</event>
<event>
 5   0  0.6015709E-03  0.8980398E+03  0.7818609E-02  0.9428035E-01
       -1   -1    0    0    0  501  0.00000000000E+00  0.00000000000E+00  0.23923311453E+03  0.23923311458E+03  0.50400001928E-02 0. -1.
        1   -1    0    0  501    0  0.00000000000E+00  0.00000000000E+00 -0.84277164642E+03  0.84277164643E+03  0.50400001928E-02 0.  1.
    10030    2    1    2    0    0  0.00000000000E+00  0.00000000000E+00 -0.60353853188E+03  0.10820047610E+04  0.89803983397E+03 0.  0.
        3    1    3    3  502    0 -0.21734411341E+03 -0.17795390126E+03 -0.72383348986E+03  0.77642835204E+03  0.10100000352E+00 0.  1.
       -3    1    3    3    0  502  0.21734411341E+03  0.17795390126E+03  0.12029495798E+03  0.30557640898E+03  0.10100000352E+00 0. -1.
</event>
<event>
 5   0  0.1033749E-02  0.9002978E+03  0.7818609E-02  0.9425209E-01
        2   -1    0    0  501    0  0.00000000000E+00  0.00000000000E+00  0.17759940766E+04  0.17759940766E+04  0.25500000920E-02 0.  1.
       -2   -1    0    0    0  501  0.00000000000E+00  0.00000000000E+00 -0.11409611031E+03  0.11409611034E+03  0.25500000920E-02 0. -1.
    10030    2    1    2    0    0  0.00000000000E+00  0.00000000000E+00  0.16618979662E+04  0.18900901869E+04  0.90029776430E+03 0.  0.
        5    1    3    3  502    0  0.12474890665E+03  0.27563985983E+03  0.15306286385E+04  0.15602518198E+04  0.46999998093E+01 0.  1.
       -5    1    3    3    0  502 -0.12474890665E+03 -0.27563985983E+03  0.13126932774E+03  0.32983836715E+03  0.46999998093E+01 0. -1.
</event>
<event>
 5   0  0.6015709E-03  0.9025051E+03  0.7818609E-02  0.9422455E-01
        1   -1    0    0  501    0  0.00000000000E+00  0.00000000000E+00  0.17234434713E+03  0.17234434720E+03  0.50400001928E-02 0.  1.
       -1   -1    0    0    0  501  0.00000000000E+00  0.00000000000E+00 -0.11815232178E+04  0.11815232178E+04  0.50400001928E-02 0. -1.
    10030    2    1    2    0    0  0.00000000000E+00  0.00000000000E+00 -0.10091788707E+04  0.13538675650E+04  0.90250506401E+03 0.  0.
        3    1    3    3  502    0  0.50196770398E+02  0.21199232710E+03 -0.10974097560E+04  0.11188246714E+04  0.10100000352E+00 0. -1.
       -3    1    3    3    0  502 -0.50196770398E+02 -0.21199232710E+03  0.88230885355E+02  0.23504289361E+03  0.10100000352E+00 0.  1.
</event>
<event>
 5   0  0.6015709E-03  0.8994641E+03  0.7818609E-02  0.9426252E-01
       -1   -1    0    0    0  501  0.00000000000E+00  0.00000000000E+00  0.11645491185E+03  0.11645491196E+03  0.50400001928E-02 0. -1.
        1   -1    0    0  501    0  0.00000000000E+00  0.00000000000E+00 -0.17368003297E+04  0.17368003297E+04  0.50400001928E-02 0.  1.
    10030    2    1    2    0    0  0.00000000000E+00  0.00000000000E+00 -0.16203454178E+04  0.18532552416E+04  0.89946412803E+03 0.  0.
        3    1    3    3  502    0 -0.28399435174E+03  0.26563394387E+03 -0.12756804069E+04  0.13336321437E+04  0.10100000352E+00 0.  1.
       -3    1    3    3    0  502  0.28399435174E+03 -0.26563394387E+03 -0.34466501090E+03  0.51962309792E+03  0.10100000352E+00 0. -1.
</event>
<event>
 5   0  0.1028978E-02  0.8863911E+03  0.7818609E-02  0.9442755E-01
        2   -1    0    0  501    0  0.00000000000E+00  0.00000000000E+00  0.45864187592E+03  0.45864187593E+03  0.25500000920E-02 0. -1.
       -2   -1    0    0    0  501  0.00000000000E+00  0.00000000000E+00 -0.42826942837E+03  0.42826942838E+03  0.25500000920E-02 0.  1.
    10030    2    1    2    0    0  0.00000000000E+00  0.00000000000E+00  0.30372447554E+02  0.88691130431E+03  0.88639109660E+03 0.  0.
        3    1    3    3  502    0  0.42866962390E+03  0.93733921720E+02 -0.47128647572E+02  0.44132166744E+03  0.10100000352E+00 0. -1.
       -3    1    3    3    0  502 -0.42866962390E+03 -0.93733921720E+02  0.77501095126E+02  0.44558963686E+03  0.10100000352E+00 0.  1.
</event>
<event>
 5   0  0.6288003E-03  0.8870109E+03  0.7818609E-02  0.9441966E-01
        1   -1    0    0  501    0  0.00000000000E+00  0.00000000000E+00  0.98843653836E+03  0.98843653837E+03  0.50400001928E-02 0.  1.
       -1   -1    0    0    0  501  0.00000000000E+00  0.00000000000E+00 -0.19899817298E+03  0.19899817304E+03  0.50400001928E-02 0. -1.
    10030    2    1    2    0    0  0.00000000000E+00  0.00000000000E+00  0.78943836538E+03  0.11874347114E+04  0.88701085739E+03 0.  0.
        1    1    3    3  502    0 -0.21955575779E+03  0.20868001600E+03  0.82839144956E+03  0.88203428141E+03  0.50400001928E-02 0.  1.
       -1    1    3    3    0  502  0.21955575779E+03 -0.20868001600E+03 -0.38953084178E+02  0.30540043000E+03  0.50400001928E-02 0. -1.
</event>
<event>
 5   0  0.6137243E-03  0.8874886E+03  0.7818609E-02  0.9441358E-01
        1   -1    0    0  501    0  0.00000000000E+00  0.00000000000E+00  0.75698606708E+03  0.75698606709E+03  0.50400001928E-02 0.  1.
       -1   -1    0    0    0  501  0.00000000000E+00  0.00000000000E+00 -0.26012238155E+03  0.26012238160E+03  0.50400001928E-02 0. -1.
    10030    2    1    2    0    0  0.00000000000E+00  0.00000000000E+00  0.49686368553E+03  0.10171084487E+04  0.88748863340E+03 0.  0.
        4    1    3    3  502    0 -0.37675867679E+03 -0.20097193952E+03  0.38677030766E+03  0.57613340886E+03  0.12699999809E+01 0.  1.
       -4    1    3    3    0  502  0.37675867679E+03  0.20097193952E+03  0.11009337786E+03  0.44097503984E+03  0.12699999809E+01 0. -1.
</event>
<event>
 5   0  0.6211218E-03  0.8461543E+03  0.7818609E-02  0.9495513E-01
       -1   -1    0    0    0  501  0.00000000000E+00  0.00000000000E+00  0.43559241987E+03  0.43559241990E+03  0.50400001928E-02 0.  1.
        1   -1    0    0  501    0  0.00000000000E+00  0.00000000000E+00 -0.41092146114E+03  0.41092146117E+03  0.50400001928E-02 0. -1.
    10030    2    1    2    0    0  0.00000000000E+00  0.00000000000E+00  0.24670958734E+02  0.84651388107E+03  0.84615429718E+03 0.  0.
        5    1    3    3  502    0  0.98464562464E+02 -0.67949336771E+02 -0.39361991162E+03  0.41142570076E+03  0.46999998093E+01 0. -1.
       -5    1    3    3    0  502 -0.98464562464E+02  0.67949336771E+02  0.41829087035E+03  0.43508818031E+03  0.46999998093E+01 0.  1.
</event>
<event>
 5   0  0.6137243E-03  0.8983907E+03  0.7818609E-02  0.9427595E-01
       -1   -1    0    0    0  501  0.00000000000E+00  0.00000000000E+00  0.11211083109E+03  0.11211083120E+03  0.50400001928E-02 0.  1.
        1   -1    0    0  501    0  0.00000000000E+00  0.00000000000E+00 -0.17997946875E+04  0.17997946875E+04  0.50400001928E-02 0. -1.
    10030    2    1    2    0    0  0.00000000000E+00  0.00000000000E+00 -0.16876838564E+04  0.19119055187E+04  0.89839073529E+03 0.  0.
        4    1    3    3  502    0 -0.12535444350E+03  0.35166453045E+02  0.71073335033E+02  0.14833559174E+03  0.12699999809E+01 0.  1.
       -4    1    3    3    0  502  0.12535444350E+03 -0.35166453045E+02 -0.17587571914E+04  0.17635699269E+04  0.12699999809E+01 0. -1.
</event>
<event>
 5   0  0.6288003E-03  0.9467299E+03  0.7818609E-02  0.9368981E-01
       -1   -1    0    0    0  501  0.00000000000E+00  0.00000000000E+00  0.29118996665E+04  0.29118996665E+04  0.50400001928E-02 0. -1.
        1   -1    0    0  501    0  0.00000000000E+00  0.00000000000E+00 -0.76951268481E+02  0.76951268647E+02  0.50400001928E-02 0.  1.
    10030    2    1    2    0    0  0.00000000000E+00  0.00000000000E+00  0.28349483980E+04  0.29888509352E+04  0.94672989449E+03 0.  0.
        1    1    3    3  502    0  0.41496565490E+03 -0.11864825991E+03  0.20312740216E+04  0.20766193814E+04  0.50400001928E-02 0. -1.
       -1    1    3    3    0  502 -0.41496565490E+03  0.11864825991E+03  0.80367437640E+03  0.91223155374E+03  0.50400001928E-02 0.  1.
</event>
<event>
 5   0  0.1041727E-02  0.8903858E+03  0.7818609E-02  0.9437680E-01
        2   -1    0    0  501    0  0.00000000000E+00  0.00000000000E+00  0.21885078383E+03  0.21885078384E+03  0.25500000920E-02 0. -1.
       -2   -1    0    0    0  501  0.00000000000E+00  0.00000000000E+00 -0.90562496685E+03  0.90562496685E+03  0.25500000920E-02 0.  1.
    10030    2    1    2    0    0  0.00000000000E+00  0.00000000000E+00 -0.68677418302E+03  0.11244757507E+04  0.89038583515E+03 0.  0.
        4    1    3    3  502    0  0.42260644397E+03 -0.79154007237E+02 -0.48921641895E+03  0.65130321726E+03  0.12699999809E+01 0.  1.
       -4    1    3    3    0  502 -0.42260644397E+03  0.79154007237E+02 -0.19755776407E+03  0.47317253343E+03  0.12699999809E+01 0. -1.
</event>
<event>
 5   0  0.6137243E-03  0.8997078E+03  0.7818609E-02  0.9425947E-01
       -1   -1    0    0    0  501  0.00000000000E+00  0.00000000000E+00  0.19159289695E+04  0.19159289695E+04  0.50400001928E-02 0. -1.
        1   -1    0    0  501    0  0.00000000000E+00  0.00000000000E+00 -0.10562422363E+03  0.10562422375E+03  0.50400001928E-02 0.  1.
    10030    2    1    2    0    0  0.00000000000E+00  0.00000000000E+00  0.18103047459E+04  0.20215531932E+04  0.89970775269E+03 0.  0.
        4    1    3    3  502    0  0.30112378667E+03 -0.17554647144E+03  0.15441368631E+04  0.15829884281E+04  0.12699999809E+01 0. -1.
       -4    1    3    3    0  502 -0.30112378667E+03  0.17554647144E+03  0.26616788274E+03  0.43856476516E+03  0.12699999809E+01 0.  1.
</event>
<event>
 5   0  0.6137243E-03  0.9220330E+03  0.7818609E-02  0.9398451E-01
       -1   -1    0    0    0  501  0.00000000000E+00  0.00000000000E+00  0.51014195936E+03  0.51014195939E+03  0.50400001928E-02 0. -1.
        1   -1    0    0  501    0  0.00000000000E+00  0.00000000000E+00 -0.41662172967E+03  0.41662172970E+03  0.50400001928E-02 0.  1.
    10030    2    1    2    0    0  0.00000000000E+00  0.00000000000E+00  0.93520229689E+02  0.92676368909E+03  0.92203302655E+03 0.  0.
        4    1    3    3  502    0  0.41532461587E+03  0.10473918797E+02 -0.15409098592E+03  0.44311385034E+03  0.12699999809E+01 0.  1.
       -4    1    3    3    0  502 -0.41532461587E+03 -0.10473918797E+02  0.24761121561E+03  0.48364983875E+03  0.12699999809E+01 0. -1.
</event>
<event>
 5   0  0.6015709E-03  0.8891969E+03  0.7818609E-02  0.9439187E-01
        1   -1    0    0  501    0  0.00000000000E+00  0.00000000000E+00  0.14626256299E+04  0.14626256299E+04  0.50400001928E-02 0.  1.
       -1   -1    0    0    0  501  0.00000000000E+00  0.00000000000E+00 -0.13514585192E+03  0.13514585202E+03  0.50400001928E-02 0. -1.
    10030    2    1    2    0    0  0.00000000000E+00  0.00000000000E+00  0.13274797780E+04  0.15977714819E+04  0.88919691155E+03 0.  0.
        3    1    3    3  502    0  0.84213200854E+02 -0.13487320642E+03  0.14097876343E+04  0.14187261289E+04  0.10100000352E+00 0.  1.
       -3    1    3    3    0  502 -0.84213200854E+02  0.13487320642E+03 -0.82307856305E+02  0.17904535297E+03  0.10100000352E+00 0. -1.
</event>
<event>
 5   0  0.6015709E-03  0.9013535E+03  0.7818609E-02  0.9423891E-01
       -1   -1    0    0    0  501  0.00000000000E+00  0.00000000000E+00  0.21308433362E+03  0.21308433368E+03  0.50400001928E-02 0. -1.
        1   -1    0    0  501    0  0.00000000000E+00  0.00000000000E+00 -0.95318848522E+03  0.95318848524E+03  0.50400001928E-02 0.  1.
    10030    2    1    2    0    0  0.00000000000E+00  0.00000000000E+00 -0.74010415160E+03  0.11662728189E+04  0.90135350054E+03 0.  0.
        3    1    3    3  502    0  0.34251422441E+02  0.16272555694E+03 -0.91204055169E+03  0.92707645043E+03  0.10100000352E+00 0.  1.
       -3    1    3    3    0  502 -0.34251422441E+02 -0.16272555694E+03  0.17193640009E+03  0.23919636849E+03  0.10100000352E+00 0. -1.
</event>
<event>
 5   0  0.1041727E-02  0.8854890E+03  0.7818609E-02  0.9443905E-01
       -2   -1    0    0    0  501  0.00000000000E+00  0.00000000000E+00  0.38132175415E+03  0.38132175416E+03  0.25500000920E-02 0. -1.
        2   -1    0    0  501    0  0.00000000000E+00  0.00000000000E+00 -0.51406118177E+03  0.51406118177E+03  0.25500000920E-02 0.  1.
    10030    2    1    2    0    0  0.00000000000E+00  0.00000000000E+00 -0.13273942761E+03  0.89538293593E+03  0.88548904359E+03 0.  0.
        4    1    3    3  502    0 -0.71924064092E+02 -0.29008524664E+03  0.26392751955E+03  0.39872530619E+03  0.12699999809E+01 0. -1.
       -4    1    3    3    0  502  0.71924064092E+02  0.29008524664E+03 -0.39666694716E+03  0.49665762975E+03  0.12699999809E+01 0.  1.
</event>
<event>
 5   0  0.6092779E-03  0.9059110E+03  0.7818609E-02  0.9418222E-01
        1   -1    0    0  501    0  0.00000000000E+00  0.00000000000E+00  0.13931061868E+04  0.13931061868E+04  0.50400001928E-02 0. -1.
       -1   -1    0    0    0  501  0.00000000000E+00  0.00000000000E+00 -0.14727425089E+03  0.14727425098E+03  0.50400001928E-02 0.  1.
    10030    2    1    2    0    0  0.00000000000E+00  0.00000000000E+00  0.12458319359E+04  0.15403804378E+04  0.90591096726E+03 0.  0.
        2    1    3    3  502    0 -0.22879173639E+03  0.60262606386E+02 -0.33855708256E+02  0.23900512413E+03  0.25500000920E-02 0.  1.
       -2    1    3    3    0  502  0.22879173639E+03 -0.60262606386E+02  0.12796876442E+04  0.13013753137E+04  0.25500000920E-02 0. -1.
</event>
<event>
 5   0  0.6137243E-03  0.8931188E+03  0.7818609E-02  0.9434224E-01
        1   -1    0    0  501    0  0.00000000000E+00  0.00000000000E+00  0.23216685271E+03  0.23216685276E+03  0.50400001928E-02 0.  1.
       -1   -1    0    0    0  501  0.00000000000E+00  0.00000000000E+00 -0.85893096219E+03  0.85893096220E+03  0.50400001928E-02 0. -1.
    10030    2    1    2    0    0  0.00000000000E+00  0.00000000000E+00 -0.62676410948E+03  0.10910978150E+04  0.89311880110E+03 0.  0.
        4    1    3    3  502    0 -0.66585735850E+01  0.10072303136E+03  0.21804396639E+03  0.24027952437E+03  0.12699999809E+01 0.  1.
       -4    1    3    3    0  502  0.66585735850E+01 -0.10072303136E+03 -0.84480807587E+03  0.85081829059E+03  0.12699999809E+01 0. -1.
</event>
<event>
 5   0  0.1041727E-02  0.8926082E+03  0.7818609E-02  0.9434869E-01
       -2   -1    0    0    0  501  0.00000000000E+00  0.00000000000E+00  0.75347907683E+03  0.75347907683E+03  0.25500000920E-02 0.  1.
        2   -1    0    0  501    0  0.00000000000E+00  0.00000000000E+00 -0.26435683859E+03  0.26435683860E+03  0.25500000920E-02 0. -1.
    10030    2    1    2    0    0  0.00000000000E+00  0.00000000000E+00  0.48912223824E+03  0.10178359154E+04  0.89260819333E+03 0.  0.
        4    1    3    3  502    0 -0.21652380611E+03  0.66790291514E+01 -0.20038535501E+03  0.29509840976E+03  0.12699999809E+01 0. -1.
       -4    1    3    3    0  502  0.21652380611E+03 -0.66790291514E+01  0.68950759325E+03  0.72273750566E+03  0.12699999809E+01 0.  1.
</event>
<event>
 5   0  0.1033749E-02  0.9000670E+03  0.7818609E-02  0.9425498E-01
        2   -1    0    0  501    0  0.00000000000E+00  0.00000000000E+00  0.97482161401E+03  0.97482161402E+03  0.25500000920E-02 0. -1.
       -2   -1    0    0    0  501  0.00000000000E+00  0.00000000000E+00 -0.20776126305E+03  0.20776126307E+03  0.25500000920E-02 0.  1.
    10030    2    1    2    0    0  0.00000000000E+00  0.00000000000E+00  0.76706035096E+03  0.11825828771E+04  0.90006704148E+03 0.  0.
        5    1    3    3  502    0  0.70387513859E+02 -0.41190371114E+02  0.96499883372E+03  0.96845025058E+03  0.46999998093E+01 0. -1.
       -5    1    3    3    0  502 -0.70387513859E+02  0.41190371114E+02 -0.19793848275E+03  0.21413262650E+03  0.46999998093E+01 0.  1.
</event>
<event>
 5   0  0.6137243E-03  0.8993983E+03  0.7818609E-02  0.9426334E-01
        1   -1    0    0  501    0  0.00000000000E+00  0.00000000000E+00  0.40878759884E+03  0.40878759887E+03  0.50400001928E-02 0. -1.
       -1   -1    0    0    0  501  0.00000000000E+00  0.00000000000E+00 -0.49470517535E+03  0.49470517537E+03  0.50400001928E-02 0.  1.
    10030    2    1    2    0    0  0.00000000000E+00  0.00000000000E+00 -0.85917576503E+02  0.90349277425E+03  0.89939833398E+03 0.  0.
        4    1    3    3  502    0 -0.33323014807E+03  0.27436299604E+03 -0.16966922042E+03  0.46379590601E+03  0.12699999809E+01 0.  1.
       -4    1    3    3    0  502  0.33323014807E+03 -0.27436299604E+03  0.83751643915E+02  0.43969686823E+03  0.12699999809E+01 0. -1.
</event>
<event>
 5   0  0.1041727E-02  0.8993902E+03  0.7818609E-02  0.9426344E-01
        2   -1    0    0  501    0  0.00000000000E+00  0.00000000000E+00  0.11798181090E+04  0.11798181090E+04  0.25500000920E-02 0.  1.
       -2   -1    0    0    0  501  0.00000000000E+00  0.00000000000E+00 -0.17140412786E+03  0.17140412787E+03  0.25500000920E-02 0. -1.
    10030    2    1    2    0    0  0.00000000000E+00  0.00000000000E+00  0.10084139812E+04  0.13512222369E+04  0.89939022459E+03 0.  0.
        4    1    3    3  502    0 -0.25936983623E+03 -0.34507016813E+03  0.69351797412E+03  0.81689346075E+03  0.12699999809E+01 0.  1.
       -4    1    3    3    0  502  0.25936983623E+03  0.34507016813E+03  0.31489600707E+03  0.53432877617E+03  0.12699999809E+01 0. -1.
</event>
<event>
 5   0  0.1028978E-02  0.8839054E+03  0.7818609E-02  0.9445927E-01
        2   -1    0    0  501    0  0.00000000000E+00  0.00000000000E+00  0.43405565409E+03  0.43405565409E+03  0.25500000920E-02 0. -1.
       -2   -1    0    0    0  501  0.00000000000E+00  0.00000000000E+00 -0.44999339810E+03  0.44999339811E+03  0.25500000920E-02 0.  1.
    10030    2    1    2    0    0  0.00000000000E+00  0.00000000000E+00 -0.15937744013E+02  0.88404905220E+03  0.88390537673E+03 0.  0.
        3    1    3    3  502    0  0.39369118251E+02  0.38690831469E+03  0.20200380825E+03  0.43823911304E+03  0.10100000352E+00 0. -1.
       -3    1    3    3    0  502 -0.39369118251E+02 -0.38690831469E+03 -0.21794155226E+03  0.44580993916E+03  0.10100000352E+00 0.  1.
</event>
<event>
 5   0  0.6211218E-03  0.8918023E+03  0.7818609E-02  0.9435887E-01
        1   -1    0    0  501    0  0.00000000000E+00  0.00000000000E+00  0.44861247181E+03  0.44861247183E+03  0.50400001928E-02 0. -1.
       -1   -1    0    0    0  501  0.00000000000E+00  0.00000000000E+00 -0.44320622340E+03  0.44320622343E+03  0.50400001928E-02 0.  1.
    10030    2    1    2    0    0  0.00000000000E+00  0.00000000000E+00  0.54062484025E+01  0.89181869527E+03  0.89180230864E+03 0.  0.
        5    1    3    3  502    0 -0.73998146093E+02  0.35243713527E+01  0.44239017995E+03  0.44857475200E+03  0.46999998093E+01 0. -1.
       -5    1    3    3    0  502  0.73998146093E+02 -0.35243713527E+01 -0.43698393154E+03  0.44324394327E+03  0.46999998093E+01 0.  1.
</event>
<event>
 5   0  0.1003252E-02  0.8949839E+03  0.7818609E-02  0.9431874E-01
        2   -1    0    0  501    0  0.00000000000E+00  0.00000000000E+00  0.35344917211E+03  0.35344917212E+03  0.25500000920E-02 0.  1.
       -2   -1    0    0    0  501  0.00000000000E+00  0.00000000000E+00 -0.56655685670E+03  0.56655685671E+03  0.25500000920E-02 0. -1.
    10030    2    1    2    0    0  0.00000000000E+00  0.00000000000E+00 -0.21310768459E+03  0.92000602882E+03  0.89498391485E+03 0.  0.
        2    1    3    3  502    0 -0.21279173140E+03 -0.32020485991E+03 -0.34194858453E+03  0.51452920980E+03  0.25500000920E-02 0. -1.
       -2    1    3    3    0  502  0.21279173140E+03  0.32020485991E+03  0.12884089994E+03  0.40547681903E+03  0.25500000920E-02 0.  1.
</event>
<event>
 5   0  0.6211218E-03  0.8956856E+03  0.7818609E-02  0.9430991E-01
       -1   -1    0    0    0  501  0.00000000000E+00  0.00000000000E+00  0.22888278990E+03  0.22888278996E+03  0.50400001928E-02 0. -1.
        1   -1    0    0  501    0  0.00000000000E+00  0.00000000000E+00 -0.87627020208E+03  0.87627020209E+03  0.50400001928E-02 0.  1.
    10030    2    1    2    0    0  0.00000000000E+00  0.00000000000E+00 -0.64738741217E+03  0.11051529921E+04  0.89568558903E+03 0.  0.
        5    1    3    3  502    0  0.57886175687E+02 -0.87723429563E+02 -0.86080655865E+03  0.86721175663E+03  0.46999998093E+01 0.  1.
       -5    1    3    3    0  502 -0.57886175687E+02  0.87723429563E+02  0.21341914648E+03  0.23794123542E+03  0.46999998093E+01 0. -1.
</event>
<event>
 5   0  0.1003252E-02  0.9008105E+03  0.7818609E-02  0.9424569E-01
       -2   -1    0    0    0  501  0.00000000000E+00  0.00000000000E+00  0.96449125490E+02  0.96449125524E+02  0.25500000920E-02 0. -1.
        2   -1    0    0  501    0  0.00000000000E+00  0.00000000000E+00 -0.21033359024E+04  0.21033359024E+04  0.25500000920E-02 0.  1.
    10030    2    1    2    0    0  0.00000000000E+00  0.00000000000E+00 -0.20068867769E+04  0.21997850279E+04  0.90081054265E+03 0.  0.
        2    1    3    3  502    0 -0.43028747499E+03  0.10864492504E+02 -0.67947869074E+03  0.80433614833E+03  0.25500000920E-02 0. -1.
       -2    1    3    3    0  502  0.43028747499E+03 -0.10864492504E+02 -0.13274080862E+04  0.13954488796E+04  0.25500000920E-02 0.  1.
</event>
<event>
 5   0  0.6015709E-03  0.9398692E+03  0.7818609E-02  0.9377071E-01
        1   -1    0    0  501    0  0.00000000000E+00  0.00000000000E+00  0.79662138627E+03  0.79662138629E+03  0.50400001928E-02 0. -1.
       -1   -1    0    0    0  501  0.00000000000E+00  0.00000000000E+00 -0.27721894885E+03  0.27721894889E+03  0.50400001928E-02 0.  1.
    10030    2    1    2    0    0  0.00000000000E+00  0.00000000000E+00  0.51940243743E+03  0.10738403352E+04  0.93986923210E+03 0.  0.
        3    1    3    3  502    0 -0.12899268344E+03 -0.21784514071E+03 -0.19264007975E+03  0.31812863474E+03  0.10100000352E+00 0.  1.
       -3    1    3    3    0  502  0.12899268344E+03  0.21784514071E+03  0.71204251718E+03  0.75571170044E+03  0.10100000352E+00 0. -1.
</event>
<event>
 5   0  0.1028978E-02  0.9028862E+03  0.7818609E-02  0.9421981E-01
        2   -1    0    0  501    0  0.00000000000E+00  0.00000000000E+00  0.13467183468E+04  0.13467183468E+04  0.25500000920E-02 0. -1.
       -2   -1    0    0    0  501  0.00000000000E+00  0.00000000000E+00 -0.15133148695E+03  0.15133148697E+03  0.25500000920E-02 0.  1.
    10030    2    1    2    0    0  0.00000000000E+00  0.00000000000E+00  0.11953868599E+04  0.14980498338E+04  0.90288623856E+03 0.  0.
        3    1    3    3  502    0  0.12021546478E+03  0.77212301107E+01  0.13195592756E+04  0.13250464397E+04  0.10100000352E+00 0. -1.
       -3    1    3    3    0  502 -0.12021546478E+03 -0.77212301107E+01 -0.12417241567E+03  0.17300339414E+03  0.10100000352E+00 0.  1.
</event>
<event>
 5   0  0.6092779E-03  0.9017983E+03  0.7818609E-02  0.9423336E-01
        1   -1    0    0  501    0  0.00000000000E+00  0.00000000000E+00  0.11223696205E+04  0.11223696205E+04  0.50400001928E-02 0.  1.
       -1   -1    0    0    0  501  0.00000000000E+00  0.00000000000E+00 -0.18114356851E+03  0.18114356858E+03  0.50400001928E-02 0. -1.
    10030    2    1    2    0    0  0.00000000000E+00  0.00000000000E+00  0.94122605195E+03  0.13035131890E+04  0.90179828851E+03 0.  0.
        2    1    3    3  502    0  0.42771580086E+03 -0.10344065871E+03  0.61274856783E+03  0.75438821807E+03  0.25500000920E-02 0.  1.
       -2    1    3    3    0  502 -0.42771580086E+03  0.10344065871E+03  0.32847748412E+03  0.54912497098E+03  0.25500000920E-02 0. -1.
</event>
<event>
 5   0  0.6288003E-03  0.8637116E+03  0.7818609E-02  0.9472116E-01
        1   -1    0    0  501    0  0.00000000000E+00  0.00000000000E+00  0.85862150150E+03  0.85862150152E+03  0.50400001928E-02 0.  1.
       -1   -1    0    0    0  501  0.00000000000E+00  0.00000000000E+00 -0.21720796242E+03  0.21720796248E+03  0.50400001928E-02 0. -1.
    10030    2    1    2    0    0  0.00000000000E+00  0.00000000000E+00  0.64141353908E+03  0.10758294640E+04  0.86371158814E+03 0.  0.
        1    1    3    3  502    0  0.38630913754E+03 -0.14549743568E+03  0.47873057519E+03  0.63212911433E+03  0.50400001928E-02 0. -1.
       -1    1    3    3    0  502 -0.38630913754E+03  0.14549743568E+03  0.16268296389E+03  0.44370034967E+03  0.50400001928E-02 0.  1.
</event>
<event>
 5   0  0.1003252E-02  0.8795403E+03  0.7818609E-02  0.9451525E-01
        2   -1    0    0  501    0  0.00000000000E+00  0.00000000000E+00  0.10322554195E+04  0.10322554195E+04  0.25500000920E-02 0. -1.
       -2   -1    0    0    0  501  0.00000000000E+00  0.00000000000E+00 -0.18735459401E+03  0.18735459403E+03  0.25500000920E-02 0.  1.
    10030    2    1    2    0    0  0.00000000000E+00  0.00000000000E+00  0.84490082548E+03  0.12196100135E+04  0.87954032323E+03 0.  0.
        2    1    3    3  502    0 -0.12757114891E+03  0.17296982818E+03 -0.10956751206E+03  0.24124261481E+03  0.25500000920E-02 0.  1.
       -2    1    3    3    0  502  0.12757114891E+03 -0.17296982818E+03  0.95446833754E+03  0.97836739871E+03  0.25500000920E-02 0. -1.
</event>
<event>
 5   0  0.6015709E-03  0.9003865E+03  0.7818609E-02  0.9425098E-01
       -1   -1    0    0    0  501  0.00000000000E+00  0.00000000000E+00  0.37636821719E+03  0.37636821722E+03  0.50400001928E-02 0.  1.
        1   -1    0    0  501    0  0.00000000000E+00  0.00000000000E+00 -0.53849916618E+03  0.53849916620E+03  0.50400001928E-02 0. -1.
    10030    2    1    2    0    0  0.00000000000E+00  0.00000000000E+00 -0.16213094899E+03  0.91486738342E+03  0.90038651957E+03 0.  0.
        3    1    3    3  502    0  0.32571035380E+03  0.25864829467E+03 -0.25613802796E+03  0.48845969586E+03  0.10100000352E+00 0. -1.
       -3    1    3    3    0  502 -0.32571035380E+03 -0.25864829467E+03  0.94007078977E+02  0.42640768756E+03  0.10100000352E+00 0.  1.
</event>
<event>
 5   0  0.1041727E-02  0.9769187E+03  0.7818609E-02  0.9334229E-01
       -2   -1    0    0    0  501  0.00000000000E+00  0.00000000000E+00  0.27555182334E+03  0.27555182335E+03  0.25500000920E-02 0. -1.
        2   -1    0    0  501    0  0.00000000000E+00  0.00000000000E+00 -0.86587166050E+03  0.86587166051E+03  0.25500000920E-02 0.  1.
    10030    2    1    2    0    0  0.00000000000E+00  0.00000000000E+00 -0.59031983717E+03  0.11414234839E+04  0.97691865544E+03 0.  0.
        4    1    3    3  502    0 -0.41928275752E+03 -0.22015089818E+03 -0.43500839632E+03  0.64303838648E+03  0.12699999809E+01 0.  1.
       -4    1    3    3    0  502  0.41928275752E+03  0.22015089818E+03 -0.15531144085E+03  0.49838509737E+03  0.12699999809E+01 0. -1.
</event>
<event>
 5   0  0.1028978E-02  0.9016170E+03  0.7818609E-02  0.9423562E-01
       -2   -1    0    0    0  501  0.00000000000E+00  0.00000000000E+00  0.19905291458E+03  0.19905291460E+03  0.25500000920E-02 0. -1.
        2   -1    0    0  501    0  0.00000000000E+00  0.00000000000E+00 -0.10209762274E+04  0.10209762274E+04  0.25500000920E-02 0.  1.
    10030    2    1    2    0    0  0.00000000000E+00  0.00000000000E+00 -0.82192331285E+03  0.12200291420E+04  0.90161697811E+03 0.  0.
        3    1    3    3  502    0  0.70376702743E+02 -0.36138547408E+03 -0.58943325458E+02  0.37286279914E+03  0.10100000352E+00 0. -1.
       -3    1    3    3    0  502 -0.70376702743E+02  0.36138547408E+03 -0.76297998739E+03  0.84716634289E+03  0.10100000352E+00 0.  1.
</event>
<event>
 5   0  0.1033749E-02  0.8567797E+03  0.7818609E-02  0.9481282E-01
        2   -1    0    0  501    0  0.00000000000E+00  0.00000000000E+00  0.88013686232E+03  0.88013686232E+03  0.25500000920E-02 0. -1.
       -2   -1    0    0    0  501  0.00000000000E+00  0.00000000000E+00 -0.20851059466E+03  0.20851059467E+03  0.25500000920E-02 0.  1.
    10030    2    1    2    0    0  0.00000000000E+00  0.00000000000E+00  0.67162626766E+03  0.10886474570E+04  0.85677969293E+03 0.  0.
        5    1    3    3  502    0  0.41339894638E+03  0.14124154036E+02  0.47729042377E+03  0.63160622164E+03  0.46999998093E+01 0. -1.
       -5    1    3    3    0  502 -0.41339894638E+03 -0.14124154036E+02  0.19433584389E+03  0.45704123535E+03  0.46999998093E+01 0.  1.
</event>
<event>
 5   0  0.6137243E-03  0.9229885E+03  0.7818609E-02  0.9397292E-01
       -1   -1    0    0    0  501  0.00000000000E+00  0.00000000000E+00  0.44331110162E+03  0.44331110165E+03  0.50400001928E-02 0. -1.
        1   -1    0    0  501    0  0.00000000000E+00  0.00000000000E+00 -0.48042320159E+03  0.48042320162E+03  0.50400001928E-02 0.  1.
    10030    2    1    2    0    0  0.00000000000E+00  0.00000000000E+00 -0.37112099971E+02  0.92373430326E+03  0.92298849129E+03 0.  0.
        4    1    3    3  502    0  0.36789764843E+03 -0.15527120917E+03  0.21296937256E+03  0.45256534851E+03  0.12699999809E+01 0. -1.
       -4    1    3    3    0  502 -0.36789764843E+03  0.15527120917E+03 -0.25008147253E+03  0.47116895475E+03  0.12699999809E+01 0.  1.
</event>
<event>
 5   0  0.6015709E-03  0.8980083E+03  0.7818609E-02  0.9428075E-01
       -1   -1    0    0    0  501  0.00000000000E+00  0.00000000000E+00  0.84681066804E+03  0.84681066805E+03  0.50400001928E-02 0. -1.
        1   -1    0    0  501    0  0.00000000000E+00  0.00000000000E+00 -0.23807530429E+03  0.23807530435E+03  0.50400001928E-02 0.  1.
    10030    2    1    2    0    0  0.00000000000E+00  0.00000000000E+00  0.60873536374E+03  0.10848859724E+04  0.89800825722E+03 0.  0.
        3    1    3    3  502    0 -0.41469021554E+03 -0.43208221918E+02  0.10304629162E+03  0.42948046955E+03  0.10100000352E+00 0.  1.
       -3    1    3    3    0  502  0.41469021554E+03  0.43208221918E+02  0.50568907212E+03  0.65540550285E+03  0.10100000352E+00 0. -1.
</event>
<event>
 5   0  0.6211218E-03  0.9061700E+03  0.7818609E-02  0.9417901E-01
       -1   -1    0    0    0  501  0.00000000000E+00  0.00000000000E+00  0.14869056806E+03  0.14869056815E+03  0.50400001928E-02 0. -1.
        1   -1    0    0  501    0  0.00000000000E+00  0.00000000000E+00 -0.13806257968E+04  0.13806257968E+04  0.50400001928E-02 0.  1.
    10030    2    1    2    0    0  0.00000000000E+00  0.00000000000E+00 -0.12319352288E+04  0.15293163650E+04  0.90617003722E+03 0.  0.
        5    1    3    3  502    0 -0.19616018951E+03  0.35044378481E+03 -0.96987285674E+03  0.10497452617E+04  0.46999998093E+01 0.  1.
       -5    1    3    3    0  502  0.19616018951E+03 -0.35044378481E+03 -0.26206237203E+03  0.47957110328E+03  0.46999998093E+01 0. -1.
</event>
<event>
 5   0  0.1041727E-02  0.8957407E+03  0.7818609E-02  0.9430922E-01
        2   -1    0    0  501    0  0.00000000000E+00  0.00000000000E+00  0.31927086145E+03  0.31927086146E+03  0.25500000920E-02 0.  1.
       -2   -1    0    0    0  501  0.00000000000E+00  0.00000000000E+00 -0.62826852044E+03  0.62826852044E+03  0.25500000920E-02 0. -1.
    10030    2    1    2    0    0  0.00000000000E+00  0.00000000000E+00 -0.30899765899E+03  0.94753938190E+03  0.89574065834E+03 0.  0.
        4    1    3    3  502    0 -0.31454357968E+03 -0.26366066931E+02  0.18160652114E+03  0.36416393894E+03  0.12699999809E+01 0.  1.
       -4    1    3    3    0  502  0.31454357968E+03  0.26366066931E+02 -0.49060418012E+03  0.58337544297E+03  0.12699999809E+01 0. -1.
</event>
<event>
 5   0  0.1017079E-02  0.8976290E+03  0.7818609E-02  0.9428550E-01
        2   -1    0    0  501    0  0.00000000000E+00  0.00000000000E+00  0.37365893671E+03  0.37365893672E+03  0.25500000920E-02 0. -1.
       -2   -1    0    0    0  501  0.00000000000E+00  0.00000000000E+00 -0.53908642639E+03  0.53908642640E+03  0.25500000920E-02 0.  1.
    10030    2    1    2    0    0  0.00000000000E+00  0.00000000000E+00 -0.16542748968E+03  0.91274536312E+03  0.89762901221E+03 0.  0.
        1    1    3    3  502    0 -0.68390397674E+02 -0.27478485305E+03 -0.43678813966E+03  0.52054571455E+03  0.50400001928E-02 0.  1.
       -1    1    3    3    0  502  0.68390397674E+02  0.27478485305E+03  0.27136064998E+03  0.39219964857E+03  0.50400001928E-02 0. -1.
</event>
<event>
 5   0  0.1033749E-02  0.9056529E+03  0.7818609E-02  0.9418542E-01
        2   -1    0    0  501    0  0.00000000000E+00  0.00000000000E+00  0.67990668660E+03  0.67990668660E+03  0.25500000920E-02 0.  1.
       -2   -1    0    0    0  501  0.00000000000E+00  0.00000000000E+00 -0.30158815756E+03  0.30158815757E+03  0.25500000920E-02 0. -1.
    10030    2    1    2    0    0  0.00000000000E+00  0.00000000000E+00  0.37831852903E+03  0.98149484417E+03  0.90565292454E+03 0.  0.
        5    1    3    3  502    0  0.28133187327E+03 -0.34746421375E+03  0.11138070961E+03  0.46076757180E+03  0.46999998093E+01 0.  1.
       -5    1    3    3    0  502 -0.28133187327E+03  0.34746421375E+03  0.26693781942E+03  0.52072727237E+03  0.46999998093E+01 0. -1.
</event>
<event>
 5   0  0.1041727E-02  0.8662842E+03  0.7818609E-02  0.9468738E-01
       -2   -1    0    0    0  501  0.00000000000E+00  0.00000000000E+00  0.44505755208E+03  0.44505755209E+03  0.25500000920E-02 0.  1.
        2   -1    0    0  501    0  0.00000000000E+00  0.00000000000E+00 -0.42154570567E+03  0.42154570568E+03  0.25500000920E-02 0. -1.
    10030    2    1    2    0    0  0.00000000000E+00  0.00000000000E+00  0.23511846406E+02  0.86660325776E+03  0.86628424864E+03 0.  0.
        4    1    3    3  502    0  0.37674549743E+03  0.30615260461E+01  0.22552585061E+03  0.43910142903E+03  0.12699999809E+01 0.  1.
       -4    1    3    3    0  502 -0.37674549743E+03 -0.30615260461E+01 -0.20201400421E+03  0.42750182874E+03  0.12699999809E+01 0. -1.
</event>
<event>
 5   0  0.1003252E-02  0.8949802E+03  0.7818609E-02  0.9431878E-01
       -2   -1    0    0    0  501  0.00000000000E+00  0.00000000000E+00  0.23755703363E+03  0.23755703364E+03  0.25500000920E-02 0. -1.
        2   -1    0    0  501    0  0.00000000000E+00  0.00000000000E+00 -0.84294443975E+03  0.84294443976E+03  0.25500000920E-02 0.  1.
    10030    2    1    2    0    0  0.00000000000E+00  0.00000000000E+00 -0.60538740612E+03  0.10805014734E+04  0.89498017996E+03 0.  0.
        2    1    3    3  502    0  0.85903795638E+02 -0.38689978994E+03 -0.51831335040E+02  0.39969663103E+03  0.25500000920E-02 0. -1.
       -2    1    3    3    0  502 -0.85903795638E+02  0.38689978994E+03 -0.55355607108E+03  0.68080484237E+03  0.25500000920E-02 0.  1.
</event>
<event>
 5   0  0.1033749E-02  0.8933314E+03  0.7818609E-02  0.9433956E-01
       -2   -1    0    0    0  501  0.00000000000E+00  0.00000000000E+00  0.11537520143E+03  0.11537520145E+03  0.25500000920E-02 0. -1.
        2   -1    0    0  501    0  0.00000000000E+00  0.00000000000E+00 -0.17292299294E+04  0.17292299294E+04  0.25500000920E-02 0.  1.
    10030    2    1    2    0    0  0.00000000000E+00  0.00000000000E+00 -0.16138547280E+04  0.18446051309E+04  0.89333140871E+03 0.  0.
        5    1    3    3  502    0 -0.31593968141E+03  0.31498721184E+03 -0.76296301048E+03  0.88383792138E+03  0.46999998093E+01 0.  1.
       -5    1    3    3    0  502  0.31593968141E+03 -0.31498721184E+03 -0.85089171753E+03  0.96076720951E+03  0.46999998093E+01 0. -1.
</event>
<event>
 5   0  0.1033749E-02  0.9049613E+03  0.7818609E-02  0.9419401E-01
        2   -1    0    0  501    0  0.00000000000E+00  0.00000000000E+00  0.99735995489E+03  0.99735995489E+03  0.25500000920E-02 0. -1.
       -2   -1    0    0    0  501  0.00000000000E+00  0.00000000000E+00 -0.20528067590E+03  0.20528067592E+03  0.25500000920E-02 0.  1.
    10030    2    1    2    0    0  0.00000000000E+00  0.00000000000E+00  0.79207927898E+03  0.12026406308E+04  0.90496127137E+03 0.  0.
        5    1    3    3  502    0 -0.41783599979E+03 -0.96156896244E+02  0.58808693256E+03  0.72780588185E+03  0.46999998093E+01 0. -1.
       -5    1    3    3    0  502  0.41783599979E+03  0.96156896244E+02  0.20399234642E+03  0.47483474896E+03  0.46999998093E+01 0.  1.
</event>
<event>
 5   0  0.6092779E-03  0.9745552E+03  0.7818609E-02  0.9336901E-01
        1   -1    0    0  501    0  0.00000000000E+00  0.00000000000E+00  0.37240768386E+03  0.37240768390E+03  0.50400001928E-02 0.  1.
       -1   -1    0    0    0  501  0.00000000000E+00  0.00000000000E+00 -0.63757938251E+03  0.63757938253E+03  0.50400001928E-02 0. -1.
    10030    2    1    2    0    0  0.00000000000E+00  0.00000000000E+00 -0.26517169864E+03  0.10099870664E+04  0.97455520346E+03 0.  0.
        2    1    3    3  502    0  0.28570757428E+03 -0.32303058884E+03  0.10251391797E+03  0.44326818373E+03  0.25500000920E-02 0.  1.
       -2    1    3    3    0  502 -0.28570757428E+03  0.32303058884E+03 -0.36768561661E+03  0.56671888269E+03  0.25500000920E-02 0. -1.
</event>
<event>
 5   0  0.6092779E-03  0.8974907E+03  0.7818609E-02  0.9428724E-01
       -1   -1    0    0    0  501  0.00000000000E+00  0.00000000000E+00  0.59732115014E+03  0.59732115016E+03  0.50400001928E-02 0.  1.
        1   -1    0    0  501    0  0.00000000000E+00  0.00000000000E+00 -0.33712583564E+03  0.33712583568E+03  0.50400001928E-02 0. -1.
    10030    2    1    2    0    0  0.00000000000E+00  0.00000000000E+00  0.26019531450E+03  0.93444698584E+03  0.89749070617E+03 0.  0.
        2    1    3    3  502    0  0.43519655132E+03  0.10877666477E+03  0.14259138750E+03  0.47070235274E+03  0.25500000920E-02 0.  1.
       -2    1    3    3    0  502 -0.43519655132E+03 -0.10877666477E+03  0.11760392700E+03  0.46374463310E+03  0.25500000920E-02 0. -1.
</event>
<event>
 5   0  0.3996375E-03  0.8989909E+03  0.7818609E-02  0.9426844E-01
       -4   -1    0    0    0  501  0.00000000000E+00  0.00000000000E+00  0.97715320277E+03  0.97715402807E+03  0.12699999809E+01 0.  1.
        4   -1    0    0  501    0  0.00000000000E+00  0.00000000000E+00 -0.20676734330E+03  0.20677124354E+03  0.12699999809E+01 0. -1.
    10030    2    1    2    0    0  0.00000000000E+00  0.00000000000E+00  0.77038585947E+03  0.11839252716E+04  0.89899092114E+03 0.  0.
        1    1    3    3  502    0  0.24923981320E+03 -0.37040756247E+03  0.45392609381E+03  0.63668763573E+03  0.50400001928E-02 0.  1.
       -1    1    3    3    0  502 -0.24923981320E+03  0.37040756247E+03  0.31645976566E+03  0.54723763588E+03  0.50400001928E-02 0. -1.
</event>
<event>
 5   0  0.6211218E-03  0.9019985E+03  0.7818609E-02  0.9423087E-01
       -1   -1    0    0    0  501  0.00000000000E+00  0.00000000000E+00  0.74130245604E+03  0.74130245606E+03  0.50400001928E-02 0.  1.
        1   -1    0    0  501    0  0.00000000000E+00  0.00000000000E+00 -0.27438235761E+03  0.27438235766E+03  0.50400001928E-02 0. -1.
    10030    2    1    2    0    0  0.00000000000E+00  0.00000000000E+00  0.46692009843E+03  0.10156848137E+04  0.90199848254E+03 0.  0.
        5    1    3    3  502    0 -0.19782586421E+03  0.12208674862E+03  0.66860934678E+03  0.70788473309E+03  0.46999998093E+01 0.  1.
       -5    1    3    3    0  502  0.19782586421E+03 -0.12208674862E+03 -0.20168924835E+03  0.30780008063E+03  0.46999998093E+01 0. -1.
</event>
<event>
 5   0  0.1028978E-02  0.8956177E+03  0.7818609E-02  0.9431076E-01
        2   -1    0    0  501    0  0.00000000000E+00  0.00000000000E+00  0.69097027601E+03  0.69097027602E+03  0.25500000920E-02 0. -1.
       -2   -1    0    0    0  501  0.00000000000E+00  0.00000000000E+00 -0.29021911846E+03  0.29021911847E+03  0.25500000920E-02 0.  1.
    10030    2    1    2    0    0  0.00000000000E+00  0.00000000000E+00  0.40075115755E+03  0.98118939449E+03  0.89561774077E+03 0.  0.
        3    1    3    3  502    0 -0.35653541828E+03 -0.26904619508E+03  0.23552557825E+03  0.50495115386E+03  0.10100000352E+00 0. -1.
       -3    1    3    3    0  502  0.35653541828E+03  0.26904619508E+03  0.16522557931E+03  0.47623824063E+03  0.10100000352E+00 0.  1.
</event>
<event>
 5   0  0.6288003E-03  0.9033242E+03  0.7818609E-02  0.9421436E-01
        1   -1    0    0  501    0  0.00000000000E+00  0.00000000000E+00  0.43133964867E+03  0.43133964869E+03  0.50400001928E-02 0.  1.
       -1   -1    0    0    0  501  0.00000000000E+00  0.00000000000E+00 -0.47294199366E+03  0.47294199368E+03  0.50400001928E-02 0. -1.
    10030    2    1    2    0    0  0.00000000000E+00  0.00000000000E+00 -0.41602344993E+02  0.90428164238E+03  0.90332415756E+03 0.  0.
        1    1    3    3  502    0  0.73656608962E+01 -0.27676821865E+03 -0.37803195843E+03  0.46857556641E+03  0.50400001928E-02 0. -1.
       -1    1    3    3    0  502 -0.73656608962E+01  0.27676821865E+03  0.33642961344E+03  0.43570607597E+03  0.50400001928E-02 0.  1.
</event>
<event>
 5   0  0.6092779E-03  0.9307593E+03  0.7818609E-02  0.9387927E-01
        1   -1    0    0  501    0  0.00000000000E+00  0.00000000000E+00  0.11618994390E+04  0.11618994390E+04  0.50400001928E-02 0.  1.
       -1   -1    0    0    0  501  0.00000000000E+00  0.00000000000E+00 -0.18640012439E+03  0.18640012445E+03  0.50400001928E-02 0. -1.
    10030    2    1    2    0    0  0.00000000000E+00  0.00000000000E+00  0.97549931458E+03  0.13482995634E+04  0.93075925996E+03 0.  0.
        2    1    3    3  502    0 -0.22468285865E+03  0.33904432218E+03  0.81535396476E+03  0.91117261111E+03  0.25500000920E-02 0.  1.
       -2    1    3    3    0  502  0.22468285865E+03 -0.33904432218E+03  0.16014534982E+03  0.43712695232E+03  0.25500000920E-02 0. -1.
</event>
<event>
 5   0  0.6211218E-03  0.8963426E+03  0.7818609E-02  0.9430165E-01
       -1   -1    0    0    0  501  0.00000000000E+00  0.00000000000E+00  0.13456570964E+03  0.13456570974E+03  0.50400001928E-02 0.  1.
        1   -1    0    0  501    0  0.00000000000E+00  0.00000000000E+00 -0.14926352851E+04  0.14926352851E+04  0.50400001928E-02 0. -1.
    10030    2    1    2    0    0  0.00000000000E+00  0.00000000000E+00 -0.13580695755E+04  0.16272009948E+04  0.89634262748E+03 0.  0.
        5    1    3    3  502    0  0.38924810095E+03  0.34862323139E+02 -0.10772030521E+04  0.11459135967E+04  0.46999998093E+01 0. -1.
       -5    1    3    3    0  502 -0.38924810095E+03 -0.34862323139E+02 -0.28086652337E+03  0.48128739815E+03  0.46999998093E+01 0.  1.
</event>
<event>
 5   0  0.1003252E-02  0.8874199E+03  0.7818609E-02  0.9441445E-01
        2   -1    0    0  501    0  0.00000000000E+00  0.00000000000E+00  0.14361221941E+04  0.14361221941E+04  0.25500000920E-02 0. -1.
       -2   -1    0    0    0  501  0.00000000000E+00  0.00000000000E+00 -0.13709038209E+03  0.13709038211E+03  0.25500000920E-02 0.  1.
    10030    2    1    2    0    0  0.00000000000E+00  0.00000000000E+00  0.12990318120E+04  0.15732125763E+04  0.88741994645E+03 0.  0.
        2    1    3    3  502    0  0.70487651174E+02  0.86131389560E+01 -0.12695127365E+03  0.14546243851E+03  0.25500000920E-02 0.  1.
       -2    1    3    3    0  502 -0.70487651174E+02 -0.86131389560E+01  0.14259830857E+04  0.14277501377E+04  0.25500000920E-02 0. -1.
</event>
<event>
 5   0  0.1041727E-02  0.8986531E+03  0.7818609E-02  0.9427267E-01
       -2   -1    0    0    0  501  0.00000000000E+00  0.00000000000E+00  0.30697255965E+03  0.30697255966E+03  0.25500000920E-02 0.  1.
        2   -1    0    0  501    0  0.00000000000E+00  0.00000000000E+00 -0.65769512074E+03  0.65769512074E+03  0.25500000920E-02 0. -1.
    10030    2    1    2    0    0  0.00000000000E+00  0.00000000000E+00 -0.35072256109E+03  0.96466768040E+03  0.89865311370E+03 0.  0.
        4    1    3    3  502    0  0.40025963270E+03 -0.20177569059E+03 -0.20882049522E+03  0.49449854905E+03  0.12699999809E+01 0. -1.
       -4    1    3    3    0  502 -0.40025963270E+03  0.20177569059E+03 -0.14190206587E+03  0.47016913136E+03  0.12699999809E+01 0.  1.
</event>
<event>
 5   0  0.6015709E-03  0.8946604E+03  0.7818609E-02  0.9432281E-01
       -1   -1    0    0    0  501  0.00000000000E+00  0.00000000000E+00  0.30628325836E+03  0.30628325840E+03  0.50400001928E-02 0.  1.
        1   -1    0    0  501    0  0.00000000000E+00  0.00000000000E+00 -0.65333088462E+03  0.65333088464E+03  0.50400001928E-02 0. -1.
    10030    2    1    2    0    0  0.00000000000E+00  0.00000000000E+00 -0.34704762626E+03  0.95961414304E+03  0.89466040967E+03 0.  0.
        3    1    3    3  502    0 -0.23961109404E+03  0.10283456010E+03  0.21634269619E+03  0.33881055995E+03  0.10100000352E+00 0.  1.
       -3    1    3    3    0  502  0.23961109404E+03 -0.10283456010E+03 -0.56339032245E+03  0.62080358309E+03  0.10100000352E+00 0. -1.
</event>
<event>
 5   0  0.1003252E-02  0.8969098E+03  0.7818609E-02  0.9429453E-01
       -2   -1    0    0    0  501  0.00000000000E+00  0.00000000000E+00  0.40272026846E+03  0.40272026847E+03  0.25500000920E-02 0.  1.
        2   -1    0    0  501    0  0.00000000000E+00  0.00000000000E+00 -0.49938329595E+03  0.49938329595E+03  0.25500000920E-02 0. -1.
    10030    2    1    2    0    0  0.00000000000E+00  0.00000000000E+00 -0.96663027491E+02  0.90210356442E+03  0.89690975023E+03 0.  0.
        2    1    3    3  502    0 -0.39329718195E+03 -0.79205871780E+02 -0.24988037242E+03  0.47264833014E+03  0.25500000920E-02 0. -1.
       -2    1    3    3    0  502  0.39329718195E+03  0.79205871780E+02  0.15321734493E+03  0.42945523428E+03  0.25500000920E-02 0.  1.
</event>
<event>
 5   0  0.6211218E-03  0.8893577E+03  0.7818609E-02  0.9438983E-01
        1   -1    0    0  501    0  0.00000000000E+00  0.00000000000E+00  0.54587252357E+03  0.54587252360E+03  0.50400001928E-02 0.  1.
       -1   -1    0    0    0  501  0.00000000000E+00  0.00000000000E+00 -0.36224440390E+03  0.36224440394E+03  0.50400001928E-02 0. -1.
    10030    2    1    2    0    0  0.00000000000E+00  0.00000000000E+00  0.18362811967E+03  0.90811692754E+03  0.88935767144E+03 0.  0.
        5    1    3    3  502    0 -0.35457112028E+03 -0.56341385009E+02  0.35968735536E+03  0.50822447266E+03  0.46999998093E+01 0.  1.
       -5    1    3    3    0  502  0.35457112028E+03  0.56341385009E+02 -0.17605923569E+03  0.39989245488E+03  0.46999998093E+01 0. -1.
</event>
<event>
 5   0  0.3996375E-03  0.8874862E+03  0.7818609E-02  0.9441361E-01
       -3   -1    0    0    0  501  0.00000000000E+00  0.00000000000E+00  0.11209184118E+04  0.11209184163E+04  0.10100000352E+00 0. -1.
        3   -1    0    0  501    0  0.00000000000E+00  0.00000000000E+00 -0.17566659385E+03  0.17566662289E+03  0.10100000352E+00 0.  1.
    10030    2    1    2    0    0  0.00000000000E+00  0.00000000000E+00  0.94525181791E+03  0.12965850392E+04  0.88748620532E+03 0.  0.
        1    1    3    3  502    0 -0.20959570964E+03 -0.18160170633E+03 -0.33463352608E+02  0.27933731801E+03  0.50400001928E-02 0.  1.
       -1    1    3    3    0  502  0.20959570964E+03  0.18160170633E+03  0.97871517052E+03  0.10172477212E+04  0.50400001928E-02 0. -1.
</event>
<event>
 5   0  0.6137243E-03  0.8976009E+03  0.7818609E-02  0.9428585E-01
        1   -1    0    0  501    0  0.00000000000E+00  0.00000000000E+00  0.10192239410E+04  0.10192239410E+04  0.50400001928E-02 0.  1.
       -1   -1    0    0    0  501  0.00000000000E+00  0.00000000000E+00 -0.19762275017E+03  0.19762275023E+03  0.50400001928E-02 0. -1.
    10030    2    1    2    0    0  0.00000000000E+00  0.00000000000E+00  0.82160119085E+03  0.12168466913E+04  0.89760088749E+03 0.  0.
        4    1    3    3  502    0 -0.39808401983E+03 -0.13444950960E+03  0.62460358723E+03  0.75278071944E+03  0.12699999809E+01 0.  1.
       -4    1    3    3    0  502  0.39808401983E+03  0.13444950960E+03  0.19699760363E+03  0.46406597183E+03  0.12699999809E+01 0. -1.
</event>
<event>
 5   0  0.6092779E-03  0.8986591E+03  0.7818609E-02  0.9427259E-01
        1   -1    0    0  501    0  0.00000000000E+00  0.00000000000E+00  0.10207763305E+04  0.10207763305E+04  0.50400001928E-02 0. -1.
       -1   -1    0    0    0  501  0.00000000000E+00  0.00000000000E+00 -0.19778775676E+03  0.19778775683E+03  0.50400001928E-02 0.  1.
    10030    2    1    2    0    0  0.00000000000E+00  0.00000000000E+00  0.82298857377E+03  0.12185640874E+04  0.89865913586E+03 0.  0.
        2    1    3    3  502    0  0.87941635541E+02  0.26166671285E+03 -0.69245884546E+02  0.28460181378E+03  0.25500000920E-02 0.  1.
       -2    1    3    3    0  502 -0.87941635541E+02 -0.26166671285E+03  0.89223445831E+03  0.93396227358E+03  0.25500000920E-02 0. -1.
</event>
<event>
 5   0  0.6211218E-03  0.8875733E+03  0.7818609E-02  0.9441250E-01
       -1   -1    0    0    0  501  0.00000000000E+00  0.00000000000E+00  0.91425803835E+02  0.91425803974E+02  0.50400001928E-02 0.  1.
        1   -1    0    0  501    0  0.00000000000E+00  0.00000000000E+00 -0.21541683232E+04  0.21541683232E+04  0.50400001928E-02 0. -1.
    10030    2    1    2    0    0  0.00000000000E+00  0.00000000000E+00 -0.20627425194E+04  0.22455941272E+04  0.88757325491E+03 0.  0.
        5    1    3    3  502    0 -0.41168839784E+02  0.44947363756E+02  0.80721765977E+02  0.10125824598E+03  0.46999998093E+01 0.  1.
       -5    1    3    3    0  502  0.41168839784E+02 -0.44947363756E+02 -0.21434642854E+04  0.21443358812E+04  0.46999998093E+01 0. -1.
</event>
<event>
 5   0  0.6288003E-03  0.9142600E+03  0.7818609E-02  0.9407929E-01
       -1   -1    0    0    0  501  0.00000000000E+00  0.00000000000E+00  0.15885141290E+03  0.15885141298E+03  0.50400001928E-02 0. -1.
        1   -1    0    0  501    0  0.00000000000E+00  0.00000000000E+00 -0.13154923635E+04  0.13154923635E+04  0.50400001928E-02 0.  1.
    10030    2    1    2    0    0  0.00000000000E+00  0.00000000000E+00 -0.11566409506E+04  0.14743437765E+04  0.91425996447E+03 0.  0.
        1    1    3    3  502    0 -0.14490415400E+03 -0.18325184685E+03 -0.12119534240E+04  0.12342647833E+04  0.50400001928E-02 0.  1.
       -1    1    3    3    0  502  0.14490415400E+03  0.18325184685E+03  0.55312473447E+02  0.24007899318E+03  0.50400001928E-02 0. -1.
</event>
<event>
 5   0  0.1028978E-02  0.9108606E+03  0.7818609E-02  0.9412106E-01
       -2   -1    0    0    0  501  0.00000000000E+00  0.00000000000E+00  0.17041185378E+03  0.17041185380E+03  0.25500000920E-02 0.  1.
        2   -1    0    0  501    0  0.00000000000E+00  0.00000000000E+00 -0.12171498368E+04  0.12171498368E+04  0.25500000920E-02 0. -1.
    10030    2    1    2    0    0  0.00000000000E+00  0.00000000000E+00 -0.10467379830E+04  0.13875616906E+04  0.91086060412E+03 0.  0.
        3    1    3    3  502    0 -0.41809354887E+03 -0.78134811282E+02 -0.27534080863E+03  0.50667527613E+03  0.10100000352E+00 0.  1.
       -3    1    3    3    0  502  0.41809354887E+03  0.78134811282E+02 -0.77139717442E+03  0.88088641450E+03  0.10100000352E+00 0. -1.
</event>
<event>
 5   0  0.1028978E-02  0.9293325E+03  0.7818609E-02  0.9389639E-01
       -2   -1    0    0    0  501  0.00000000000E+00  0.00000000000E+00  0.18052342065E+03  0.18052342067E+03  0.25500000920E-02 0. -1.
        2   -1    0    0  501    0  0.00000000000E+00  0.00000000000E+00 -0.11960482748E+04  0.11960482748E+04  0.25500000920E-02 0.  1.
    10030    2    1    2    0    0  0.00000000000E+00  0.00000000000E+00 -0.10155248541E+04  0.13765716954E+04  0.92933250419E+03 0.  0.
        3    1    3    3  502    0 -0.49802680536E+02  0.41967286115E+03 -0.22165107839E+03  0.47721570398E+03  0.10100000352E+00 0. -1.
       -3    1    3    3    0  502  0.49802680536E+02 -0.41967286115E+03 -0.79387377571E+03  0.89935599144E+03  0.10100000352E+00 0.  1.
</event>
<event>
 5   0  0.6211218E-03  0.9050283E+03  0.7818609E-02  0.9419318E-01
       -1   -1    0    0    0  501  0.00000000000E+00  0.00000000000E+00  0.23385209395E+03  0.23385209400E+03  0.50400001928E-02 0.  1.
        1   -1    0    0  501    0  0.00000000000E+00  0.00000000000E+00 -0.87563493346E+03  0.87563493348E+03  0.50400001928E-02 0. -1.
    10030    2    1    2    0    0  0.00000000000E+00  0.00000000000E+00 -0.64178283952E+03  0.11094870275E+04  0.90502831505E+03 0.  0.
        5    1    3    3  502    0 -0.27316800505E+03 -0.75209552343E+02  0.11161439210E+03  0.30456050018E+03  0.46999998093E+01 0.  1.
       -5    1    3    3    0  502  0.27316800505E+03  0.75209552343E+02 -0.75339723162E+03  0.80492652730E+03  0.46999998093E+01 0. -1.
</event>
<event>
 5   0  0.6015709E-03  0.8949727E+03  0.7818609E-02  0.9431888E-01
        1   -1    0    0  501    0  0.00000000000E+00  0.00000000000E+00  0.77507393689E+03  0.77507393690E+03  0.50400001928E-02 0. -1.
       -1   -1    0    0    0  501  0.00000000000E+00  0.00000000000E+00 -0.25835476542E+03  0.25835476547E+03  0.50400001928E-02 0.  1.
    10030    2    1    2    0    0  0.00000000000E+00  0.00000000000E+00  0.51671917147E+03  0.10334287024E+04  0.89497272624E+03 0.  0.
        3    1    3    3  502    0 -0.32973353840E+03 -0.89889898531E+02 -0.75187319925E+02  0.34993934257E+03  0.10100000352E+00 0.  1.
       -3    1    3    3    0  502  0.32973353840E+03  0.89889898531E+02  0.59190649140E+03  0.68348935980E+03  0.10100000352E+00 0. -1.
</event>
<event>
 5   0  0.6015709E-03  0.9043521E+03  0.7818609E-02  0.9420157E-01
       -1   -1    0    0    0  501  0.00000000000E+00  0.00000000000E+00  0.31098499899E+03  0.31098499904E+03  0.50400001928E-02 0. -1.
        1   -1    0    0  501    0  0.00000000000E+00  0.00000000000E+00 -0.65746962083E+03  0.65746962085E+03  0.50400001928E-02 0.  1.
    10030    2    1    2    0    0  0.00000000000E+00  0.00000000000E+00 -0.34648462183E+03  0.96845461988E+03  0.90435212036E+03 0.  0.
        3    1    3    3  502    0 -0.79347117206E+02  0.42121596689E+02 -0.64781713990E+03  0.65401624664E+03  0.10100000352E+00 0.  1.
       -3    1    3    3    0  502  0.79347117206E+02 -0.42121596689E+02  0.30133251807E+03  0.31443837324E+03  0.10100000352E+00 0. -1.
</event>
<event>
 5   0  0.1003252E-02  0.8941404E+03  0.7818609E-02  0.9432936E-01
       -2   -1    0    0    0  501  0.00000000000E+00  0.00000000000E+00  0.83734443247E+03  0.83734443248E+03  0.25500000920E-02 0.  1.
        2   -1    0    0  501    0  0.00000000000E+00  0.00000000000E+00 -0.23869717512E+03  0.23869717513E+03  0.25500000920E-02 0. -1.
    10030    2    1    2    0    0  0.00000000000E+00  0.00000000000E+00  0.59864725735E+03  0.10760416076E+04  0.89414037073E+03 0.  0.
        2    1    3    3  502    0 -0.71617419371E+02  0.15983320115E+03 -0.19569148926E+03  0.26262304910E+03  0.25500000920E-02 0. -1.
       -2    1    3    3    0  502  0.71617419371E+02 -0.15983320115E+03  0.79433874661E+03  0.81341855850E+03  0.25500000920E-02 0.  1.
</event>
<event>
 5   0  0.1003252E-02  0.8994826E+03  0.7818609E-02  0.9426228E-01
        2   -1    0    0  501    0  0.00000000000E+00  0.00000000000E+00  0.66987079036E+03  0.66987079036E+03  0.25500000920E-02 0. -1.
       -2   -1    0    0    0  501  0.00000000000E+00  0.00000000000E+00 -0.30194962913E+03  0.30194962914E+03  0.25500000920E-02 0.  1.
    10030    2    1    2    0    0  0.00000000000E+00  0.00000000000E+00  0.36792116123E+03  0.97182041950E+03  0.89948259954E+03 0.  0.
        2    1    3    3  502    0 -0.20129247650E+02  0.27958625008E+03  0.56394591158E+03  0.62976872663E+03  0.25500000920E-02 0. -1.
       -2    1    3    3    0  502  0.20129247650E+02 -0.27958625008E+03 -0.19602475035E+03  0.34205169288E+03  0.25500000920E-02 0.  1.
</event>
<event>
 5   0  0.6137243E-03  0.8854378E+03  0.7818609E-02  0.9443970E-01
        1   -1    0    0  501    0  0.00000000000E+00  0.00000000000E+00  0.27536914336E+03  0.27536914341E+03  0.50400001928E-02 0.  1.
       -1   -1    0    0    0  501  0.00000000000E+00  0.00000000000E+00 -0.71177196207E+03  0.71177196208E+03  0.50400001928E-02 0. -1.
    10030    2    1    2    0    0  0.00000000000E+00  0.00000000000E+00 -0.43640281871E+03  0.98714110549E+03  0.88543782502E+03 0.  0.
        4    1    3    3  502    0 -0.98546416239E+00 -0.11367328176E+03  0.25881869118E+03  0.28268589269E+03  0.12699999809E+01 0.  1.
       -4    1    3    3    0  502  0.98546416239E+00  0.11367328176E+03 -0.69522150989E+03  0.70445521279E+03  0.12699999809E+01 0. -1.
</event>
<event>
 5   0  0.1017079E-02  0.9021148E+03  0.7818609E-02  0.9422942E-01
       -2   -1    0    0    0  501  0.00000000000E+00  0.00000000000E+00  0.12647258426E+03  0.12647258429E+03  0.25500000920E-02 0. -1.
        2   -1    0    0  501    0  0.00000000000E+00  0.00000000000E+00 -0.16086709598E+04  0.16086709598E+04  0.25500000920E-02 0.  1.
    10030    2    1    2    0    0  0.00000000000E+00  0.00000000000E+00 -0.14821983755E+04  0.17351435441E+04  0.90211478988E+03 0.  0.
        1    1    3    3  502    0 -0.60866106270E+02 -0.29893083905E+03 -0.10204834530E+03  0.32168026709E+03  0.50400001928E-02 0. -1.
       -1    1    3    3    0  502  0.60866106270E+02  0.29893083905E+03 -0.13801500302E+04  0.14134632770E+04  0.50400001928E-02 0.  1.
</event>
<event>
 5   0  0.3996375E-03  0.9177981E+03  0.7818609E-02  0.9403602E-01
        3   -1    0    0  501    0  0.00000000000E+00  0.00000000000E+00  0.16126247538E+03  0.16126250701E+03  0.10100000352E+00 0.  1.
       -3   -1    0    0    0  501  0.00000000000E+00  0.00000000000E+00 -0.13058728866E+04  0.13058728905E+04  0.10100000352E+00 0. -1.
    10030    2    1    2    0    0  0.00000000000E+00  0.00000000000E+00 -0.11446104113E+04  0.14671353976E+04  0.91779806124E+03 0.  0.
        1    1    3    3  502    0  0.30495864485E+03 -0.73242364255E+02 -0.36797002929E+02  0.31578194762E+03  0.50400001928E-02 0.  1.
       -1    1    3    3    0  502 -0.30495864485E+03  0.73242364255E+02 -0.11078134083E+04  0.11513534499E+04  0.50400001928E-02 0. -1.
</event>
<event>
 5   0  0.1033749E-02  0.9014679E+03  0.7818609E-02  0.9423748E-01
       -2   -1    0    0    0  501  0.00000000000E+00  0.00000000000E+00  0.29601573151E+03  0.29601573152E+03  0.25500000920E-02 0. -1.
        2   -1    0    0  501    0  0.00000000000E+00  0.00000000000E+00 -0.68631861116E+03  0.68631861116E+03  0.25500000920E-02 0.  1.
    10030    2    1    2    0    0  0.00000000000E+00  0.00000000000E+00 -0.39030287965E+03  0.98233434268E+03  0.90146792675E+03 0.  0.
        5    1    3    3  502    0  0.25177013750E+03  0.18407264074E+03  0.15941004635E+03  0.35029215247E+03  0.46999998093E+01 0. -1.
       -5    1    3    3    0  502 -0.25177013750E+03 -0.18407264074E+03 -0.54971292600E+03  0.63204219022E+03  0.46999998093E+01 0.  1.
</event>
<event>
 5   0  0.1033749E-02  0.9238396E+03  0.7818609E-02  0.9396262E-01
        2   -1    0    0  501    0  0.00000000000E+00  0.00000000000E+00  0.21771875204E+04  0.21771875204E+04  0.25500000920E-02 0.  1.
       -2   -1    0    0    0  501  0.00000000000E+00  0.00000000000E+00 -0.98002535465E+02  0.98002535498E+02  0.25500000920E-02 0. -1.
    10030    2    1    2    0    0  0.00000000000E+00  0.00000000000E+00  0.20791849849E+04  0.22751900559E+04  0.92383959045E+03 0.  0.
        5    1    3    3  502    0 -0.19300523606E+03  0.36014599537E+03  0.15700382886E+04  0.16223435138E+04  0.46999998093E+01 0.  1.
       -5    1    3    3    0  502  0.19300523606E+03 -0.36014599537E+03  0.50914669632E+03  0.65284654207E+03  0.46999998093E+01 0. -1.
</event>
<event>
 5   0  0.1003252E-02  0.8931049E+03  0.7818609E-02  0.9434242E-01
        2   -1    0    0  501    0  0.00000000000E+00  0.00000000000E+00  0.72014413759E+03  0.72014413760E+03  0.25500000920E-02 0. -1.
       -2   -1    0    0    0  501  0.00000000000E+00  0.00000000000E+00 -0.27690165374E+03  0.27690165376E+03  0.25500000920E-02 0.  1.
    10030    2    1    2    0    0  0.00000000000E+00  0.00000000000E+00  0.44324248385E+03  0.99704579135E+03  0.89310492696E+03 0.  0.
        2    1    3    3  502    0 -0.11999113884E+03  0.28053051793E+03  0.58562641702E+03  0.66034350546E+03  0.25500000920E-02 0. -1.
       -2    1    3    3    0  502  0.11999113884E+03 -0.28053051793E+03 -0.14238393317E+03  0.33670228589E+03  0.25500000920E-02 0.  1.
</event>
<event>
 5   0  0.6211218E-03  0.9051152E+03  0.7818609E-02  0.9419210E-01
       -1   -1    0    0    0  501  0.00000000000E+00  0.00000000000E+00  0.13586889204E+03  0.13586889213E+03  0.50400001928E-02 0.  1.
        1   -1    0    0  501    0  0.00000000000E+00  0.00000000000E+00 -0.15073970194E+04  0.15073970194E+04  0.50400001928E-02 0. -1.
    10030    2    1    2    0    0  0.00000000000E+00  0.00000000000E+00 -0.13715281273E+04  0.16432659115E+04  0.90511515944E+03 0.  0.
        5    1    3    3  502    0  0.14296670067E+03 -0.42771204179E+03 -0.61761010926E+03  0.76474924338E+03  0.46999998093E+01 0.  1.
       -5    1    3    3    0  502 -0.14296670067E+03  0.42771204179E+03 -0.75391801806E+03  0.87851666811E+03  0.46999998093E+01 0. -1.
</event>
<event>
 5   0  0.1028978E-02  0.9016950E+03  0.7818609E-02  0.9423465E-01
       -2   -1    0    0    0  501  0.00000000000E+00  0.00000000000E+00  0.66301091917E+03  0.66301091918E+03  0.25500000920E-02 0. -1.
        2   -1    0    0  501    0  0.00000000000E+00  0.00000000000E+00 -0.30657638174E+03  0.30657638175E+03  0.25500000920E-02 0.  1.
    10030    2    1    2    0    0  0.00000000000E+00  0.00000000000E+00  0.35643453743E+03  0.96958730092E+03  0.90169504525E+03 0.  0.
        3    1    3    3  502    0  0.17841965040E+03  0.12565500987E+03 -0.24600050304E+03  0.32884496476E+03  0.10100000352E+00 0.  1.
       -3    1    3    3    0  502 -0.17841965040E+03 -0.12565500987E+03  0.60243504047E+03  0.64074233616E+03  0.10100000352E+00 0. -1.
</event>
<event>
 5   0  0.6015709E-03  0.9645663E+03  0.7818609E-02  0.9348285E-01
       -1   -1    0    0    0  501  0.00000000000E+00  0.00000000000E+00  0.35899511782E+03  0.35899511786E+03  0.50400001928E-02 0. -1.
        1   -1    0    0  501    0  0.00000000000E+00  0.00000000000E+00 -0.64791143716E+03  0.64791143718E+03  0.50400001928E-02 0.  1.
    10030    2    1    2    0    0  0.00000000000E+00  0.00000000000E+00 -0.28891631934E+03  0.10069065550E+04  0.96456631239E+03 0.  0.
        3    1    3    3  502    0  0.23015874345E+03 -0.21028336357E+03  0.23966832890E+03  0.39323410109E+03  0.10100000352E+00 0. -1.
       -3    1    3    3    0  502 -0.23015874345E+03  0.21028336357E+03 -0.52858464824E+03  0.61367245395E+03  0.10100000352E+00 0.  1.
</event>
<event>
 5   0  0.1041727E-02  0.8771721E+03  0.7818609E-02  0.9454576E-01
        2   -1    0    0  501    0  0.00000000000E+00  0.00000000000E+00  0.23245103010E+03  0.23245103011E+03  0.25500000920E-02 0. -1.
       -2   -1    0    0    0  501  0.00000000000E+00  0.00000000000E+00 -0.82751941457E+03  0.82751941457E+03  0.25500000920E-02 0.  1.
    10030    2    1    2    0    0  0.00000000000E+00  0.00000000000E+00 -0.59506838447E+03  0.10599704447E+04  0.87717213898E+03 0.  0.
        4    1    3    3  502    0  0.16312330842E+03  0.23359926930E+03  0.10538590663E+03  0.30378550752E+03  0.12699999809E+01 0.  1.
       -4    1    3    3    0  502 -0.16312330842E+03 -0.23359926930E+03 -0.70045429110E+03  0.75618493716E+03  0.12699999809E+01 0. -1.
</event>
<event>
 5   0  0.6092779E-03  0.9019153E+03  0.7818609E-02  0.9423190E-01
        1   -1    0    0  501    0  0.00000000000E+00  0.00000000000E+00  0.67011491761E+03  0.67011491763E+03  0.50400001928E-02 0. -1.
       -1   -1    0    0    0  501  0.00000000000E+00  0.00000000000E+00 -0.30347451832E+03  0.30347451836E+03  0.50400001928E-02 0.  1.
    10030    2    1    2    0    0  0.00000000000E+00  0.00000000000E+00  0.36664039930E+03  0.97358943599E+03  0.90191529950E+03 0.  0.
        2    1    3    3  502    0  0.31905966439E+00 -0.20647924930E+03  0.61609029858E+03  0.64976998869E+03  0.25500000920E-02 0. -1.
       -2    1    3    3    0  502 -0.31905966439E+00  0.20647924930E+03 -0.24944989928E+03  0.32381944730E+03  0.25500000920E-02 0.  1.
</event>
<event>
 5   0  0.6288003E-03  0.9094971E+03  0.7818609E-02  0.9413787E-01
        1   -1    0    0  501    0  0.00000000000E+00  0.00000000000E+00  0.93221348782E+03  0.93221348783E+03  0.50400001928E-02 0.  1.
       -1   -1    0    0    0  501  0.00000000000E+00  0.00000000000E+00 -0.22183354562E+03  0.22183354567E+03  0.50400001928E-02 0. -1.
    10030    2    1    2    0    0  0.00000000000E+00  0.00000000000E+00  0.71037994221E+03  0.11540470335E+04  0.90949705511E+03 0.  0.
        1    1    3    3  502    0 -0.40057555787E+03  0.86789194417E+02  0.10523871734E+03  0.42316466001E+03  0.50400001928E-02 0. -1.
       -1    1    3    3    0  502  0.40057555787E+03 -0.86789194417E+02  0.60514122487E+03  0.73088237350E+03  0.50400001928E-02 0.  1.
</event>
<event>
 5   0  0.1033749E-02  0.8959297E+03  0.7818609E-02  0.9430684E-01
       -2   -1    0    0    0  501  0.00000000000E+00  0.00000000000E+00  0.11612750863E+03  0.11612750865E+03  0.25500000920E-02 0.  1.
        2   -1    0    0  501    0  0.00000000000E+00  0.00000000000E+00 -0.17280358637E+04  0.17280358637E+04  0.25500000920E-02 0. -1.
    10030    2    1    2    0    0  0.00000000000E+00  0.00000000000E+00 -0.16119083551E+04  0.18441633723E+04  0.89592968406E+03 0.  0.
        5    1    3    3  502    0  0.36402605223E+03  0.25355607735E+03 -0.67832205064E+03  0.81052362423E+03  0.46999998093E+01 0. -1.
       -5    1    3    3    0  502 -0.36402605223E+03 -0.25355607735E+03 -0.93358630443E+03  0.10336397481E+04  0.46999998093E+01 0.  1.
</event>
<event>
 5   0  0.6211218E-03  0.8838462E+03  0.7818609E-02  0.9446003E-01
       -1   -1    0    0    0  501  0.00000000000E+00  0.00000000000E+00  0.74599370259E+03  0.74599370261E+03  0.50400001928E-02 0. -1.
        1   -1    0    0  501    0  0.00000000000E+00  0.00000000000E+00 -0.26179313954E+03  0.26179313959E+03  0.50400001928E-02 0.  1.
    10030    2    1    2    0    0  0.00000000000E+00  0.00000000000E+00  0.48420056305E+03  0.10077868422E+04  0.88384621629E+03 0.  0.
        5    1    3    3  502    0 -0.32484636885E+02 -0.14765990127E+03  0.71555648267E+03  0.73136985716E+03  0.46999998093E+01 0. -1.
       -5    1    3    3    0  502  0.32484636885E+02  0.14765990127E+03 -0.23135591962E+03  0.27641698504E+03  0.46999998093E+01 0.  1.
</event>
<event>
 5   0  0.1028978E-02  0.9128513E+03  0.7818609E-02  0.9409658E-01
       -2   -1    0    0    0  501  0.00000000000E+00  0.00000000000E+00  0.60879199234E+03  0.60879199235E+03  0.25500000920E-02 0.  1.
        2   -1    0    0  501    0  0.00000000000E+00  0.00000000000E+00 -0.34219304410E+03  0.34219304410E+03  0.25500000920E-02 0. -1.
    10030    2    1    2    0    0  0.00000000000E+00  0.00000000000E+00  0.26659894825E+03  0.95098503645E+03  0.91285132434E+03 0.  0.
        3    1    3    3  502    0  0.21370756597E+03 -0.50345517260E+02 -0.28356488897E+03  0.35862884898E+03  0.10100000352E+00 0. -1.
       -3    1    3    3    0  502 -0.21370756597E+03  0.50345517260E+02  0.55016383721E+03  0.59235618747E+03  0.10100000352E+00 0.  1.
</event>
<event>
 5   0  0.1017079E-02  0.8993244E+03  0.7818609E-02  0.9426426E-01
        2   -1    0    0  501    0  0.00000000000E+00  0.00000000000E+00  0.27832167767E+03  0.27832167768E+03  0.25500000920E-02 0.  1.
       -2   -1    0    0    0  501  0.00000000000E+00  0.00000000000E+00 -0.72648348221E+03  0.72648348221E+03  0.25500000920E-02 0. -1.
    10030    2    1    2    0    0  0.00000000000E+00  0.00000000000E+00 -0.44816180454E+03  0.10048051599E+04  0.89932441660E+03 0.  0.
        1    1    3    3  502    0  0.24277783808E+02  0.44896734036E+03 -0.23069257669E+03  0.50535150981E+03  0.50400001928E-02 0. -1.
       -1    1    3    3    0  502 -0.24277783808E+02 -0.44896734036E+03 -0.21746922785E+03  0.49945365009E+03  0.50400001928E-02 0.  1.
</event>
<event>
 5   0  0.6092779E-03  0.7906202E+03  0.7818609E-02  0.9573694E-01
        1   -1    0    0  501    0  0.00000000000E+00  0.00000000000E+00  0.13674283370E+04  0.13674283371E+04  0.50400001928E-02 0.  1.
       -1   -1    0    0    0  501  0.00000000000E+00  0.00000000000E+00 -0.11428026921E+03  0.11428026932E+03  0.50400001928E-02 0. -1.
    10030    2    1    2    0    0  0.00000000000E+00  0.00000000000E+00  0.12531480678E+04  0.14817086064E+04  0.79062020862E+03 0.  0.
        2    1    3    3  502    0 -0.14228554753E+03  0.23443930022E+03  0.11601626303E+04  0.11921343428E+04  0.25500000920E-02 0.  1.
       -2    1    3    3    0  502  0.14228554753E+03 -0.23443930022E+03  0.92985437535E+02  0.28957426357E+03  0.25500000920E-02 0. -1.
</event>
<event>
 5   0  0.6092779E-03  0.9150215E+03  0.7818609E-02  0.9406996E-01
        1   -1    0    0  501    0  0.00000000000E+00  0.00000000000E+00  0.99826953487E+03  0.99826953488E+03  0.50400001928E-02 0.  1.
       -1   -1    0    0    0  501  0.00000000000E+00  0.00000000000E+00 -0.20967891036E+03  0.20967891042E+03  0.50400001928E-02 0. -1.
    10030    2    1    2    0    0  0.00000000000E+00  0.00000000000E+00  0.78859062451E+03  0.12079484453E+04  0.91502146064E+03 0.  0.
        2    1    3    3  502    0 -0.53365990638E+02  0.10315793546E+03 -0.18989310044E+03  0.22259577311E+03  0.25500000920E-02 0. -1.
       -2    1    3    3    0  502  0.53365990638E+02 -0.10315793546E+03  0.97848372495E+03  0.98535267219E+03  0.25500000920E-02 0.  1.
</event>
<event>
 5   0  0.1028978E-02  0.9067346E+03  0.7818609E-02  0.9417202E-01
        2   -1    0    0  501    0  0.00000000000E+00  0.00000000000E+00  0.23834776160E+04  0.23834776160E+04  0.25500000920E-02 0.  1.
       -2   -1    0    0    0  501  0.00000000000E+00  0.00000000000E+00 -0.86236143795E+02  0.86236143833E+02  0.25500000920E-02 0. -1.
    10030    2    1    2    0    0  0.00000000000E+00  0.00000000000E+00  0.22972414722E+04  0.24697137599E+04  0.90673462154E+03 0.  0.
        3    1    3    3  502    0 -0.16042913292E+03 -0.31811610977E+03  0.19122732212E+04  0.19451797472E+04  0.10100000352E+00 0.  1.
       -3    1    3    3    0  502  0.16042913292E+03  0.31811610977E+03  0.38496825100E+03  0.52453401269E+03  0.10100000352E+00 0. -1.
</event>
<event>
 5   0  0.1028978E-02  0.8974357E+03  0.7818609E-02  0.9428793E-01
       -2   -1    0    0    0  501  0.00000000000E+00  0.00000000000E+00  0.35097943127E+03  0.35097943128E+03  0.25500000920E-02 0. -1.
        2   -1    0    0  501    0  0.00000000000E+00  0.00000000000E+00 -0.57367381480E+03  0.57367381481E+03  0.25500000920E-02 0.  1.
    10030    2    1    2    0    0  0.00000000000E+00  0.00000000000E+00 -0.22269438353E+03  0.92465324609E+03  0.89743570079E+03 0.  0.
        3    1    3    3  502    0 -0.15209917177E+01 -0.35256803137E+03 -0.39732806518E+03  0.53120253364E+03  0.10100000352E+00 0.  1.
       -3    1    3    3    0  502  0.15209917177E+01  0.35256803137E+03  0.17463368165E+03  0.39345071245E+03  0.10100000352E+00 0. -1.
</event>
<event>
 5   0  0.6137243E-03  0.9099669E+03  0.7818609E-02  0.9413207E-01
        1   -1    0    0  501    0  0.00000000000E+00  0.00000000000E+00  0.23748810311E+03  0.23748810316E+03  0.50400001928E-02 0. -1.
       -1   -1    0    0    0  501  0.00000000000E+00  0.00000000000E+00 -0.87166451193E+03  0.87166451194E+03  0.50400001928E-02 0.  1.
    10030    2    1    2    0    0  0.00000000000E+00  0.00000000000E+00 -0.63417640882E+03  0.11091526151E+04  0.90996692583E+03 0.  0.
        4    1    3    3  502    0  0.39313169350E+03 -0.21274127620E+03 -0.21368351557E+03  0.49545296120E+03  0.12699999809E+01 0.  1.
       -4    1    3    3    0  502 -0.39313169350E+03  0.21274127620E+03 -0.42049289325E+03  0.61369965391E+03  0.12699999809E+01 0. -1.
</event>
<event>
 5   0  0.6137243E-03  0.8990044E+03  0.7818609E-02  0.9426827E-01
       -1   -1    0    0    0  501  0.00000000000E+00  0.00000000000E+00  0.24316491857E+03  0.24316491862E+03  0.50400001928E-02 0.  1.
        1   -1    0    0  501    0  0.00000000000E+00  0.00000000000E+00 -0.83092676583E+03  0.83092676585E+03  0.50400001928E-02 0. -1.
    10030    2    1    2    0    0  0.00000000000E+00  0.00000000000E+00 -0.58776184726E+03  0.10740916845E+04  0.89900442577E+03 0.  0.
        4    1    3    3  502    0 -0.31353382393E+03 -0.88253057071E+02  0.76221047772E+02  0.33451953882E+03  0.12699999809E+01 0.  1.
       -4    1    3    3    0  502  0.31353382393E+03  0.88253057071E+02 -0.66398289503E+03  0.73957214565E+03  0.12699999809E+01 0. -1.
</event>
<event>
 5   0  0.6288003E-03  0.8919743E+03  0.7818609E-02  0.9435670E-01
        1   -1    0    0  501    0  0.00000000000E+00  0.00000000000E+00  0.28402837396E+04  0.28402837396E+04  0.50400001928E-02 0. -1.
       -1   -1    0    0    0  501  0.00000000000E+00  0.00000000000E+00 -0.70029819428E+02  0.70029819609E+02  0.50400001928E-02 0.  1.
    10030    2    1    2    0    0  0.00000000000E+00  0.00000000000E+00  0.27702539202E+04  0.29103135592E+04  0.89197434421E+03 0.  0.
        1    1    3    3  502    0 -0.28725374315E+03 -0.18298828293E+03  0.23245866061E+04  0.23494046722E+04  0.50400001928E-02 0. -1.
       -1    1    3    3    0  502  0.28725374315E+03  0.18298828293E+03  0.44566731412E+03  0.56090888702E+03  0.50400001928E-02 0.  1.
</event>
<event>
 5   0  0.6288003E-03  0.9047506E+03  0.7818609E-02  0.9419662E-01
        1   -1    0    0  501    0  0.00000000000E+00  0.00000000000E+00  0.40491921489E+03  0.40491921492E+03  0.50400001928E-02 0. -1.
       -1   -1    0    0    0  501  0.00000000000E+00  0.00000000000E+00 -0.50539316643E+03  0.50539316646E+03  0.50400001928E-02 0.  1.
    10030    2    1    2    0    0  0.00000000000E+00  0.00000000000E+00 -0.10047395154E+03  0.91031238138E+03  0.90475058262E+03 0.  0.
        1    1    3    3  502    0 -0.64840333429E+02 -0.12647038717E+03 -0.48234694650E+03  0.50284948493E+03  0.50400001928E-02 0.  1.
       -1    1    3    3    0  502  0.64840333429E+02  0.12647038717E+03  0.38187299497E+03  0.40746289645E+03  0.50400001928E-02 0. -1.
</event>
<event>
 5   0  0.6092779E-03  0.8992701E+03  0.7818609E-02  0.9426494E-01
        1   -1    0    0  501    0  0.00000000000E+00  0.00000000000E+00  0.50775401706E+03  0.50775401708E+03  0.50400001928E-02 0.  1.
       -1   -1    0    0    0  501  0.00000000000E+00  0.00000000000E+00 -0.39816857185E+03  0.39816857188E+03  0.50400001928E-02 0. -1.
    10030    2    1    2    0    0  0.00000000000E+00  0.00000000000E+00  0.10958544521E+03  0.90592258897E+03  0.89927013038E+03 0.  0.
        2    1    3    3  502    0 -0.20231449615E+03  0.31761168309E+03  0.30229979107E+03  0.48290112888E+03  0.25500000920E-02 0.  1.
       -2    1    3    3    0  502  0.20231449615E+03 -0.31761168309E+03 -0.19271434586E+03  0.42302146009E+03  0.25500000920E-02 0. -1.
</event>
<event>
 5   0  0.6211218E-03  0.9259593E+03  0.7818609E-02  0.9393700E-01
        1   -1    0    0  501    0  0.00000000000E+00  0.00000000000E+00  0.66963863785E+03  0.66963863787E+03  0.50400001928E-02 0.  1.
       -1   -1    0    0    0  501  0.00000000000E+00  0.00000000000E+00 -0.32009824199E+03  0.32009824203E+03  0.50400001928E-02 0. -1.
    10030    2    1    2    0    0  0.00000000000E+00  0.00000000000E+00  0.34954039587E+03  0.98973687990E+03  0.92595928803E+03 0.  0.
        5    1    3    3  502    0 -0.37611618145E+03 -0.29027779914E+02  0.46162402681E+03  0.59617516393E+03  0.46999998093E+01 0.  1.
       -5    1    3    3    0  502  0.37611618145E+03  0.29027779914E+02 -0.11208363094E+03  0.39356171597E+03  0.46999998093E+01 0. -1.
</event>
<event>
 5   0  0.6092779E-03  0.9025256E+03  0.7818609E-02  0.9422430E-01
        1   -1    0    0  501    0  0.00000000000E+00  0.00000000000E+00  0.49398276398E+03  0.49398276401E+03  0.50400001928E-02 0. -1.
       -1   -1    0    0    0  501  0.00000000000E+00  0.00000000000E+00 -0.41223732747E+03  0.41223732750E+03  0.50400001928E-02 0.  1.
    10030    2    1    2    0    0  0.00000000000E+00  0.00000000000E+00  0.81745436511E+02  0.90622009151E+03  0.90252564388E+03 0.  0.
        2    1    3    3  502    0  0.11115355619E+03 -0.14738276829E+03  0.45433658065E+03  0.49040648646E+03  0.25500000920E-02 0. -1.
       -2    1    3    3    0  502 -0.11115355619E+03  0.14738276829E+03 -0.37259114414E+03  0.41581360504E+03  0.25500000920E-02 0.  1.
</event>
<event>
 5   0  0.1017079E-02  0.8233482E+03  0.7818609E-02  0.9526823E-01
        2   -1    0    0  501    0  0.00000000000E+00  0.00000000000E+00  0.42836539161E+03  0.42836539162E+03  0.25500000920E-02 0. -1.
       -2   -1    0    0    0  501  0.00000000000E+00  0.00000000000E+00 -0.39563321835E+03  0.39563321835E+03  0.25500000920E-02 0.  1.
    10030    2    1    2    0    0  0.00000000000E+00  0.00000000000E+00  0.32732173264E+02  0.82399860997E+03  0.82334823378E+03 0.  0.
        1    1    3    3  502    0  0.20919642567E+03  0.34012363432E+03 -0.83854653353E+02  0.40801817858E+03  0.50400001928E-02 0. -1.
       -1    1    3    3    0  502 -0.20919642567E+03 -0.34012363432E+03  0.11658682662E+03  0.41598043139E+03  0.50400001928E-02 0.  1.
</event>
<event>
 5   0  0.1017079E-02  0.9017285E+03  0.7818609E-02  0.9423423E-01
        2   -1    0    0  501    0  0.00000000000E+00  0.00000000000E+00  0.10569933885E+04  0.10569933885E+04  0.25500000920E-02 0.  1.
       -2   -1    0    0    0  501  0.00000000000E+00  0.00000000000E+00 -0.19231772679E+03  0.19231772681E+03  0.25500000920E-02 0. -1.
    10030    2    1    2    0    0  0.00000000000E+00  0.00000000000E+00  0.86467566170E+03  0.12493111153E+04  0.90172848622E+03 0.  0.
        1    1    3    3  502    0 -0.19805484744E+03 -0.35833514032E+03  0.69392539345E+03  0.80570605501E+03  0.50400001928E-02 0.  1.
       -1    1    3    3    0  502  0.19805484744E+03  0.35833514032E+03  0.17075026825E+03  0.44360506028E+03  0.50400001928E-02 0. -1.
</event>
<event>
 5   0  0.1003252E-02  0.9115551E+03  0.7818609E-02  0.9411251E-01
       -2   -1    0    0    0  501  0.00000000000E+00  0.00000000000E+00  0.16849489247E+03  0.16849489249E+03  0.25500000920E-02 0.  1.
        2   -1    0    0  501    0  0.00000000000E+00  0.00000000000E+00 -0.12328753193E+04  0.12328753194E+04  0.25500000920E-02 0. -1.
    10030    2    1    2    0    0  0.00000000000E+00  0.00000000000E+00 -0.10643804269E+04  0.14013702118E+04  0.91155514233E+03 0.  0.
        2    1    3    3  502    0  0.19563934689E+03  0.18854364220E+03  0.30379065239E+02  0.27339778104E+03  0.25500000920E-02 0.  1.
       -2    1    3    3    0  502 -0.19563934689E+03 -0.18854364220E+03 -0.10947594921E+04  0.11279724308E+04  0.25500000920E-02 0. -1.
</event>
<event>
 5   0  0.6137243E-03  0.8793078E+03  0.7818609E-02  0.9451824E-01
        1   -1    0    0  501    0  0.00000000000E+00  0.00000000000E+00  0.19167759129E+03  0.19167759136E+03  0.50400001928E-02 0.  1.
       -1   -1    0    0    0  501  0.00000000000E+00  0.00000000000E+00 -0.10084409640E+04  0.10084409640E+04  0.50400001928E-02 0. -1.
    10030    2    1    2    0    0  0.00000000000E+00  0.00000000000E+00 -0.81676337273E+03  0.12001185554E+04  0.87930776181E+03 0.  0.
        4    1    3    3  502    0  0.17891695889E+03  0.37149355429E+03 -0.61660521227E+03  0.74176973500E+03  0.12699999809E+01 0. -1.
       -4    1    3    3    0  502 -0.17891695889E+03 -0.37149355429E+03 -0.20015816046E+03  0.45834882040E+03  0.12699999809E+01 0.  1.
</event>
<event>
 5   0  0.6137243E-03  0.9285626E+03  0.7818609E-02  0.9390565E-01
       -1   -1    0    0    0  501  0.00000000000E+00  0.00000000000E+00  0.15804854580E+03  0.15804854588E+03  0.50400001928E-02 0. -1.
        1   -1    0    0  501    0  0.00000000000E+00  0.00000000000E+00 -0.13638666722E+04  0.13638666722E+04  0.50400001928E-02 0.  1.
    10030    2    1    2    0    0  0.00000000000E+00  0.00000000000E+00 -0.12058181264E+04  0.15219152181E+04  0.92856264038E+03 0.  0.
        4    1    3    3  502    0 -0.17887135450E+03 -0.48109102837E+02 -0.13006811135E+04  0.13138045590E+04  0.12699999809E+01 0.  1.
       -4    1    3    3    0  502  0.17887135450E+03  0.48109102837E+02  0.94862987075E+02  0.20811065915E+03  0.12699999809E+01 0. -1.
</event>
<event>
 5   0  0.6288003E-03  0.9011249E+03  0.7818609E-02  0.9424176E-01
       -1   -1    0    0    0  501  0.00000000000E+00  0.00000000000E+00  0.32397763984E+03  0.32397763988E+03  0.50400001928E-02 0.  1.
        1   -1    0    0  501    0  0.00000000000E+00  0.00000000000E+00 -0.62660654010E+03  0.62660654012E+03  0.50400001928E-02 0. -1.
    10030    2    1    2    0    0  0.00000000000E+00  0.00000000000E+00 -0.30262890026E+03  0.95058418001E+03  0.90112487037E+03 0.  0.
        1    1    3    3  502    0 -0.87051075634E+02  0.34697477700E+03 -0.44027841760E+03  0.56728693857E+03  0.50400001928E-02 0.  1.
       -1    1    3    3    0  502  0.87051075634E+02 -0.34697477700E+03  0.13764951734E+03  0.38329724143E+03  0.50400001928E-02 0. -1.
</event>
<event>
 5   0  0.6092779E-03  0.9029073E+03  0.7818609E-02  0.9421954E-01
        1   -1    0    0  501    0  0.00000000000E+00  0.00000000000E+00  0.37802709760E+03  0.37802709763E+03  0.50400001928E-02 0.  1.
       -1   -1    0    0    0  501  0.00000000000E+00  0.00000000000E+00 -0.53914233543E+03  0.53914233546E+03  0.50400001928E-02 0. -1.
    10030    2    1    2    0    0  0.00000000000E+00  0.00000000000E+00 -0.16111523784E+03  0.91716943309E+03  0.90290733142E+03 0.  0.
        2    1    3    3  502    0  0.41481361623E+03 -0.16101974970E+03 -0.15800307746E+03  0.47218922954E+03  0.25500000920E-02 0. -1.
       -2    1    3    3    0  502 -0.41481361623E+03  0.16101974970E+03 -0.31121603800E+01  0.44498020355E+03  0.25500000920E-02 0.  1.
</event>
<event>
 5   0  0.6092779E-03  0.9027632E+03  0.7818609E-02  0.9422134E-01
        1   -1    0    0  501    0  0.00000000000E+00  0.00000000000E+00  0.89402355775E+03  0.89402355777E+03  0.50400001928E-02 0. -1.
       -1   -1    0    0    0  501  0.00000000000E+00  0.00000000000E+00 -0.22789705375E+03  0.22789705381E+03  0.50400001928E-02 0.  1.
    10030    2    1    2    0    0  0.00000000000E+00  0.00000000000E+00  0.66612650400E+03  0.11219206116E+04  0.90276316902E+03 0.  0.
        2    1    3    3  502    0  0.17321648100E+03 -0.44571933486E+02 -0.18197874739E+03  0.25516048098E+03  0.25500000920E-02 0.  1.
       -2    1    3    3    0  502 -0.17321648100E+03  0.44571933486E+02  0.84810525139E+03  0.86676013059E+03  0.25500000920E-02 0. -1.
</event>
<event>
 5   0  0.1028978E-02  0.8398342E+03  0.7818609E-02  0.9504084E-01
       -2   -1    0    0    0  501  0.00000000000E+00  0.00000000000E+00  0.58881124332E+02  0.58881124388E+02  0.25500000920E-02 0. -1.
        2   -1    0    0  501    0  0.00000000000E+00  0.00000000000E+00 -0.29946842671E+04  0.29946842671E+04  0.25500000920E-02 0.  1.
    10030    2    1    2    0    0  0.00000000000E+00  0.00000000000E+00 -0.29358031427E+04  0.30535653915E+04  0.83983421400E+03 0.  0.
        3    1    3    3  502    0 -0.11250145378E+03 -0.34389178825E+03 -0.22427202173E+04  0.22717200801E+04  0.10100000352E+00 0.  1.
       -3    1    3    3    0  502  0.11250145378E+03  0.34389178825E+03 -0.69308292543E+03  0.78184531133E+03  0.10100000352E+00 0. -1.
</event>
<event>
 5   0  0.1017079E-02  0.9024909E+03  0.7818609E-02  0.9422473E-01
       -2   -1    0    0    0  501  0.00000000000E+00  0.00000000000E+00  0.20745927230E+03  0.20745927232E+03  0.25500000920E-02 0. -1.
        2   -1    0    0  501    0  0.00000000000E+00  0.00000000000E+00 -0.98150563145E+03  0.98150563145E+03  0.25500000920E-02 0.  1.
    10030    2    1    2    0    0  0.00000000000E+00  0.00000000000E+00 -0.77404635915E+03  0.11889649038E+04  0.90249087324E+03 0.  0.
        1    1    3    3  502    0 -0.17329624186E+03  0.37033030241E+03 -0.63853191909E+03  0.75822103113E+03  0.50400001928E-02 0.  1.
       -1    1    3    3    0  502  0.17329624186E+03 -0.37033030241E+03 -0.13551444006E+03  0.43074387264E+03  0.50400001928E-02 0. -1.
</event>
<event>
 5   0  0.1028978E-02  0.8919750E+03  0.7818609E-02  0.9435669E-01
        2   -1    0    0  501    0  0.00000000000E+00  0.00000000000E+00  0.17737337822E+04  0.17737337822E+04  0.25500000920E-02 0.  1.
       -2   -1    0    0    0  501  0.00000000000E+00  0.00000000000E+00 -0.11213907548E+03  0.11213907551E+03  0.25500000920E-02 0. -1.
    10030    2    1    2    0    0  0.00000000000E+00  0.00000000000E+00  0.16615947067E+04  0.18858728577E+04  0.89197503666E+03 0.  0.
        3    1    3    3  502    0  0.20446910183E+03  0.36897269718E+03  0.52472932853E+03  0.67326766096E+03  0.10100000352E+00 0.  1.
       -3    1    3    3    0  502 -0.20446910183E+03 -0.36897269718E+03  0.11368653781E+04  0.12126051967E+04  0.10100000352E+00 0. -1.
</event>
<event>
 5   0  0.6288003E-03  0.8843599E+03  0.7818609E-02  0.9445346E-01
       -1   -1    0    0    0  501  0.00000000000E+00  0.00000000000E+00  0.71351281268E+03  0.71351281270E+03  0.50400001928E-02 0. -1.
        1   -1    0    0  501    0  0.00000000000E+00  0.00000000000E+00 -0.27402885190E+03  0.27402885194E+03  0.50400001928E-02 0.  1.
    10030    2    1    2    0    0  0.00000000000E+00  0.00000000000E+00  0.43948396079E+03  0.98754166465E+03  0.88435987450E+03 0.  0.
        1    1    3    3  502    0  0.27757159131E+03 -0.25071510054E+03 -0.43610958752E+02  0.37657132883E+03  0.50400001928E-02 0.  1.
       -1    1    3    3    0  502 -0.27757159131E+03  0.25071510054E+03  0.48309491954E+03  0.61097033582E+03  0.50400001928E-02 0. -1.
</event>
<event>
 5   0  0.1003252E-02  0.8966394E+03  0.7818609E-02  0.9429792E-01
       -2   -1    0    0    0  501  0.00000000000E+00  0.00000000000E+00  0.19764036937E+03  0.19764036938E+03  0.25500000920E-02 0. -1.
        2   -1    0    0  501    0  0.00000000000E+00  0.00000000000E+00 -0.10169508336E+04  0.10169508336E+04  0.25500000920E-02 0.  1.
    10030    2    1    2    0    0  0.00000000000E+00  0.00000000000E+00 -0.81931046420E+03  0.12145912030E+04  0.89663936649E+03 0.  0.
        2    1    3    3  502    0 -0.27791650944E+03  0.10131870128E+03 -0.86599287163E+03  0.91512115000E+03  0.25500000920E-02 0.  1.
       -2    1    3    3    0  502  0.27791650944E+03 -0.10131870128E+03  0.46682407430E+02  0.29947005296E+03  0.25500000920E-02 0. -1.
</event>
<event>
 5   0  0.1003252E-02  0.9029032E+03  0.7818609E-02  0.9421959E-01
        2   -1    0    0  501    0  0.00000000000E+00  0.00000000000E+00  0.10765791963E+04  0.10765791963E+04  0.25500000920E-02 0.  1.
       -2   -1    0    0    0  501  0.00000000000E+00  0.00000000000E+00 -0.18931126072E+03  0.18931126074E+03  0.25500000920E-02 0. -1.
    10030    2    1    2    0    0  0.00000000000E+00  0.00000000000E+00  0.88726793556E+03  0.12658904570E+04  0.90290323939E+03 0.  0.
        2    1    3    3  502    0  0.93273120101E+02  0.24716260997E+02 -0.17468455600E+03  0.19956317948E+03  0.25500000920E-02 0. -1.
       -2    1    3    3    0  502 -0.93273120101E+02 -0.24716260997E+02  0.10619524916E+04  0.10663272775E+04  0.25500000920E-02 0.  1.
</event>
<event>
 5   0  0.6137243E-03  0.8805243E+03  0.7818609E-02  0.9450260E-01
        1   -1    0    0  501    0  0.00000000000E+00  0.00000000000E+00  0.45594022100E+03  0.45594022102E+03  0.50400001928E-02 0.  1.
       -1   -1    0    0    0  501  0.00000000000E+00  0.00000000000E+00 -0.42512316812E+03  0.42512316815E+03  0.50400001928E-02 0. -1.
    10030    2    1    2    0    0  0.00000000000E+00  0.00000000000E+00  0.30817052878E+02  0.88106338917E+03  0.88052427848E+03 0.  0.
        4    1    3    3  502    0 -0.29071132781E+03  0.14605272969E+03 -0.28139517050E+03  0.43015035842E+03  0.12699999809E+01 0. -1.
       -4    1    3    3    0  502  0.29071132781E+03 -0.14605272969E+03  0.31221222338E+03  0.45091303075E+03  0.12699999809E+01 0.  1.
</event>
<event>
 5   0  0.6092779E-03  0.9031452E+03  0.7818609E-02  0.9421658E-01
       -1   -1    0    0    0  501  0.00000000000E+00  0.00000000000E+00  0.19000890585E+03  0.19000890592E+03  0.50400001928E-02 0. -1.
        1   -1    0    0  501    0  0.00000000000E+00  0.00000000000E+00 -0.10732014420E+04  0.10732014420E+04  0.50400001928E-02 0.  1.
    10030    2    1    2    0    0  0.00000000000E+00  0.00000000000E+00 -0.88319253618E+03  0.12632103480E+04  0.90314524150E+03 0.  0.
        2    1    3    3  502    0 -0.13284932080E+02  0.39707447534E+03 -0.14137442884E+03  0.42170055433E+03  0.25500000920E-02 0. -1.
       -2    1    3    3    0  502  0.13284932080E+02 -0.39707447534E+03 -0.74181810734E+03  0.84150979363E+03  0.25500000920E-02 0.  1.
</event>
<event>
 5   0  0.6211218E-03  0.8775987E+03  0.7818609E-02  0.9454026E-01
        1   -1    0    0  501    0  0.00000000000E+00  0.00000000000E+00  0.13070102887E+04  0.13070102887E+04  0.50400001928E-02 0. -1.
       -1   -1    0    0    0  501  0.00000000000E+00  0.00000000000E+00 -0.14731703844E+03  0.14731703852E+03  0.50400001928E-02 0.  1.
    10030    2    1    2    0    0  0.00000000000E+00  0.00000000000E+00  0.11596932503E+04  0.14543273272E+04  0.87759873520E+03 0.  0.
        5    1    3    3  502    0 -0.15836263799E+03  0.27257701427E+03  0.74082628224E+02  0.32386305690E+03  0.46999998093E+01 0.  1.
       -5    1    3    3    0  502  0.15836263799E+03 -0.27257701427E+03  0.10856106220E+04  0.11304642703E+04  0.46999998093E+01 0. -1.
</event>
<event>
 5   0  0.1041727E-02  0.8893827E+03  0.7818609E-02  0.9438952E-01
        2   -1    0    0  501    0  0.00000000000E+00  0.00000000000E+00  0.47685036587E+03  0.47685036588E+03  0.25500000920E-02 0.  1.
       -2   -1    0    0    0  501  0.00000000000E+00  0.00000000000E+00 -0.41470116952E+03  0.41470116953E+03  0.25500000920E-02 0. -1.
    10030    2    1    2    0    0  0.00000000000E+00  0.00000000000E+00  0.62149196352E+02  0.89155153541E+03  0.88938271721E+03 0.  0.
        4    1    3    3  502    0 -0.31481230959E+03  0.30949786327E+03 -0.22469828848E+02  0.44204323742E+03  0.12699999809E+01 0. -1.
       -4    1    3    3    0  502  0.31481230959E+03 -0.30949786327E+03  0.84619025199E+02  0.44950829799E+03  0.12699999809E+01 0.  1.
</event>
<event>
 5   0  0.6211218E-03  0.8928915E+03  0.7818609E-02  0.9434511E-01
        1   -1    0    0  501    0  0.00000000000E+00  0.00000000000E+00  0.17273115022E+03  0.17273115030E+03  0.50400001928E-02 0. -1.
       -1   -1    0    0    0  501  0.00000000000E+00  0.00000000000E+00 -0.11538962062E+04  0.11538962062E+04  0.50400001928E-02 0.  1.
    10030    2    1    2    0    0  0.00000000000E+00  0.00000000000E+00 -0.98116505595E+03  0.13266273565E+04  0.89289152529E+03 0.  0.
        5    1    3    3  502    0 -0.15351742031E+03 -0.18529118518E+03  0.68095514491E+02  0.25011899315E+03  0.46999998093E+01 0. -1.
       -5    1    3    3    0  502  0.15351742031E+03  0.18529118518E+03 -0.10492605704E+04  0.10765083633E+04  0.46999998093E+01 0.  1.
</event>
<event>
 5   0  0.1017079E-02  0.9040756E+03  0.7818609E-02  0.9420501E-01
        2   -1    0    0  501    0  0.00000000000E+00  0.00000000000E+00  0.47999636798E+03  0.47999636798E+03  0.25500000920E-02 0.  1.
       -2   -1    0    0    0  501  0.00000000000E+00  0.00000000000E+00 -0.42570774703E+03  0.42570774704E+03  0.25500000920E-02 0. -1.
    10030    2    1    2    0    0  0.00000000000E+00  0.00000000000E+00  0.54288620946E+02  0.90570411502E+03  0.90407559950E+03 0.  0.
        1    1    3    3  502    0 -0.12096387655E+03 -0.40298803161E+03  0.19268893524E+03  0.46277493324E+03  0.50400001928E-02 0.  1.
       -1    1    3    3    0  502  0.12096387655E+03  0.40298803161E+03 -0.13840031430E+03  0.44292918178E+03  0.50400001928E-02 0. -1.
</event>
<event>
 5   0  0.6211218E-03  0.8980392E+03  0.7818609E-02  0.9428036E-01
        1   -1    0    0  501    0  0.00000000000E+00  0.00000000000E+00  0.84015365382E+03  0.84015365383E+03  0.50400001928E-02 0.  1.
       -1   -1    0    0    0  501  0.00000000000E+00  0.00000000000E+00 -0.23997826026E+03  0.23997826031E+03  0.50400001928E-02 0. -1.
    10030    2    1    2    0    0  0.00000000000E+00  0.00000000000E+00  0.60017539355E+03  0.10801319141E+04  0.89803922460E+03 0.  0.
        5    1    3    3  502    0 -0.78139730192E+02 -0.10514246368E+02 -0.23155728305E+03  0.24465737705E+03  0.46999998093E+01 0. -1.
       -5    1    3    3    0  502  0.78139730192E+02  0.10514246368E+02  0.83173267660E+03  0.83547453710E+03  0.46999998093E+01 0.  1.
</event>
<event>
 5   0  0.6015709E-03  0.9023066E+03  0.7818609E-02  0.9422703E-01
       -1   -1    0    0    0  501  0.00000000000E+00  0.00000000000E+00  0.13877856869E+03  0.13877856878E+03  0.50400001928E-02 0. -1.
        1   -1    0    0  501    0  0.00000000000E+00  0.00000000000E+00 -0.14666478937E+04  0.14666478937E+04  0.50400001928E-02 0.  1.
    10030    2    1    2    0    0  0.00000000000E+00  0.00000000000E+00 -0.13278693250E+04  0.16054264625E+04  0.90230658989E+03 0.  0.
        3    1    3    3  502    0 -0.39601847582E+02 -0.33725646207E+03 -0.13543817073E+03  0.36558683760E+03  0.10100000352E+00 0. -1.
       -3    1    3    3    0  502  0.39601847582E+02  0.33725646207E+03 -0.11924311543E+04  0.12398396249E+04  0.10100000352E+00 0.  1.
</event>
<event>
 5   0  0.6015709E-03  0.8938126E+03  0.7818609E-02  0.9433349E-01
        1   -1    0    0  501    0  0.00000000000E+00  0.00000000000E+00  0.10427869498E+04  0.10427869499E+04  0.50400001928E-02 0. -1.
       -1   -1    0    0    0  501  0.00000000000E+00  0.00000000000E+00 -0.19153024465E+03  0.19153024472E+03  0.50400001928E-02 0.  1.
    10030    2    1    2    0    0  0.00000000000E+00  0.00000000000E+00  0.85125670519E+03  0.12343171946E+04  0.89381259707E+03 0.  0.
        3    1    3    3  502    0 -0.94875021281E+02  0.94699960384E+02  0.10143697026E+04  0.10231887685E+04  0.10100000352E+00 0. -1.
       -3    1    3    3    0  502  0.94875021281E+02 -0.94699960384E+02 -0.16311299744E+03  0.21112842607E+03  0.10100000352E+00 0.  1.
</event>
<event>
 5   0  0.6211218E-03  0.8980237E+03  0.7818609E-02  0.9428055E-01
        1   -1    0    0  501    0  0.00000000000E+00  0.00000000000E+00  0.12161335026E+04  0.12161335026E+04  0.50400001928E-02 0. -1.
       -1   -1    0    0    0  501  0.00000000000E+00  0.00000000000E+00 -0.16578085770E+03  0.16578085778E+03  0.50400001928E-02 0.  1.
    10030    2    1    2    0    0  0.00000000000E+00  0.00000000000E+00  0.10503526449E+04  0.13819143604E+04  0.89802373066E+03 0.  0.
        5    1    3    3  502    0  0.26150108048E+03  0.63627885551E+01 -0.36376256650E+02  0.26413750627E+03  0.46999998093E+01 0.  1.
       -5    1    3    3    0  502 -0.26150108048E+03 -0.63627885551E+01  0.10867289015E+04  0.11177768541E+04  0.46999998093E+01 0. -1.
</event>
<event>
 5   0  0.1041727E-02  0.9036647E+03  0.7818609E-02  0.9421012E-01
        2   -1    0    0  501    0  0.00000000000E+00  0.00000000000E+00  0.10894471539E+04  0.10894471539E+04  0.25500000920E-02 0.  1.
       -2   -1    0    0    0  501  0.00000000000E+00  0.00000000000E+00 -0.18739090265E+03  0.18739090267E+03  0.25500000920E-02 0. -1.
    10030    2    1    2    0    0  0.00000000000E+00  0.00000000000E+00  0.90205625121E+03  0.12768380565E+04  0.90366472891E+03 0.  0.
        4    1    3    3  502    0  0.75116238396E+02 -0.39383190883E+03  0.15665536430E+03  0.43045155099E+03  0.12699999809E+01 0. -1.
       -4    1    3    3    0  502 -0.75116238396E+02  0.39383190883E+03  0.74540088691E+03  0.84638650556E+03  0.12699999809E+01 0.  1.
</event>
<event>
 5   0  0.1028978E-02  0.8962019E+03  0.7818609E-02  0.9430342E-01
       -2   -1    0    0    0  501  0.00000000000E+00  0.00000000000E+00  0.11273811016E+03  0.11273811019E+03  0.25500000920E-02 0. -1.
        2   -1    0    0  501    0  0.00000000000E+00  0.00000000000E+00 -0.17810701293E+04  0.17810701293E+04  0.25500000920E-02 0.  1.
    10030    2    1    2    0    0  0.00000000000E+00  0.00000000000E+00 -0.16683320191E+04  0.18938082394E+04  0.89620194255E+03 0.  0.
        3    1    3    3  502    0  0.82580386177E+02 -0.43467949808E+03 -0.98401619842E+03  0.10789131917E+04  0.10100000352E+00 0.  1.
       -3    1    3    3    0  502 -0.82580386177E+02  0.43467949808E+03 -0.68431582068E+03  0.81489504776E+03  0.10100000352E+00 0. -1.
</event>
<event>
 5   0  0.1003252E-02  0.8828511E+03  0.7818609E-02  0.9447276E-01
       -2   -1    0    0    0  501  0.00000000000E+00  0.00000000000E+00  0.27568492231E+03  0.27568492232E+03  0.25500000920E-02 0.  1.
        2   -1    0    0  501    0  0.00000000000E+00  0.00000000000E+00 -0.70680876356E+03  0.70680876357E+03  0.25500000920E-02 0. -1.
    10030    2    1    2    0    0  0.00000000000E+00  0.00000000000E+00 -0.43112384125E+03  0.98249368589E+03  0.88285110654E+03 0.  0.
        2    1    3    3  502    0  0.78145610172E+02 -0.23348563151E+03  0.19216929369E+03  0.31233205720E+03  0.25500000920E-02 0.  1.
       -2    1    3    3    0  502 -0.78145610172E+02  0.23348563151E+03 -0.62329313494E+03  0.67016162870E+03  0.25500000920E-02 0. -1.
</event>
<event>
 5   0  0.1017079E-02  0.8363390E+03  0.7818609E-02  0.9508858E-01
        2   -1    0    0  501    0  0.00000000000E+00  0.00000000000E+00  0.39003615740E+03  0.39003615741E+03  0.25500000920E-02 0.  1.
       -2   -1    0    0    0  501  0.00000000000E+00  0.00000000000E+00 -0.44833213106E+03  0.44833213107E+03  0.25500000920E-02 0. -1.
    10030    2    1    2    0    0  0.00000000000E+00  0.00000000000E+00 -0.58295973666E+02  0.83836828848E+03  0.83633902610E+03 0.  0.
        1    1    3    3  502    0 -0.96657654864E+02  0.40071887430E+03 -0.99656573365E+02  0.42408696172E+03  0.50400001928E-02 0. -1.
       -1    1    3    3    0  502  0.96657654864E+02 -0.40071887430E+03  0.41360599699E+02  0.41428132675E+03  0.50400001928E-02 0.  1.
</event>
<event>
 5   0  0.1033749E-02  0.9038440E+03  0.7818609E-02  0.9420789E-01
        2   -1    0    0  501    0  0.00000000000E+00  0.00000000000E+00  0.13177349683E+04  0.13177349683E+04  0.25500000920E-02 0. -1.
       -2   -1    0    0    0  501  0.00000000000E+00  0.00000000000E+00 -0.15498830974E+03  0.15498830976E+03  0.25500000920E-02 0.  1.
    10030    2    1    2    0    0  0.00000000000E+00  0.00000000000E+00  0.11627466586E+04  0.14727232781E+04  0.90384404727E+03 0.  0.
        5    1    3    3  502    0 -0.64607114341E+02  0.17980044338E+03 -0.85903468494E+02  0.20953227570E+03  0.46999998093E+01 0.  1.
       -5    1    3    3    0  502  0.64607114341E+02 -0.17980044338E+03  0.12486501271E+04  0.12631910024E+04  0.46999998093E+01 0. -1.
</event>
<event>
 5   0  0.1028978E-02  0.8984467E+03  0.7818609E-02  0.9427525E-01
        2   -1    0    0  501    0  0.00000000000E+00  0.00000000000E+00  0.48401414373E+03  0.48401414373E+03  0.25500000920E-02 0.  1.
       -2   -1    0    0    0  501  0.00000000000E+00  0.00000000000E+00 -0.41693334999E+03  0.41693335000E+03  0.25500000920E-02 0. -1.
    10030    2    1    2    0    0  0.00000000000E+00  0.00000000000E+00  0.67080793734E+02  0.90094749373E+03  0.89844674499E+03 0.  0.
        3    1    3    3  502    0  0.15374644659E+03 -0.29294830072E+03  0.33826935061E+03  0.47316259414E+03  0.10100000352E+00 0.  1.
       -3    1    3    3    0  502 -0.15374644659E+03  0.29294830072E+03 -0.27118855688E+03  0.42778489959E+03  0.10100000352E+00 0. -1.
</event>
<event>
 5   0  0.6288003E-03  0.9085975E+03  0.7818609E-02  0.9414898E-01
       -1   -1    0    0    0  501  0.00000000000E+00  0.00000000000E+00  0.20748409818E+03  0.20748409825E+03  0.50400001928E-02 0. -1.
        1   -1    0    0  501    0  0.00000000000E+00  0.00000000000E+00 -0.99471403833E+03  0.99471403834E+03  0.50400001928E-02 0.  1.
    10030    2    1    2    0    0  0.00000000000E+00  0.00000000000E+00 -0.78722994014E+03  0.12021981366E+04  0.90859748016E+03 0.  0.
        1    1    3    3  502    0  0.12397528362E+03  0.13299397461E+03 -0.94447528668E+03  0.96181642500E+03  0.50400001928E-02 0.  1.
       -1    1    3    3    0  502 -0.12397528362E+03 -0.13299397461E+03  0.15724534654E+03  0.24038171158E+03  0.50400001928E-02 0. -1.
</event>
<event>
 5   0  0.6015709E-03  0.8945010E+03  0.7818609E-02  0.9432482E-01
        1   -1    0    0  501    0  0.00000000000E+00  0.00000000000E+00  0.15608363184E+04  0.15608363184E+04  0.50400001928E-02 0.  1.
       -1   -1    0    0    0  501  0.00000000000E+00  0.00000000000E+00 -0.12815758370E+03  0.12815758380E+03  0.50400001928E-02 0. -1.
    10030    2    1    2    0    0  0.00000000000E+00  0.00000000000E+00  0.14326787347E+04  0.16889939022E+04  0.89450100327E+03 0.  0.
        3    1    3    3  502    0 -0.37950946412E+03  0.96705816389E+02  0.11241791722E+04  0.11904445681E+04  0.10100000352E+00 0.  1.
       -3    1    3    3    0  502  0.37950946412E+03 -0.96705816389E+02  0.30849956245E+03  0.49854933408E+03  0.10100000352E+00 0. -1.
</event>
<event>
 5   0  0.6211218E-03  0.9188799E+03  0.7818609E-02  0.9402284E-01
       -1   -1    0    0    0  501  0.00000000000E+00  0.00000000000E+00  0.52692982292E+03  0.52692982295E+03  0.50400001928E-02 0.  1.
        1   -1    0    0  501    0  0.00000000000E+00  0.00000000000E+00 -0.40059427668E+03  0.40059427672E+03  0.50400001928E-02 0. -1.
    10030    2    1    2    0    0  0.00000000000E+00  0.00000000000E+00  0.12633554624E+03  0.92752409966E+03  0.91887990794E+03 0.  0.
        5    1    3    3  502    0  0.25855327262E+03 -0.25636198354E+03 -0.21963155280E+03  0.42524271936E+03  0.46999998093E+01 0. -1.
       -5    1    3    3    0  502 -0.25855327262E+03  0.25636198354E+03  0.34596709904E+03  0.50228138030E+03  0.46999998093E+01 0.  1.
</event>
<event>
 5   0  0.6015709E-03  0.8870805E+03  0.7818609E-02  0.9441877E-01
       -1   -1    0    0    0  501  0.00000000000E+00  0.00000000000E+00  0.95284341106E+03  0.95284341107E+03  0.50400001928E-02 0. -1.
        1   -1    0    0  501    0  0.00000000000E+00  0.00000000000E+00 -0.20646408814E+03  0.20646408820E+03  0.50400001928E-02 0.  1.
    10030    2    1    2    0    0  0.00000000000E+00  0.00000000000E+00  0.74637932292E+03  0.11593074993E+04  0.88708048349E+03 0.  0.
        3    1    3    3  502    0 -0.10785544150E+03 -0.31906352263E+03 -0.39840873535E+01  0.33682370891E+03  0.10100000352E+00 0.  1.
       -3    1    3    3    0  502  0.10785544150E+03  0.31906352263E+03  0.75036341027E+03  0.82248379036E+03  0.10100000352E+00 0. -1.
</event>
<event>
 5   0  0.1003252E-02  0.9043445E+03  0.7818609E-02  0.9420167E-01
       -2   -1    0    0    0  501  0.00000000000E+00  0.00000000000E+00  0.23890299560E+03  0.23890299561E+03  0.25500000920E-02 0. -1.
        2   -1    0    0  501    0  0.00000000000E+00  0.00000000000E+00 -0.85582739036E+03  0.85582739036E+03  0.25500000920E-02 0.  1.
    10030    2    1    2    0    0  0.00000000000E+00  0.00000000000E+00 -0.61692439476E+03  0.10947303860E+04  0.90434446376E+03 0.  0.
        2    1    3    3  502    0  0.36174915443E+03 -0.84447855098E+02  0.36225367847E+01  0.37149295247E+03  0.25500000920E-02 0. -1.
       -2    1    3    3    0  502 -0.36174915443E+03  0.84447855098E+02 -0.62054693155E+03  0.72323743350E+03  0.25500000920E-02 0.  1.
</event>
<event>
 5   0  0.1028978E-02  0.8896587E+03  0.7818609E-02  0.9438602E-01
       -2   -1    0    0    0  501  0.00000000000E+00  0.00000000000E+00  0.35575874121E+03  0.35575874122E+03  0.25500000920E-02 0.  1.
        2   -1    0    0  501    0  0.00000000000E+00  0.00000000000E+00 -0.55620037756E+03  0.55620037757E+03  0.25500000920E-02 0. -1.
    10030    2    1    2    0    0  0.00000000000E+00  0.00000000000E+00 -0.20044163636E+03  0.91195911879E+03  0.88965869003E+03 0.  0.
        3    1    3    3  502    0  0.42962893549E+03 -0.11158648124E+03 -0.12994015694E+03  0.46251164265E+03  0.10100000352E+00 0.  1.
       -3    1    3    3    0  502 -0.42962893549E+03  0.11158648124E+03 -0.70501479414E+02  0.44944747613E+03  0.10100000352E+00 0. -1.
</event>
<event>
 5   0  0.6015709E-03  0.8938179E+03  0.7818609E-02  0.9433343E-01
        1   -1    0    0  501    0  0.00000000000E+00  0.00000000000E+00  0.54433909003E+03  0.54433909005E+03  0.50400001928E-02 0.  1.
       -1   -1    0    0    0  501  0.00000000000E+00  0.00000000000E+00 -0.36691760437E+03  0.36691760440E+03  0.50400001928E-02 0. -1.
    10030    2    1    2    0    0  0.00000000000E+00  0.00000000000E+00  0.17742148566E+03  0.91125669446E+03  0.89381786714E+03 0.  0.
        3    1    3    3  502    0 -0.62161783155E+02 -0.53432418090E+02  0.53660953229E+03  0.54283414680E+03  0.10100000352E+00 0.  1.
       -3    1    3    3    0  502  0.62161783155E+02  0.53432418090E+02 -0.35918804662E+03  0.36842254766E+03  0.10100000352E+00 0. -1.
</event>
<event>
 5   0  0.6092779E-03  0.8903401E+03  0.7818609E-02  0.9437738E-01
        1   -1    0    0  501    0  0.00000000000E+00  0.00000000000E+00  0.14613621054E+04  0.14613621054E+04  0.50400001928E-02 0.  1.
       -1   -1    0    0    0  501  0.00000000000E+00  0.00000000000E+00 -0.13561073193E+03  0.13561073202E+03  0.50400001928E-02 0. -1.
    10030    2    1    2    0    0  0.00000000000E+00  0.00000000000E+00  0.13257513734E+04  0.15969728374E+04  0.89034012558E+03 0.  0.
        2    1    3    3  502    0  0.59140146200E+02 -0.50958810392E+01 -0.12848045514E+03  0.14153004012E+03  0.25500000920E-02 0. -1.
       -2    1    3    3    0  502 -0.59140146200E+02  0.50958810392E+01  0.14542318286E+04  0.14554427973E+04  0.25500000920E-02 0.  1.
</event>
<event>
 5   0  0.1003252E-02  0.8995963E+03  0.7818609E-02  0.9426086E-01
        2   -1    0    0  501    0  0.00000000000E+00  0.00000000000E+00  0.68336151868E+03  0.68336151869E+03  0.25500000920E-02 0. -1.
       -2   -1    0    0    0  501  0.00000000000E+00  0.00000000000E+00 -0.29606345761E+03  0.29606345762E+03  0.25500000920E-02 0.  1.
    10030    2    1    2    0    0  0.00000000000E+00  0.00000000000E+00  0.38729806108E+03  0.97942497631E+03  0.89959629618E+03 0.  0.
        2    1    3    3  502    0  0.33615763800E+03 -0.29732087481E+03  0.16068499225E+03  0.47667738243E+03  0.25500000920E-02 0. -1.
       -2    1    3    3    0  502 -0.33615763800E+03  0.29732087481E+03  0.22661306883E+03  0.50274759388E+03  0.25500000920E-02 0.  1.
</event>
<event>
 5   0  0.6137243E-03  0.1030865E+04  0.7818609E-02  0.9275325E-01
        1   -1    0    0  501    0  0.00000000000E+00  0.00000000000E+00  0.22826318312E+04  0.22826318312E+04  0.50400001928E-02 0. -1.
       -1   -1    0    0    0  501  0.00000000000E+00  0.00000000000E+00 -0.11638796985E+03  0.11638796996E+03  0.50400001928E-02 0.  1.
    10030    2    1    2    0    0  0.00000000000E+00  0.00000000000E+00  0.21662438614E+04  0.23990198012E+04  0.10308654323E+04 0.  0.
        4    1    3    3  502    0  0.22902774792E+03 -0.33189580497E+03  0.18302214868E+04  0.18741186831E+04  0.12699999809E+01 0. -1.
       -4    1    3    3    0  502 -0.22902774792E+03  0.33189580497E+03  0.33602237461E+03  0.52490111812E+03  0.12699999809E+01 0.  1.
</event>
<event>
 5   0  0.3996375E-03  0.9022709E+03  0.7818609E-02  0.9422747E-01
        3   -1    0    0  501    0  0.00000000000E+00  0.00000000000E+00  0.56543859094E+03  0.56543859996E+03  0.10100000352E+00 0. -1.
       -3   -1    0    0    0  501  0.00000000000E+00  0.00000000000E+00 -0.35993862776E+03  0.35993864193E+03  0.10100000352E+00 0.  1.
    10030    2    1    2    0    0  0.00000000000E+00  0.00000000000E+00  0.20549996317E+03  0.92537724189E+03  0.90227091549E+03 0.  0.
        1    1    3    3  502    0 -0.59572947790E+02  0.24584099766E+03  0.48586195104E+03  0.54776689178E+03  0.50400001928E-02 0. -1.
       -1    1    3    3    0  502  0.59572947790E+02 -0.24584099766E+03 -0.28036198787E+03  0.37761035011E+03  0.50400001928E-02 0.  1.
</event>
<event>
 5   0  0.1017079E-02  0.8984786E+03  0.7818609E-02  0.9427485E-01
       -2   -1    0    0    0  501  0.00000000000E+00  0.00000000000E+00  0.32297930808E+03  0.32297930809E+03  0.25500000920E-02 0. -1.
        2   -1    0    0  501    0  0.00000000000E+00  0.00000000000E+00 -0.62485724317E+03  0.62485724317E+03  0.25500000920E-02 0.  1.
    10030    2    1    2    0    0  0.00000000000E+00  0.00000000000E+00 -0.30187793508E+03  0.94783655126E+03  0.89847862536E+03 0.  0.
        1    1    3    3  502    0  0.40461009031E+03 -0.43911114864E+02 -0.35159428524E+03  0.53782529936E+03  0.50400001928E-02 0.  1.
       -1    1    3    3    0  502 -0.40461009031E+03  0.43911114864E+02  0.49716350164E+02  0.41001125190E+03  0.50400001928E-02 0. -1.
</event>
<event>
 5   0  0.6137243E-03  0.8978659E+03  0.7818609E-02  0.9428253E-01
       -1   -1    0    0    0  501  0.00000000000E+00  0.00000000000E+00  0.39046516644E+03  0.39046516647E+03  0.50400001928E-02 0. -1.
        1   -1    0    0  501    0  0.00000000000E+00  0.00000000000E+00 -0.51615559259E+03  0.51615559261E+03  0.50400001928E-02 0.  1.
    10030    2    1    2    0    0  0.00000000000E+00  0.00000000000E+00 -0.12569042615E+03  0.90662075909E+03  0.89786586837E+03 0.  0.
        4    1    3    3  502    0 -0.42057274737E+02  0.54627467129E+02 -0.51077661281E+03  0.51540987148E+03  0.12699999809E+01 0.  1.
       -4    1    3    3    0  502  0.42057274737E+02 -0.54627467129E+02  0.38508618666E+03  0.39121088761E+03  0.12699999809E+01 0. -1.
</event>
<event>
 5   0  0.6015709E-03  0.8909466E+03  0.7818609E-02  0.9436970E-01
        1   -1    0    0  501    0  0.00000000000E+00  0.00000000000E+00  0.84137346751E+03  0.84137346753E+03  0.50400001928E-02 0.  1.
       -1   -1    0    0    0  501  0.00000000000E+00  0.00000000000E+00 -0.23586016080E+03  0.23586016086E+03  0.50400001928E-02 0. -1.
    10030    2    1    2    0    0  0.00000000000E+00  0.00000000000E+00  0.60551330671E+03  0.10772336284E+04  0.89094664572E+03 0.  0.
        3    1    3    3  502    0  0.44311762510E+03 -0.35375083377E+02  0.26767546734E+03  0.51889767028E+03  0.10100000352E+00 0.  1.
       -3    1    3    3    0  502 -0.44311762510E+03  0.35375083377E+02  0.33783783937E+03  0.55833595810E+03  0.10100000352E+00 0. -1.
</event>
<event>
 5   0  0.6092779E-03  0.9036682E+03  0.7818609E-02  0.9421008E-01
       -1   -1    0    0    0  501  0.00000000000E+00  0.00000000000E+00  0.24191922870E+03  0.24191922876E+03  0.50400001928E-02 0.  1.
        1   -1    0    0  501    0  0.00000000000E+00  0.00000000000E+00 -0.84389354589E+03  0.84389354591E+03  0.50400001928E-02 0. -1.
    10030    2    1    2    0    0  0.00000000000E+00  0.00000000000E+00 -0.60197431719E+03  0.10858127747E+04  0.90366824834E+03 0.  0.
        2    1    3    3  502    0  0.13000108708E+03  0.52867769223E+02  0.21506738251E+03  0.25680588523E+03  0.25500000920E-02 0.  1.
       -2    1    3    3    0  502 -0.13000108708E+03 -0.52867769223E+02 -0.81704169970E+03  0.82900688943E+03  0.25500000920E-02 0. -1.
</event>
<event>
 5   0  0.1017079E-02  0.8953667E+03  0.7818609E-02  0.9431392E-01
        2   -1    0    0  501    0  0.00000000000E+00  0.00000000000E+00  0.94322227684E+03  0.94322227684E+03  0.25500000920E-02 0. -1.
       -2   -1    0    0    0  501  0.00000000000E+00  0.00000000000E+00 -0.21248480661E+03  0.21248480662E+03  0.25500000920E-02 0.  1.
    10030    2    1    2    0    0  0.00000000000E+00  0.00000000000E+00  0.73073747023E+03  0.11557070835E+04  0.89536674741E+03 0.  0.
        1    1    3    3  502    0  0.30613219808E+03  0.26183410101E+03  0.61746911579E+03  0.73725309639E+03  0.50400001928E-02 0. -1.
       -1    1    3    3    0  502 -0.30613219808E+03 -0.26183410101E+03  0.11326835444E+03  0.41845398707E+03  0.50400001928E-02 0.  1.
</event>
<event>
 5   0  0.1033749E-02  0.9077202E+03  0.7818609E-02  0.9415982E-01
       -2   -1    0    0    0  501  0.00000000000E+00  0.00000000000E+00  0.18532240125E+03  0.18532240127E+03  0.25500000920E-02 0.  1.
        2   -1    0    0  501    0  0.00000000000E+00  0.00000000000E+00 -0.11115169328E+04  0.11115169328E+04  0.25500000920E-02 0. -1.
    10030    2    1    2    0    0  0.00000000000E+00  0.00000000000E+00 -0.92619453155E+03  0.12968393341E+04  0.90772019264E+03 0.  0.
        5    1    3    3  502    0  0.30341678180E+03  0.26607229815E+03 -0.75973516940E+03  0.86027660025E+03  0.46999998093E+01 0. -1.
       -5    1    3    3    0  502 -0.30341678180E+03 -0.26607229815E+03 -0.16645936215E+03  0.43656273382E+03  0.46999998093E+01 0.  1.
</event>
<event>
 5   0  0.6211218E-03  0.9000970E+03  0.7818609E-02  0.9425460E-01
        1   -1    0    0  501    0  0.00000000000E+00  0.00000000000E+00  0.93532981002E+03  0.93532981003E+03  0.50400001928E-02 0. -1.
       -1   -1    0    0    0  501  0.00000000000E+00  0.00000000000E+00 -0.21654784162E+03  0.21654784168E+03  0.50400001928E-02 0.  1.
    10030    2    1    2    0    0  0.00000000000E+00  0.00000000000E+00  0.71878196840E+03  0.11518776517E+04  0.90009699833E+03 0.  0.
        5    1    3    3  502    0 -0.36029603427E+03  0.22898564572E+03  0.17717531315E+03  0.46223461559E+03  0.46999998093E+01 0.  1.
       -5    1    3    3    0  502  0.36029603427E+03 -0.22898564572E+03  0.54160665525E+03  0.68964303612E+03  0.46999998093E+01 0. -1.
</event>
<event>
 5   0  0.1041727E-02  0.8642073E+03  0.7818609E-02  0.9471464E-01
       -2   -1    0    0    0  501  0.00000000000E+00  0.00000000000E+00  0.30611235964E+03  0.30611235965E+03  0.25500000920E-02 0. -1.
        2   -1    0    0  501    0  0.00000000000E+00  0.00000000000E+00 -0.60995105323E+03  0.60995105324E+03  0.25500000920E-02 0.  1.
    10030    2    1    2    0    0  0.00000000000E+00  0.00000000000E+00 -0.30383869360E+03  0.91606341289E+03  0.86420728110E+03 0.  0.
        4    1    3    3  502    0  0.35553475186E+03 -0.15299082573E+03 -0.35554170055E+03  0.52556889773E+03  0.12699999809E+01 0.  1.
       -4    1    3    3    0  502 -0.35553475186E+03  0.15299082573E+03  0.51703006949E+02  0.39049451515E+03  0.12699999809E+01 0. -1.
</event>
<event>
 5   0  0.6137243E-03  0.8959089E+03  0.7818609E-02  0.9430710E-01
        1   -1    0    0  501    0  0.00000000000E+00  0.00000000000E+00  0.79418463346E+03  0.79418463348E+03  0.50400001928E-02 0.  1.
       -1   -1    0    0    0  501  0.00000000000E+00  0.00000000000E+00 -0.25266565750E+03  0.25266565755E+03  0.50400001928E-02 0. -1.
    10030    2    1    2    0    0  0.00000000000E+00  0.00000000000E+00  0.54151897596E+03  0.10468502910E+04  0.89590888516E+03 0.  0.
        4    1    3    3  502    0  0.18568700391E+03 -0.35216424608E+03  0.30830554017E+02  0.39931373079E+03  0.12699999809E+01 0. -1.
       -4    1    3    3    0  502 -0.18568700391E+03  0.35216424608E+03  0.51068842195E+03  0.64753656024E+03  0.12699999809E+01 0.  1.
</event>
<event>
 5   0  0.6211218E-03  0.9907881E+03  0.7818609E-02  0.9318706E-01
        1   -1    0    0  501    0  0.00000000000E+00  0.00000000000E+00  0.54876374617E+03  0.54876374620E+03  0.50400001928E-02 0. -1.
       -1   -1    0    0    0  501  0.00000000000E+00  0.00000000000E+00 -0.44721482383E+03  0.44721482386E+03  0.50400001928E-02 0.  1.
    10030    2    1    2    0    0  0.00000000000E+00  0.00000000000E+00  0.10154892234E+03  0.99597857006E+03  0.99078813496E+03 0.  0.
        5    1    3    3  502    0 -0.36958113019E+03 -0.28988067334E+03  0.20899077839E+03  0.51412085351E+03  0.46999998093E+01 0. -1.
       -5    1    3    3    0  502  0.36958113019E+03  0.28988067334E+03 -0.10744185605E+03  0.48185771655E+03  0.46999998093E+01 0.  1.
</event>
<event>
 5   0  0.6092779E-03  0.8693820E+03  0.7818609E-02  0.9464686E-01
        1   -1    0    0  501    0  0.00000000000E+00  0.00000000000E+00  0.93745953816E+03  0.93745953818E+03  0.50400001928E-02 0. -1.
       -1   -1    0    0    0  501  0.00000000000E+00  0.00000000000E+00 -0.20156207159E+03  0.20156207165E+03  0.50400001928E-02 0.  1.
    10030    2    1    2    0    0  0.00000000000E+00  0.00000000000E+00  0.73589746657E+03  0.11390216098E+04  0.86938204855E+03 0.  0.
        2    1    3    3  502    0  0.25166830723E+03 -0.23980122031E+03  0.70988234796E+03  0.79042678983E+03  0.25500000920E-02 0. -1.
       -2    1    3    3    0  502 -0.25166830723E+03  0.23980122031E+03  0.26015118617E+02  0.34859482000E+03  0.25500000920E-02 0.  1.
</event>
<event>
 5   0  0.6092779E-03  0.9093650E+03  0.7818609E-02  0.9413950E-01
       -1   -1    0    0    0  501  0.00000000000E+00  0.00000000000E+00  0.40114422549E+03  0.40114422552E+03  0.50400001928E-02 0.  1.
        1   -1    0    0  501    0  0.00000000000E+00  0.00000000000E+00 -0.51536620575E+03  0.51536620577E+03  0.50400001928E-02 0. -1.
    10030    2    1    2    0    0  0.00000000000E+00  0.00000000000E+00 -0.11422198026E+03  0.91651043129E+03  0.90936500367E+03 0.  0.
        2    1    3    3  502    0 -0.32941853121E+03 -0.31338541404E+03 -0.54055496550E+02  0.45787441853E+03  0.25500000920E-02 0. -1.
       -2    1    3    3    0  502  0.32941853121E+03  0.31338541404E+03 -0.60166483708E+02  0.45863601276E+03  0.25500000920E-02 0.  1.
</event>
<event>
 5   0  0.6211218E-03  0.9222276E+03  0.7818609E-02  0.9398215E-01
        1   -1    0    0  501    0  0.00000000000E+00  0.00000000000E+00  0.95364862865E+03  0.95364862867E+03  0.50400001928E-02 0.  1.
       -1   -1    0    0    0  501  0.00000000000E+00  0.00000000000E+00 -0.22296047922E+03  0.22296047928E+03  0.50400001928E-02 0. -1.
    10030    2    1    2    0    0  0.00000000000E+00  0.00000000000E+00  0.73068814943E+03  0.11766091079E+04  0.92222764065E+03 0.  0.
        5    1    3    3  502    0  0.60753701592E+02 -0.26397288320E+03 -0.11071659976E+03  0.29266525380E+03  0.46999998093E+01 0. -1.
       -5    1    3    3    0  502 -0.60753701592E+02  0.26397288320E+03  0.84140474919E+03  0.88394385414E+03  0.46999998093E+01 0.  1.
</event>
<event>
 5   0  0.6211218E-03  0.9066144E+03  0.7818609E-02  0.9417351E-01
       -1   -1    0    0    0  501  0.00000000000E+00  0.00000000000E+00  0.36955761754E+03  0.36955761758E+03  0.50400001928E-02 0.  1.
        1   -1    0    0  501    0  0.00000000000E+00  0.00000000000E+00 -0.55603623265E+03  0.55603623267E+03  0.50400001928E-02 0. -1.
    10030    2    1    2    0    0  0.00000000000E+00  0.00000000000E+00 -0.18647861511E+03  0.92559385025E+03  0.90661441734E+03 0.  0.
        5    1    3    3  502    0  0.10299488270E+03 -0.11170751205E+03 -0.52923785427E+03  0.55063718590E+03  0.46999998093E+01 0. -1.
       -5    1    3    3    0  502 -0.10299488270E+03  0.11170751205E+03  0.34275923916E+03  0.37495666435E+03  0.46999998093E+01 0.  1.
</event>
<event>
 5   0  0.6092779E-03  0.9043577E+03  0.7818609E-02  0.9420150E-01
       -1   -1    0    0    0  501  0.00000000000E+00  0.00000000000E+00  0.37400872123E+03  0.37400872126E+03  0.50400001928E-02 0. -1.
        1   -1    0    0  501    0  0.00000000000E+00  0.00000000000E+00 -0.54668705832E+03  0.54668705835E+03  0.50400001928E-02 0.  1.
    10030    2    1    2    0    0  0.00000000000E+00  0.00000000000E+00 -0.17267833710E+03  0.92069577961E+03  0.90435773369E+03 0.  0.
        2    1    3    3  502    0 -0.94728553313E+02  0.27414269913E+03 -0.43950388411E+03  0.52658463940E+03  0.25500000920E-02 0.  1.
       -2    1    3    3    0  502  0.94728553313E+02 -0.27414269913E+03  0.26682554701E+03  0.39411114021E+03  0.25500000920E-02 0. -1.
</event>
<event>
 5   0  0.6092779E-03  0.9079550E+03  0.7818609E-02  0.9415692E-01
        1   -1    0    0  501    0  0.00000000000E+00  0.00000000000E+00  0.77568379419E+03  0.77568379420E+03  0.50400001928E-02 0. -1.
       -1   -1    0    0    0  501  0.00000000000E+00  0.00000000000E+00 -0.26569531259E+03  0.26569531264E+03  0.50400001928E-02 0.  1.
    10030    2    1    2    0    0  0.00000000000E+00  0.00000000000E+00  0.50998848160E+03  0.10413791068E+04  0.90795495086E+03 0.  0.
        2    1    3    3  502    0 -0.22418223814E+03 -0.26510386190E+03 -0.80491758618E+02  0.35639396278E+03  0.25500000920E-02 0.  1.
       -2    1    3    3    0  502  0.22418223814E+03  0.26510386190E+03  0.59048024022E+03  0.68498514406E+03  0.25500000920E-02 0. -1.
</event>
<event>
 5   0  0.3996375E-03  0.8979527E+03  0.7818609E-02  0.9428144E-01
        4   -1    0    0  501    0  0.00000000000E+00  0.00000000000E+00  0.71764032790E+03  0.71764145165E+03  0.12699999809E+01 0.  1.
       -4   -1    0    0    0  501  0.00000000000E+00  0.00000000000E+00 -0.28088969093E+03  0.28089256197E+03  0.12699999809E+01 0. -1.
    10030    2    1    2    0    0  0.00000000000E+00  0.00000000000E+00  0.43675063697E+03  0.99853401362E+03  0.89795270336E+03 0.  0.
        1    1    3    3  502    0  0.93844618363E+02 -0.12357734504E+03 -0.25012568643E+03  0.29434848673E+03  0.50400001928E-02 0. -1.
       -1    1    3    3    0  502 -0.93844618363E+02  0.12357734504E+03  0.68687632341E+03  0.70418552689E+03  0.50400001928E-02 0.  1.
</event>
<event>
 5   0  0.1017079E-02  0.9016269E+03  0.7818609E-02  0.9423550E-01
        2   -1    0    0  501    0  0.00000000000E+00  0.00000000000E+00  0.18313400329E+04  0.18313400329E+04  0.25500000920E-02 0. -1.
       -2   -1    0    0    0  501  0.00000000000E+00  0.00000000000E+00 -0.11097490485E+03  0.11097490488E+03  0.25500000920E-02 0.  1.
    10030    2    1    2    0    0  0.00000000000E+00  0.00000000000E+00  0.17203651280E+04  0.19423149377E+04  0.90162694266E+03 0.  0.
        1    1    3    3  502    0  0.13641311921E+03 -0.70832043019E+01  0.17856861794E+04  0.17909030800E+04  0.50400001928E-02 0. -1.
       -1    1    3    3    0  502 -0.13641311921E+03  0.70832043019E+01 -0.65321051371E+02  0.15141185770E+03  0.50400001928E-02 0.  1.
</event>
<event>
 5   0  0.6211218E-03  0.8921889E+03  0.7818609E-02  0.9435399E-01
        1   -1    0    0  501    0  0.00000000000E+00  0.00000000000E+00  0.65750173602E+03  0.65750173604E+03  0.50400001928E-02 0.  1.
       -1   -1    0    0    0  501  0.00000000000E+00  0.00000000000E+00 -0.30266118133E+03  0.30266118137E+03  0.50400001928E-02 0. -1.
    10030    2    1    2    0    0  0.00000000000E+00  0.00000000000E+00  0.35484055469E+03  0.96016291741E+03  0.89218888623E+03 0.  0.
        5    1    3    3  502    0  0.24865664903E+03 -0.19134926857E+03  0.51864736591E+03  0.60618631777E+03  0.46999998093E+01 0.  1.
       -5    1    3    3    0  502 -0.24865664903E+03  0.19134926857E+03 -0.16380681122E+03  0.35397659964E+03  0.46999998093E+01 0. -1.
</event>
<event>
 5   0  0.6092779E-03  0.9075040E+03  0.7818609E-02  0.9416249E-01
        1   -1    0    0  501    0  0.00000000000E+00  0.00000000000E+00  0.12142278844E+04  0.12142278845E+04  0.50400001928E-02 0. -1.
       -1   -1    0    0    0  501  0.00000000000E+00  0.00000000000E+00 -0.16956527388E+03  0.16956527395E+03  0.50400001928E-02 0.  1.
    10030    2    1    2    0    0  0.00000000000E+00  0.00000000000E+00  0.10446626106E+04  0.13837931584E+04  0.90750401396E+03 0.  0.
        2    1    3    3  502    0  0.35273738670E+03 -0.22590861073E+03  0.78833739467E+03  0.89271171843E+03  0.25500000920E-02 0.  1.
       -2    1    3    3    0  502 -0.35273738670E+03  0.22590861073E+03  0.25632521590E+03  0.49108143998E+03  0.25500000920E-02 0. -1.
</event>
<event>
 5   0  0.6288003E-03  0.8842299E+03  0.7818609E-02  0.9445512E-01
       -1   -1    0    0    0  501  0.00000000000E+00  0.00000000000E+00  0.34076246804E+03  0.34076246808E+03  0.50400001928E-02 0.  1.
        1   -1    0    0  501    0  0.00000000000E+00  0.00000000000E+00 -0.57361253777E+03  0.57361253780E+03  0.50400001928E-02 0. -1.
    10030    2    1    2    0    0  0.00000000000E+00  0.00000000000E+00 -0.23285006973E+03  0.91437500587E+03  0.88422988888E+03 0.  0.
        1    1    3    3  502    0 -0.11876785846E+03 -0.38291447238E+03  0.76305754791E+02  0.40810766422E+03  0.50400001928E-02 0.  1.
       -1    1    3    3    0  502  0.11876785846E+03  0.38291447238E+03 -0.30915582453E+03  0.50626734165E+03  0.50400001928E-02 0. -1.
</event>
<event>
 5   0  0.1033749E-02  0.9080217E+03  0.7818609E-02  0.9415609E-01
       -2   -1    0    0    0  501  0.00000000000E+00  0.00000000000E+00  0.21482301650E+03  0.21482301652E+03  0.25500000920E-02 0. -1.
        2   -1    0    0  501    0  0.00000000000E+00  0.00000000000E+00 -0.95951480321E+03  0.95951480321E+03  0.25500000920E-02 0.  1.
    10030    2    1    2    0    0  0.00000000000E+00  0.00000000000E+00 -0.74469178671E+03  0.11743378197E+04  0.90802172753E+03 0.  0.
        5    1    3    3  502    0  0.11555698817E+03  0.38100056725E+03 -0.90215579057E+02  0.40825946464E+03  0.46999998093E+01 0. -1.
       -5    1    3    3    0  502 -0.11555698817E+03 -0.38100056725E+03 -0.65447620765E+03  0.76607835509E+03  0.46999998093E+01 0.  1.
</event>
<event>
 5   0  0.1033749E-02  0.9029820E+03  0.7818609E-02  0.9421861E-01
        2   -1    0    0  501    0  0.00000000000E+00  0.00000000000E+00  0.36900520424E+03  0.36900520425E+03  0.25500000920E-02 0. -1.
       -2   -1    0    0    0  501  0.00000000000E+00  0.00000000000E+00 -0.55241532573E+03  0.55241532574E+03  0.25500000920E-02 0.  1.
    10030    2    1    2    0    0  0.00000000000E+00  0.00000000000E+00 -0.18341012149E+03  0.92142052999E+03  0.90298201556E+03 0.  0.
        5    1    3    3  502    0  0.73600872208E+02 -0.10245569263E+03  0.35062980002E+03  0.37266285568E+03  0.46999998093E+01 0. -1.
       -5    1    3    3    0  502 -0.73600872208E+02  0.10245569263E+03 -0.53403992151E+03  0.54875767431E+03  0.46999998093E+01 0.  1.
</event>
<event>
 5   0  0.1041727E-02  0.9013233E+03  0.7818609E-02  0.9423929E-01
       -2   -1    0    0    0  501  0.00000000000E+00  0.00000000000E+00  0.15082793071E+03  0.15082793073E+03  0.25500000920E-02 0. -1.
        2   -1    0    0  501    0  0.00000000000E+00  0.00000000000E+00 -0.13465406474E+04  0.13465406474E+04  0.25500000920E-02 0.  1.
    10030    2    1    2    0    0  0.00000000000E+00  0.00000000000E+00 -0.11957127167E+04  0.14973685781E+04  0.90132333706E+03 0.  0.
        4    1    3    3  502    0 -0.13439132510E+03  0.24120642499E+03 -0.11895515742E+04  0.12211781723E+04  0.12699999809E+01 0.  1.
       -4    1    3    3    0  502  0.13439132510E+03 -0.24120642499E+03 -0.61611424351E+01  0.27619040587E+03  0.12699999809E+01 0. -1.
</event>
<event>
 5   0  0.6211218E-03  0.9023526E+03  0.7818609E-02  0.9422645E-01
       -1   -1    0    0    0  501  0.00000000000E+00  0.00000000000E+00  0.89705328508E+03  0.89705328509E+03  0.50400001928E-02 0.  1.
        1   -1    0    0  501    0  0.00000000000E+00  0.00000000000E+00 -0.22692081343E+03  0.22692081349E+03  0.50400001928E-02 0. -1.
    10030    2    1    2    0    0  0.00000000000E+00  0.00000000000E+00  0.67013247164E+03  0.11239740986E+04  0.90235261663E+03 0.  0.
        5    1    3    3  502    0  0.59221001738E+02  0.19152262796E+03  0.83849670138E+03  0.86214085409E+03  0.46999998093E+01 0.  1.
       -5    1    3    3    0  502 -0.59221001738E+02 -0.19152262796E+03 -0.16836422974E+03  0.26183324449E+03  0.46999998093E+01 0. -1.
</event>
<event>
 5   0  0.1003252E-02  0.8993315E+03  0.7818609E-02  0.9426417E-01
        2   -1    0    0  501    0  0.00000000000E+00  0.00000000000E+00  0.79514038890E+03  0.79514038891E+03  0.25500000920E-02 0. -1.
       -2   -1    0    0    0  501  0.00000000000E+00  0.00000000000E+00 -0.25429384735E+03  0.25429384736E+03  0.25500000920E-02 0.  1.
    10030    2    1    2    0    0  0.00000000000E+00  0.00000000000E+00  0.54084654156E+03  0.10494342363E+04  0.89933154884E+03 0.  0.
        2    1    3    3  502    0 -0.13944157747E+02 -0.22534903464E+03  0.72420172060E+03  0.75858075316E+03  0.25500000920E-02 0. -1.
       -2    1    3    3    0  502  0.13944157747E+02  0.22534903464E+03 -0.18335517904E+03  0.29085348311E+03  0.25500000920E-02 0.  1.
</event>
<event>
 5   0  0.6092779E-03  0.8899571E+03  0.7818609E-02  0.9438223E-01
       -1   -1    0    0    0  501  0.00000000000E+00  0.00000000000E+00  0.11151582566E+03  0.11151582577E+03  0.50400001928E-02 0.  1.
        1   -1    0    0  501    0  0.00000000000E+00  0.00000000000E+00 -0.17755858949E+04  0.17755858949E+04  0.50400001928E-02 0. -1.
    10030    2    1    2    0    0  0.00000000000E+00  0.00000000000E+00 -0.16640700692E+04  0.18871017207E+04  0.88995713877E+03 0.  0.
        2    1    3    3  502    0 -0.23339965268E+03  0.37885370048E+03 -0.83338107349E+03  0.94473781437E+03  0.25500000920E-02 0. -1.
       -2    1    3    3    0  502  0.23339965268E+03 -0.37885370048E+03 -0.83068899573E+03  0.94236390629E+03  0.25500000920E-02 0.  1.
</event>
<event>
 5   0  0.1003252E-02  0.9376219E+03  0.7818609E-02  0.9379737E-01
       -2   -1    0    0    0  501  0.00000000000E+00  0.00000000000E+00  0.41757052470E+03  0.41757052470E+03  0.25500000920E-02 0.  1.
        2   -1    0    0  501    0  0.00000000000E+00  0.00000000000E+00 -0.52633908892E+03  0.52633908892E+03  0.25500000920E-02 0. -1.
    10030    2    1    2    0    0  0.00000000000E+00  0.00000000000E+00 -0.10876856422E+03  0.94390961363E+03  0.93762186309E+03 0.  0.
        2    1    3    3  502    0 -0.86423588398E+02  0.46076954410E+03 -0.56866609542E+02  0.47224085029E+03  0.25500000920E-02 0. -1.
       -2    1    3    3    0  502  0.86423588398E+02 -0.46076954410E+03 -0.51901954681E+02  0.47166876333E+03  0.25500000920E-02 0.  1.
</event>
<event>
 5   0  0.6211218E-03  0.9591292E+03  0.7818609E-02  0.9354543E-01
        1   -1    0    0  501    0  0.00000000000E+00  0.00000000000E+00  0.20223811852E+04  0.20223811852E+04  0.50400001928E-02 0.  1.
       -1   -1    0    0    0  501  0.00000000000E+00  0.00000000000E+00 -0.11371852737E+03  0.11371852748E+03  0.50400001928E-02 0. -1.
    10030    2    1    2    0    0  0.00000000000E+00  0.00000000000E+00  0.19086626578E+04  0.21360997127E+04  0.95912920985E+03 0.  0.
        5    1    3    3  502    0 -0.33300991904E+03  0.23638354739E+03  0.39449714216E+03  0.56782292383E+03  0.46999998093E+01 0.  1.
       -5    1    3    3    0  502  0.33300991904E+03 -0.23638354739E+03  0.15141655157E+04  0.15682767889E+04  0.46999998093E+01 0. -1.
</event>
<event>
 5   0  0.1041727E-02  0.9025018E+03  0.7818609E-02  0.9422459E-01
       -2   -1    0    0    0  501  0.00000000000E+00  0.00000000000E+00  0.23491608447E+03  0.23491608449E+03  0.25500000920E-02 0. -1.
        2   -1    0    0  501    0  0.00000000000E+00  0.00000000000E+00 -0.86680905168E+03  0.86680905168E+03  0.25500000920E-02 0.  1.
    10030    2    1    2    0    0  0.00000000000E+00  0.00000000000E+00 -0.63189296721E+03  0.11017251362E+04  0.90250183028E+03 0.  0.
        4    1    3    3  502    0  0.26471916862E+03 -0.36234578876E+03 -0.25797627570E+03  0.51761383346E+03  0.12699999809E+01 0. -1.
       -4    1    3    3    0  502 -0.26471916862E+03  0.36234578876E+03 -0.37391669151E+03  0.58411130271E+03  0.12699999809E+01 0.  1.
</event>
<event>
 5   0  0.6288003E-03  0.9001779E+03  0.7818609E-02  0.9425359E-01
       -1   -1    0    0    0  501  0.00000000000E+00  0.00000000000E+00  0.31837807189E+03  0.31837807193E+03  0.50400001928E-02 0.  1.
        1   -1    0    0  501    0  0.00000000000E+00  0.00000000000E+00 -0.63628779350E+03  0.63628779352E+03  0.50400001928E-02 0. -1.
    10030    2    1    2    0    0  0.00000000000E+00  0.00000000000E+00 -0.31790972161E+03  0.95466586546E+03  0.90017793995E+03 0.  0.
        1    1    3    3  502    0 -0.35395643825E+03 -0.47333089133E+02  0.13158879371E+03  0.38058007326E+03  0.50400001928E-02 0.  1.
       -1    1    3    3    0  502  0.35395643825E+03  0.47333089133E+02 -0.44949851532E+03  0.57408579220E+03  0.50400001928E-02 0. -1.
</event>
<event>
 5   0  0.6211218E-03  0.9010261E+03  0.7818609E-02  0.9424300E-01
        1   -1    0    0  501    0  0.00000000000E+00  0.00000000000E+00  0.11185636213E+04  0.11185636213E+04  0.50400001928E-02 0.  1.
       -1   -1    0    0    0  501  0.00000000000E+00  0.00000000000E+00 -0.18144877393E+03  0.18144877400E+03  0.50400001928E-02 0. -1.
    10030    2    1    2    0    0  0.00000000000E+00  0.00000000000E+00  0.93711484737E+03  0.13000123953E+04  0.90102607666E+03 0.  0.
        5    1    3    3  502    0  0.19727111587E+03  0.28192624487E+03  0.88807038417E+03  0.95241240960E+03  0.46999998093E+01 0.  1.
       -5    1    3    3    0  502 -0.19727111587E+03 -0.28192624487E+03  0.49044463195E+02  0.34759998572E+03  0.46999998093E+01 0. -1.
</event>
<event>
 5   0  0.6137243E-03  0.9052328E+03  0.7818609E-02  0.9419064E-01
       -1   -1    0    0    0  501  0.00000000000E+00  0.00000000000E+00  0.11085524692E+03  0.11085524703E+03  0.50400001928E-02 0.  1.
        1   -1    0    0  501    0  0.00000000000E+00  0.00000000000E+00 -0.18480101833E+04  0.18480101833E+04  0.50400001928E-02 0. -1.
    10030    2    1    2    0    0  0.00000000000E+00  0.00000000000E+00 -0.17371549363E+04  0.19588654303E+04  0.90523284363E+03 0.  0.
        4    1    3    3  502    0 -0.36585699314E+03 -0.16178671814E+03 -0.13267686632E+04  0.13857644029E+04  0.12699999809E+01 0. -1.
       -4    1    3    3    0  502  0.36585699314E+03  0.16178671814E+03 -0.41038627310E+03  0.57310102744E+03  0.12699999809E+01 0.  1.
</event>
<event>
 5   0  0.1003252E-02  0.8910055E+03  0.7818609E-02  0.9436895E-01
       -2   -1    0    0    0  501  0.00000000000E+00  0.00000000000E+00  0.91707732641E+03  0.91707732642E+03  0.25500000920E-02 0.  1.
        2   -1    0    0  501    0  0.00000000000E+00  0.00000000000E+00 -0.21641872485E+03  0.21641872487E+03  0.25500000920E-02 0. -1.
    10030    2    1    2    0    0  0.00000000000E+00  0.00000000000E+00  0.70065860156E+03  0.11334960513E+04  0.89100551196E+03 0.  0.
        2    1    3    3  502    0 -0.17104137311E+03  0.69830469570E+02  0.86604805718E+03  0.88553412309E+03  0.25500000920E-02 0.  1.
       -2    1    3    3    0  502  0.17104137311E+03 -0.69830469570E+02 -0.16538945563E+03  0.24796192819E+03  0.25500000920E-02 0. -1.
</event>
<event>
 5   0  0.1028978E-02  0.9104376E+03  0.7818609E-02  0.9412627E-01
       -2   -1    0    0    0  501  0.00000000000E+00  0.00000000000E+00  0.24622338495E+03  0.24622338497E+03  0.25500000920E-02 0.  1.
        2   -1    0    0  501    0  0.00000000000E+00  0.00000000000E+00 -0.84161033389E+03  0.84161033390E+03  0.25500000920E-02 0. -1.
    10030    2    1    2    0    0  0.00000000000E+00  0.00000000000E+00 -0.59538694894E+03  0.10878337189E+04  0.91043757663E+03 0.  0.
        3    1    3    3  502    0 -0.39623334276E+03 -0.22332028926E+03 -0.27529777049E+03  0.53165937042E+03  0.10100000352E+00 0. -1.
       -3    1    3    3    0  502  0.39623334276E+03  0.22332028926E+03 -0.32008917844E+03  0.55617434845E+03  0.10100000352E+00 0.  1.
</event>
<event>
 5   0  0.6211218E-03  0.8392166E+03  0.7818609E-02  0.9504925E-01
       -1   -1    0    0    0  501  0.00000000000E+00  0.00000000000E+00  0.13777529432E+03  0.13777529441E+03  0.50400001928E-02 0.  1.
        1   -1    0    0  501    0  0.00000000000E+00  0.00000000000E+00 -0.12779585204E+04  0.12779585204E+04  0.50400001928E-02 0. -1.
    10030    2    1    2    0    0  0.00000000000E+00  0.00000000000E+00 -0.11401832260E+04  0.14157338148E+04  0.83921656643E+03 0.  0.
        5    1    3    3  502    0  0.38030082069E+01  0.16703611499E+03 -0.12193748512E+04  0.12307772521E+04  0.46999998093E+01 0. -1.
       -5    1    3    3    0  502 -0.38030082069E+01 -0.16703611499E+03  0.79191625158E+02  0.18495656267E+03  0.46999998093E+01 0.  1.
</event>
<event>
 5   0  0.1033749E-02  0.8949253E+03  0.7818609E-02  0.9431947E-01
       -2   -1    0    0    0  501  0.00000000000E+00  0.00000000000E+00  0.18612216124E+03  0.18612216126E+03  0.25500000920E-02 0. -1.
        2   -1    0    0  501    0  0.00000000000E+00  0.00000000000E+00 -0.10757603577E+04  0.10757603577E+04  0.25500000920E-02 0.  1.
    10030    2    1    2    0    0  0.00000000000E+00  0.00000000000E+00 -0.88963819649E+03  0.12618825190E+04  0.89492534385E+03 0.  0.
        5    1    3    3  502    0 -0.81201501930E+02  0.33922216149E+03 -0.83997168588E+03  0.90952728483E+03  0.46999998093E+01 0.  1.
       -5    1    3    3    0  502  0.81201501930E+02 -0.33922216149E+03 -0.49666510601E+02  0.35235523416E+03  0.46999998093E+01 0. -1.
</event>
<event>
 5   0  0.1033749E-02  0.9126963E+03  0.7818609E-02  0.9409848E-01
        2   -1    0    0  501    0  0.00000000000E+00  0.00000000000E+00  0.11651801224E+04  0.11651801224E+04  0.25500000920E-02 0.  1.
       -2   -1    0    0    0  501  0.00000000000E+00  0.00000000000E+00 -0.17873086033E+03  0.17873086035E+03  0.25500000920E-02 0. -1.
    10030    2    1    2    0    0  0.00000000000E+00  0.00000000000E+00  0.98644926208E+03  0.13439109828E+04  0.91269632569E+03 0.  0.
        5    1    3    3  502    0  0.10029591646E+03  0.58922889770E+02  0.11429466695E+04  0.11488604603E+04  0.46999998093E+01 0.  1.
       -5    1    3    3    0  502 -0.10029591646E+03 -0.58922889770E+02 -0.15649740743E+03  0.19505052250E+03  0.46999998093E+01 0. -1.
</event>
<event>
 5   0  0.1033749E-02  0.8923734E+03  0.7818609E-02  0.9435166E-01
        2   -1    0    0  501    0  0.00000000000E+00  0.00000000000E+00  0.24810585137E+04  0.24810585137E+04  0.25500000920E-02 0.  1.
       -2   -1    0    0    0  501  0.00000000000E+00  0.00000000000E+00 -0.80240985957E+02  0.80240985998E+02  0.25500000920E-02 0. -1.
    10030    2    1    2    0    0  0.00000000000E+00  0.00000000000E+00  0.24008175278E+04  0.25612994997E+04  0.89237342276E+03 0.  0.
        5    1    3    3  502    0  0.26329847335E+03  0.27440129537E+03  0.18700869491E+04  0.19083682674E+04  0.46999998093E+01 0.  1.
       -5    1    3    3    0  502 -0.26329847335E+03 -0.27440129537E+03  0.53073057869E+03  0.65293123230E+03  0.46999998093E+01 0. -1.
</event>
<event>
 5   0  0.6137243E-03  0.9077751E+03  0.7818609E-02  0.9415914E-01
        1   -1    0    0  501    0  0.00000000000E+00  0.00000000000E+00  0.33930390522E+03  0.33930390526E+03  0.50400001928E-02 0.  1.
       -1   -1    0    0    0  501  0.00000000000E+00  0.00000000000E+00 -0.60716633451E+03  0.60716633453E+03  0.50400001928E-02 0. -1.
    10030    2    1    2    0    0  0.00000000000E+00  0.00000000000E+00 -0.26786242929E+03  0.94647023978E+03  0.90777510088E+03 0.  0.
        4    1    3    3  502    0 -0.34123024784E+03 -0.27284549470E+03 -0.56858445965E+01  0.43694014207E+03  0.12699999809E+01 0.  1.
       -4    1    3    3    0  502  0.34123024784E+03  0.27284549470E+03 -0.26217658469E+03  0.50953009772E+03  0.12699999809E+01 0. -1.
</event>
<event>
 5   0  0.1041727E-02  0.8749756E+03  0.7818609E-02  0.9457415E-01
        2   -1    0    0  501    0  0.00000000000E+00  0.00000000000E+00  0.13158189445E+04  0.13158189445E+04  0.25500000920E-02 0.  1.
       -2   -1    0    0    0  501  0.00000000000E+00  0.00000000000E+00 -0.14545738875E+03  0.14545738877E+03  0.25500000920E-02 0. -1.
    10030    2    1    2    0    0  0.00000000000E+00  0.00000000000E+00  0.11703615558E+04  0.14612763333E+04  0.87497562880E+03 0.  0.
        4    1    3    3  502    0 -0.25116304938E+03 -0.13701007467E+03  0.32440073266E+02  0.28793855107E+03  0.12699999809E+01 0. -1.
       -4    1    3    3    0  502  0.25116304938E+03  0.13701007467E+03  0.11379214825E+04  0.11733377822E+04  0.12699999809E+01 0.  1.
</event>
<event>
 5   0  0.6288003E-03  0.8942243E+03  0.7818609E-02  0.9432830E-01
        1   -1    0    0  501    0  0.00000000000E+00  0.00000000000E+00  0.13503164299E+04  0.13503164299E+04  0.50400001928E-02 0. -1.
       -1   -1    0    0    0  501  0.00000000000E+00  0.00000000000E+00 -0.14804623297E+03  0.14804623306E+03  0.50400001928E-02 0.  1.
    10030    2    1    2    0    0  0.00000000000E+00  0.00000000000E+00  0.12022701970E+04  0.14983626630E+04  0.89422426905E+03 0.  0.
        1    1    3    3  502    0  0.28918736807E+03  0.52726108581E+02  0.11656406273E+04  0.12021345384E+04  0.50400001928E-02 0. -1.
       -1    1    3    3    0  502 -0.28918736807E+03 -0.52726108581E+02  0.36629569607E+02  0.29622812455E+03  0.50400001928E-02 0.  1.
</event>
<event>
 5   0  0.3996375E-03  0.8239421E+03  0.7818609E-02  0.9525994E-01
       -3   -1    0    0    0  501  0.00000000000E+00  0.00000000000E+00  0.12340774994E+04  0.12340775036E+04  0.10100000352E+00 0. -1.
        3   -1    0    0  501    0  0.00000000000E+00  0.00000000000E+00 -0.13752792212E+03  0.13752795921E+03  0.10100000352E+00 0.  1.
    10030    2    1    2    0    0  0.00000000000E+00  0.00000000000E+00  0.10965495773E+04  0.13716054628E+04  0.82394209142E+03 0.  0.
        5    1    3    3  502    0 -0.38681868870E+03  0.13992334912E+03  0.51139489677E+03  0.65631857508E+03  0.46999998093E+01 0. -1.
       -5    1    3    3    0  502  0.38681868870E+03 -0.13992334912E+03  0.58515468053E+03  0.71528688769E+03  0.46999998093E+01 0.  1.
</event>
<event>
 5   0  0.6288003E-03  0.9121063E+03  0.7818609E-02  0.9410573E-01
        1   -1    0    0  501    0  0.00000000000E+00  0.00000000000E+00  0.45728771378E+03  0.45728771381E+03  0.50400001928E-02 0.  1.
       -1   -1    0    0    0  501  0.00000000000E+00  0.00000000000E+00 -0.45482194752E+03  0.45482194755E+03  0.50400001928E-02 0. -1.
    10030    2    1    2    0    0  0.00000000000E+00  0.00000000000E+00  0.24657662592E+01  0.91210966135E+03  0.91210632841E+03 0.  0.
        1    1    3    3  502    0 -0.24005379110E+03 -0.20961735156E+03 -0.32498791571E+03  0.45517293646E+03  0.50400001928E-02 0. -1.
       -1    1    3    3    0  502  0.24005379110E+03  0.20961735156E+03  0.32745368197E+03  0.45693672490E+03  0.50400001928E-02 0.  1.
</event>
<event>
 5   0  0.6092779E-03  0.8996577E+03  0.7818609E-02  0.9426009E-01
       -1   -1    0    0    0  501  0.00000000000E+00  0.00000000000E+00  0.25838288162E+03  0.25838288167E+03  0.50400001928E-02 0.  1.
        1   -1    0    0  501    0  0.00000000000E+00  0.00000000000E+00 -0.78312466705E+03  0.78312466706E+03  0.50400001928E-02 0. -1.
    10030    2    1    2    0    0  0.00000000000E+00  0.00000000000E+00 -0.52474178543E+03  0.10415075487E+04  0.89965773086E+03 0.  0.
        2    1    3    3  502    0  0.12504703871E+02 -0.24535869265E+03 -0.69859742570E+03  0.74053738520E+03  0.25500000920E-02 0. -1.
       -2    1    3    3    0  502 -0.12504703871E+02  0.24535869265E+03  0.17385564027E+03  0.30097016353E+03  0.25500000920E-02 0.  1.
</event>
<event>
 5   0  0.1041727E-02  0.9084242E+03  0.7818609E-02  0.9415112E-01
       -2   -1    0    0    0  501  0.00000000000E+00  0.00000000000E+00  0.14020167683E+03  0.14020167686E+03  0.25500000920E-02 0.  1.
        2   -1    0    0  501    0  0.00000000000E+00  0.00000000000E+00 -0.14715132821E+04  0.14715132821E+04  0.25500000920E-02 0. -1.
    10030    2    1    2    0    0  0.00000000000E+00  0.00000000000E+00 -0.13313116052E+04  0.16117149589E+04  0.90842419529E+03 0.  0.
        4    1    3    3  502    0 -0.10508795788E+00  0.12715153574E+03  0.10797848464E+03  0.16681873435E+03  0.12699999809E+01 0.  1.
       -4    1    3    3    0  502  0.10508795788E+00 -0.12715153574E+03 -0.14392900899E+04  0.14448962246E+04  0.12699999809E+01 0. -1.
</event>
<event>
 5   0  0.6137243E-03  0.8946590E+03  0.7818609E-02  0.9432283E-01
        1   -1    0    0  501    0  0.00000000000E+00  0.00000000000E+00  0.54878866369E+03  0.54878866372E+03  0.50400001928E-02 0. -1.
       -1   -1    0    0    0  501  0.00000000000E+00  0.00000000000E+00 -0.36462791900E+03  0.36462791903E+03  0.50400001928E-02 0.  1.
    10030    2    1    2    0    0  0.00000000000E+00  0.00000000000E+00  0.18416074470E+03  0.91341658275E+03  0.89465897064E+03 0.  0.
        4    1    3    3  502    0 -0.23167294530E+03 -0.15143957453E+03  0.45086794305E+03  0.52904613531E+03  0.12699999809E+01 0. -1.
       -4    1    3    3    0  502  0.23167294530E+03  0.15143957453E+03 -0.26670719835E+03  0.38437044744E+03  0.12699999809E+01 0.  1.
</event>
<event>
 5   0  0.6015709E-03  0.8999035E+03  0.7818609E-02  0.9425702E-01
        1   -1    0    0  501    0  0.00000000000E+00  0.00000000000E+00  0.52653996550E+03  0.52653996552E+03  0.50400001928E-02 0.  1.
       -1   -1    0    0    0  501  0.00000000000E+00  0.00000000000E+00 -0.38450370154E+03  0.38450370158E+03  0.50400001928E-02 0. -1.
    10030    2    1    2    0    0  0.00000000000E+00  0.00000000000E+00  0.14203626395E+03  0.91104366710E+03  0.89990347431E+03 0.  0.
        3    1    3    3  502    0  0.33548615191E+03  0.19750787402E+03  0.29941287458E+03  0.49112971615E+03  0.10100000352E+00 0.  1.
       -3    1    3    3    0  502 -0.33548615191E+03 -0.19750787402E+03 -0.15737661063E+03  0.41991395094E+03  0.10100000352E+00 0. -1.
</event>
<event>
 5   0  0.1017079E-02  0.8958060E+03  0.7818609E-02  0.9430839E-01
        2   -1    0    0  501    0  0.00000000000E+00  0.00000000000E+00  0.66441443850E+03  0.66441443850E+03  0.25500000920E-02 0.  1.
       -2   -1    0    0    0  501  0.00000000000E+00  0.00000000000E+00 -0.30194573870E+03  0.30194573872E+03  0.25500000920E-02 0. -1.
    10030    2    1    2    0    0  0.00000000000E+00  0.00000000000E+00  0.36246869979E+03  0.96636017722E+03  0.89580602464E+03 0.  0.
        1    1    3    3  502    0 -0.39096536244E+03  0.19576974386E+03  0.28603193002E+03  0.52248825083E+03  0.50400001928E-02 0. -1.
       -1    1    3    3    0  502  0.39096536244E+03 -0.19576974386E+03  0.76436769776E+02  0.44387192639E+03  0.50400001928E-02 0.  1.
</event>
<event>
 5   0  0.1033749E-02  0.9001460E+03  0.7818609E-02  0.9425399E-01
       -2   -1    0    0    0  501  0.00000000000E+00  0.00000000000E+00  0.17621203289E+03  0.17621203291E+03  0.25500000920E-02 0. -1.
        2   -1    0    0  501    0  0.00000000000E+00  0.00000000000E+00 -0.11495567229E+04  0.11495567229E+04  0.25500000920E-02 0.  1.
    10030    2    1    2    0    0  0.00000000000E+00  0.00000000000E+00 -0.97334469006E+03  0.13257687559E+04  0.90014604834E+03 0.  0.
        5    1    3    3  502    0 -0.25895238649E+03  0.34095783838E+03 -0.69094087918E+03  0.81285298458E+03  0.46999998093E+01 0.  1.
       -5    1    3    3    0  502  0.25895238649E+03 -0.34095783838E+03 -0.28240381088E+03  0.51291577127E+03  0.46999998093E+01 0. -1.
</event>
<event>
 5   0  0.6137243E-03  0.8734971E+03  0.7818609E-02  0.9459332E-01
       -1   -1    0    0    0  501  0.00000000000E+00  0.00000000000E+00  0.30697491292E+03  0.30697491296E+03  0.50400001928E-02 0. -1.
        1   -1    0    0  501    0  0.00000000000E+00  0.00000000000E+00 -0.62138392770E+03  0.62138392772E+03  0.50400001928E-02 0.  1.
    10030    2    1    2    0    0  0.00000000000E+00  0.00000000000E+00 -0.31440901478E+03  0.92835884068E+03  0.87349705694E+03 0.  0.
        4    1    3    3  502    0  0.29980550076E+03  0.29767602860E+03 -0.39557440150E+02  0.42433566932E+03  0.12699999809E+01 0.  1.
       -4    1    3    3    0  502 -0.29980550076E+03 -0.29767602860E+03 -0.27485157463E+03  0.50402317136E+03  0.12699999809E+01 0. -1.
</event>
<event>
 5   0  0.1041727E-02  0.9005091E+03  0.7818609E-02  0.9424945E-01
       -2   -1    0    0    0  501  0.00000000000E+00  0.00000000000E+00  0.50597078271E+03  0.50597078271E+03  0.25500000920E-02 0.  1.
        2   -1    0    0  501    0  0.00000000000E+00  0.00000000000E+00 -0.40067363072E+03  0.40067363073E+03  0.25500000920E-02 0. -1.
    10030    2    1    2    0    0  0.00000000000E+00  0.00000000000E+00  0.10529715199E+03  0.90664441344E+03  0.90050907947E+03 0.  0.
        4    1    3    3  502    0  0.28852524738E+03  0.35806728306E+02  0.39879117922E+03  0.49352300624E+03  0.12699999809E+01 0.  1.
       -4    1    3    3    0  502 -0.28852524738E+03 -0.35806728306E+02 -0.29349402723E+03  0.41312140720E+03  0.12699999809E+01 0. -1.
</event>
<event>
 5   0  0.1003252E-02  0.8941714E+03  0.7818609E-02  0.9432897E-01
        2   -1    0    0  501    0  0.00000000000E+00  0.00000000000E+00  0.63360794736E+03  0.63360794737E+03  0.25500000920E-02 0. -1.
       -2   -1    0    0    0  501  0.00000000000E+00  0.00000000000E+00 -0.31547211741E+03  0.31547211743E+03  0.25500000920E-02 0.  1.
    10030    2    1    2    0    0  0.00000000000E+00  0.00000000000E+00  0.31813582995E+03  0.94908006479E+03  0.89417143943E+03 0.  0.
        2    1    3    3  502    0 -0.18896132105E+03  0.17848438751E+03 -0.22703141033E+03  0.34511783310E+03  0.25500000920E-02 0.  1.
       -2    1    3    3    0  502  0.18896132105E+03 -0.17848438751E+03  0.54516724027E+03  0.60396223170E+03  0.25500000920E-02 0. -1.
</event>
<event>
 5   0  0.6288003E-03  0.9316203E+03  0.7818609E-02  0.9386895E-01
        1   -1    0    0  501    0  0.00000000000E+00  0.00000000000E+00  0.10067456651E+04  0.10067456651E+04  0.50400001928E-02 0. -1.
       -1   -1    0    0    0  501  0.00000000000E+00  0.00000000000E+00 -0.21552525162E+03  0.21552525168E+03  0.50400001928E-02 0.  1.
    10030    2    1    2    0    0  0.00000000000E+00  0.00000000000E+00  0.79122041343E+03  0.12222709168E+04  0.93162033646E+03 0.  0.
        1    1    3    3  502    0  0.21694182065E+03 -0.33110512179E+03  0.73479387347E+02  0.40260846441E+03  0.50400001928E-02 0.  1.
       -1    1    3    3    0  502 -0.21694182065E+03  0.33110512179E+03  0.71774102609E+03  0.81966245234E+03  0.50400001928E-02 0. -1.
</event>
<event>
 5   0  0.1003252E-02  0.9064497E+03  0.7818609E-02  0.9417555E-01
       -2   -1    0    0    0  501  0.00000000000E+00  0.00000000000E+00  0.80829986291E+03  0.80829986292E+03  0.25500000920E-02 0. -1.
        2   -1    0    0  501    0  0.00000000000E+00  0.00000000000E+00 -0.25412938329E+03  0.25412938330E+03  0.25500000920E-02 0.  1.
    10030    2    1    2    0    0  0.00000000000E+00  0.00000000000E+00  0.55417047962E+03  0.10624292462E+04  0.90644965814E+03 0.  0.
        2    1    3    3  502    0 -0.87305434635E+02 -0.36243293370E+03  0.57918324165E+03  0.68879104071E+03  0.25500000920E-02 0. -1.
       -2    1    3    3    0  502  0.87305434635E+02  0.36243293370E+03 -0.25012762031E+02  0.37363820551E+03  0.25500000920E-02 0.  1.
</event>
<event>
 5   0  0.6092779E-03  0.8994698E+03  0.7818609E-02  0.9426244E-01
       -1   -1    0    0    0  501  0.00000000000E+00  0.00000000000E+00  0.40865597802E+03  0.40865597805E+03  0.50400001928E-02 0. -1.
        1   -1    0    0  501    0  0.00000000000E+00  0.00000000000E+00 -0.49494311625E+03  0.49494311627E+03  0.50400001928E-02 0.  1.
    10030    2    1    2    0    0  0.00000000000E+00  0.00000000000E+00 -0.86287138226E+02  0.90359909432E+03  0.89946976216E+03 0.  0.
        2    1    3    3  502    0 -0.21013632632E+01  0.19090844350E+03  0.36592480640E+03  0.41273649400E+03  0.25500000920E-02 0. -1.
       -2    1    3    3    0  502  0.21013632632E+01 -0.19090844350E+03 -0.45221194463E+03  0.49086260033E+03  0.25500000920E-02 0.  1.
</event>
<event>
 5   0  0.6137243E-03  0.8960113E+03  0.7818609E-02  0.9430581E-01
        1   -1    0    0  501    0  0.00000000000E+00  0.00000000000E+00  0.12762764121E+04  0.12762764121E+04  0.50400001928E-02 0. -1.
       -1   -1    0    0    0  501  0.00000000000E+00  0.00000000000E+00 -0.15726142816E+03  0.15726142824E+03  0.50400001928E-02 0.  1.
    10030    2    1    2    0    0  0.00000000000E+00  0.00000000000E+00  0.11190149839E+04  0.14335378403E+04  0.89601127526E+03 0.  0.
        4    1    3    3  502    0 -0.36155046562E+03 -0.21909231994E+03  0.79674381769E+03  0.90195482580E+03  0.12699999809E+01 0. -1.
       -4    1    3    3    0  502  0.36155046562E+03  0.21909231994E+03  0.32227116621E+03  0.53158301451E+03  0.12699999809E+01 0.  1.
</event>
<event>
 5   0  0.1017079E-02  0.9041813E+03  0.7818609E-02  0.9420370E-01
       -2   -1    0    0    0  501  0.00000000000E+00  0.00000000000E+00  0.57595089144E+03  0.57595089144E+03  0.25500000920E-02 0. -1.
        2   -1    0    0  501    0  0.00000000000E+00  0.00000000000E+00 -0.35486694613E+03  0.35486694614E+03  0.25500000920E-02 0.  1.
    10030    2    1    2    0    0  0.00000000000E+00  0.00000000000E+00  0.22108394531E+03  0.93081783758E+03  0.90418125167E+03 0.  0.
        1    1    3    3  502    0  0.22526646997E+02  0.45002670940E+03  0.72655002290E+02  0.45641016463E+03  0.50400001928E-02 0.  1.
       -1    1    3    3    0  502 -0.22526646997E+02 -0.45002670940E+03  0.14842894302E+03  0.47440767294E+03  0.50400001928E-02 0. -1.
</event>
<event>
 5   0  0.1003252E-02  0.8810832E+03  0.7818609E-02  0.9449542E-01
        2   -1    0    0  501    0  0.00000000000E+00  0.00000000000E+00  0.52237873718E+03  0.52237873718E+03  0.25500000920E-02 0.  1.
       -2   -1    0    0    0  501  0.00000000000E+00  0.00000000000E+00 -0.37152529594E+03  0.37152529594E+03  0.25500000920E-02 0. -1.
    10030    2    1    2    0    0  0.00000000000E+00  0.00000000000E+00  0.15085344124E+03  0.89390403313E+03  0.88108323086E+03 0.  0.
        2    1    3    3  502    0 -0.35448509266E+02 -0.42463651457E+03 -0.38022371363E+02  0.42780657668E+03  0.25500000920E-02 0.  1.
       -2    1    3    3    0  502  0.35448509266E+02  0.42463651457E+03  0.18887581260E+03  0.46609745645E+03  0.25500000920E-02 0. -1.
</event>
<event>
 5   0  0.6288003E-03  0.9028291E+03  0.7818609E-02  0.9422052E-01
        1   -1    0    0  501    0  0.00000000000E+00  0.00000000000E+00  0.25753358758E+03  0.25753358763E+03  0.50400001928E-02 0.  1.
       -1   -1    0    0    0  501  0.00000000000E+00  0.00000000000E+00 -0.79125644806E+03  0.79125644808E+03  0.50400001928E-02 0. -1.
    10030    2    1    2    0    0  0.00000000000E+00  0.00000000000E+00 -0.53372286048E+03  0.10487900357E+04  0.90282913512E+03 0.  0.
        1    1    3    3  502    0 -0.18480017609E+03 -0.88370222609E+01 -0.74519036252E+03  0.76781369776E+03  0.50400001928E-02 0. -1.
       -1    1    3    3    0  502  0.18480017609E+03  0.88370222609E+01  0.21146750204E+03  0.28097633796E+03  0.50400001928E-02 0.  1.
</event>
<event>
 5   0  0.6092779E-03  0.9062382E+03  0.7818609E-02  0.9417817E-01
       -1   -1    0    0    0  501  0.00000000000E+00  0.00000000000E+00  0.19167300873E+03  0.19167300880E+03  0.50400001928E-02 0.  1.
        1   -1    0    0  501    0  0.00000000000E+00  0.00000000000E+00 -0.10711831958E+04  0.10711831958E+04  0.50400001928E-02 0. -1.
    10030    2    1    2    0    0  0.00000000000E+00  0.00000000000E+00 -0.87951018710E+03  0.12628562046E+04  0.90623817199E+03 0.  0.
        2    1    3    3  502    0  0.26669658682E+03 -0.23570588572E+02  0.69658422961E+02  0.27664948574E+03  0.25500000920E-02 0.  1.
       -2    1    3    3    0  502 -0.26669658682E+03  0.23570588572E+02 -0.94916861006E+03  0.98620671889E+03  0.25500000920E-02 0. -1.
</event>
<event>
 5   0  0.1017079E-02  0.9077251E+03  0.7818609E-02  0.9415976E-01
        2   -1    0    0  501    0  0.00000000000E+00  0.00000000000E+00  0.39916435144E+03  0.39916435145E+03  0.25500000920E-02 0.  1.
       -2   -1    0    0    0  501  0.00000000000E+00  0.00000000000E+00 -0.51605615934E+03  0.51605615934E+03  0.25500000920E-02 0. -1.
    10030    2    1    2    0    0  0.00000000000E+00  0.00000000000E+00 -0.11689180790E+03  0.91522051079E+03  0.90772511732E+03 0.  0.
        1    1    3    3  502    0  0.19073742205E+03 -0.99364134609E+02  0.34452571645E+03  0.40614278861E+03  0.50400001928E-02 0.  1.
       -1    1    3    3    0  502 -0.19073742205E+03  0.99364134609E+02 -0.46141752435E+03  0.50907772218E+03  0.50400001928E-02 0. -1.
</event>
<event>
 5   0  0.6092779E-03  0.9006754E+03  0.7818609E-02  0.9424737E-01
        1   -1    0    0  501    0  0.00000000000E+00  0.00000000000E+00  0.54149676633E+03  0.54149676636E+03  0.50400001928E-02 0. -1.
       -1   -1    0    0    0  501  0.00000000000E+00  0.00000000000E+00 -0.37452497160E+03  0.37452497163E+03  0.50400001928E-02 0.  1.
    10030    2    1    2    0    0  0.00000000000E+00  0.00000000000E+00  0.16697179473E+03  0.91602173799E+03  0.90067543779E+03 0.  0.
        2    1    3    3  502    0  0.12874133844E+03  0.41434854866E+03  0.20614349620E+03  0.48036880939E+03  0.25500000920E-02 0. -1.
       -2    1    3    3    0  502 -0.12874133844E+03 -0.41434854866E+03 -0.39171701464E+02  0.43565292861E+03  0.25500000920E-02 0.  1.
</event>
<event>
 5   0  0.6015709E-03  0.9002251E+03  0.7818609E-02  0.9425300E-01
        1   -1    0    0  501    0  0.00000000000E+00  0.00000000000E+00  0.24692353249E+03  0.24692353254E+03  0.50400001928E-02 0. -1.
       -1   -1    0    0    0  501  0.00000000000E+00  0.00000000000E+00 -0.82050214035E+03  0.82050214037E+03  0.50400001928E-02 0.  1.
    10030    2    1    2    0    0  0.00000000000E+00  0.00000000000E+00 -0.57357860787E+03  0.10674256729E+04  0.90022505396E+03 0.  0.
        3    1    3    3  502    0 -0.76859442023E+02  0.44316033546E+03 -0.26615552281E+03  0.52262532399E+03  0.10100000352E+00 0. -1.
       -3    1    3    3    0  502  0.76859442023E+02 -0.44316033546E+03 -0.30742308506E+03  0.54480034892E+03  0.10100000352E+00 0.  1.
</event>
<event>
 5   0  0.1041727E-02  0.9064072E+03  0.7818609E-02  0.9417607E-01
        2   -1    0    0  501    0  0.00000000000E+00  0.00000000000E+00  0.63790591874E+03  0.63790591874E+03  0.25500000920E-02 0. -1.
       -2   -1    0    0    0  501  0.00000000000E+00  0.00000000000E+00 -0.32198085487E+03  0.32198085488E+03  0.25500000920E-02 0.  1.
    10030    2    1    2    0    0  0.00000000000E+00  0.00000000000E+00  0.31592506387E+03  0.95988677362E+03  0.90640717792E+03 0.  0.
        4    1    3    3  502    0 -0.44945006967E+03  0.55579678788E+02  0.17622576289E+03  0.48595431702E+03  0.12699999809E+01 0. -1.
       -4    1    3    3    0  502  0.44945006967E+03 -0.55579678788E+02  0.13969930098E+03  0.47393245660E+03  0.12699999809E+01 0.  1.
</event>
<event>
 5   0  0.1041727E-02  0.9067736E+03  0.7818609E-02  0.9417154E-01
       -2   -1    0    0    0  501  0.00000000000E+00  0.00000000000E+00  0.11426499872E+03  0.11426499875E+03  0.25500000920E-02 0.  1.
        2   -1    0    0  501    0  0.00000000000E+00  0.00000000000E+00 -0.17989723452E+04  0.17989723452E+04  0.25500000920E-02 0. -1.
    10030    2    1    2    0    0  0.00000000000E+00  0.00000000000E+00 -0.16847073465E+04  0.19132373439E+04  0.90677356103E+03 0.  0.
        4    1    3    3  502    0 -0.20214940722E+03  0.37661882788E+03 -0.11613095033E+04  0.12374762623E+04  0.12699999809E+01 0.  1.
       -4    1    3    3    0  502  0.20214940722E+03 -0.37661882788E+03 -0.52339784319E+03  0.67576108168E+03  0.12699999809E+01 0. -1.
</event>
<event>
 5   0  0.1041727E-02  0.9106318E+03  0.7818609E-02  0.9412388E-01
       -2   -1    0    0    0  501  0.00000000000E+00  0.00000000000E+00  0.47514853959E+03  0.47514853960E+03  0.25500000920E-02 0.  1.
        2   -1    0    0  501    0  0.00000000000E+00  0.00000000000E+00 -0.43631109100E+03  0.43631109101E+03  0.25500000920E-02 0. -1.
    10030    2    1    2    0    0  0.00000000000E+00  0.00000000000E+00  0.38837448589E+02  0.91145963060E+03  0.91063181957E+03 0.  0.
        4    1    3    3  502    0 -0.15022764769E+03  0.37608012900E+03  0.22770969007E+03  0.46460512848E+03  0.12699999809E+01 0.  1.
       -4    1    3    3    0  502  0.15022764769E+03 -0.37608012900E+03 -0.18887224148E+03  0.44685450212E+03  0.12699999809E+01 0. -1.
</event>
<event>
 5   0  0.1028978E-02  0.8958027E+03  0.7818609E-02  0.9430844E-01
       -2   -1    0    0    0  501  0.00000000000E+00  0.00000000000E+00  0.56141225075E+03  0.56141225075E+03  0.25500000920E-02 0.  1.
        2   -1    0    0  501    0  0.00000000000E+00  0.00000000000E+00 -0.35734098547E+03  0.35734098548E+03  0.25500000920E-02 0. -1.
    10030    2    1    2    0    0  0.00000000000E+00  0.00000000000E+00  0.20407126528E+03  0.91875323623E+03  0.89580267234E+03 0.  0.
        3    1    3    3  502    0 -0.38543930966E+02  0.43052324856E+03  0.22243004298E+03  0.48611833578E+03  0.10100000352E+00 0.  1.
       -3    1    3    3    0  502  0.38543930966E+02 -0.43052324856E+03 -0.18358777704E+02  0.43263490045E+03  0.10100000352E+00 0. -1.
</event>
<event>
 5   0  0.6288003E-03  0.8956902E+03  0.7818609E-02  0.9430985E-01
        1   -1    0    0  501    0  0.00000000000E+00  0.00000000000E+00  0.94879482790E+03  0.94879482792E+03  0.50400001928E-02 0. -1.
       -1   -1    0    0    0  501  0.00000000000E+00  0.00000000000E+00 -0.21138945630E+03  0.21138945636E+03  0.50400001928E-02 0.  1.
    10030    2    1    2    0    0  0.00000000000E+00  0.00000000000E+00  0.73740537161E+03  0.11601842843E+04  0.89569017601E+03 0.  0.
        1    1    3    3  502    0 -0.29763222595E+02 -0.37721830697E+03  0.67899505367E+03  0.77731189588E+03  0.50400001928E-02 0. -1.
       -1    1    3    3    0  502  0.29763222595E+02  0.37721830697E+03  0.58410317932E+02  0.38287238840E+03  0.50400001928E-02 0.  1.
</event>
<event>
 5   0  0.1003252E-02  0.8087773E+03  0.7818609E-02  0.9547398E-01
        2   -1    0    0  501    0  0.00000000000E+00  0.00000000000E+00  0.96350444213E+03  0.96350444213E+03  0.25500000920E-02 0.  1.
       -2   -1    0    0    0  501  0.00000000000E+00  0.00000000000E+00 -0.16972438409E+03  0.16972438411E+03  0.25500000920E-02 0. -1.
    10030    2    1    2    0    0  0.00000000000E+00  0.00000000000E+00  0.79378005804E+03  0.11332288262E+04  0.80877734395E+03 0.  0.
        2    1    3    3  502    0  0.18975272022E+03 -0.35683821092E+03  0.37754614319E+03  0.55306481884E+03  0.25500000920E-02 0. -1.
       -2    1    3    3    0  502 -0.18975272022E+03  0.35683821092E+03  0.41623391485E+03  0.58016400740E+03  0.25500000920E-02 0.  1.
</event>
<event>
 5   0  0.1017079E-02  0.9055046E+03  0.7818609E-02  0.9418726E-01
       -2   -1    0    0    0  501  0.00000000000E+00  0.00000000000E+00  0.34232312540E+03  0.34232312541E+03  0.25500000920E-02 0. -1.
        2   -1    0    0  501    0  0.00000000000E+00  0.00000000000E+00 -0.59880461181E+03  0.59880461182E+03  0.25500000920E-02 0.  1.
    10030    2    1    2    0    0  0.00000000000E+00  0.00000000000E+00 -0.25648148642E+03  0.94112773723E+03  0.90550464654E+03 0.  0.
        1    1    3    3  502    0  0.42747696843E+03 -0.98268338667E+02 -0.11614681012E+02  0.43878027048E+03  0.50400001928E-02 0. -1.
       -1    1    3    3    0  502 -0.42747696843E+03  0.98268338667E+02 -0.24486680541E+03  0.50234746674E+03  0.50400001928E-02 0.  1.
</event>
<event>
 5   0  0.6092779E-03  0.8869206E+03  0.7818609E-02  0.9442081E-01
       -1   -1    0    0    0  501  0.00000000000E+00  0.00000000000E+00  0.52577766140E+03  0.52577766142E+03  0.50400001928E-02 0.  1.
        1   -1    0    0  501    0  0.00000000000E+00  0.00000000000E+00 -0.37403076000E+03  0.37403076003E+03  0.50400001928E-02 0. -1.
    10030    2    1    2    0    0  0.00000000000E+00  0.00000000000E+00  0.15174690140E+03  0.89980842146E+03  0.88692055633E+03 0.  0.
        2    1    3    3  502    0 -0.17551993750E+03  0.29677135349E+03 -0.20706347112E+03  0.40218871912E+03  0.25500000920E-02 0. -1.
       -2    1    3    3    0  502  0.17551993750E+03 -0.29677135349E+03  0.35881037252E+03  0.49761970233E+03  0.25500000920E-02 0.  1.
</event>
<event>
 5   0  0.6092779E-03  0.8774076E+03  0.7818609E-02  0.9454272E-01
       -1   -1    0    0    0  501  0.00000000000E+00  0.00000000000E+00  0.55368351343E+03  0.55368351346E+03  0.50400001928E-02 0. -1.
        1   -1    0    0  501    0  0.00000000000E+00  0.00000000000E+00 -0.34760117572E+03  0.34760117575E+03  0.50400001928E-02 0.  1.
    10030    2    1    2    0    0  0.00000000000E+00  0.00000000000E+00  0.20608233772E+03  0.90128468921E+03  0.87740763678E+03 0.  0.
        2    1    3    3  502    0  0.42778987555E+03 -0.88721571392E+02  0.14394109585E+03  0.45999427598E+03  0.25500000920E-02 0. -1.
       -2    1    3    3    0  502 -0.42778987555E+03  0.88721571392E+02  0.62141241870E+02  0.44129041322E+03  0.25500000920E-02 0.  1.
</event>
<event>
 5   0  0.1017079E-02  0.9001733E+03  0.7818609E-02  0.9425365E-01
       -2   -1    0    0    0  501  0.00000000000E+00  0.00000000000E+00  0.21422823586E+03  0.21422823588E+03  0.25500000920E-02 0. -1.
        2   -1    0    0  501    0  0.00000000000E+00  0.00000000000E+00 -0.94561753944E+03  0.94561753945E+03  0.25500000920E-02 0.  1.
    10030    2    1    2    0    0  0.00000000000E+00  0.00000000000E+00 -0.73138930358E+03  0.11598457753E+04  0.90017326618E+03 0.  0.
        1    1    3    3  502    0  0.31715378659E+03  0.24028755364E+03 -0.63674326104E+03  0.75084393404E+03  0.50400001928E-02 0.  1.
       -1    1    3    3    0  502 -0.31715378659E+03 -0.24028755364E+03 -0.94646042548E+02  0.40900184129E+03  0.50400001928E-02 0. -1.
</event>
<event>
 5   0  0.1041727E-02  0.8941713E+03  0.7818609E-02  0.9432897E-01
        2   -1    0    0  501    0  0.00000000000E+00  0.00000000000E+00  0.91897125896E+03  0.91897125896E+03  0.25500000920E-02 0.  1.
       -2   -1    0    0    0  501  0.00000000000E+00  0.00000000000E+00 -0.21751016069E+03  0.21751016070E+03  0.25500000920E-02 0. -1.
    10030    2    1    2    0    0  0.00000000000E+00  0.00000000000E+00  0.70146109827E+03  0.11364814197E+04  0.89417131739E+03 0.  0.
        4    1    3    3  502    0  0.21148557536E+03 -0.68361949525E+02 -0.14231545628E+03  0.26392197090E+03  0.12699999809E+01 0. -1.
       -4    1    3    3    0  502 -0.21148557536E+03  0.68361949525E+02  0.84377655455E+03  0.87255944876E+03  0.12699999809E+01 0.  1.
</event>
<event>
 5   0  0.1041727E-02  0.8993335E+03  0.7818609E-02  0.9426415E-01
        2   -1    0    0  501    0  0.00000000000E+00  0.00000000000E+00  0.22159554615E+04  0.22159554615E+04  0.25500000920E-02 0.  1.
       -2   -1    0    0    0  501  0.00000000000E+00  0.00000000000E+00 -0.91247414355E+02  0.91247414391E+02  0.25500000920E-02 0. -1.
    10030    2    1    2    0    0  0.00000000000E+00  0.00000000000E+00  0.21247080472E+04  0.23072028759E+04  0.89933354487E+03 0.  0.
        4    1    3    3  502    0  0.29996155445E+03  0.29031442524E+03  0.14911709560E+04  0.15484998652E+04  0.12699999809E+01 0.  1.
       -4    1    3    3    0  502 -0.29996155445E+03 -0.29031442524E+03  0.63353709113E+03  0.75870301067E+03  0.12699999809E+01 0. -1.
</event>
<event>
 5   0  0.6015709E-03  0.8972344E+03  0.7818609E-02  0.9429045E-01
        1   -1    0    0  501    0  0.00000000000E+00  0.00000000000E+00  0.64288244159E+03  0.64288244161E+03  0.50400001928E-02 0.  1.
       -1   -1    0    0    0  501  0.00000000000E+00  0.00000000000E+00 -0.31305476121E+03  0.31305476125E+03  0.50400001928E-02 0. -1.
    10030    2    1    2    0    0  0.00000000000E+00  0.00000000000E+00  0.32982768038E+03  0.95593720286E+03  0.89723443819E+03 0.  0.
        3    1    3    3  502    0  0.37343394262E+03  0.24655748725E+03  0.19883884598E+03  0.48967376986E+03  0.10100000352E+00 0. -1.
       -3    1    3    3    0  502 -0.37343394262E+03 -0.24655748725E+03  0.13098883440E+03  0.46626343300E+03  0.10100000352E+00 0.  1.
</event>
<event>
 5   0  0.3996375E-03  0.8754237E+03  0.7818609E-02  0.9456835E-01
       -3   -1    0    0    0  501  0.00000000000E+00  0.00000000000E+00  0.21469963333E+03  0.21469965709E+03  0.10100000352E+00 0.  1.
        3   -1    0    0  501    0  0.00000000000E+00  0.00000000000E+00 -0.89237053181E+03  0.89237053752E+03  0.10100000352E+00 0. -1.
    10030    2    1    2    0    0  0.00000000000E+00  0.00000000000E+00 -0.67767089848E+03  0.11070701946E+04  0.87542365124E+03 0.  0.
        3    1    3    3  502    0  0.33681222403E+02  0.33375703083E+03 -0.69442154287E+03  0.77120001930E+03  0.10100000352E+00 0. -1.
       -3    1    3    3    0  502 -0.33681222403E+02 -0.33375703083E+03  0.16750644389E+02  0.33587017531E+03  0.10100000352E+00 0.  1.
</event>
<event>
 5   0  0.6211218E-03  0.9870078E+03  0.7818609E-02  0.9322910E-01
       -1   -1    0    0    0  501  0.00000000000E+00  0.00000000000E+00  0.96459618899E+02  0.96459619030E+02  0.50400001928E-02 0. -1.
        1   -1    0    0  501    0  0.00000000000E+00  0.00000000000E+00 -0.25248501673E+04  0.25248501673E+04  0.50400001928E-02 0.  1.
    10030    2    1    2    0    0  0.00000000000E+00  0.00000000000E+00 -0.24283905484E+04  0.26213097863E+04  0.98700777117E+03 0.  0.
        5    1    3    3  502    0  0.47117433234E+03  0.14582102453E+03 -0.11717876056E+04  0.12713682807E+04  0.46999998093E+01 0.  1.
       -5    1    3    3    0  502 -0.47117433234E+03 -0.14582102453E+03 -0.12566029428E+04  0.13499415056E+04  0.46999998093E+01 0. -1.
</event>
<event>
 5   0  0.1003252E-02  0.8484900E+03  0.7818609E-02  0.9492366E-01
       -2   -1    0    0    0  501  0.00000000000E+00  0.00000000000E+00  0.13681745473E+03  0.13681745476E+03  0.25500000920E-02 0. -1.
        2   -1    0    0  501    0  0.00000000000E+00  0.00000000000E+00 -0.13155032227E+04  0.13155032227E+04  0.25500000920E-02 0.  1.
    10030    2    1    2    0    0  0.00000000000E+00  0.00000000000E+00 -0.11786857679E+04  0.14523206774E+04  0.84848995902E+03 0.  0.
        2    1    3    3  502    0  0.34210937404E+03  0.38147247498E+02 -0.10137837918E+04  0.10706314085E+04  0.25500000920E-02 0.  1.
       -2    1    3    3    0  502 -0.34210937404E+03 -0.38147247498E+02 -0.16490197614E+03  0.38168926896E+03  0.25500000920E-02 0. -1.
</event>
<event>
 5   0  0.6092779E-03  0.9159544E+03  0.7818609E-02  0.9405854E-01
       -1   -1    0    0    0  501  0.00000000000E+00  0.00000000000E+00  0.22316529356E+03  0.22316529362E+03  0.50400001928E-02 0.  1.
        1   -1    0    0  501    0  0.00000000000E+00  0.00000000000E+00 -0.93985551073E+03  0.93985551074E+03  0.50400001928E-02 0. -1.
    10030    2    1    2    0    0  0.00000000000E+00  0.00000000000E+00 -0.71669021716E+03  0.11630208044E+04  0.91595443337E+03 0.  0.
        2    1    3    3  502    0  0.11760536143E+03  0.26447174177E+03  0.92307278999E+02  0.30380414249E+03  0.25500000920E-02 0.  1.
       -2    1    3    3    0  502 -0.11760536143E+03 -0.26447174177E+03 -0.80899749616E+03  0.85921666187E+03  0.25500000920E-02 0. -1.
</event>
<event>
 5   0  0.6092779E-03  0.8986240E+03  0.7818609E-02  0.9427303E-01
       -1   -1    0    0    0  501  0.00000000000E+00  0.00000000000E+00  0.11885586212E+03  0.11885586223E+03  0.50400001928E-02 0. -1.
        1   -1    0    0  501    0  0.00000000000E+00  0.00000000000E+00 -0.16985384978E+04  0.16985384978E+04  0.50400001928E-02 0.  1.
    10030    2    1    2    0    0  0.00000000000E+00  0.00000000000E+00 -0.15796826357E+04  0.18173943600E+04  0.89862396497E+03 0.  0.
        2    1    3    3  502    0 -0.15831738549E+03 -0.35506722692E+03 -0.12454207134E+04  0.13046876574E+04  0.25500000920E-02 0.  1.
       -2    1    3    3    0  502  0.15831738549E+03  0.35506722692E+03 -0.33426192234E+03  0.51270670262E+03  0.25500000920E-02 0. -1.
</event>
<event>
 5   0  0.6288003E-03  0.9067274E+03  0.7818609E-02  0.9417211E-01
       -1   -1    0    0    0  501  0.00000000000E+00  0.00000000000E+00  0.33058276379E+03  0.33058276383E+03  0.50400001928E-02 0. -1.
        1   -1    0    0  501    0  0.00000000000E+00  0.00000000000E+00 -0.62174638121E+03  0.62174638123E+03  0.50400001928E-02 0.  1.
    10030    2    1    2    0    0  0.00000000000E+00  0.00000000000E+00 -0.29116361742E+03  0.95232914505E+03  0.90672738373E+03 0.  0.
        1    1    3    3  502    0 -0.64526011729E+02  0.67267951364E+02  0.32040981741E+03  0.33369302448E+03  0.50400001928E-02 0. -1.
       -1    1    3    3    0  502  0.64526011729E+02 -0.67267951364E+02 -0.61157343482E+03  0.61863612057E+03  0.50400001928E-02 0.  1.
</event>
<event>
 5   0  0.1003252E-02  0.9025133E+03  0.7818609E-02  0.9422445E-01
       -2   -1    0    0    0  501  0.00000000000E+00  0.00000000000E+00  0.38919890686E+03  0.38919890687E+03  0.25500000920E-02 0. -1.
        2   -1    0    0  501    0  0.00000000000E+00  0.00000000000E+00 -0.52320947881E+03  0.52320947882E+03  0.25500000920E-02 0.  1.
    10030    2    1    2    0    0  0.00000000000E+00  0.00000000000E+00 -0.13401057195E+03  0.91240838568E+03  0.90251328460E+03 0.  0.
        2    1    3    3  502    0  0.30261773370E+03 -0.16470959640E+03  0.22761016684E+03  0.41293235760E+03  0.25500000920E-02 0. -1.
       -2    1    3    3    0  502 -0.30261773370E+03  0.16470959640E+03 -0.36162073879E+03  0.49947602808E+03  0.25500000920E-02 0.  1.
</event>
<event>
 5   0  0.1041727E-02  0.9007039E+03  0.7818609E-02  0.9424702E-01
        2   -1    0    0  501    0  0.00000000000E+00  0.00000000000E+00  0.45157064375E+03  0.45157064376E+03  0.25500000920E-02 0.  1.
       -2   -1    0    0    0  501  0.00000000000E+00  0.00000000000E+00 -0.44913654896E+03  0.44913654897E+03  0.25500000920E-02 0. -1.
    10030    2    1    2    0    0  0.00000000000E+00  0.00000000000E+00  0.24340947901E+01  0.90070719272E+03  0.90070390374E+03 0.  0.
        4    1    3    3  502    0 -0.27294990103E+03  0.17199926888E+03  0.31543129233E+03  0.45120273720E+03  0.12699999809E+01 0.  1.
       -4    1    3    3    0  502  0.27294990103E+03 -0.17199926888E+03 -0.31299719754E+03  0.44950445553E+03  0.12699999809E+01 0. -1.
</event>
<event>
 5   0  0.6288003E-03  0.8680264E+03  0.7818609E-02  0.9466457E-01
       -1   -1    0    0    0  501  0.00000000000E+00  0.00000000000E+00  0.12284520648E+03  0.12284520658E+03  0.50400001928E-02 0. -1.
        1   -1    0    0  501    0  0.00000000000E+00  0.00000000000E+00 -0.15333726306E+04  0.15333726306E+04  0.50400001928E-02 0.  1.
    10030    2    1    2    0    0  0.00000000000E+00  0.00000000000E+00 -0.14105274241E+04  0.16562178372E+04  0.86802644545E+03 0.  0.
        1    1    3    3  502    0 -0.11921535064E+03  0.19550832339E+03 -0.14087324985E+04  0.14272221470E+04  0.50400001928E-02 0.  1.
       -1    1    3    3    0  502  0.11921535064E+03 -0.19550832339E+03 -0.17949255603E+01  0.22899569019E+03  0.50400001928E-02 0. -1.
</event>
<event>
 5   0  0.1017079E-02  0.9217692E+03  0.7818609E-02  0.9398771E-01
       -2   -1    0    0    0  501  0.00000000000E+00  0.00000000000E+00  0.77278320329E+03  0.77278320329E+03  0.25500000920E-02 0. -1.
        2   -1    0    0  501    0  0.00000000000E+00  0.00000000000E+00 -0.27486960915E+03  0.27486960916E+03  0.25500000920E-02 0.  1.
    10030    2    1    2    0    0  0.00000000000E+00  0.00000000000E+00  0.49791359414E+03  0.10476528125E+04  0.92176920551E+03 0.  0.
        1    1    3    3  502    0 -0.91824412126E+02 -0.40606012997E+03  0.47369288748E+03  0.63063579306E+03  0.50400001928E-02 0.  1.
       -1    1    3    3    0  502  0.91824412126E+02  0.40606012997E+03  0.24220706658E+02  0.41701701940E+03  0.50400001928E-02 0. -1.
</event>
<event>
 5   0  0.6092779E-03  0.9027501E+03  0.7818609E-02  0.9422150E-01
        1   -1    0    0  501    0  0.00000000000E+00  0.00000000000E+00  0.19490385375E+03  0.19490385381E+03  0.50400001928E-02 0.  1.
       -1   -1    0    0    0  501  0.00000000000E+00  0.00000000000E+00 -0.10453330587E+04  0.10453330588E+04  0.50400001928E-02 0. -1.
    10030    2    1    2    0    0  0.00000000000E+00  0.00000000000E+00 -0.85042920499E+03  0.12402369126E+04  0.90275011303E+03 0.  0.
        2    1    3    3  502    0  0.30974429848E+03 -0.18660322089E+02 -0.87555376133E+03  0.92891556508E+03  0.25500000920E-02 0. -1.
       -2    1    3    3    0  502 -0.30974429848E+03  0.18660322089E+02  0.25124556333E+02  0.31132134749E+03  0.25500000920E-02 0.  1.
</event>
<event>
 5   0  0.6137243E-03  0.9056390E+03  0.7818609E-02  0.9418560E-01
       -1   -1    0    0    0  501  0.00000000000E+00  0.00000000000E+00  0.46141174746E+03  0.46141174748E+03  0.50400001928E-02 0.  1.
        1   -1    0    0  501    0  0.00000000000E+00  0.00000000000E+00 -0.44438727206E+03  0.44438727209E+03  0.50400001928E-02 0. -1.
    10030    2    1    2    0    0  0.00000000000E+00  0.00000000000E+00  0.17024475399E+02  0.90579901957E+03  0.90563901809E+03 0.  0.
        4    1    3    3  502    0  0.35458499592E+03  0.25212821877E+03 -0.11698796413E+03  0.45054073587E+03  0.12699999809E+01 0.  1.
       -4    1    3    3    0  502 -0.35458499592E+03 -0.25212821877E+03  0.13401243953E+03  0.45525828370E+03  0.12699999809E+01 0. -1.
</event>
<event>
 5   0  0.6288003E-03  0.8991471E+03  0.7818609E-02  0.9426648E-01
        1   -1    0    0  501    0  0.00000000000E+00  0.00000000000E+00  0.51106710165E+03  0.51106710168E+03  0.50400001928E-02 0.  1.
       -1   -1    0    0    0  501  0.00000000000E+00  0.00000000000E+00 -0.39547910241E+03  0.39547910244E+03  0.50400001928E-02 0. -1.
    10030    2    1    2    0    0  0.00000000000E+00  0.00000000000E+00  0.11558799925E+03  0.90654620412E+03  0.89914705951E+03 0.  0.
        1    1    3    3  502    0 -0.37079119356E+03 -0.18148697483E+03 -0.12169549009E+03  0.43038752722E+03  0.50400001928E-02 0. -1.
       -1    1    3    3    0  502  0.37079119356E+03  0.18148697483E+03  0.23728348933E+03  0.47615867690E+03  0.50400001928E-02 0.  1.
</event>
<event>
 5   0  0.6288003E-03  0.9114370E+03  0.7818609E-02  0.9411397E-01
       -1   -1    0    0    0  501  0.00000000000E+00  0.00000000000E+00  0.41984350256E+03  0.41984350259E+03  0.50400001928E-02 0.  1.
        1   -1    0    0  501    0  0.00000000000E+00  0.00000000000E+00 -0.49465892959E+03  0.49465892962E+03  0.50400001928E-02 0. -1.
    10030    2    1    2    0    0  0.00000000000E+00  0.00000000000E+00 -0.74815427029E+02  0.91450243221E+03  0.91143697006E+03 0.  0.
        1    1    3    3  502    0  0.90116944746E+02 -0.32355162395E+03 -0.34645765980E+03  0.48253458648E+03  0.50400001928E-02 0. -1.
       -1    1    3    3    0  502 -0.90116944746E+02  0.32355162395E+03  0.27164223277E+03  0.43196784573E+03  0.50400001928E-02 0.  1.
</event>
<event>
 5   0  0.6288003E-03  0.9032785E+03  0.7818609E-02  0.9421492E-01
       -1   -1    0    0    0  501  0.00000000000E+00  0.00000000000E+00  0.33261358895E+03  0.33261358899E+03  0.50400001928E-02 0.  1.
        1   -1    0    0  501    0  0.00000000000E+00  0.00000000000E+00 -0.61325821145E+03  0.61325821147E+03  0.50400001928E-02 0. -1.
    10030    2    1    2    0    0  0.00000000000E+00  0.00000000000E+00 -0.28064462250E+03  0.94587180046E+03  0.90327850565E+03 0.  0.
        1    1    3    3  502    0 -0.14895380819E+03 -0.29557185473E+03 -0.46210385238E+03  0.56841000052E+03  0.50400001928E-02 0. -1.
       -1    1    3    3    0  502  0.14895380819E+03  0.29557185473E+03  0.18145922988E+03  0.37746179994E+03  0.50400001928E-02 0.  1.
</event>
<event>
 5   0  0.6092779E-03  0.9033605E+03  0.7818609E-02  0.9421390E-01
        1   -1    0    0  501    0  0.00000000000E+00  0.00000000000E+00  0.11016643722E+04  0.11016643723E+04  0.50400001928E-02 0.  1.
       -1   -1    0    0    0  501  0.00000000000E+00  0.00000000000E+00 -0.18518804358E+03  0.18518804365E+03  0.50400001928E-02 0. -1.
    10030    2    1    2    0    0  0.00000000000E+00  0.00000000000E+00  0.91647632867E+03  0.12868524159E+04  0.90336054779E+03 0.  0.
        2    1    3    3  502    0 -0.26156467964E+03  0.27092805958E+03  0.10297330413E+03  0.39041208546E+03  0.25500000920E-02 0. -1.
       -2    1    3    3    0  502  0.26156467964E+03 -0.27092805958E+03  0.81350302454E+03  0.89644033045E+03  0.25500000920E-02 0.  1.
</event>
<event>
 5   0  0.6137243E-03  0.9035314E+03  0.7818609E-02  0.9421178E-01
       -1   -1    0    0    0  501  0.00000000000E+00  0.00000000000E+00  0.20178908203E+03  0.20178908209E+03  0.50400001928E-02 0.  1.
        1   -1    0    0  501    0  0.00000000000E+00  0.00000000000E+00 -0.10114136857E+04  0.10114136857E+04  0.50400001928E-02 0. -1.
    10030    2    1    2    0    0  0.00000000000E+00  0.00000000000E+00 -0.80962460369E+03  0.12132027678E+04  0.90353138128E+03 0.  0.
        4    1    3    3  502    0 -0.17053164641E+03 -0.27902894949E+03  0.13708437329E+02  0.32730372933E+03  0.12699999809E+01 0.  1.
       -4    1    3    3    0  502  0.17053164641E+03  0.27902894949E+03 -0.82333304102E+03  0.88589903850E+03  0.12699999809E+01 0. -1.
</event>
<event>
 5   0  0.1003252E-02  0.8908310E+03  0.7818609E-02  0.9437116E-01
       -2   -1    0    0    0  501  0.00000000000E+00  0.00000000000E+00  0.18047171084E+03  0.18047171086E+03  0.25500000920E-02 0.  1.
        2   -1    0    0  501    0  0.00000000000E+00  0.00000000000E+00 -0.10993134938E+04  0.10993134939E+04  0.25500000920E-02 0. -1.
    10030    2    1    2    0    0  0.00000000000E+00  0.00000000000E+00 -0.91884178301E+03  0.12797852047E+04  0.89083104347E+03 0.  0.
        2    1    3    3  502    0 -0.39799581107E+03 -0.18983277911E+03 -0.54980055352E+03  0.70478209279E+03  0.25500000920E-02 0. -1.
       -2    1    3    3    0  502  0.39799581107E+03  0.18983277911E+03 -0.36904122949E+03  0.57500311193E+03  0.25500000920E-02 0.  1.
</event>
<event>
 5   0  0.6092779E-03  0.9036193E+03  0.7818609E-02  0.9421068E-01
       -1   -1    0    0    0  501  0.00000000000E+00  0.00000000000E+00  0.28901836896E+03  0.28901836900E+03  0.50400001928E-02 0. -1.
        1   -1    0    0  501    0  0.00000000000E+00  0.00000000000E+00 -0.70629410886E+03  0.70629410888E+03  0.50400001928E-02 0.  1.
    10030    2    1    2    0    0  0.00000000000E+00  0.00000000000E+00 -0.41727573991E+03  0.99531247788E+03  0.90361932555E+03 0.  0.
        2    1    3    3  502    0 -0.38001586547E+03  0.14979124129E+03 -0.42131776448E+03  0.58682035807E+03  0.25500000920E-02 0.  1.
       -2    1    3    3    0  502  0.38001586547E+03 -0.14979124129E+03  0.40420245673E+01  0.40849211981E+03  0.25500000920E-02 0. -1.
</event>
<event>
 5   0  0.6211218E-03  0.9012692E+03  0.7818609E-02  0.9423996E-01
       -1   -1    0    0    0  501  0.00000000000E+00  0.00000000000E+00  0.16547508323E+03  0.16547508330E+03  0.50400001928E-02 0.  1.
        1   -1    0    0  501    0  0.00000000000E+00  0.00000000000E+00 -0.12272030279E+04  0.12272030279E+04  0.50400001928E-02 0. -1.
    10030    2    1    2    0    0  0.00000000000E+00  0.00000000000E+00 -0.10617279447E+04  0.13926781112E+04  0.90126915678E+03 0.  0.
        5    1    3    3  502    0 -0.23379841926E+03  0.16645208148E+03 -0.10676688795E+04  0.11055799033E+04  0.46999998093E+01 0. -1.
       -5    1    3    3    0  502  0.23379841926E+03 -0.16645208148E+03  0.59409348631E+01  0.28709820790E+03  0.46999998093E+01 0.  1.
</event>
<event>
 5   0  0.1017079E-02  0.9067106E+03  0.7818609E-02  0.9417232E-01
        2   -1    0    0  501    0  0.00000000000E+00  0.00000000000E+00  0.78301014478E+03  0.78301014479E+03  0.25500000920E-02 0.  1.
       -2   -1    0    0    0  501  0.00000000000E+00  0.00000000000E+00 -0.26248831467E+03  0.26248831468E+03  0.25500000920E-02 0. -1.
    10030    2    1    2    0    0  0.00000000000E+00  0.00000000000E+00  0.52052183012E+03  0.10454984595E+04  0.90671056745E+03 0.  0.
        1    1    3    3  502    0  0.14581113071E+03 -0.14344555903E+03  0.72678109653E+03  0.75501541478E+03  0.50400001928E-02 0.  1.
       -1    1    3    3    0  502 -0.14581113071E+03  0.14344555903E+03 -0.20625926642E+03  0.29048304469E+03  0.50400001928E-02 0. -1.
</event>
<event>
 5   0  0.1017079E-02  0.9043006E+03  0.7818609E-02  0.9420221E-01
       -2   -1    0    0    0  501  0.00000000000E+00  0.00000000000E+00  0.23448498815E+03  0.23448498816E+03  0.25500000920E-02 0.  1.
        2   -1    0    0  501    0  0.00000000000E+00  0.00000000000E+00 -0.87186776806E+03  0.87186776806E+03  0.25500000920E-02 0. -1.
    10030    2    1    2    0    0  0.00000000000E+00  0.00000000000E+00 -0.63738277991E+03  0.11063527562E+04  0.90430062096E+03 0.  0.
        1    1    3    3  502    0 -0.38441431448E+02 -0.89481839325E+02  0.22150062511E+03  0.24196543177E+03  0.50400001928E-02 0.  1.
       -1    1    3    3    0  502  0.38441431448E+02  0.89481839325E+02 -0.85888340503E+03  0.86438732445E+03  0.50400001928E-02 0. -1.
</event>
<event>
 5   0  0.1003252E-02  0.8910940E+03  0.7818609E-02  0.9436783E-01
        2   -1    0    0  501    0  0.00000000000E+00  0.00000000000E+00  0.68446392698E+03  0.68446392699E+03  0.25500000920E-02 0.  1.
       -2   -1    0    0    0  501  0.00000000000E+00  0.00000000000E+00 -0.29002566781E+03  0.29002566782E+03  0.25500000920E-02 0. -1.
    10030    2    1    2    0    0  0.00000000000E+00  0.00000000000E+00  0.39443825917E+03  0.97448959481E+03  0.89109395133E+03 0.  0.
        2    1    3    3  502    0 -0.17995860604E+03 -0.82294025131E+02 -0.23933303958E+03  0.31054421634E+03  0.25500000920E-02 0. -1.
       -2    1    3    3    0  502  0.17995860604E+03  0.82294025131E+02  0.63377129876E+03  0.66394537847E+03  0.25500000920E-02 0.  1.
</event>
<event>
 5   0  0.1033749E-02  0.9012092E+03  0.7818609E-02  0.9424071E-01
       -2   -1    0    0    0  501  0.00000000000E+00  0.00000000000E+00  0.11049487230E+03  0.11049487233E+03  0.25500000920E-02 0.  1.
        2   -1    0    0  501    0  0.00000000000E+00  0.00000000000E+00 -0.18375920858E+04  0.18375920858E+04  0.25500000920E-02 0. -1.
    10030    2    1    2    0    0  0.00000000000E+00  0.00000000000E+00 -0.17270972135E+04  0.19480869581E+04  0.90120919411E+03 0.  0.
        5    1    3    3  502    0  0.21671822663E+03 -0.21832707423E+03 -0.15188435132E+03  0.34310996382E+03  0.46999998093E+01 0.  1.
       -5    1    3    3    0  502 -0.21671822663E+03  0.21832707423E+03 -0.15752128621E+04  0.16049769943E+04  0.46999998093E+01 0. -1.
</event>
<event>
 5   0  0.6137243E-03  0.9010610E+03  0.7818609E-02  0.9424256E-01
        1   -1    0    0  501    0  0.00000000000E+00  0.00000000000E+00  0.55645473459E+03  0.55645473461E+03  0.50400001928E-02 0.  1.
       -1   -1    0    0    0  501  0.00000000000E+00  0.00000000000E+00 -0.36476954124E+03  0.36476954128E+03  0.50400001928E-02 0. -1.
    10030    2    1    2    0    0  0.00000000000E+00  0.00000000000E+00  0.19168519335E+03  0.92122427589E+03  0.90106101522E+03 0.  0.
        4    1    3    3  502    0  0.19329203089E+03 -0.17156410899E+03 -0.28144102688E+03  0.38210825326E+03  0.12699999809E+01 0. -1.
       -4    1    3    3    0  502 -0.19329203089E+03  0.17156410899E+03  0.47312622022E+03  0.53911602263E+03  0.12699999809E+01 0.  1.
</event>
<event>
 5   0  0.1017079E-02  0.8913748E+03  0.7818609E-02  0.9436428E-01
        2   -1    0    0  501    0  0.00000000000E+00  0.00000000000E+00  0.71193401287E+03  0.71193401288E+03  0.25500000920E-02 0. -1.
       -2   -1    0    0    0  501  0.00000000000E+00  0.00000000000E+00 -0.27901078184E+03  0.27901078185E+03  0.25500000920E-02 0.  1.
    10030    2    1    2    0    0  0.00000000000E+00  0.00000000000E+00  0.43292323103E+03  0.99094479473E+03  0.89137481579E+03 0.  0.
        1    1    3    3  502    0  0.29550746786E+03 -0.32389951283E+03  0.30540978532E+03  0.53433200818E+03  0.50400001928E-02 0. -1.
       -1    1    3    3    0  502 -0.29550746786E+03  0.32389951283E+03  0.12751344571E+03  0.45661278654E+03  0.50400001928E-02 0.  1.
</event>
<event>
 5   0  0.6288003E-03  0.8981199E+03  0.7818609E-02  0.9427935E-01
        1   -1    0    0  501    0  0.00000000000E+00  0.00000000000E+00  0.26378971119E+03  0.26378971124E+03  0.50400001928E-02 0.  1.
       -1   -1    0    0    0  501  0.00000000000E+00  0.00000000000E+00 -0.76445305766E+03  0.76445305767E+03  0.50400001928E-02 0. -1.
    10030    2    1    2    0    0  0.00000000000E+00  0.00000000000E+00 -0.50066334647E+03  0.10282427689E+04  0.89811992814E+03 0.  0.
        1    1    3    3  502    0 -0.12431739865E+03 -0.30720567427E+03  0.96597732631E+02  0.34519742741E+03  0.50400001928E-02 0.  1.
       -1    1    3    3    0  502  0.12431739865E+03  0.30720567427E+03 -0.59726107910E+03  0.68304534150E+03  0.50400001928E-02 0. -1.
</event>
<event>
 5   0  0.3996375E-03  0.9065876E+03  0.7818609E-02  0.9417384E-01
       -4   -1    0    0    0  501  0.00000000000E+00  0.00000000000E+00  0.49012704828E+03  0.49012869367E+03  0.12699999809E+01 0.  1.
        4   -1    0    0  501    0  0.00000000000E+00  0.00000000000E+00 -0.41922531944E+03  0.41922724311E+03  0.12699999809E+01 0. -1.
    10030    2    1    2    0    0  0.00000000000E+00  0.00000000000E+00  0.70901728838E+02  0.90935593677E+03  0.90658764860E+03 0.  0.
        5    1    3    3  502    0 -0.26265914274E+03  0.20859412733E+03 -0.27036017909E+03  0.43083413474E+03  0.46999998093E+01 0. -1.
       -5    1    3    3    0  502  0.26265914274E+03 -0.20859412733E+03  0.34126190793E+03  0.47852180203E+03  0.46999998093E+01 0.  1.
</event>
<event>
 5   0  0.6288003E-03  0.8998827E+03  0.7818609E-02  0.9425728E-01
       -1   -1    0    0    0  501  0.00000000000E+00  0.00000000000E+00  0.48680570328E+03  0.48680570331E+03  0.50400001928E-02 0. -1.
        1   -1    0    0  501    0  0.00000000000E+00  0.00000000000E+00 -0.41586859436E+03  0.41586859439E+03  0.50400001928E-02 0.  1.
    10030    2    1    2    0    0  0.00000000000E+00  0.00000000000E+00  0.70937108921E+02  0.90267429770E+03  0.89988266697E+03 0.  0.
        1    1    3    3  502    0 -0.57534139943E+02 -0.90739402404E+02 -0.40281180281E+03  0.41689466885E+03  0.50400001928E-02 0.  1.
       -1    1    3    3    0  502  0.57534139943E+02  0.90739402404E+02  0.47374891174E+03  0.48577962885E+03  0.50400001928E-02 0. -1.
</event>
<event>
 5   0  0.6211218E-03  0.9013317E+03  0.7818609E-02  0.9423918E-01
       -1   -1    0    0    0  501  0.00000000000E+00  0.00000000000E+00  0.11887461128E+04  0.11887461128E+04  0.50400001928E-02 0. -1.
        1   -1    0    0  501    0  0.00000000000E+00  0.00000000000E+00 -0.17085204899E+03  0.17085204907E+03  0.50400001928E-02 0.  1.
    10030    2    1    2    0    0  0.00000000000E+00  0.00000000000E+00  0.10178940638E+04  0.13595981619E+04  0.90133170180E+03 0.  0.
        5    1    3    3  502    0 -0.43840140272E+03 -0.66196606540E+02  0.38733481463E+03  0.58875133057E+03  0.46999998093E+01 0. -1.
       -5    1    3    3    0  502  0.43840140272E+03  0.66196606540E+02  0.63055924919E+03  0.77084683133E+03  0.46999998093E+01 0.  1.
</event>
<event>
 5   0  0.6092779E-03  0.8575464E+03  0.7818609E-02  0.9480264E-01
       -1   -1    0    0    0  501  0.00000000000E+00  0.00000000000E+00  0.81237228893E+02  0.81237229049E+02  0.50400001928E-02 0. -1.
        1   -1    0    0  501    0  0.00000000000E+00  0.00000000000E+00 -0.22630812133E+04  0.22630812133E+04  0.50400001928E-02 0.  1.
    10030    2    1    2    0    0  0.00000000000E+00  0.00000000000E+00 -0.21818439844E+04  0.23443184424E+04  0.85754637594E+03 0.  0.
        2    1    3    3  502    0  0.35979872119E+03  0.19116633693E+03 -0.14561286300E+04  0.15120549842E+04  0.25500000920E-02 0.  1.
       -2    1    3    3    0  502 -0.35979872119E+03 -0.19116633693E+03 -0.72571535440E+03  0.83226345814E+03  0.25500000920E-02 0. -1.
</event>
<event>
 5   0  0.1017079E-02  0.9035919E+03  0.7818609E-02  0.9421102E-01
       -2   -1    0    0    0  501  0.00000000000E+00  0.00000000000E+00  0.42105228778E+03  0.42105228779E+03  0.25500000920E-02 0. -1.
        2   -1    0    0  501    0  0.00000000000E+00  0.00000000000E+00 -0.48478440887E+03  0.48478440887E+03  0.25500000920E-02 0.  1.
    10030    2    1    2    0    0  0.00000000000E+00  0.00000000000E+00 -0.63732121089E+02  0.90583669666E+03  0.90359190886E+03 0.  0.
        1    1    3    3  502    0  0.20411785287E+03 -0.10628943881E+03 -0.42162241602E+03  0.48034050879E+03  0.50400001928E-02 0.  1.
       -1    1    3    3    0  502 -0.20411785287E+03  0.10628943881E+03  0.35789029494E+03  0.42549618787E+03  0.50400001928E-02 0. -1.
</event>
<event>
 5   0  0.1028978E-02  0.8926474E+03  0.7818609E-02  0.9434819E-01
       -2   -1    0    0    0  501  0.00000000000E+00  0.00000000000E+00  0.16509697580E+03  0.16509697582E+03  0.25500000920E-02 0.  1.
        2   -1    0    0  501    0  0.00000000000E+00  0.00000000000E+00 -0.12065929370E+04  0.12065929370E+04  0.25500000920E-02 0. -1.
    10030    2    1    2    0    0  0.00000000000E+00  0.00000000000E+00 -0.10414959612E+04  0.13716899128E+04  0.89264739943E+03 0.  0.
        3    1    3    3  502    0 -0.76018772318E+02 -0.21314205274E+03  0.70407396846E+02  0.23699282715E+03  0.10100000352E+00 0.  1.
       -3    1    3    3    0  502  0.76018772318E+02  0.21314205274E+03 -0.11119033580E+04  0.11346970856E+04  0.10100000352E+00 0. -1.
</event>
<event>
 5   0  0.6288003E-03  0.8948478E+03  0.7818609E-02  0.9432045E-01
        1   -1    0    0  501    0  0.00000000000E+00  0.00000000000E+00  0.32543130018E+04  0.32543130018E+04  0.50400001928E-02 0. -1.
       -1   -1    0    0    0  501  0.00000000000E+00  0.00000000000E+00 -0.61514711763E+02  0.61514711969E+02  0.50400001928E-02 0.  1.
    10030    2    1    2    0    0  0.00000000000E+00  0.00000000000E+00  0.31927982900E+04  0.33158277138E+04  0.89484775608E+03 0.  0.
        1    1    3    3  502    0 -0.32164720578E+03 -0.30210248572E+03  0.18703353277E+04  0.19216859980E+04  0.50400001928E-02 0.  1.
       -1    1    3    3    0  502  0.32164720578E+03  0.30210248572E+03  0.13224629623E+04  0.13941417158E+04  0.50400001928E-02 0. -1.
</event>
<event>
 5   0  0.6092779E-03  0.8965878E+03  0.7818609E-02  0.9429857E-01
        1   -1    0    0  501    0  0.00000000000E+00  0.00000000000E+00  0.43546876547E+03  0.43546876550E+03  0.50400001928E-02 0. -1.
       -1   -1    0    0    0  501  0.00000000000E+00  0.00000000000E+00 -0.46149672541E+03  0.46149672544E+03  0.50400001928E-02 0.  1.
    10030    2    1    2    0    0  0.00000000000E+00  0.00000000000E+00 -0.26027959938E+02  0.89696549094E+03  0.89658777442E+03 0.  0.
        2    1    3    3  502    0 -0.33431989468E+03  0.23186757233E+03 -0.20133527145E+03  0.45394741393E+03  0.25500000920E-02 0.  1.
       -2    1    3    3    0  502  0.33431989468E+03 -0.23186757233E+03  0.17530731152E+03  0.44301807701E+03  0.25500000920E-02 0. -1.
</event>
<event>
 5   0  0.3996375E-03  0.9084145E+03  0.7818609E-02  0.9415124E-01
       -3   -1    0    0    0  501  0.00000000000E+00  0.00000000000E+00  0.64750381170E+03  0.64750381958E+03  0.10100000352E+00 0.  1.
        3   -1    0    0  501    0  0.00000000000E+00  0.00000000000E+00 -0.31861464431E+03  0.31861466032E+03  0.10100000352E+00 0. -1.
    10030    2    1    2    0    0  0.00000000000E+00  0.00000000000E+00  0.32888916739E+03  0.96611847990E+03  0.90841446090E+03 0.  0.
        1    1    3    3  502    0 -0.27586224472E+03 -0.29759466710E+03 -0.52580676188E+02  0.40917880136E+03  0.50400001928E-02 0. -1.
       -1    1    3    3    0  502  0.27586224472E+03  0.29759466710E+03  0.38146984358E+03  0.55693967854E+03  0.50400001928E-02 0.  1.
</event>
<event>
 5   0  0.6137243E-03  0.9014059E+03  0.7818609E-02  0.9423826E-01
       -1   -1    0    0    0  501  0.00000000000E+00  0.00000000000E+00  0.62948851276E+03  0.62948851278E+03  0.50400001928E-02 0. -1.
        1   -1    0    0  501    0  0.00000000000E+00  0.00000000000E+00 -0.32269554605E+03  0.32269554609E+03  0.50400001928E-02 0.  1.
    10030    2    1    2    0    0  0.00000000000E+00  0.00000000000E+00  0.30679296671E+03  0.95218405886E+03  0.90140587836E+03 0.  0.
        4    1    3    3  502    0 -0.19849416896E+03 -0.34003082334E+02 -0.27252339693E+03  0.33886097370E+03  0.12699999809E+01 0.  1.
       -4    1    3    3    0  502  0.19849416896E+03  0.34003082334E+02  0.57931636364E+03  0.61332308517E+03  0.12699999809E+01 0. -1.
</event>
<event>
 5   0  0.6092779E-03  0.9049470E+03  0.7818609E-02  0.9419418E-01
       -1   -1    0    0    0  501  0.00000000000E+00  0.00000000000E+00  0.25259964397E+03  0.25259964402E+03  0.50400001928E-02 0. -1.
        1   -1    0    0  501    0  0.00000000000E+00  0.00000000000E+00 -0.81050100802E+03  0.81050100803E+03  0.50400001928E-02 0.  1.
    10030    2    1    2    0    0  0.00000000000E+00  0.00000000000E+00 -0.55790136404E+03  0.10631006521E+04  0.90494699535E+03 0.  0.
        2    1    3    3  502    0 -0.27360200234E+03  0.16440434635E+03  0.97791043813E+02  0.33384117936E+03  0.25500000920E-02 0. -1.
       -2    1    3    3    0  502  0.27360200234E+03 -0.16440434635E+03 -0.65569240786E+03  0.72925947269E+03  0.25500000920E-02 0.  1.
</event>
<event>
 5   0  0.6015709E-03  0.7564883E+03  0.7818609E-02  0.9625226E-01
        1   -1    0    0  501    0  0.00000000000E+00  0.00000000000E+00  0.31982788214E+03  0.31982788218E+03  0.50400001928E-02 0. -1.
       -1   -1    0    0    0  501  0.00000000000E+00  0.00000000000E+00 -0.44733013897E+03  0.44733013900E+03  0.50400001928E-02 0.  1.
    10030    2    1    2    0    0  0.00000000000E+00  0.00000000000E+00 -0.12750225683E+03  0.76715802118E+03  0.75648833697E+03 0.  0.
        3    1    3    3  502    0  0.17026677616E+03 -0.20284998745E+03 -0.33761513083E+03  0.42909541974E+03  0.10100000352E+00 0.  1.
       -3    1    3    3    0  502 -0.17026677616E+03  0.20284998745E+03  0.21011287400E+03  0.33806260145E+03  0.10100000352E+00 0. -1.
</event>
<event>
 5   0  0.1017079E-02  0.9006047E+03  0.7818609E-02  0.9424826E-01
       -2   -1    0    0    0  501  0.00000000000E+00  0.00000000000E+00  0.42070126418E+03  0.42070126419E+03  0.25500000920E-02 0. -1.
        2   -1    0    0  501    0  0.00000000000E+00  0.00000000000E+00 -0.48198616860E+03  0.48198616861E+03  0.25500000920E-02 0.  1.
    10030    2    1    2    0    0  0.00000000000E+00  0.00000000000E+00 -0.61284904416E+02  0.90268743280E+03  0.90060466456E+03 0.  0.
        1    1    3    3  502    0  0.17153320609E+03  0.21676510253E+03 -0.38693807539E+03  0.47553320040E+03  0.50400001928E-02 0.  1.
       -1    1    3    3    0  502 -0.17153320609E+03 -0.21676510253E+03  0.32565317098E+03  0.42715423240E+03  0.50400001928E-02 0. -1.
</event>
<event>
 5   0  0.6211218E-03  0.8914750E+03  0.7818609E-02  0.9436301E-01
        1   -1    0    0  501    0  0.00000000000E+00  0.00000000000E+00  0.68356066347E+03  0.68356066349E+03  0.50400001928E-02 0.  1.
       -1   -1    0    0    0  501  0.00000000000E+00  0.00000000000E+00 -0.29065734193E+03  0.29065734197E+03  0.50400001928E-02 0. -1.
    10030    2    1    2    0    0  0.00000000000E+00  0.00000000000E+00  0.39290332154E+03  0.97421800546E+03  0.89147501484E+03 0.  0.
        5    1    3    3  502    0 -0.38008547107E+03  0.16063352532E+03  0.12313845346E+02  0.41284599497E+03  0.46999998093E+01 0. -1.
       -5    1    3    3    0  502  0.38008547107E+03 -0.16063352532E+03  0.38058947620E+03  0.56137201049E+03  0.46999998093E+01 0.  1.
</event>
<event>
 5   0  0.1003252E-02  0.9251128E+03  0.7818609E-02  0.9394722E-01
       -2   -1    0    0    0  501  0.00000000000E+00  0.00000000000E+00  0.31976124050E+03  0.31976124051E+03  0.25500000920E-02 0. -1.
        2   -1    0    0  501    0  0.00000000000E+00  0.00000000000E+00 -0.66911926837E+03  0.66911926837E+03  0.25500000920E-02 0.  1.
    10030    2    1    2    0    0  0.00000000000E+00  0.00000000000E+00 -0.34935802787E+03  0.98888050888E+03  0.92511276568E+03 0.  0.
        2    1    3    3  502    0 -0.34857578758E+02 -0.32638425456E+03 -0.52305282045E+03  0.61751597988E+03  0.25500000920E-02 0.  1.
       -2    1    3    3    0  502  0.34857578758E+02  0.32638425456E+03  0.17369479258E+03  0.37136452900E+03  0.25500000920E-02 0. -1.
</event>
<event>
 5   0  0.6092779E-03  0.8343603E+03  0.7818609E-02  0.9511572E-01
       -1   -1    0    0    0  501  0.00000000000E+00  0.00000000000E+00  0.36632469713E+03  0.36632469717E+03  0.50400001928E-02 0.  1.
        1   -1    0    0  501    0  0.00000000000E+00  0.00000000000E+00 -0.47509563490E+03  0.47509563492E+03  0.50400001928E-02 0. -1.
    10030    2    1    2    0    0  0.00000000000E+00  0.00000000000E+00 -0.10877093776E+03  0.84142033209E+03  0.83436026892E+03 0.  0.
        2    1    3    3  502    0  0.15680372845E+03 -0.37267913575E+03 -0.15802725189E+03  0.43410800479E+03  0.25500000920E-02 0. -1.
       -2    1    3    3    0  502 -0.15680372845E+03  0.37267913575E+03  0.49256314127E+02  0.40731232730E+03  0.25500000920E-02 0.  1.
</event>
<event>
 5   0  0.1028978E-02  0.9002668E+03  0.7818609E-02  0.9425248E-01
        2   -1    0    0  501    0  0.00000000000E+00  0.00000000000E+00  0.16602141500E+04  0.16602141500E+04  0.25500000920E-02 0.  1.
       -2   -1    0    0    0  501  0.00000000000E+00  0.00000000000E+00 -0.12204455664E+03  0.12204455667E+03  0.25500000920E-02 0. -1.
    10030    2    1    2    0    0  0.00000000000E+00  0.00000000000E+00  0.15381695934E+04  0.17822587067E+04  0.90026684909E+03 0.  0.
        3    1    3    3  502    0  0.13114016490E+03  0.17520904340E+03  0.15477997649E+04  0.15631954689E+04  0.10100000352E+00 0.  1.
       -3    1    3    3    0  502 -0.13114016490E+03 -0.17520904340E+03 -0.96301714757E+01  0.21906323778E+03  0.10100000352E+00 0. -1.
</event>
<event>
 5   0  0.6288003E-03  0.9060647E+03  0.7818609E-02  0.9418032E-01
        1   -1    0    0  501    0  0.00000000000E+00  0.00000000000E+00  0.10144025918E+04  0.10144025918E+04  0.50400001928E-02 0. -1.
       -1   -1    0    0    0  501  0.00000000000E+00  0.00000000000E+00 -0.20232431373E+03  0.20232431379E+03  0.50400001928E-02 0.  1.
    10030    2    1    2    0    0  0.00000000000E+00  0.00000000000E+00  0.81207827808E+03  0.12167269056E+04  0.90606469588E+03 0.  0.
        1    1    3    3  502    0  0.14326820451E+03  0.31742278754E+03  0.79513621910E+03  0.86805795395E+03  0.50400001928E-02 0. -1.
       -1    1    3    3    0  502 -0.14326820451E+03 -0.31742278754E+03  0.16942058987E+02  0.34866895167E+03  0.50400001928E-02 0.  1.
</event>
<event>
 5   0  0.1028978E-02  0.9000972E+03  0.7818609E-02  0.9425460E-01
       -2   -1    0    0    0  501  0.00000000000E+00  0.00000000000E+00  0.25307351266E+03  0.25307351268E+03  0.25500000920E-02 0.  1.
        2   -1    0    0  501    0  0.00000000000E+00  0.00000000000E+00 -0.80033556762E+03  0.80033556762E+03  0.25500000920E-02 0. -1.
    10030    2    1    2    0    0  0.00000000000E+00  0.00000000000E+00 -0.54726205496E+03  0.10534090803E+04  0.90009718012E+03 0.  0.
        3    1    3    3  502    0  0.11077693026E+03 -0.77783730157E+02 -0.77594848153E+03  0.78766610512E+03  0.10100000352E+00 0. -1.
       -3    1    3    3    0  502 -0.11077693026E+03  0.77783730157E+02  0.22868642658E+03  0.26574297518E+03  0.10100000352E+00 0.  1.
</event>
<event>
 5   0  0.6015709E-03  0.8494629E+03  0.7818609E-02  0.9491058E-01
        1   -1    0    0  501    0  0.00000000000E+00  0.00000000000E+00  0.20682426578E+04  0.20682426578E+04  0.50400001928E-02 0.  1.
       -1   -1    0    0    0  501  0.00000000000E+00  0.00000000000E+00 -0.87222261679E+02  0.87222261825E+02  0.50400001928E-02 0. -1.
    10030    2    1    2    0    0  0.00000000000E+00  0.00000000000E+00  0.19810203961E+04  0.21554649196E+04  0.84946289495E+03 0.  0.
        3    1    3    3  502    0  0.20387590251E+03  0.18929484780E+03  0.18048633359E+04  0.18261789602E+04  0.10100000352E+00 0.  1.
       -3    1    3    3    0  502 -0.20387590251E+03 -0.18929484780E+03  0.17615706018E+03  0.32928595944E+03  0.10100000352E+00 0. -1.
</event>
<event>
 5   0  0.6211218E-03  0.9391325E+03  0.7818609E-02  0.9377944E-01
        1   -1    0    0  501    0  0.00000000000E+00  0.00000000000E+00  0.73579365596E+03  0.73579365597E+03  0.50400001928E-02 0.  1.
       -1   -1    0    0    0  501  0.00000000000E+00  0.00000000000E+00 -0.29966617636E+03  0.29966617641E+03  0.50400001928E-02 0. -1.
    10030    2    1    2    0    0  0.00000000000E+00  0.00000000000E+00  0.43612747959E+03  0.10354598324E+04  0.93913251781E+03 0.  0.
        5    1    3    3  502    0  0.36357007030E+03  0.29081772411E+03  0.15088618129E+03  0.48943526066E+03  0.46999998093E+01 0.  1.
       -5    1    3    3    0  502 -0.36357007030E+03 -0.29081772411E+03  0.28524129830E+03  0.54602457172E+03  0.46999998093E+01 0. -1.
</event>
<event>
 5   0  0.6015709E-03  0.8907493E+03  0.7818609E-02  0.9437220E-01
       -1   -1    0    0    0  501  0.00000000000E+00  0.00000000000E+00  0.33128917671E+03  0.33128917675E+03  0.50400001928E-02 0. -1.
        1   -1    0    0  501    0  0.00000000000E+00  0.00000000000E+00 -0.59874753097E+03  0.59874753099E+03  0.50400001928E-02 0.  1.
    10030    2    1    2    0    0  0.00000000000E+00  0.00000000000E+00 -0.26745835426E+03  0.93003670774E+03  0.89074929497E+03 0.  0.
        3    1    3    3  502    0 -0.36198943132E+03 -0.42720797468E+02  0.13348273156E+03  0.38817401349E+03  0.10100000352E+00 0. -1.
       -3    1    3    3    0  502  0.36198943132E+03  0.42720797468E+02 -0.40094108582E+03  0.54186269425E+03  0.10100000352E+00 0.  1.
</event>
<event>
 5   0  0.1033749E-02  0.9105504E+03  0.7818609E-02  0.9412488E-01
       -2   -1    0    0    0  501  0.00000000000E+00  0.00000000000E+00  0.14743538085E+03  0.14743538087E+03  0.25500000920E-02 0. -1.
        2   -1    0    0  501    0  0.00000000000E+00  0.00000000000E+00 -0.14058735376E+04  0.14058735376E+04  0.25500000920E-02 0.  1.
    10030    2    1    2    0    0  0.00000000000E+00  0.00000000000E+00 -0.12584381568E+04  0.15533089185E+04  0.91055038404E+03 0.  0.
        5    1    3    3  502    0 -0.67002693898E+02  0.17984912794E+03 -0.13334450215E+04  0.13471944125E+04  0.46999998093E+01 0.  1.
       -5    1    3    3    0  502  0.67002693898E+02 -0.17984912794E+03  0.75006864731E+02  0.20611450596E+03  0.46999998093E+01 0. -1.
</event>
<event>
 5   0  0.1017079E-02  0.9057678E+03  0.7818609E-02  0.9418400E-01
        2   -1    0    0  501    0  0.00000000000E+00  0.00000000000E+00  0.67621358910E+03  0.67621358911E+03  0.25500000920E-02 0.  1.
       -2   -1    0    0    0  501  0.00000000000E+00  0.00000000000E+00 -0.30331217824E+03  0.30331217825E+03  0.25500000920E-02 0. -1.
    10030    2    1    2    0    0  0.00000000000E+00  0.00000000000E+00  0.37290141086E+03  0.97952576736E+03  0.90576777747E+03 0.  0.
        1    1    3    3  502    0  0.83523439692E+02  0.20656615932E+03  0.61283935870E+03  0.65208728155E+03  0.50400001928E-02 0.  1.
       -1    1    3    3    0  502 -0.83523439692E+02 -0.20656615932E+03 -0.23993794784E+03  0.32743848581E+03  0.50400001928E-02 0. -1.
</event>
<event>
 5   0  0.1017079E-02  0.9001825E+03  0.7818609E-02  0.9425353E-01
        2   -1    0    0  501    0  0.00000000000E+00  0.00000000000E+00  0.21084294330E+04  0.21084294330E+04  0.25500000920E-02 0.  1.
       -2   -1    0    0    0  501  0.00000000000E+00  0.00000000000E+00 -0.96082015732E+02  0.96082015765E+02  0.25500000920E-02 0. -1.
    10030    2    1    2    0    0  0.00000000000E+00  0.00000000000E+00  0.20123474173E+04  0.22045114488E+04  0.90018253702E+03 0.  0.
        1    1    3    3  502    0  0.21512671485E+03 -0.34600409600E+03  0.53776360562E+03  0.67467624343E+03  0.50400001928E-02 0. -1.
       -1    1    3    3    0  502 -0.21512671485E+03  0.34600409600E+03  0.14745838117E+04  0.15298352053E+04  0.50400001928E-02 0.  1.
</event>
<event>
 5   0  0.6092779E-03  0.8934582E+03  0.7818609E-02  0.9433796E-01
       -1   -1    0    0    0  501  0.00000000000E+00  0.00000000000E+00  0.29168358713E+03  0.29168358717E+03  0.50400001928E-02 0.  1.
        1   -1    0    0  501    0  0.00000000000E+00  0.00000000000E+00 -0.68418971606E+03  0.68418971608E+03  0.50400001928E-02 0. -1.
    10030    2    1    2    0    0  0.00000000000E+00  0.00000000000E+00 -0.39250612893E+03  0.97587330325E+03  0.89345824903E+03 0.  0.
        2    1    3    3  502    0 -0.16889446578E+03 -0.38047522245E+03 -0.37331830044E+03  0.55915408335E+03  0.25500000920E-02 0. -1.
       -2    1    3    3    0  502  0.16889446578E+03  0.38047522245E+03 -0.19187828488E+02  0.41671921991E+03  0.25500000920E-02 0.  1.
</event>
<event>
 5   0  0.3996375E-03  0.8927162E+03  0.7818609E-02  0.9434733E-01
       -4   -1    0    0    0  501  0.00000000000E+00  0.00000000000E+00  0.60323362365E+03  0.60323496052E+03  0.12699999809E+01 0.  1.
        4   -1    0    0  501    0  0.00000000000E+00  0.00000000000E+00 -0.33027630563E+03  0.33027874736E+03  0.12699999809E+01 0. -1.
    10030    2    1    2    0    0  0.00000000000E+00  0.00000000000E+00  0.27295731802E+03  0.93351370789E+03  0.89271616170E+03 0.  0.
        4    1    3    3  502    0 -0.32082232621E+03  0.22157868333E+03 -0.90729326980E+02  0.40032174757E+03  0.12699999809E+01 0. -1.
       -4    1    3    3    0  502  0.32082232621E+03 -0.22157868333E+03  0.36368664500E+03  0.53319196032E+03  0.12699999809E+01 0.  1.
</event>
<event>
 5   0  0.1003252E-02  0.8981862E+03  0.7818609E-02  0.9427852E-01
       -2   -1    0    0    0  501  0.00000000000E+00  0.00000000000E+00  0.39735972280E+03  0.39735972281E+03  0.25500000920E-02 0.  1.
        2   -1    0    0  501    0  0.00000000000E+00  0.00000000000E+00 -0.50756179021E+03  0.50756179022E+03  0.25500000920E-02 0. -1.
    10030    2    1    2    0    0  0.00000000000E+00  0.00000000000E+00 -0.11020206741E+03  0.90492151303E+03  0.89818619956E+03 0.  0.
        2    1    3    3  502    0 -0.41178786522E+03  0.17855039686E+03 -0.70549709718E+02  0.45434210866E+03  0.25500000920E-02 0.  1.
       -2    1    3    3    0  502  0.41178786522E+03 -0.17855039686E+03 -0.39652357692E+02  0.45057940436E+03  0.25500000920E-02 0. -1.
</event>
<event>
 5   0  0.6211218E-03  0.9040914E+03  0.7818609E-02  0.9420481E-01
       -1   -1    0    0    0  501  0.00000000000E+00  0.00000000000E+00  0.17843533245E+03  0.17843533252E+03  0.50400001928E-02 0.  1.
        1   -1    0    0  501    0  0.00000000000E+00  0.00000000000E+00 -0.11452065747E+04  0.11452065747E+04  0.50400001928E-02 0. -1.
    10030    2    1    2    0    0  0.00000000000E+00  0.00000000000E+00 -0.96677124227E+03  0.13236419072E+04  0.90409140232E+03 0.  0.
        5    1    3    3  502    0  0.32834112863E+03 -0.15246094163E+03 -0.87968573821E+03  0.95127352716E+03  0.46999998093E+01 0. -1.
       -5    1    3    3    0  502 -0.32834112863E+03  0.15246094163E+03 -0.87085504055E+02  0.37236838009E+03  0.46999998093E+01 0.  1.
</event>
<event>
 5   0  0.6137243E-03  0.9004547E+03  0.7818609E-02  0.9425013E-01
       -1   -1    0    0    0  501  0.00000000000E+00  0.00000000000E+00  0.40298521250E+03  0.40298521254E+03  0.50400001928E-02 0. -1.
        1   -1    0    0  501    0  0.00000000000E+00  0.00000000000E+00 -0.50300775933E+03  0.50300775935E+03  0.50400001928E-02 0.  1.
    10030    2    1    2    0    0  0.00000000000E+00  0.00000000000E+00 -0.10002254683E+03  0.90599297189E+03  0.90045474913E+03 0.  0.
        4    1    3    3  502    0  0.12522081576E+03 -0.13910528421E+03  0.36198559167E+03  0.40751161243E+03  0.12699999809E+01 0. -1.
       -4    1    3    3    0  502 -0.12522081576E+03  0.13910528421E+03 -0.46200813849E+03  0.49848135946E+03  0.12699999809E+01 0.  1.
</event>
<event>
 5   0  0.6015709E-03  0.9027969E+03  0.7818609E-02  0.9422092E-01
        1   -1    0    0  501    0  0.00000000000E+00  0.00000000000E+00  0.27395031239E+03  0.27395031244E+03  0.50400001928E-02 0.  1.
       -1   -1    0    0    0  501  0.00000000000E+00  0.00000000000E+00 -0.74378648993E+03  0.74378648994E+03  0.50400001928E-02 0. -1.
    10030    2    1    2    0    0  0.00000000000E+00  0.00000000000E+00 -0.46983617753E+03  0.10177368024E+04  0.90279685711E+03 0.  0.
        3    1    3    3  502    0 -0.10555715453E+03 -0.35511353998E+03 -0.52565312874E+03  0.64308565612E+03  0.10100000352E+00 0. -1.
       -3    1    3    3    0  502  0.10555715453E+03  0.35511353998E+03  0.55816951207E+02  0.37465114626E+03  0.10100000352E+00 0.  1.
</event>
<event>
 5   0  0.6211218E-03  0.7584357E+03  0.7818609E-02  0.9622208E-01
       -1   -1    0    0    0  501  0.00000000000E+00  0.00000000000E+00  0.20558470781E+03  0.20558470787E+03  0.50400001928E-02 0. -1.
        1   -1    0    0  501    0  0.00000000000E+00  0.00000000000E+00 -0.69949834342E+03  0.69949834344E+03  0.50400001928E-02 0.  1.
    10030    2    1    2    0    0  0.00000000000E+00  0.00000000000E+00 -0.49391363561E+03  0.90508305131E+03  0.75843565998E+03 0.  0.
        5    1    3    3  502    0  0.34695684060E+03  0.14113146466E+03 -0.31742474401E+03  0.49099663713E+03  0.46999998093E+01 0.  1.
       -5    1    3    3    0  502 -0.34695684060E+03 -0.14113146466E+03 -0.17648889159E+03  0.41408641419E+03  0.46999998093E+01 0. -1.
</event>
<event>
 5   0  0.1003252E-02  0.9083810E+03  0.7818609E-02  0.9415165E-01
       -2   -1    0    0    0  501  0.00000000000E+00  0.00000000000E+00  0.48728269875E+03  0.48728269875E+03  0.25500000920E-02 0. -1.
        2   -1    0    0  501    0  0.00000000000E+00  0.00000000000E+00 -0.42334567717E+03  0.42334567718E+03  0.25500000920E-02 0.  1.
    10030    2    1    2    0    0  0.00000000000E+00  0.00000000000E+00  0.63937021575E+02  0.91062837593E+03  0.90838103036E+03 0.  0.
        2    1    3    3  502    0  0.31770880369E+03  0.15170096580E+03  0.31962258482E+03  0.47551095014E+03  0.25500000920E-02 0. -1.
       -2    1    3    3    0  502 -0.31770880369E+03 -0.15170096580E+03 -0.25568556325E+03  0.43511742579E+03  0.25500000920E-02 0.  1.
</event>
<event>
 5   0  0.1003252E-02  0.8982372E+03  0.7818609E-02  0.9427788E-01
       -2   -1    0    0    0  501  0.00000000000E+00  0.00000000000E+00  0.26436913130E+03  0.26436913131E+03  0.25500000920E-02 0. -1.
        2   -1    0    0  501    0  0.00000000000E+00  0.00000000000E+00 -0.76297675473E+03  0.76297675473E+03  0.25500000920E-02 0.  1.
    10030    2    1    2    0    0  0.00000000000E+00  0.00000000000E+00 -0.49860762343E+03  0.10273458860E+04  0.89823716658E+03 0.  0.
        2    1    3    3  502    0  0.12708790564E+03 -0.29633716482E+03 -0.60687526047E+03  0.68721512846E+03  0.25500000920E-02 0.  1.
       -2    1    3    3    0  502 -0.12708790564E+03  0.29633716482E+03  0.10826763704E+03  0.34013075758E+03  0.25500000920E-02 0. -1.
</event>
<event>
 5   0  0.6137243E-03  0.9064016E+03  0.7818609E-02  0.9417614E-01
        1   -1    0    0  501    0  0.00000000000E+00  0.00000000000E+00  0.56872257025E+03  0.56872257028E+03  0.50400001928E-02 0. -1.
       -1   -1    0    0    0  501  0.00000000000E+00  0.00000000000E+00 -0.36114440500E+03  0.36114440504E+03  0.50400001928E-02 0.  1.
    10030    2    1    2    0    0  0.00000000000E+00  0.00000000000E+00  0.20757816525E+03  0.92986697532E+03  0.90640162020E+03 0.  0.
        4    1    3    3  502    0 -0.18289938624E+03 -0.14585618245E+03  0.50199129826E+03  0.55382586422E+03  0.12699999809E+01 0. -1.
       -4    1    3    3    0  502  0.18289938624E+03  0.14585618245E+03 -0.29441313301E+03  0.37604111110E+03  0.12699999809E+01 0.  1.
</event>
<event>
 5   0  0.6288003E-03  0.9097600E+03  0.7818609E-02  0.9413463E-01
       -1   -1    0    0    0  501  0.00000000000E+00  0.00000000000E+00  0.35639393941E+03  0.35639393945E+03  0.50400001928E-02 0. -1.
        1   -1    0    0  501    0  0.00000000000E+00  0.00000000000E+00 -0.58058172966E+03  0.58058172968E+03  0.50400001928E-02 0.  1.
    10030    2    1    2    0    0  0.00000000000E+00  0.00000000000E+00 -0.22418779025E+03  0.93697566913E+03  0.90975998991E+03 0.  0.
        1    1    3    3  502    0 -0.36894899841E+03 -0.26889261029E+02 -0.38471892302E+03  0.53371813305E+03  0.50400001928E-02 0.  1.
       -1    1    3    3    0  502  0.36894899841E+03  0.26889261029E+02  0.16053113277E+03  0.40325753608E+03  0.50400001928E-02 0. -1.
</event>
<event>
 5   0  0.6288003E-03  0.9028864E+03  0.7818609E-02  0.9421980E-01
        1   -1    0    0  501    0  0.00000000000E+00  0.00000000000E+00  0.50096307740E+03  0.50096307743E+03  0.50400001928E-02 0. -1.
       -1   -1    0    0    0  501  0.00000000000E+00  0.00000000000E+00 -0.40681835006E+03  0.40681835009E+03  0.50400001928E-02 0.  1.
    10030    2    1    2    0    0  0.00000000000E+00  0.00000000000E+00  0.94144727346E+02  0.90778142751E+03  0.90288642168E+03 0.  0.
        1    1    3    3  502    0 -0.30996921082E+03  0.46510575782E+02  0.37372888697E+03  0.48776779957E+03  0.50400001928E-02 0. -1.
       -1    1    3    3    0  502  0.30996921082E+03 -0.46510575782E+02 -0.27958415963E+03  0.42001362794E+03  0.50400001928E-02 0.  1.
</event>
<event>
 5   0  0.3996375E-03  0.9053322E+03  0.7818609E-02  0.9418940E-01
       -3   -1    0    0    0  501  0.00000000000E+00  0.00000000000E+00  0.21769553420E+03  0.21769555763E+03  0.10100000352E+00 0.  1.
        3   -1    0    0  501    0  0.00000000000E+00  0.00000000000E+00 -0.94125311706E+03  0.94125312248E+03  0.10100000352E+00 0. -1.
    10030    2    1    2    0    0  0.00000000000E+00  0.00000000000E+00 -0.72355758286E+03  0.11589486801E+04  0.90533224145E+03 0.  0.
        3    1    3    3  502    0 -0.69650843850E+01 -0.44300084390E+03 -0.48055134377E+03  0.65362670103E+03  0.10100000352E+00 0. -1.
       -3    1    3    3    0  502  0.69650843850E+01  0.44300084390E+03 -0.24300623909E+03  0.50532197907E+03  0.10100000352E+00 0.  1.
</event>
<event>
 5   0  0.6211218E-03  0.9076940E+03  0.7818609E-02  0.9416014E-01
        1   -1    0    0  501    0  0.00000000000E+00  0.00000000000E+00  0.11226739973E+04  0.11226739973E+04  0.50400001928E-02 0.  1.
       -1   -1    0    0    0  501  0.00000000000E+00  0.00000000000E+00 -0.18347010685E+03  0.18347010692E+03  0.50400001928E-02 0. -1.
    10030    2    1    2    0    0  0.00000000000E+00  0.00000000000E+00  0.93920389041E+03  0.13061441042E+04  0.90769404159E+03 0.  0.
        5    1    3    3  502    0 -0.62915821975E+02 -0.37764630054E+03  0.11895396772E+03  0.40093299365E+03  0.46999998093E+01 0. -1.
       -5    1    3    3    0  502  0.62915821975E+02  0.37764630054E+03  0.82024992269E+03  0.90521111054E+03  0.46999998093E+01 0.  1.
</event>
<event>
 5   0  0.1017079E-02  0.9070855E+03  0.7818609E-02  0.9416767E-01
        2   -1    0    0  501    0  0.00000000000E+00  0.00000000000E+00  0.13556538016E+04  0.13556538016E+04  0.25500000920E-02 0. -1.
       -2   -1    0    0    0  501  0.00000000000E+00  0.00000000000E+00 -0.15173565400E+03  0.15173565402E+03  0.25500000920E-02 0.  1.
    10030    2    1    2    0    0  0.00000000000E+00  0.00000000000E+00  0.12039181476E+04  0.15073894556E+04  0.90708547823E+03 0.  0.
        1    1    3    3  502    0 -0.74874544992E+02 -0.43894240757E+03  0.45877081780E+03  0.63933347944E+03  0.50400001928E-02 0.  1.
       -1    1    3    3    0  502  0.74874544992E+02  0.43894240757E+03  0.74514732981E+03  0.86805597619E+03  0.50400001928E-02 0. -1.
</event>
<event>
 5   0  0.1028978E-02  0.9142239E+03  0.7818609E-02  0.9407974E-01
        2   -1    0    0  501    0  0.00000000000E+00  0.00000000000E+00  0.11387102137E+04  0.11387102137E+04  0.25500000920E-02 0.  1.
       -2   -1    0    0    0  501  0.00000000000E+00  0.00000000000E+00 -0.18349824381E+03  0.18349824383E+03  0.25500000920E-02 0. -1.
    10030    2    1    2    0    0  0.00000000000E+00  0.00000000000E+00  0.95521196985E+03  0.13222084575E+04  0.91422387723E+03 0.  0.
        3    1    3    3  502    0 -0.26128332685E+02  0.32793097399E+03  0.18591306119E+02  0.32949515980E+03  0.10100000352E+00 0. -1.
       -3    1    3    3    0  502  0.26128332685E+02 -0.32793097399E+03  0.93662066373E+03  0.99271329769E+03  0.10100000352E+00 0.  1.
</event>
<event>
 5   0  0.1017079E-02  0.9021156E+03  0.7818609E-02  0.9422941E-01
        2   -1    0    0  501    0  0.00000000000E+00  0.00000000000E+00  0.43302138880E+03  0.43302138881E+03  0.25500000920E-02 0. -1.
       -2   -1    0    0    0  501  0.00000000000E+00  0.00000000000E+00 -0.46984542439E+03  0.46984542439E+03  0.25500000920E-02 0.  1.
    10030    2    1    2    0    0  0.00000000000E+00  0.00000000000E+00 -0.36824035588E+02  0.90286681320E+03  0.90211555401E+03 0.  0.
        1    1    3    3  502    0  0.14646327536E+03 -0.40310644258E+03  0.12137112211E+03  0.44573225639E+03  0.50400001928E-02 0.  1.
       -1    1    3    3    0  502 -0.14646327536E+03  0.40310644258E+03 -0.15819515770E+03  0.45713455681E+03  0.50400001928E-02 0. -1.
</event>
<event>
 5   0  0.1028978E-02  0.9016849E+03  0.7818609E-02  0.9423478E-01
        2   -1    0    0  501    0  0.00000000000E+00  0.00000000000E+00  0.10532678810E+04  0.10532678810E+04  0.25500000920E-02 0. -1.
       -2   -1    0    0    0  501  0.00000000000E+00  0.00000000000E+00 -0.19297931017E+03  0.19297931019E+03  0.25500000920E-02 0.  1.
    10030    2    1    2    0    0  0.00000000000E+00  0.00000000000E+00  0.86028857085E+03  0.12462471912E+04  0.90168488756E+03 0.  0.
        3    1    3    3  502    0  0.23496595934E+03  0.33828488729E+03  0.17674549500E+03  0.44820156986E+03  0.10100000352E+00 0. -1.
       -3    1    3    3    0  502 -0.23496595934E+03 -0.33828488729E+03  0.68354307585E+03  0.79804562135E+03  0.10100000352E+00 0.  1.
</event>
<event>
 5   0  0.1033749E-02  0.8997960E+03  0.7818609E-02  0.9425836E-01
        2   -1    0    0  501    0  0.00000000000E+00  0.00000000000E+00  0.70217987339E+03  0.70217987339E+03  0.25500000920E-02 0.  1.
       -2   -1    0    0    0  501  0.00000000000E+00  0.00000000000E+00 -0.28825692004E+03  0.28825692005E+03  0.25500000920E-02 0. -1.
    10030    2    1    2    0    0  0.00000000000E+00  0.00000000000E+00  0.41392295334E+03  0.99043679345E+03  0.89979599383E+03 0.  0.
        5    1    3    3  502    0 -0.36382022951E+03  0.98865175260E+02 -0.63215979908E+02  0.38230594083E+03  0.46999998093E+01 0. -1.
       -5    1    3    3    0  502  0.36382022951E+03 -0.98865175260E+02  0.47713893325E+03  0.60813085262E+03  0.46999998093E+01 0.  1.
</event>
<event>
 5   0  0.3996375E-03  0.9061161E+03  0.7818609E-02  0.9417968E-01
       -4   -1    0    0    0  501  0.00000000000E+00  0.00000000000E+00  0.10062448265E+04  0.10062456280E+04  0.12699999809E+01 0. -1.
        4   -1    0    0  501    0  0.00000000000E+00  0.00000000000E+00 -0.20398488221E+03  0.20398883565E+03  0.12699999809E+01 0.  1.
    10030    2    1    2    0    0  0.00000000000E+00  0.00000000000E+00  0.80225994433E+03  0.12102344636E+04  0.90611612871E+03 0.  0.
        4    1    3    3  502    0  0.16260722894E+03 -0.35296256823E+03  0.90079598304E+02  0.39892309084E+03  0.12699999809E+01 0.  1.
       -4    1    3    3    0  502 -0.16260722894E+03  0.35296256823E+03  0.71218034603E+03  0.81131137280E+03  0.12699999809E+01 0. -1.
</event>
<event>
 5   0  0.6288003E-03  0.8879079E+03  0.7818609E-02  0.9440825E-01
        1   -1    0    0  501    0  0.00000000000E+00  0.00000000000E+00  0.43555159001E+03  0.43555159004E+03  0.50400001928E-02 0. -1.
       -1   -1    0    0    0  501  0.00000000000E+00  0.00000000000E+00 -0.45251842664E+03  0.45251842667E+03  0.50400001928E-02 0.  1.
    10030    2    1    2    0    0  0.00000000000E+00  0.00000000000E+00 -0.16966836637E+02  0.88807001671E+03  0.88790792373E+03 0.  0.
        1    1    3    3  502    0 -0.11503227188E+03 -0.20283444074E+03 -0.38633656465E+03  0.45125400290E+03  0.50400001928E-02 0.  1.
       -1    1    3    3    0  502  0.11503227188E+03  0.20283444074E+03  0.36936972801E+03  0.43681601381E+03  0.50400001928E-02 0. -1.
</event>
<event>
 5   0  0.1017079E-02  0.9050037E+03  0.7818609E-02  0.9419348E-01
        2   -1    0    0  501    0  0.00000000000E+00  0.00000000000E+00  0.41937180930E+03  0.41937180930E+03  0.25500000920E-02 0.  1.
       -2   -1    0    0    0  501  0.00000000000E+00  0.00000000000E+00 -0.48824911787E+03  0.48824911788E+03  0.25500000920E-02 0. -1.
    10030    2    1    2    0    0  0.00000000000E+00  0.00000000000E+00 -0.68877308578E+02  0.90762092719E+03  0.90500368167E+03 0.  0.
        1    1    3    3  502    0 -0.28566349102E+02  0.38372252143E+03 -0.27324259837E+03  0.47193275722E+03  0.50400001928E-02 0. -1.
       -1    1    3    3    0  502  0.28566349102E+02 -0.38372252143E+03  0.20436528979E+03  0.43568816996E+03  0.50400001928E-02 0.  1.
</event>
<event>
 5   0  0.6015709E-03  0.8930667E+03  0.7818609E-02  0.9434290E-01
        1   -1    0    0  501    0  0.00000000000E+00  0.00000000000E+00  0.77624943207E+03  0.77624943208E+03  0.50400001928E-02 0. -1.
       -1   -1    0    0    0  501  0.00000000000E+00  0.00000000000E+00 -0.25686595376E+03  0.25686595381E+03  0.50400001928E-02 0.  1.
    10030    2    1    2    0    0  0.00000000000E+00  0.00000000000E+00  0.51938347831E+03  0.10331153859E+04  0.89306674052E+03 0.  0.
        3    1    3    3  502    0 -0.37552841152E+02 -0.38587465990E+03  0.51597991370E+03  0.64540278166E+03  0.10100000352E+00 0. -1.
       -3    1    3    3    0  502  0.37552841152E+02  0.38587465990E+03  0.34035646128E+01  0.38771260424E+03  0.10100000352E+00 0.  1.
</event>
<event>
 5   0  0.6092779E-03  0.9013882E+03  0.7818609E-02  0.9423848E-01
        1   -1    0    0  501    0  0.00000000000E+00  0.00000000000E+00  0.32031602251E+03  0.32031602255E+03  0.50400001928E-02 0.  1.
       -1   -1    0    0    0  501  0.00000000000E+00  0.00000000000E+00 -0.63413989547E+03  0.63413989549E+03  0.50400001928E-02 0. -1.
    10030    2    1    2    0    0  0.00000000000E+00  0.00000000000E+00 -0.31382387296E+03  0.95445591805E+03  0.90138819399E+03 0.  0.
        2    1    3    3  502    0  0.20122694468E+03 -0.22091122165E+03  0.20033993300E+03  0.35976400581E+03  0.25500000920E-02 0.  1.
       -2    1    3    3    0  502 -0.20122694468E+03  0.22091122165E+03 -0.51416380596E+03  0.59469191224E+03  0.25500000920E-02 0. -1.
</event>
<event>
 5   0  0.6137243E-03  0.9193370E+03  0.7818609E-02  0.9401727E-01
        1   -1    0    0  501    0  0.00000000000E+00  0.00000000000E+00  0.22617617261E+04  0.22617617261E+04  0.50400001928E-02 0.  1.
       -1   -1    0    0    0  501  0.00000000000E+00  0.00000000000E+00 -0.93420594228E+02  0.93420594364E+02  0.50400001928E-02 0. -1.
    10030    2    1    2    0    0  0.00000000000E+00  0.00000000000E+00  0.21683411319E+04  0.23551823205E+04  0.91933698853E+03 0.  0.
        4    1    3    3  502    0 -0.10223420029E+03  0.71440833577E+02  0.22175811059E+04  0.22210860403E+04  0.12699999809E+01 0.  1.
       -4    1    3    3    0  502  0.10223420029E+03 -0.71440833577E+02 -0.49239974011E+02  0.13409628015E+03  0.12699999809E+01 0. -1.
</event>
<event>
 5   0  0.1041727E-02  0.8992665E+03  0.7818609E-02  0.9426499E-01
       -2   -1    0    0    0  501  0.00000000000E+00  0.00000000000E+00  0.23693569099E+03  0.23693569100E+03  0.25500000920E-02 0. -1.
        2   -1    0    0  501    0  0.00000000000E+00  0.00000000000E+00 -0.85326977234E+03  0.85326977235E+03  0.25500000920E-02 0.  1.
    10030    2    1    2    0    0  0.00000000000E+00  0.00000000000E+00 -0.61633408136E+03  0.10902054634E+04  0.89926650804E+03 0.  0.
        4    1    3    3  502    0  0.10897578096E+03  0.15025953193E+03 -0.80465146977E+03  0.82578402048E+03  0.12699999809E+01 0.  1.
       -4    1    3    3    0  502 -0.10897578096E+03 -0.15025953193E+03  0.18831738842E+03  0.26442144287E+03  0.12699999809E+01 0. -1.
</event>
<event>
 5   0  0.6211218E-03  0.8302871E+03  0.7818609E-02  0.9517184E-01
        1   -1    0    0  501    0  0.00000000000E+00  0.00000000000E+00  0.85837157511E+03  0.85837157512E+03  0.50400001928E-02 0. -1.
       -1   -1    0    0    0  501  0.00000000000E+00  0.00000000000E+00 -0.20078036897E+03  0.20078036903E+03  0.50400001928E-02 0.  1.
    10030    2    1    2    0    0  0.00000000000E+00  0.00000000000E+00  0.65759120613E+03  0.10591519442E+04  0.83028708675E+03 0.  0.
        5    1    3    3  502    0  0.68528624661E+02  0.18159066137E+03  0.79689096914E+03  0.82020037026E+03  0.46999998093E+01 0. -1.
       -5    1    3    3    0  502 -0.68528624661E+02 -0.18159066137E+03 -0.13929976300E+03  0.23895157389E+03  0.46999998093E+01 0.  1.
</event>
<event>
 5   0  0.6211218E-03  0.9015182E+03  0.7818609E-02  0.9423686E-01
        1   -1    0    0  501    0  0.00000000000E+00  0.00000000000E+00  0.32429179692E+03  0.32429179696E+03  0.50400001928E-02 0. -1.
       -1   -1    0    0    0  501  0.00000000000E+00  0.00000000000E+00 -0.62654614842E+03  0.62654614844E+03  0.50400001928E-02 0.  1.
    10030    2    1    2    0    0  0.00000000000E+00  0.00000000000E+00 -0.30225435150E+03  0.95083794541E+03  0.90151822246E+03 0.  0.
        5    1    3    3  502    0 -0.13309096193E+01 -0.43090465566E+03 -0.11677893240E+02  0.43109054360E+03  0.46999998093E+01 0.  1.
       -5    1    3    3    0  502  0.13309096193E+01  0.43090465566E+03 -0.29057645826E+03  0.51974740181E+03  0.46999998093E+01 0. -1.
</event>
<event>
 5   0  0.6211218E-03  0.8894878E+03  0.7818609E-02  0.9438818E-01
       -1   -1    0    0    0  501  0.00000000000E+00  0.00000000000E+00  0.53945136745E+03  0.53945136748E+03  0.50400001928E-02 0.  1.
        1   -1    0    0  501    0  0.00000000000E+00  0.00000000000E+00 -0.36666350112E+03  0.36666350116E+03  0.50400001928E-02 0. -1.
    10030    2    1    2    0    0  0.00000000000E+00  0.00000000000E+00  0.17278786633E+03  0.90611486863E+03  0.88948777867E+03 0.  0.
        5    1    3    3  502    0  0.36589971990E+02 -0.15246453996E+03  0.51033515726E+03  0.53389917094E+03  0.46999998093E+01 0.  1.
       -5    1    3    3    0  502 -0.36589971990E+02  0.15246453996E+03 -0.33754729093E+03  0.37221569769E+03  0.46999998093E+01 0. -1.
</event>
<event>
 5   0  0.1033749E-02  0.8848653E+03  0.7818609E-02  0.9444701E-01
        2   -1    0    0  501    0  0.00000000000E+00  0.00000000000E+00  0.83750977430E+03  0.83750977431E+03  0.25500000920E-02 0.  1.
       -2   -1    0    0    0  501  0.00000000000E+00  0.00000000000E+00 -0.23372459376E+03  0.23372459377E+03  0.25500000920E-02 0. -1.
    10030    2    1    2    0    0  0.00000000000E+00  0.00000000000E+00  0.60378518054E+03  0.10712343681E+04  0.88486525930E+03 0.  0.
        5    1    3    3  502    0  0.14047345585E+03  0.16241964294E+03  0.77015575999E+03  0.79954669461E+03  0.46999998093E+01 0.  1.
       -5    1    3    3    0  502 -0.14047345585E+03 -0.16241964294E+03 -0.16637057945E+03  0.27168767347E+03  0.46999998093E+01 0. -1.
</event>
<event>
 5   0  0.1017079E-02  0.9211071E+03  0.7818609E-02  0.9399575E-01
       -2   -1    0    0    0  501  0.00000000000E+00  0.00000000000E+00  0.13907642218E+03  0.13907642220E+03  0.25500000920E-02 0. -1.
        2   -1    0    0  501    0  0.00000000000E+00  0.00000000000E+00 -0.15251295047E+04  0.15251295048E+04  0.25500000920E-02 0.  1.
    10030    2    1    2    0    0  0.00000000000E+00  0.00000000000E+00 -0.13860530826E+04  0.16642059270E+04  0.92110706197E+03 0.  0.
        1    1    3    3  502    0 -0.21148412813E+03  0.90735815414E+02 -0.14138048021E+04  0.14324114434E+04  0.50400001928E-02 0.  1.
       -1    1    3    3    0  502  0.21148412813E+03 -0.90735815414E+02  0.27751719541E+02  0.23179448357E+03  0.50400001928E-02 0. -1.
</event>
<event>
 5   0  0.6092779E-03  0.9108718E+03  0.7818609E-02  0.9412092E-01
       -1   -1    0    0    0  501  0.00000000000E+00  0.00000000000E+00  0.36779850582E+03  0.36779850585E+03  0.50400001928E-02 0. -1.
        1   -1    0    0  501    0  0.00000000000E+00  0.00000000000E+00 -0.56395516331E+03  0.56395516333E+03  0.50400001928E-02 0.  1.
    10030    2    1    2    0    0  0.00000000000E+00  0.00000000000E+00 -0.19615665750E+03  0.93175366918E+03  0.91087181632E+03 0.  0.
        2    1    3    3  502    0  0.29287310078E+03 -0.99776956147E+02 -0.43994316975E+03  0.53784764270E+03  0.25500000920E-02 0.  1.
       -2    1    3    3    0  502 -0.29287310078E+03  0.99776956147E+02  0.24378651225E+03  0.39390602649E+03  0.25500000920E-02 0. -1.
</event>
<event>
 5   0  0.3996375E-03  0.9003163E+03  0.7818609E-02  0.9425186E-01
       -4   -1    0    0    0  501  0.00000000000E+00  0.00000000000E+00  0.68977358556E+03  0.68977475471E+03  0.12699999809E+01 0. -1.
        4   -1    0    0  501    0  0.00000000000E+00  0.00000000000E+00 -0.29377818629E+03  0.29378093138E+03  0.12699999809E+01 0.  1.
    10030    2    1    2    0    0  0.00000000000E+00  0.00000000000E+00  0.39599539927E+03  0.98355568609E+03  0.90031629519E+03 0.  0.
        2    1    3    3  502    0 -0.20620721222E+03 -0.85768459814E+02 -0.22899000508E+03  0.31986569917E+03  0.25500000920E-02 0.  1.
       -2    1    3    3    0  502  0.20620721222E+03  0.85768459814E+02  0.62498540435E+03  0.66368998691E+03  0.25500000920E-02 0. -1.
</event>
<event>
 5   0  0.1017079E-02  0.8947043E+03  0.7818609E-02  0.9432226E-01
       -2   -1    0    0    0  501  0.00000000000E+00  0.00000000000E+00  0.29646172555E+03  0.29646172556E+03  0.25500000920E-02 0. -1.
        2   -1    0    0  501    0  0.00000000000E+00  0.00000000000E+00 -0.67504140437E+03  0.67504140437E+03  0.25500000920E-02 0.  1.
    10030    2    1    2    0    0  0.00000000000E+00  0.00000000000E+00 -0.37857967881E+03  0.97150312994E+03  0.89470428538E+03 0.  0.
        1    1    3    3  502    0 -0.30302090039E+03 -0.14648978241E+03 -0.50927669468E+03  0.61044547193E+03  0.50400001928E-02 0.  1.
       -1    1    3    3    0  502  0.30302090039E+03  0.14648978241E+03  0.13069701587E+03  0.36105765801E+03  0.50400001928E-02 0. -1.
</event>
<event>
 5   0  0.3996375E-03  0.9015617E+03  0.7818609E-02  0.9423631E-01
        3   -1    0    0  501    0  0.00000000000E+00  0.00000000000E+00  0.77722086388E+03  0.77722087044E+03  0.10100000352E+00 0. -1.
       -3   -1    0    0    0  501  0.00000000000E+00  0.00000000000E+00 -0.26144865363E+03  0.26144867314E+03  0.10100000352E+00 0.  1.
    10030    2    1    2    0    0  0.00000000000E+00  0.00000000000E+00  0.51577221025E+03  0.10386695436E+04  0.90156167172E+03 0.  0.
        1    1    3    3  502    0 -0.49397509857E+02 -0.25248764500E+03  0.68433129547E+03  0.73109469075E+03  0.50400001928E-02 0. -1.
       -1    1    3    3    0  502  0.49397509857E+02  0.25248764500E+03 -0.16855908523E+03  0.30757485283E+03  0.50400001928E-02 0.  1.
</event>
<event>
 5   0  0.1017079E-02  0.8913818E+03  0.7818609E-02  0.9436419E-01
       -2   -1    0    0    0  501  0.00000000000E+00  0.00000000000E+00  0.12524667308E+03  0.12524667311E+03  0.25500000920E-02 0. -1.
        2   -1    0    0  501    0  0.00000000000E+00  0.00000000000E+00 -0.15859931427E+04  0.15859931427E+04  0.25500000920E-02 0.  1.
    10030    2    1    2    0    0  0.00000000000E+00  0.00000000000E+00 -0.14607464696E+04  0.17112398158E+04  0.89138176935E+03 0.  0.
        1    1    3    3  502    0 -0.39796561801E+03  0.20056543554E+03 -0.71865835002E+03  0.84561986207E+03  0.50400001928E-02 0.  1.
       -1    1    3    3    0  502  0.39796561801E+03 -0.20056543554E+03 -0.74208811961E+03  0.86561995375E+03  0.50400001928E-02 0. -1.
</event>
<event>
 5   0  0.1028978E-02  0.8327156E+03  0.7818609E-02  0.9513834E-01
       -2   -1    0    0    0  501  0.00000000000E+00  0.00000000000E+00  0.37606843643E+03  0.37606843644E+03  0.25500000920E-02 0. -1.
        2   -1    0    0  501    0  0.00000000000E+00  0.00000000000E+00 -0.46096343429E+03  0.46096343429E+03  0.25500000920E-02 0.  1.
    10030    2    1    2    0    0  0.00000000000E+00  0.00000000000E+00 -0.84894997855E+02  0.83703187073E+03  0.83271555285E+03 0.  0.
        3    1    3    3  502    0 -0.21171477843E+03  0.32178291973E+03 -0.20133769507E+03  0.43463119135E+03  0.10100000352E+00 0.  1.
       -3    1    3    3    0  502  0.21171477843E+03 -0.32178291973E+03  0.11644269721E+03  0.40240067939E+03  0.10100000352E+00 0. -1.
</event>
<event>
 5   0  0.6137243E-03  0.8852793E+03  0.7818609E-02  0.9444172E-01
       -1   -1    0    0    0  501  0.00000000000E+00  0.00000000000E+00  0.97490668991E+02  0.97490669121E+02  0.50400001928E-02 0.  1.
        1   -1    0    0  501    0  0.00000000000E+00  0.00000000000E+00 -0.20097293035E+04  0.20097293035E+04  0.50400001928E-02 0. -1.
    10030    2    1    2    0    0  0.00000000000E+00  0.00000000000E+00 -0.19122386345E+04  0.21072199726E+04  0.88527928798E+03 0.  0.
        4    1    3    3  502    0  0.48211255573E+02  0.35941572257E+03 -0.35195611241E+03  0.50535008139E+03  0.12699999809E+01 0.  1.
       -4    1    3    3    0  502 -0.48211255573E+02 -0.35941572257E+03 -0.15602825221E+04  0.16018698912E+04  0.12699999809E+01 0. -1.
</event>
<event>
 5   0  0.6137243E-03  0.9044393E+03  0.7818609E-02  0.9420049E-01
        1   -1    0    0  501    0  0.00000000000E+00  0.00000000000E+00  0.10676213088E+04  0.10676213088E+04  0.50400001928E-02 0.  1.
       -1   -1    0    0    0  501  0.00000000000E+00  0.00000000000E+00 -0.19154975792E+03  0.19154975798E+03  0.50400001928E-02 0. -1.
    10030    2    1    2    0    0  0.00000000000E+00  0.00000000000E+00  0.87607155088E+03  0.12591710668E+04  0.90443928110E+03 0.  0.
        4    1    3    3  502    0 -0.93646554534E+02 -0.18048327722E+03  0.10003878587E+04  0.10208434607E+04  0.12699999809E+01 0.  1.
       -4    1    3    3    0  502  0.93646554534E+02  0.18048327722E+03 -0.12431630782E+03  0.23832760609E+03  0.12699999809E+01 0. -1.
</event>
<event>
 5   0  0.6288003E-03  0.9365148E+03  0.7818609E-02  0.9381053E-01
        1   -1    0    0  501    0  0.00000000000E+00  0.00000000000E+00  0.16828630397E+04  0.16828630397E+04  0.50400001928E-02 0. -1.
       -1   -1    0    0    0  501  0.00000000000E+00  0.00000000000E+00 -0.13029283344E+03  0.13029283354E+03  0.50400001928E-02 0.  1.
    10030    2    1    2    0    0  0.00000000000E+00  0.00000000000E+00  0.15525702062E+04  0.18131558732E+04  0.93651480251E+03 0.  0.
        1    1    3    3  502    0  0.13107261036E+01 -0.39480521339E+03  0.12637441449E+04  0.13239796593E+04  0.50400001928E-02 0. -1.
       -1    1    3    3    0  502 -0.13107261036E+01  0.39480521339E+03  0.28882606137E+03  0.48917621392E+03  0.50400001928E-02 0.  1.
</event>
<event>
 5   0  0.1033749E-02  0.8945792E+03  0.7818609E-02  0.9432383E-01
        2   -1    0    0  501    0  0.00000000000E+00  0.00000000000E+00  0.94988043028E+03  0.94988043028E+03  0.25500000920E-02 0. -1.
       -2   -1    0    0    0  501  0.00000000000E+00  0.00000000000E+00 -0.21062441113E+03  0.21062441114E+03  0.25500000920E-02 0.  1.
    10030    2    1    2    0    0  0.00000000000E+00  0.00000000000E+00  0.73925601915E+03  0.11605048414E+04  0.89457924474E+03 0.  0.
        5    1    3    3  502    0 -0.37080178779E+03  0.21260612890E+03  0.54050563192E+03  0.68910359164E+03  0.46999998093E+01 0. -1.
       -5    1    3    3    0  502  0.37080178779E+03 -0.21260612890E+03  0.19875038723E+03  0.47140124978E+03  0.46999998093E+01 0.  1.
</event>
<event>
 5   0  0.6288003E-03  0.8898425E+03  0.7818609E-02  0.9438369E-01
        1   -1    0    0  501    0  0.00000000000E+00  0.00000000000E+00  0.13129291754E+04  0.13129291754E+04  0.50400001928E-02 0. -1.
       -1   -1    0    0    0  501  0.00000000000E+00  0.00000000000E+00 -0.15077350429E+03  0.15077350437E+03  0.50400001928E-02 0.  1.
    10030    2    1    2    0    0  0.00000000000E+00  0.00000000000E+00  0.11621556711E+04  0.14637026798E+04  0.88984253153E+03 0.  0.
        1    1    3    3  502    0  0.63749598860E+02 -0.41057293032E+03  0.31933287073E+03  0.52403017548E+03  0.50400001928E-02 0.  1.
       -1    1    3    3    0  502 -0.63749598860E+02  0.41057293032E+03  0.84282280042E+03  0.93967250433E+03  0.50400001928E-02 0. -1.
</event>
<event>
 5   0  0.3996375E-03  0.9019595E+03  0.7818609E-02  0.9423135E-01
        3   -1    0    0  501    0  0.00000000000E+00  0.00000000000E+00  0.25603884759E+03  0.25603886751E+03  0.10100000352E+00 0.  1.
       -3   -1    0    0    0  501  0.00000000000E+00  0.00000000000E+00 -0.79434326317E+03  0.79434326960E+03  0.10100000352E+00 0. -1.
    10030    2    1    2    0    0  0.00000000000E+00  0.00000000000E+00 -0.53830441559E+03  0.10503821371E+04  0.90195952798E+03 0.  0.
        3    1    3    3  502    0 -0.98762077999E+02  0.11698354717E+03  0.22484958642E+03  0.27202287601E+03  0.10100000352E+00 0.  1.
       -3    1    3    3    0  502  0.98762077999E+02 -0.11698354717E+03 -0.76315400200E+03  0.77835926110E+03  0.10100000352E+00 0. -1.
</event>
<event>
 5   0  0.1033749E-02  0.8760451E+03  0.7818609E-02  0.9456032E-01
       -2   -1    0    0    0  501  0.00000000000E+00  0.00000000000E+00  0.27457664782E+03  0.27457664783E+03  0.25500000920E-02 0.  1.
        2   -1    0    0  501    0  0.00000000000E+00  0.00000000000E+00 -0.69876206808E+03  0.69876206809E+03  0.25500000920E-02 0. -1.
    10030    2    1    2    0    0  0.00000000000E+00  0.00000000000E+00 -0.42418542026E+03  0.97333871592E+03  0.87604508169E+03 0.  0.
        5    1    3    3  502    0  0.87111207765E+02 -0.20018499747E+03  0.20978729205E+03  0.30281214248E+03  0.46999998093E+01 0.  1.
       -5    1    3    3    0  502 -0.87111207765E+02  0.20018499747E+03 -0.63397271231E+03  0.67052657344E+03  0.46999998093E+01 0. -1.
</event>
<event>
 5   0  0.1017079E-02  0.9051124E+03  0.7818609E-02  0.9419213E-01
        2   -1    0    0  501    0  0.00000000000E+00  0.00000000000E+00  0.23096798467E+04  0.23096798467E+04  0.25500000920E-02 0.  1.
       -2   -1    0    0    0  501  0.00000000000E+00  0.00000000000E+00 -0.88673383917E+02  0.88673383954E+02  0.25500000920E-02 0. -1.
    10030    2    1    2    0    0  0.00000000000E+00  0.00000000000E+00  0.22210064628E+04  0.23983532306E+04  0.90511243018E+03 0.  0.
        1    1    3    3  502    0  0.97009123401E+02  0.32862382589E+03  0.32712204344E+03  0.47372272512E+03  0.50400001928E-02 0. -1.
       -1    1    3    3    0  502 -0.97009123401E+02 -0.32862382589E+03  0.18938844193E+04  0.19246305055E+04  0.50400001928E-02 0.  1.
</event>
<event>
 5   0  0.1041727E-02  0.9029883E+03  0.7818609E-02  0.9421854E-01
       -2   -1    0    0    0  501  0.00000000000E+00  0.00000000000E+00  0.24777701773E+03  0.24777701774E+03  0.25500000920E-02 0.  1.
        2   -1    0    0  501    0  0.00000000000E+00  0.00000000000E+00 -0.82270329855E+03  0.82270329855E+03  0.25500000920E-02 0. -1.
    10030    2    1    2    0    0  0.00000000000E+00  0.00000000000E+00 -0.57492628081E+03  0.10704803163E+04  0.90298830513E+03 0.  0.
        4    1    3    3  502    0  0.21520908066E+03 -0.28422412699E+03  0.40955211672E+02  0.35885546537E+03  0.12699999809E+01 0.  1.
       -4    1    3    3    0  502 -0.21520908066E+03  0.28422412699E+03 -0.61588149249E+03  0.71162485092E+03  0.12699999809E+01 0. -1.
</event>
<event>
 5   0  0.1033749E-02  0.8884357E+03  0.7818609E-02  0.9440154E-01
        2   -1    0    0  501    0  0.00000000000E+00  0.00000000000E+00  0.62134789199E+03  0.62134789200E+03  0.25500000920E-02 0. -1.
       -2   -1    0    0    0  501  0.00000000000E+00  0.00000000000E+00 -0.31758294013E+03  0.31758294014E+03  0.25500000920E-02 0.  1.
    10030    2    1    2    0    0  0.00000000000E+00  0.00000000000E+00  0.30376495186E+03  0.93893083214E+03  0.88843568229E+03 0.  0.
        5    1    3    3  502    0 -0.15816533042E+02 -0.41611676739E+03  0.31527928310E+03  0.52232790771E+03  0.46999998093E+01 0. -1.
       -5    1    3    3    0  502  0.15816533042E+02  0.41611676739E+03 -0.11514331238E+02  0.41660292443E+03  0.46999998093E+01 0.  1.
</event>
<event>
 5   0  0.6137243E-03  0.8854327E+03  0.7818609E-02  0.9443977E-01
        1   -1    0    0  501    0  0.00000000000E+00  0.00000000000E+00  0.77523982236E+03  0.77523982238E+03  0.50400001928E-02 0.  1.
       -1   -1    0    0    0  501  0.00000000000E+00  0.00000000000E+00 -0.25282212304E+03  0.25282212309E+03  0.50400001928E-02 0. -1.
    10030    2    1    2    0    0  0.00000000000E+00  0.00000000000E+00  0.52241769932E+03  0.10280619455E+04  0.88543272537E+03 0.  0.
        4    1    3    3  502    0  0.15470119332E+03 -0.29900796351E+03  0.59502397596E+03  0.68366173385E+03  0.12699999809E+01 0.  1.
       -4    1    3    3    0  502 -0.15470119332E+03  0.29900796351E+03 -0.72606276643E+02  0.34440021162E+03  0.12699999809E+01 0. -1.
</event>
<event>
 5   0  0.1017079E-02  0.9193105E+03  0.7818609E-02  0.9401759E-01
        2   -1    0    0  501    0  0.00000000000E+00  0.00000000000E+00  0.14258314326E+03  0.14258314328E+03  0.25500000920E-02 0. -1.
       -2   -1    0    0    0  501  0.00000000000E+00  0.00000000000E+00 -0.14818227849E+04  0.14818227849E+04  0.25500000920E-02 0.  1.
    10030    2    1    2    0    0  0.00000000000E+00  0.00000000000E+00 -0.13392396417E+04  0.16244059282E+04  0.91931050346E+03 0.  0.
        1    1    3    3  502    0  0.84066829629E+02 -0.33929192906E+03 -0.11970478020E+04  0.12470403703E+04  0.50400001928E-02 0.  1.
       -1    1    3    3    0  502 -0.84066829629E+02  0.33929192906E+03 -0.14219183967E+03  0.37736555786E+03  0.50400001928E-02 0. -1.
</event>
<event>
 5   0  0.6137243E-03  0.8996678E+03  0.7818609E-02  0.9425997E-01
        1   -1    0    0  501    0  0.00000000000E+00  0.00000000000E+00  0.53220974817E+03  0.53220974819E+03  0.50400001928E-02 0.  1.
       -1   -1    0    0    0  501  0.00000000000E+00  0.00000000000E+00 -0.38020825878E+03  0.38020825882E+03  0.50400001928E-02 0. -1.
    10030    2    1    2    0    0  0.00000000000E+00  0.00000000000E+00  0.15200148939E+03  0.91241800701E+03  0.89966780911E+03 0.  0.
        4    1    3    3  502    0  0.95482025779E+02  0.95218745165E+02  0.51122772205E+03  0.52871431168E+03  0.12699999809E+01 0.  1.
       -4    1    3    3    0  502 -0.95482025779E+02 -0.95218745165E+02 -0.35922623267E+03  0.38370369533E+03  0.12699999809E+01 0. -1.
</event>
<event>
 5   0  0.6092779E-03  0.9005768E+03  0.7818609E-02  0.9424861E-01
       -1   -1    0    0    0  501  0.00000000000E+00  0.00000000000E+00  0.93374811294E+02  0.93374811430E+02  0.50400001928E-02 0. -1.
        1   -1    0    0  501    0  0.00000000000E+00  0.00000000000E+00 -0.21714597020E+04  0.21714597020E+04  0.50400001928E-02 0.  1.
    10030    2    1    2    0    0  0.00000000000E+00  0.00000000000E+00 -0.20780848907E+04  0.22648345134E+04  0.90057679310E+03 0.  0.
        2    1    3    3  502    0 -0.23779125673E+03  0.37193260082E+03 -0.12623015132E+04  0.13372672326E+04  0.25500000920E-02 0.  1.
       -2    1    3    3    0  502  0.23779125673E+03 -0.37193260082E+03 -0.81578337751E+03  0.92756728078E+03  0.25500000920E-02 0. -1.
</event>
<event>
 5   0  0.3996375E-03  0.8950599E+03  0.7818609E-02  0.9431778E-01
        4   -1    0    0  501    0  0.00000000000E+00  0.00000000000E+00  0.18429478008E+03  0.18429915589E+03  0.12699999809E+01 0.  1.
       -4   -1    0    0    0  501  0.00000000000E+00  0.00000000000E+00 -0.10867360600E+04  0.10867368021E+04  0.12699999809E+01 0. -1.
    10030    2    1    2    0    0  0.00000000000E+00  0.00000000000E+00 -0.90244127991E+03  0.12710359580E+04  0.89505985429E+03 0.  0.
        3    1    3    3  502    0 -0.30485135302E+03 -0.56435429858E+02  0.70942848487E+01  0.31011230910E+03  0.10100000352E+00 0.  1.
       -3    1    3    3    0  502  0.30485135302E+03  0.56435429858E+02 -0.90953556476E+03  0.96092364886E+03  0.10100000352E+00 0. -1.
</event>
<event>
 5   0  0.6288003E-03  0.9023134E+03  0.7818609E-02  0.9422694E-01
        1   -1    0    0  501    0  0.00000000000E+00  0.00000000000E+00  0.11452816228E+04  0.11452816228E+04  0.50400001928E-02 0.  1.
       -1   -1    0    0    0  501  0.00000000000E+00  0.00000000000E+00 -0.17772253162E+03  0.17772253169E+03  0.50400001928E-02 0. -1.
    10030    2    1    2    0    0  0.00000000000E+00  0.00000000000E+00  0.96755909118E+03  0.13230041545E+04  0.90231335904E+03 0.  0.
        1    1    3    3  502    0 -0.15498216916E+03  0.24277944600E+03  0.99292666667E+03  0.10338591285E+04  0.50400001928E-02 0.  1.
       -1    1    3    3    0  502  0.15498216916E+03 -0.24277944600E+03 -0.25367575484E+02  0.28914502601E+03  0.50400001928E-02 0. -1.
</event>
<event>
 5   0  0.6137243E-03  0.9031038E+03  0.7818609E-02  0.9421710E-01
        1   -1    0    0  501    0  0.00000000000E+00  0.00000000000E+00  0.95739150234E+03  0.95739150235E+03  0.50400001928E-02 0.  1.
       -1   -1    0    0    0  501  0.00000000000E+00  0.00000000000E+00 -0.21297359973E+03  0.21297359979E+03  0.50400001928E-02 0. -1.
    10030    2    1    2    0    0  0.00000000000E+00  0.00000000000E+00  0.74441790260E+03  0.11703651021E+04  0.90310379171E+03 0.  0.
        4    1    3    3  502    0  0.15753987165E+03  0.17589747213E+03 -0.12658142421E+03  0.26792387299E+03  0.12699999809E+01 0. -1.
       -4    1    3    3    0  502 -0.15753987165E+03 -0.17589747213E+03  0.87099932682E+03  0.90244122915E+03  0.12699999809E+01 0.  1.
</event>
<event>
 5   0  0.1041727E-02  0.9338162E+03  0.7818609E-02  0.9384270E-01
        2   -1    0    0  501    0  0.00000000000E+00  0.00000000000E+00  0.92632402929E+03  0.92632402930E+03  0.25500000920E-02 0.  1.
       -2   -1    0    0    0  501  0.00000000000E+00  0.00000000000E+00 -0.23534222165E+03  0.23534222167E+03  0.25500000920E-02 0. -1.
    10030    2    1    2    0    0  0.00000000000E+00  0.00000000000E+00  0.69098180764E+03  0.11616662510E+04  0.93381615971E+03 0.  0.
        4    1    3    3  502    0 -0.30786451818E+03 -0.32687738376E+03  0.18631661003E+03  0.48615314217E+03  0.12699999809E+01 0.  1.
       -4    1    3    3    0  502  0.30786451818E+03  0.32687738376E+03  0.50466519761E+03  0.67551310879E+03  0.12699999809E+01 0. -1.
</event>
<event>
 5   0  0.1003252E-02  0.8895208E+03  0.7818609E-02  0.9438777E-01
        2   -1    0    0  501    0  0.00000000000E+00  0.00000000000E+00  0.47931058793E+03  0.47931058793E+03  0.25500000920E-02 0.  1.
       -2   -1    0    0    0  501  0.00000000000E+00  0.00000000000E+00 -0.41270073616E+03  0.41270073617E+03  0.25500000920E-02 0. -1.
    10030    2    1    2    0    0  0.00000000000E+00  0.00000000000E+00  0.66609851765E+02  0.89201132410E+03  0.88952084291E+03 0.  0.
        2    1    3    3  502    0 -0.39706743753E+03 -0.19221137312E+03  0.90067917535E+02  0.45024436884E+03  0.25500000920E-02 0.  1.
       -2    1    3    3    0  502  0.39706743753E+03  0.19221137312E+03 -0.23458065770E+02  0.44176695526E+03  0.25500000920E-02 0. -1.
</event>
<event>
 5   0  0.6211218E-03  0.9001286E+03  0.7818609E-02  0.9425421E-01
        1   -1    0    0  501    0  0.00000000000E+00  0.00000000000E+00  0.77594863661E+03  0.77594863662E+03  0.50400001928E-02 0.  1.
       -1   -1    0    0    0  501  0.00000000000E+00  0.00000000000E+00 -0.26104548592E+03  0.26104548596E+03  0.50400001928E-02 0. -1.
    10030    2    1    2    0    0  0.00000000000E+00  0.00000000000E+00  0.51490315069E+03  0.10369941226E+04  0.90012863286E+03 0.  0.
        5    1    3    3  502    0  0.96593713909E+02  0.35475637278E+03 -0.41534788312E+02  0.37004007653E+03  0.46999998093E+01 0. -1.
       -5    1    3    3    0  502 -0.96593713909E+02 -0.35475637278E+03  0.55643793900E+03  0.66695404606E+03  0.46999998093E+01 0.  1.
</event>
<event>
 5   0  0.1003252E-02  0.8777942E+03  0.7818609E-02  0.9453773E-01
        2   -1    0    0  501    0  0.00000000000E+00  0.00000000000E+00  0.64576327316E+03  0.64576327317E+03  0.25500000920E-02 0.  1.
       -2   -1    0    0    0  501  0.00000000000E+00  0.00000000000E+00 -0.29829920472E+03  0.29829920473E+03  0.25500000920E-02 0. -1.
    10030    2    1    2    0    0  0.00000000000E+00  0.00000000000E+00  0.34746406844E+03  0.94406247790E+03  0.87779421467E+03 0.  0.
        2    1    3    3  502    0  0.27454977747E+03  0.31996465375E+03  0.42558298593E+02  0.42375248524E+03  0.25500000920E-02 0.  1.
       -2    1    3    3    0  502 -0.27454977747E+03 -0.31996465375E+03  0.30490576985E+03  0.52030999266E+03  0.25500000920E-02 0. -1.
</event>
<event>
 5   0  0.6211218E-03  0.8895160E+03  0.7818609E-02  0.9438783E-01
       -1   -1    0    0    0  501  0.00000000000E+00  0.00000000000E+00  0.82667568532E+03  0.82667568533E+03  0.50400001928E-02 0. -1.
        1   -1    0    0  501    0  0.00000000000E+00  0.00000000000E+00 -0.23928326711E+03  0.23928326717E+03  0.50400001928E-02 0.  1.
    10030    2    1    2    0    0  0.00000000000E+00  0.00000000000E+00  0.58739241820E+03  0.10659589525E+04  0.88951595571E+03 0.  0.
        5    1    3    3  502    0 -0.14559162619E+03  0.40964648401E+03  0.40598696943E+03  0.59485685070E+03  0.46999998093E+01 0. -1.
       -5    1    3    3    0  502  0.14559162619E+03 -0.40964648401E+03  0.18140544877E+03  0.47110210180E+03  0.46999998093E+01 0.  1.
</event>
<event>
 5   0  0.1017079E-02  0.8982890E+03  0.7818609E-02  0.9427723E-01
        2   -1    0    0  501    0  0.00000000000E+00  0.00000000000E+00  0.41328187396E+03  0.41328187397E+03  0.25500000920E-02 0. -1.
       -2   -1    0    0    0  501  0.00000000000E+00  0.00000000000E+00 -0.48811915915E+03  0.48811915916E+03  0.25500000920E-02 0.  1.
    10030    2    1    2    0    0  0.00000000000E+00  0.00000000000E+00 -0.74837285194E+02  0.90140103313E+03  0.89828904216E+03 0.  0.
        1    1    3    3  502    0  0.35469965309E+03  0.65925735087E+02 -0.30587631154E+03  0.47298875720E+03  0.50400001928E-02 0.  1.
       -1    1    3    3    0  502 -0.35469965309E+03 -0.65925735087E+02  0.23103902635E+03  0.42841227593E+03  0.50400001928E-02 0. -1.
</event>
<event>
 5   0  0.1041727E-02  0.9018223E+03  0.7818609E-02  0.9423306E-01
       -2   -1    0    0    0  501  0.00000000000E+00  0.00000000000E+00  0.24953157038E+03  0.24953157039E+03  0.25500000920E-02 0.  1.
        2   -1    0    0  501    0  0.00000000000E+00  0.00000000000E+00 -0.81481021230E+03  0.81481021231E+03  0.25500000920E-02 0. -1.
    10030    2    1    2    0    0  0.00000000000E+00  0.00000000000E+00 -0.56527864192E+03  0.10643417827E+04  0.90182231475E+03 0.  0.
        4    1    3    3  502    0 -0.25426107557E+03 -0.53975585684E+02 -0.71749142034E+03  0.76312358734E+03  0.12699999809E+01 0. -1.
       -4    1    3    3    0  502  0.25426107557E+03  0.53975585684E+02  0.15221277841E+03  0.30121819535E+03  0.12699999809E+01 0.  1.
</event>
<event>
 5   0  0.6015709E-03  0.8858016E+03  0.7818609E-02  0.9443506E-01
       -1   -1    0    0    0  501  0.00000000000E+00  0.00000000000E+00  0.41276394369E+03  0.41276394372E+03  0.50400001928E-02 0.  1.
        1   -1    0    0  501    0  0.00000000000E+00  0.00000000000E+00 -0.47523799890E+03  0.47523799893E+03  0.50400001928E-02 0. -1.
    10030    2    1    2    0    0  0.00000000000E+00  0.00000000000E+00 -0.62474055209E+02  0.88800194265E+03  0.88580158194E+03 0.  0.
        3    1    3    3  502    0 -0.12769284350E+03 -0.16155167828E+03 -0.42432927590E+03  0.47165639148E+03  0.10100000352E+00 0. -1.
       -3    1    3    3    0  502  0.12769284350E+03  0.16155167828E+03  0.36185522069E+03  0.41634555117E+03  0.10100000352E+00 0.  1.
</event>
<event>
 5   0  0.1041727E-02  0.8232002E+03  0.7818609E-02  0.9527030E-01
       -2   -1    0    0    0  501  0.00000000000E+00  0.00000000000E+00  0.23706653241E+03  0.23706653242E+03  0.25500000920E-02 0.  1.
        2   -1    0    0  501    0  0.00000000000E+00  0.00000000000E+00 -0.71462913290E+03  0.71462913290E+03  0.25500000920E-02 0. -1.
    10030    2    1    2    0    0  0.00000000000E+00  0.00000000000E+00 -0.47756260049E+03  0.95169566533E+03  0.82320021988E+03 0.  0.
        4    1    3    3  502    0 -0.15889140708E+03 -0.19029774558E+03  0.14106738534E+03  0.28523907748E+03  0.12699999809E+01 0.  1.
       -4    1    3    3    0  502  0.15889140708E+03  0.19029774558E+03 -0.61862998583E+03  0.66645658785E+03  0.12699999809E+01 0. -1.
</event>
<event>
 5   0  0.1033749E-02  0.9161673E+03  0.7818609E-02  0.9405594E-01
        2   -1    0    0  501    0  0.00000000000E+00  0.00000000000E+00  0.94020070114E+03  0.94020070114E+03  0.25500000920E-02 0. -1.
       -2   -1    0    0    0  501  0.00000000000E+00  0.00000000000E+00 -0.22318704152E+03  0.22318704154E+03  0.25500000920E-02 0.  1.
    10030    2    1    2    0    0  0.00000000000E+00  0.00000000000E+00  0.71701365962E+03  0.11633877427E+04  0.91616726188E+03 0.  0.
        5    1    3    3  502    0 -0.18556178073E+03  0.39798248203E+03  0.52405105534E+03  0.68372130950E+03  0.46999998093E+01 0.  1.
       -5    1    3    3    0  502  0.18556178073E+03 -0.39798248203E+03  0.19296260428E+03  0.47966643318E+03  0.46999998093E+01 0. -1.
</event>
<event>
 5   0  0.1017079E-02  0.9235694E+03  0.7818609E-02  0.9396589E-01
        2   -1    0    0  501    0  0.00000000000E+00  0.00000000000E+00  0.19334894391E+03  0.19334894393E+03  0.25500000920E-02 0. -1.
       -2   -1    0    0    0  501  0.00000000000E+00  0.00000000000E+00 -0.11029028727E+04  0.11029028727E+04  0.25500000920E-02 0.  1.
    10030    2    1    2    0    0  0.00000000000E+00  0.00000000000E+00 -0.90955392879E+03  0.12962518166E+04  0.92356939249E+03 0.  0.
        1    1    3    3  502    0 -0.23877501571E+02  0.38068585835E+03 -0.82010660154E+03  0.90447039517E+03  0.50400001928E-02 0.  1.
       -1    1    3    3    0  502  0.23877501571E+02 -0.38068585835E+03 -0.89447327251E+02  0.39178142146E+03  0.50400001928E-02 0. -1.
</event>
<event>
 5   0  0.6137243E-03  0.9076573E+03  0.7818609E-02  0.9416060E-01
        1   -1    0    0  501    0  0.00000000000E+00  0.00000000000E+00  0.11789044786E+04  0.11789044786E+04  0.50400001928E-02 0. -1.
       -1   -1    0    0    0  501  0.00000000000E+00  0.00000000000E+00 -0.17470494610E+03  0.17470494617E+03  0.50400001928E-02 0.  1.
    10030    2    1    2    0    0  0.00000000000E+00  0.00000000000E+00  0.10041995325E+04  0.13536094248E+04  0.90765729976E+03 0.  0.
        4    1    3    3  502    0  0.30495619220E+03 -0.11443616120E+03  0.30820931228E+02  0.32717802013E+03  0.12699999809E+01 0.  1.
       -4    1    3    3    0  502 -0.30495619220E+03  0.11443616120E+03  0.97337860129E+03  0.10264314047E+04  0.12699999809E+01 0. -1.
</event>
<event>
 5   0  0.1017079E-02  0.9036998E+03  0.7818609E-02  0.9420968E-01
        2   -1    0    0  501    0  0.00000000000E+00  0.00000000000E+00  0.34498047977E+03  0.34498047978E+03  0.25500000920E-02 0. -1.
       -2   -1    0    0    0  501  0.00000000000E+00  0.00000000000E+00 -0.59182578679E+03  0.59182578680E+03  0.25500000920E-02 0.  1.
    10030    2    1    2    0    0  0.00000000000E+00  0.00000000000E+00 -0.24684530702E+03  0.93680626658E+03  0.90369982599E+03 0.  0.
        1    1    3    3  502    0 -0.37060145437E+02 -0.24633032356E+03 -0.51421628281E+03  0.57137594298E+03  0.50400001928E-02 0.  1.
       -1    1    3    3    0  502  0.37060145437E+02  0.24633032356E+03  0.26737097579E+03  0.36543032360E+03  0.50400001928E-02 0. -1.
</event>
<event>
 5   0  0.6092779E-03  0.9068812E+03  0.7818609E-02  0.9417020E-01
        1   -1    0    0  501    0  0.00000000000E+00  0.00000000000E+00  0.31506743780E+03  0.31506743784E+03  0.50400001928E-02 0.  1.
       -1   -1    0    0    0  501  0.00000000000E+00  0.00000000000E+00 -0.65258528298E+03  0.65258528300E+03  0.50400001928E-02 0. -1.
    10030    2    1    2    0    0  0.00000000000E+00  0.00000000000E+00 -0.33751784518E+03  0.96765272084E+03  0.90688118976E+03 0.  0.
        2    1    3    3  502    0  0.27474957064E+03  0.27261208754E+03 -0.42081699523E+03  0.57174436624E+03  0.25500000920E-02 0. -1.
       -2    1    3    3    0  502 -0.27474957064E+03 -0.27261208754E+03  0.83299150055E+02  0.39590835461E+03  0.25500000920E-02 0.  1.
</event>
<event>
 5   0  0.1028978E-02  0.8885553E+03  0.7818609E-02  0.9440002E-01
       -2   -1    0    0    0  501  0.00000000000E+00  0.00000000000E+00  0.13280305147E+03  0.13280305149E+03  0.25500000920E-02 0. -1.
        2   -1    0    0  501    0  0.00000000000E+00  0.00000000000E+00 -0.14862809184E+04  0.14862809184E+04  0.25500000920E-02 0.  1.
    10030    2    1    2    0    0  0.00000000000E+00  0.00000000000E+00 -0.13534778669E+04  0.16190839699E+04  0.88855532484E+03 0.  0.
        3    1    3    3  502    0  0.16168468916E+03  0.14295157171E+03 -0.13843482593E+04  0.14010700211E+04  0.10100000352E+00 0.  1.
       -3    1    3    3    0  502 -0.16168468916E+03 -0.14295157171E+03  0.30870392400E+02  0.21801394885E+03  0.10100000352E+00 0. -1.
</event>
<event>
 5   0  0.6137243E-03  0.9009199E+03  0.7818609E-02  0.9424432E-01
        1   -1    0    0  501    0  0.00000000000E+00  0.00000000000E+00  0.44604486284E+03  0.44604486287E+03  0.50400001928E-02 0. -1.
       -1   -1    0    0    0  501  0.00000000000E+00  0.00000000000E+00 -0.45491873287E+03  0.45491873289E+03  0.50400001928E-02 0.  1.
    10030    2    1    2    0    0  0.00000000000E+00  0.00000000000E+00 -0.88738700238E+01  0.90096359576E+03  0.90091989395E+03 0.  0.
        4    1    3    3  502    0 -0.29575603618E+03  0.33812655448E+03 -0.37775485844E+02  0.45081015961E+03  0.12699999809E+01 0.  1.
       -4    1    3    3    0  502  0.29575603618E+03 -0.33812655448E+03  0.28901615821E+02  0.45015343615E+03  0.12699999809E+01 0. -1.
</event>
<event>
 5   0  0.6137243E-03  0.9038447E+03  0.7818609E-02  0.9420788E-01
        1   -1    0    0  501    0  0.00000000000E+00  0.00000000000E+00  0.65580241347E+03  0.65580241349E+03  0.50400001928E-02 0. -1.
       -1   -1    0    0    0  501  0.00000000000E+00  0.00000000000E+00 -0.31142584824E+03  0.31142584829E+03  0.50400001928E-02 0.  1.
    10030    2    1    2    0    0  0.00000000000E+00  0.00000000000E+00  0.34437656523E+03  0.96722826178E+03  0.90384472765E+03 0.  0.
        4    1    3    3  502    0  0.19093727949E+03 -0.35138647968E+03  0.39743075287E+03  0.56381053469E+03  0.12699999809E+01 0. -1.
       -4    1    3    3    0  502 -0.19093727949E+03  0.35138647968E+03 -0.53054187640E+02  0.40341772709E+03  0.12699999809E+01 0.  1.
</event>
<event>
 5   0  0.1017079E-02  0.8913300E+03  0.7818609E-02  0.9436485E-01
       -2   -1    0    0    0  501  0.00000000000E+00  0.00000000000E+00  0.44049157525E+03  0.44049157525E+03  0.25500000920E-02 0. -1.
        2   -1    0    0  501    0  0.00000000000E+00  0.00000000000E+00 -0.45089916113E+03  0.45089916113E+03  0.25500000920E-02 0.  1.
    10030    2    1    2    0    0  0.00000000000E+00  0.00000000000E+00 -0.10407585880E+02  0.89139073639E+03  0.89132997654E+03 0.  0.
        1    1    3    3  502    0 -0.46360610219E+02  0.41107653123E+03 -0.17099826876E+03  0.44763113012E+03  0.50400001928E-02 0.  1.
       -1    1    3    3    0  502  0.46360610219E+02 -0.41107653123E+03  0.16059068288E+03  0.44375960627E+03  0.50400001928E-02 0. -1.
</event>
<event>
 5   0  0.1041727E-02  0.8852958E+03  0.7818609E-02  0.9444151E-01
        2   -1    0    0  501    0  0.00000000000E+00  0.00000000000E+00  0.10984799857E+04  0.10984799857E+04  0.25500000920E-02 0. -1.
       -2   -1    0    0    0  501  0.00000000000E+00  0.00000000000E+00 -0.17837116160E+03  0.17837116162E+03  0.25500000920E-02 0.  1.
    10030    2    1    2    0    0  0.00000000000E+00  0.00000000000E+00  0.92010882414E+03  0.12768511474E+04  0.88529577218E+03 0.  0.
        4    1    3    3  502    0 -0.23942142436E+03  0.23995484759E+03  0.87062430808E+03  0.93428542001E+03  0.12699999809E+01 0. -1.
       -4    1    3    3    0  502  0.23942142436E+03 -0.23995484759E+03  0.49484516061E+02  0.34256572735E+03  0.12699999809E+01 0.  1.
</event>
<event>
 5   0  0.6211218E-03  0.9082571E+03  0.7818609E-02  0.9415318E-01
       -1   -1    0    0    0  501  0.00000000000E+00  0.00000000000E+00  0.19573493466E+03  0.19573493473E+03  0.50400001928E-02 0. -1.
        1   -1    0    0  501    0  0.00000000000E+00  0.00000000000E+00 -0.10536328686E+04  0.10536328686E+04  0.50400001928E-02 0.  1.
    10030    2    1    2    0    0  0.00000000000E+00  0.00000000000E+00 -0.85789793392E+03  0.12493678033E+04  0.90825714584E+03 0.  0.
        5    1    3    3  502    0 -0.36988513506E+03  0.24031318686E+03 -0.57739052992E+03  0.72661362150E+03  0.46999998093E+01 0.  1.
       -5    1    3    3    0  502  0.36988513506E+03 -0.24031318686E+03 -0.28050740400E+03  0.52275418182E+03  0.46999998093E+01 0. -1.
</event>
<event>
 5   0  0.1017079E-02  0.9011919E+03  0.7818609E-02  0.9424093E-01
       -2   -1    0    0    0  501  0.00000000000E+00  0.00000000000E+00  0.16021107938E+03  0.16021107940E+03  0.25500000920E-02 0.  1.
        2   -1    0    0  501    0  0.00000000000E+00  0.00000000000E+00 -0.12673075502E+04  0.12673075502E+04  0.25500000920E-02 0. -1.
    10030    2    1    2    0    0  0.00000000000E+00  0.00000000000E+00 -0.11070964709E+04  0.14275186296E+04  0.90119190086E+03 0.  0.
        1    1    3    3  502    0  0.17636084783E+03 -0.26359406575E+03 -0.46529329737E+02  0.32054634407E+03  0.50400001928E-02 0.  1.
       -1    1    3    3    0  502 -0.17636084783E+03  0.26359406575E+03 -0.10605671411E+04  0.11069722856E+04  0.50400001928E-02 0. -1.
</event>
<event>
 5   0  0.1028978E-02  0.8953126E+03  0.7818609E-02  0.9431460E-01
       -2   -1    0    0    0  501  0.00000000000E+00  0.00000000000E+00  0.17250820930E+03  0.17250820932E+03  0.25500000920E-02 0. -1.
        2   -1    0    0  501    0  0.00000000000E+00  0.00000000000E+00 -0.11616615972E+04  0.11616615972E+04  0.25500000920E-02 0.  1.
    10030    2    1    2    0    0  0.00000000000E+00  0.00000000000E+00 -0.98915338786E+03  0.13341698065E+04  0.89531259783E+03 0.  0.
        3    1    3    3  502    0  0.29149703124E+02 -0.42842291757E+03 -0.30608170883E+03  0.52733473636E+03  0.10100000352E+00 0. -1.
       -3    1    3    3    0  502 -0.29149703124E+02  0.42842291757E+03 -0.68307167903E+03  0.80683507013E+03  0.10100000352E+00 0.  1.
</event>
<event>
 5   0  0.6288003E-03  0.9033936E+03  0.7818609E-02  0.9421349E-01
       -1   -1    0    0    0  501  0.00000000000E+00  0.00000000000E+00  0.34399219719E+03  0.34399219723E+03  0.50400001928E-02 0.  1.
        1   -1    0    0  501    0  0.00000000000E+00  0.00000000000E+00 -0.59312394503E+03  0.59312394506E+03  0.50400001928E-02 0. -1.
    10030    2    1    2    0    0  0.00000000000E+00  0.00000000000E+00 -0.24913174784E+03  0.93711614228E+03  0.90339362204E+03 0.  0.
        1    1    3    3  502    0 -0.22081473657E+02 -0.19081026813E+03  0.29951493477E+03  0.35581644998E+03  0.50400001928E-02 0.  1.
       -1    1    3    3    0  502  0.22081473657E+02  0.19081026813E+03 -0.54864668261E+03  0.58129969230E+03  0.50400001928E-02 0. -1.
</event>
<event>
 5   0  0.6137243E-03  0.8744064E+03  0.7818609E-02  0.9458153E-01
        1   -1    0    0  501    0  0.00000000000E+00  0.00000000000E+00  0.43913350840E+03  0.43913350843E+03  0.50400001928E-02 0. -1.
       -1   -1    0    0    0  501  0.00000000000E+00  0.00000000000E+00 -0.43528136015E+03  0.43528136018E+03  0.50400001928E-02 0.  1.
    10030    2    1    2    0    0  0.00000000000E+00  0.00000000000E+00  0.38521482572E+01  0.87441486861E+03  0.87440638344E+03 0.  0.
        4    1    3    3  502    0 -0.10358371782E+03 -0.39003770232E+03  0.17011219452E+03  0.43794836163E+03  0.12699999809E+01 0. -1.
       -4    1    3    3    0  502  0.10358371782E+03  0.39003770232E+03 -0.16626004626E+03  0.43646650698E+03  0.12699999809E+01 0.  1.
</event>
<event>
 5   0  0.6015709E-03  0.8998501E+03  0.7818609E-02  0.9425769E-01
       -1   -1    0    0    0  501  0.00000000000E+00  0.00000000000E+00  0.26766370390E+03  0.26766370394E+03  0.50400001928E-02 0. -1.
        1   -1    0    0  501    0  0.00000000000E+00  0.00000000000E+00 -0.75629436398E+03  0.75629436400E+03  0.50400001928E-02 0.  1.
    10030    2    1    2    0    0  0.00000000000E+00  0.00000000000E+00 -0.48863066009E+03  0.10239580679E+04  0.89985010025E+03 0.  0.
        3    1    3    3  502    0  0.42727890938E+03  0.11752348434E+03 -0.15578023722E+03  0.46973027184E+03  0.10100000352E+00 0.  1.
       -3    1    3    3    0  502 -0.42727890938E+03 -0.11752348434E+03 -0.33285042287E+03  0.55422779611E+03  0.10100000352E+00 0. -1.
</event>
<event>
 5   0  0.6211218E-03  0.9081919E+03  0.7818609E-02  0.9415399E-01
       -1   -1    0    0    0  501  0.00000000000E+00  0.00000000000E+00  0.15298307484E+03  0.15298307492E+03  0.50400001928E-02 0. -1.
        1   -1    0    0  501    0  0.00000000000E+00  0.00000000000E+00 -0.13478819575E+04  0.13478819576E+04  0.50400001928E-02 0.  1.
    10030    2    1    2    0    0  0.00000000000E+00  0.00000000000E+00 -0.11948988827E+04  0.15008650325E+04  0.90819188820E+03 0.  0.
        5    1    3    3  502    0  0.65436483039E+02  0.43038037207E+03 -0.38406843068E+03  0.58055133057E+03  0.46999998093E+01 0.  1.
       -5    1    3    3    0  502 -0.65436483039E+02 -0.43038037207E+03 -0.81083045203E+03  0.92031370191E+03  0.46999998093E+01 0. -1.
</event>
<event>
 5   0  0.3996375E-03  0.8769938E+03  0.7818609E-02  0.9454806E-01
        3   -1    0    0  501    0  0.00000000000E+00  0.00000000000E+00  0.54618089054E+03  0.54618089988E+03  0.10100000352E+00 0.  1.
       -3   -1    0    0    0  501  0.00000000000E+00  0.00000000000E+00 -0.35204364607E+03  0.35204366056E+03  0.10100000352E+00 0. -1.
    10030    2    1    2    0    0  0.00000000000E+00  0.00000000000E+00  0.19413724448E+03  0.89822456044E+03  0.87699378064E+03 0.  0.
        5    1    3    3  502    0  0.10556253208E+03 -0.15454077001E+03 -0.30905447278E+03  0.36133510059E+03  0.46999998093E+01 0. -1.
       -5    1    3    3    0  502 -0.10556253208E+03  0.15454077001E+03  0.50319171726E+03  0.53688945984E+03  0.46999998093E+01 0.  1.
</event>
<event>
 5   0  0.6015709E-03  0.9165281E+03  0.7818609E-02  0.9405153E-01
       -1   -1    0    0    0  501  0.00000000000E+00  0.00000000000E+00  0.35418503886E+03  0.35418503890E+03  0.50400001928E-02 0. -1.
        1   -1    0    0  501    0  0.00000000000E+00  0.00000000000E+00 -0.59292714814E+03  0.59292714816E+03  0.50400001928E-02 0.  1.
    10030    2    1    2    0    0  0.00000000000E+00  0.00000000000E+00 -0.23874210928E+03  0.94711218706E+03  0.91652806839E+03 0.  0.
        3    1    3    3  502    0 -0.24937853290E+03  0.15073665944E+03  0.24611864995E+03  0.38142573750E+03  0.10100000352E+00 0. -1.
       -3    1    3    3    0  502  0.24937853290E+03 -0.15073665944E+03 -0.48486075923E+03  0.56568644956E+03  0.10100000352E+00 0.  1.
</event>
<event>
 5   0  0.1041727E-02  0.8791091E+03  0.7818609E-02  0.9452080E-01
       -2   -1    0    0    0  501  0.00000000000E+00  0.00000000000E+00  0.76881428813E+03  0.76881428813E+03  0.25500000920E-02 0. -1.
        2   -1    0    0  501    0  0.00000000000E+00  0.00000000000E+00 -0.25130672937E+03  0.25130672939E+03  0.25500000920E-02 0.  1.
    10030    2    1    2    0    0  0.00000000000E+00  0.00000000000E+00  0.51750755875E+03  0.10201210175E+04  0.87910910416E+03 0.  0.
        4    1    3    3  502    0  0.38546430345E+03  0.93557031570E+02  0.38977751206E+02  0.39856809378E+03  0.12699999809E+01 0. -1.
       -4    1    3    3    0  502 -0.38546430345E+03 -0.93557031570E+02  0.47852980755E+03  0.62155292373E+03  0.12699999809E+01 0.  1.
</event>
<event>
 5   0  0.1017079E-02  0.8926545E+03  0.7818609E-02  0.9434811E-01
        2   -1    0    0  501    0  0.00000000000E+00  0.00000000000E+00  0.14148052799E+04  0.14148052799E+04  0.25500000920E-02 0. -1.
       -2   -1    0    0    0  501  0.00000000000E+00  0.00000000000E+00 -0.14080242000E+03  0.14080242003E+03  0.25500000920E-02 0.  1.
    10030    2    1    2    0    0  0.00000000000E+00  0.00000000000E+00  0.12740028599E+04  0.15556076999E+04  0.89265448470E+03 0.  0.
        1    1    3    3  502    0  0.12964081349E+03  0.37208401059E+03  0.10023602774E+04  0.10770233875E+04  0.50400001928E-02 0.  1.
       -1    1    3    3    0  502 -0.12964081349E+03 -0.37208401059E+03  0.27164258248E+03  0.47858431243E+03  0.50400001928E-02 0. -1.
</event>
<event>
 5   0  0.6092779E-03  0.9337256E+03  0.7818609E-02  0.9384378E-01
       -1   -1    0    0    0  501  0.00000000000E+00  0.00000000000E+00  0.50998751251E+03  0.50998751253E+03  0.50400001928E-02 0.  1.
        1   -1    0    0  501    0  0.00000000000E+00  0.00000000000E+00 -0.42738469741E+03  0.42738469744E+03  0.50400001928E-02 0. -1.
    10030    2    1    2    0    0  0.00000000000E+00  0.00000000000E+00  0.82602815096E+02  0.93737220998E+03  0.93372556727E+03 0.  0.
        2    1    3    3  502    0  0.26238072030E+03  0.19153416925E+03  0.37791957883E+03  0.49834946418E+03  0.25500000920E-02 0.  1.
       -2    1    3    3    0  502 -0.26238072030E+03 -0.19153416925E+03 -0.29531676374E+03  0.43902274580E+03  0.25500000920E-02 0. -1.
</event>
<event>
 5   0  0.1033749E-02  0.8886407E+03  0.7818609E-02  0.9439894E-01
       -2   -1    0    0    0  501  0.00000000000E+00  0.00000000000E+00  0.25315252207E+03  0.25315252209E+03  0.25500000920E-02 0. -1.
        2   -1    0    0  501    0  0.00000000000E+00  0.00000000000E+00 -0.77984835864E+03  0.77984835865E+03  0.25500000920E-02 0.  1.
    10030    2    1    2    0    0  0.00000000000E+00  0.00000000000E+00 -0.52669583657E+03  0.10330008807E+04  0.88864071218E+03 0.  0.
        5    1    3    3  502    0 -0.68066551521E+02  0.42199204362E+02 -0.77135963537E+03  0.77552021596E+03  0.46999998093E+01 0.  1.
       -5    1    3    3    0  502  0.68066551521E+02 -0.42199204362E+02  0.24466379881E+03  0.25748066477E+03  0.46999998093E+01 0. -1.
</event>
<event>
 5   0  0.6092779E-03  0.9085153E+03  0.7818609E-02  0.9414999E-01
        1   -1    0    0  501    0  0.00000000000E+00  0.00000000000E+00  0.55654430750E+03  0.55654430753E+03  0.50400001928E-02 0. -1.
       -1   -1    0    0    0  501  0.00000000000E+00  0.00000000000E+00 -0.37077014161E+03  0.37077014164E+03  0.50400001928E-02 0.  1.
    10030    2    1    2    0    0  0.00000000000E+00  0.00000000000E+00  0.18577416590E+03  0.92731444917E+03  0.90851529812E+03 0.  0.
        2    1    3    3  502    0 -0.37155865932E+03  0.26014830253E+03  0.67532894343E+02  0.45857787610E+03  0.25500000920E-02 0.  1.
       -2    1    3    3    0  502  0.37155865932E+03 -0.26014830253E+03  0.11824127155E+03  0.46873657307E+03  0.25500000920E-02 0. -1.
</event>
<event>
 5   0  0.1003252E-02  0.7311960E+03  0.7818609E-02  0.9665322E-01
       -2   -1    0    0    0  501  0.00000000000E+00  0.00000000000E+00  0.11647434800E+03  0.11647434803E+03  0.25500000920E-02 0.  1.
        2   -1    0    0  501    0  0.00000000000E+00  0.00000000000E+00 -0.11475651619E+04  0.11475651619E+04  0.25500000920E-02 0. -1.
    10030    2    1    2    0    0  0.00000000000E+00  0.00000000000E+00 -0.10310908139E+04  0.12640395100E+04  0.73119601762E+03 0.  0.
        2    1    3    3  502    0 -0.67253429982E+02 -0.13544567063E+03 -0.10909637201E+04  0.11013947485E+04  0.25500000920E-02 0. -1.
       -2    1    3    3    0  502  0.67253429982E+02  0.13544567063E+03  0.59872906125E+02  0.16264476147E+03  0.25500000920E-02 0.  1.
</event>
<event>
 5   0  0.1028978E-02  0.8965338E+03  0.7818609E-02  0.9429925E-01
       -2   -1    0    0    0  501  0.00000000000E+00  0.00000000000E+00  0.13568274886E+03  0.13568274888E+03  0.25500000920E-02 0.  1.
        2   -1    0    0  501    0  0.00000000000E+00  0.00000000000E+00 -0.14809782903E+04  0.14809782903E+04  0.25500000920E-02 0. -1.
    10030    2    1    2    0    0  0.00000000000E+00  0.00000000000E+00 -0.13452955414E+04  0.16166610391E+04  0.89653378171E+03 0.  0.
        3    1    3    3  502    0 -0.22836557222E+03  0.32315861375E+03 -0.10524454843E+04  0.11243770862E+04  0.10100000352E+00 0. -1.
       -3    1    3    3    0  502  0.22836557222E+03 -0.32315861375E+03 -0.29285005705E+03  0.49228395295E+03  0.10100000352E+00 0.  1.
</event>
<event>
 5   0  0.3996375E-03  0.8909600E+03  0.7818609E-02  0.9436953E-01
       -3   -1    0    0    0  501  0.00000000000E+00  0.00000000000E+00  0.14127702053E+03  0.14127705663E+03  0.10100000352E+00 0. -1.
        3   -1    0    0  501    0  0.00000000000E+00  0.00000000000E+00 -0.14047039140E+04  0.14047039177E+04  0.10100000352E+00 0.  1.
    10030    2    1    2    0    0  0.00000000000E+00  0.00000000000E+00 -0.12634268935E+04  0.15459809743E+04  0.89095996412E+03 0.  0.
        1    1    3    3  502    0 -0.38252279857E+03 -0.11330121005E+03 -0.28776323198E+03  0.49190297146E+03  0.50400001928E-02 0. -1.
       -1    1    3    3    0  502  0.38252279857E+03  0.11330121005E+03 -0.97566366154E+03  0.10540780029E+04  0.50400001928E-02 0.  1.
</event>
<event>
 5   0  0.1017079E-02  0.9141480E+03  0.7818609E-02  0.9408067E-01
       -2   -1    0    0    0  501  0.00000000000E+00  0.00000000000E+00  0.48437969234E+03  0.48437969235E+03  0.25500000920E-02 0. -1.
        2   -1    0    0  501    0  0.00000000000E+00  0.00000000000E+00 -0.43130759137E+03  0.43130759138E+03  0.25500000920E-02 0.  1.
    10030    2    1    2    0    0  0.00000000000E+00  0.00000000000E+00  0.53072100967E+02  0.91568728372E+03  0.91414799331E+03 0.  0.
        1    1    3    3  502    0 -0.40350560856E+03  0.11006629261E+03 -0.15812532129E+03  0.44714089744E+03  0.50400001928E-02 0.  1.
       -1    1    3    3    0  502  0.40350560856E+03 -0.11006629261E+03  0.21119742225E+03  0.46854638628E+03  0.50400001928E-02 0. -1.
</event>
<event>
 5   0  0.1041727E-02  0.8946342E+03  0.7818609E-02  0.9432314E-01
       -2   -1    0    0    0  501  0.00000000000E+00  0.00000000000E+00  0.10867158954E+03  0.10867158957E+03  0.25500000920E-02 0. -1.
        2   -1    0    0  501    0  0.00000000000E+00  0.00000000000E+00 -0.18412594253E+04  0.18412594253E+04  0.25500000920E-02 0.  1.
    10030    2    1    2    0    0  0.00000000000E+00  0.00000000000E+00 -0.17325878358E+04  0.19499310149E+04  0.89463420129E+03 0.  0.
        4    1    3    3  502    0  0.37646431503E+03 -0.16798023151E+03 -0.48784722870E+03  0.63870123697E+03  0.12699999809E+01 0. -1.
       -4    1    3    3    0  502 -0.37646431503E+03  0.16798023151E+03 -0.12447406071E+04  0.13112297779E+04  0.12699999809E+01 0.  1.
</event>
<event>
 5   0  0.6211218E-03  0.9010170E+03  0.7818609E-02  0.9424311E-01
       -1   -1    0    0    0  501  0.00000000000E+00  0.00000000000E+00  0.22524668077E+03  0.22524668083E+03  0.50400001928E-02 0. -1.
        1   -1    0    0  501    0  0.00000000000E+00  0.00000000000E+00 -0.90104723242E+03  0.90104723243E+03  0.50400001928E-02 0.  1.
    10030    2    1    2    0    0  0.00000000000E+00  0.00000000000E+00 -0.67580055165E+03  0.11262939133E+04  0.90101697733E+03 0.  0.
        5    1    3    3  502    0  0.26261529770E+03  0.19021318030E+03  0.52995930485E+02  0.32860083261E+03  0.46999998093E+01 0. -1.
       -5    1    3    3    0  502 -0.26261529770E+03 -0.19021318030E+03 -0.72879648213E+03  0.79769308065E+03  0.46999998093E+01 0.  1.
</event>
<event>
 5   0  0.6092779E-03  0.8998422E+03  0.7818609E-02  0.9425779E-01
       -1   -1    0    0    0  501  0.00000000000E+00  0.00000000000E+00  0.41782510713E+03  0.41782510717E+03  0.50400001928E-02 0.  1.
        1   -1    0    0  501    0  0.00000000000E+00  0.00000000000E+00 -0.48448260924E+03  0.48448260926E+03  0.50400001928E-02 0. -1.
    10030    2    1    2    0    0  0.00000000000E+00  0.00000000000E+00 -0.66657502103E+02  0.90230771643E+03  0.89984220425E+03 0.  0.
        2    1    3    3  502    0 -0.92245754313E+02  0.32380370500E+02 -0.47370312480E+03  0.48368628059E+03  0.25500000920E-02 0. -1.
       -2    1    3    3    0  502  0.92245754313E+02 -0.32380370500E+02  0.40704562269E+03  0.41862143584E+03  0.25500000920E-02 0.  1.
</event>
<event>
 5   0  0.6211218E-03  0.9100056E+03  0.7818609E-02  0.9413160E-01
       -1   -1    0    0    0  501  0.00000000000E+00  0.00000000000E+00  0.36570670037E+03  0.36570670040E+03  0.50400001928E-02 0.  1.
        1   -1    0    0  501    0  0.00000000000E+00  0.00000000000E+00 -0.56610272289E+03  0.56610272292E+03  0.50400001928E-02 0. -1.
    10030    2    1    2    0    0  0.00000000000E+00  0.00000000000E+00 -0.20039602252E+03  0.93180942332E+03  0.91000562391E+03 0.  0.
        5    1    3    3  502    0 -0.43238944567E+03 -0.10091704026E+03  0.14817246688E+01  0.44403734893E+03  0.46999998093E+01 0.  1.
       -5    1    3    3    0  502  0.43238944567E+03  0.10091704026E+03 -0.20187774719E+03  0.48777207439E+03  0.46999998093E+01 0. -1.
</event>
<event>
 5   0  0.1028978E-02  0.9349803E+03  0.7818609E-02  0.9382881E-01
       -2   -1    0    0    0  501  0.00000000000E+00  0.00000000000E+00  0.51333676138E+03  0.51333676138E+03  0.25500000920E-02 0.  1.
        2   -1    0    0  501    0  0.00000000000E+00  0.00000000000E+00 -0.42573810251E+03  0.42573810251E+03  0.25500000920E-02 0. -1.
    10030    2    1    2    0    0  0.00000000000E+00  0.00000000000E+00  0.87598658868E+02  0.93907486390E+03  0.93498025378E+03 0.  0.
        3    1    3    3  502    0  0.13228626862E+03  0.23167370802E+03  0.42937459163E+03  0.50550461322E+03  0.10100000352E+00 0.  1.
       -3    1    3    3    0  502 -0.13228626862E+03 -0.23167370802E+03 -0.34177593276E+03  0.43357025067E+03  0.10100000352E+00 0. -1.
</event>
<event>
 5   0  0.1003252E-02  0.9002860E+03  0.7818609E-02  0.9425224E-01
        2   -1    0    0  501    0  0.00000000000E+00  0.00000000000E+00  0.67052357663E+03  0.67052357664E+03  0.25500000920E-02 0.  1.
       -2   -1    0    0    0  501  0.00000000000E+00  0.00000000000E+00 -0.30219476812E+03  0.30219476813E+03  0.25500000920E-02 0. -1.
    10030    2    1    2    0    0  0.00000000000E+00  0.00000000000E+00  0.36832880851E+03  0.97271834476E+03  0.90028599181E+03 0.  0.
        2    1    3    3  502    0 -0.21712139638E+03  0.85050859418E+02 -0.23185050656E+03  0.32883127414E+03  0.25500000920E-02 0. -1.
       -2    1    3    3    0  502  0.21712139638E+03 -0.85050859418E+02  0.60017931508E+03  0.64388707062E+03  0.25500000920E-02 0.  1.
</event>
<event>
 5   0  0.1033749E-02  0.9018063E+03  0.7818609E-02  0.9423326E-01
       -2   -1    0    0    0  501  0.00000000000E+00  0.00000000000E+00  0.13771881461E+03  0.13771881464E+03  0.25500000920E-02 0. -1.
        2   -1    0    0  501    0  0.00000000000E+00  0.00000000000E+00 -0.14762953124E+04  0.14762953124E+04  0.25500000920E-02 0.  1.
    10030    2    1    2    0    0  0.00000000000E+00  0.00000000000E+00 -0.13385764978E+04  0.16140141270E+04  0.90180627733E+03 0.  0.
        5    1    3    3  502    0 -0.91695632928E+02 -0.39276009154E+03 -0.10300163067E+04  0.11061755108E+04  0.46999998093E+01 0.  1.
       -5    1    3    3    0  502  0.91695632928E+02  0.39276009154E+03 -0.30856019102E+03  0.50783861618E+03  0.46999998093E+01 0. -1.
</event>
<event>
 5   0  0.6137243E-03  0.8970701E+03  0.7818609E-02  0.9429251E-01
        1   -1    0    0  501    0  0.00000000000E+00  0.00000000000E+00  0.47529705983E+03  0.47529705986E+03  0.50400001928E-02 0.  1.
       -1   -1    0    0    0  501  0.00000000000E+00  0.00000000000E+00 -0.42327985168E+03  0.42327985171E+03  0.50400001928E-02 0. -1.
    10030    2    1    2    0    0  0.00000000000E+00  0.00000000000E+00  0.52017208150E+02  0.89857691157E+03  0.89707005081E+03 0.  0.
        4    1    3    3  502    0  0.53965774095E+02 -0.21099820508E+03 -0.36675909649E+03  0.42655174959E+03  0.12699999809E+01 0. -1.
       -4    1    3    3    0  502 -0.53965774095E+02  0.21099820508E+03  0.41877630464E+03  0.47202516198E+03  0.12699999809E+01 0.  1.
</event>
<event>
 5   0  0.6288003E-03  0.9363612E+03  0.7818609E-02  0.9381236E-01
       -1   -1    0    0    0  501  0.00000000000E+00  0.00000000000E+00  0.53224659602E+03  0.53224659605E+03  0.50400001928E-02 0. -1.
        1   -1    0    0  501    0  0.00000000000E+00  0.00000000000E+00 -0.41182620043E+03  0.41182620046E+03  0.50400001928E-02 0.  1.
    10030    2    1    2    0    0  0.00000000000E+00  0.00000000000E+00  0.12042039559E+03  0.94407279650E+03  0.93636124088E+03 0.  0.
        1    1    3    3  502    0 -0.29187584548E+03  0.31004395438E+02 -0.30754064935E+03  0.42512825445E+03  0.50400001928E-02 0.  1.
       -1    1    3    3    0  502  0.29187584548E+03 -0.31004395438E+02  0.42796104494E+03  0.51894454205E+03  0.50400001928E-02 0. -1.
</event>
<event>
 5   0  0.1003252E-02  0.9027882E+03  0.7818609E-02  0.9422103E-01
       -2   -1    0    0    0  501  0.00000000000E+00  0.00000000000E+00  0.67252504984E+03  0.67252504985E+03  0.25500000920E-02 0.  1.
        2   -1    0    0  501    0  0.00000000000E+00  0.00000000000E+00 -0.30297257653E+03  0.30297257654E+03  0.25500000920E-02 0. -1.
    10030    2    1    2    0    0  0.00000000000E+00  0.00000000000E+00  0.36955247331E+03  0.97549762639E+03  0.90278823018E+03 0.  0.
        2    1    3    3  502    0 -0.28848926993E+03 -0.27247499150E+03 -0.47697760625E+02  0.39967956694E+03  0.25500000920E-02 0.  1.
       -2    1    3    3    0  502  0.28848926993E+03  0.27247499150E+03  0.41725023394E+03  0.57581805944E+03  0.25500000920E-02 0. -1.
</event>
<event>
 5   0  0.3996375E-03  0.8804390E+03  0.7818609E-02  0.9450369E-01
        3   -1    0    0  501    0  0.00000000000E+00  0.00000000000E+00  0.56667708579E+03  0.56667709479E+03  0.10100000352E+00 0.  1.
       -3   -1    0    0    0  501  0.00000000000E+00  0.00000000000E+00 -0.34198167319E+03  0.34198168811E+03  0.10100000352E+00 0. -1.
    10030    2    1    2    0    0  0.00000000000E+00  0.00000000000E+00  0.22469541260E+03  0.90865878290E+03  0.88043895603E+03 0.  0.
        4    1    3    3  502    0  0.27545292077E+02 -0.40027502237E+03  0.29929656683E+03  0.50055857246E+03  0.12699999809E+01 0.  1.
       -4    1    3    3    0  502 -0.27545292077E+02  0.40027502237E+03 -0.74601154236E+02  0.40810021044E+03  0.12699999809E+01 0. -1.
</event>
<event>
 5   0  0.6137243E-03  0.8962235E+03  0.7818609E-02  0.9430315E-01
        1   -1    0    0  501    0  0.00000000000E+00  0.00000000000E+00  0.48378020443E+03  0.48378020446E+03  0.50400001928E-02 0.  1.
       -1   -1    0    0    0  501  0.00000000000E+00  0.00000000000E+00 -0.41507310833E+03  0.41507310836E+03  0.50400001928E-02 0. -1.
    10030    2    1    2    0    0  0.00000000000E+00  0.00000000000E+00  0.68707096103E+02  0.89885331281E+03  0.89622352842E+03 0.  0.
        4    1    3    3  502    0  0.62481516810E+02 -0.44144018808E+03  0.79531933492E+02  0.45288002931E+03  0.12699999809E+01 0. -1.
       -4    1    3    3    0  502 -0.62481516810E+02  0.44144018808E+03 -0.10824837389E+02  0.44597328351E+03  0.12699999809E+01 0.  1.
</event>
<event>
 5   0  0.1041727E-02  0.8974495E+03  0.7818609E-02  0.9428775E-01
        2   -1    0    0  501    0  0.00000000000E+00  0.00000000000E+00  0.22834674741E+04  0.22834674741E+04  0.25500000920E-02 0.  1.
       -2   -1    0    0    0  501  0.00000000000E+00  0.00000000000E+00 -0.88179014571E+02  0.88179014608E+02  0.25500000920E-02 0. -1.
    10030    2    1    2    0    0  0.00000000000E+00  0.00000000000E+00  0.21952884595E+04  0.23716464887E+04  0.89744952329E+03 0.  0.
        4    1    3    3  502    0 -0.30599574130E+03 -0.76486763842E+02  0.19410960174E+04  0.19665551048E+04  0.12699999809E+01 0.  1.
       -4    1    3    3    0  502  0.30599574130E+03  0.76486763842E+02  0.25419244211E+03  0.40509138385E+03  0.12699999809E+01 0. -1.
</event>
<event>
 5   0  0.6211218E-03  0.9106042E+03  0.7818609E-02  0.9412422E-01
       -1   -1    0    0    0  501  0.00000000000E+00  0.00000000000E+00  0.27023376489E+03  0.27023376494E+03  0.50400001928E-02 0. -1.
        1   -1    0    0  501    0  0.00000000000E+00  0.00000000000E+00 -0.76711366840E+03  0.76711366842E+03  0.50400001928E-02 0.  1.
    10030    2    1    2    0    0  0.00000000000E+00  0.00000000000E+00 -0.49687990351E+03  0.10373474334E+04  0.91060422741E+03 0.  0.
        5    1    3    3  502    0  0.24731794657E+03  0.24607497724E+03 -0.58165689681E+03  0.67828157628E+03  0.46999998093E+01 0.  1.
       -5    1    3    3    0  502 -0.24731794657E+03 -0.24607497724E+03  0.84776993301E+02  0.35906585707E+03  0.46999998093E+01 0. -1.
</event>
<event>
 5   0  0.1033749E-02  0.8938463E+03  0.7818609E-02  0.9433307E-01
       -2   -1    0    0    0  501  0.00000000000E+00  0.00000000000E+00  0.15038473860E+03  0.15038473862E+03  0.25500000920E-02 0.  1.
        2   -1    0    0  501    0  0.00000000000E+00  0.00000000000E+00 -0.13281951570E+04  0.13281951570E+04  0.25500000920E-02 0. -1.
    10030    2    1    2    0    0  0.00000000000E+00  0.00000000000E+00 -0.11778104184E+04  0.14785798956E+04  0.89384625413E+03 0.  0.
        5    1    3    3  502    0 -0.26242857172E+03 -0.36170842615E+03 -0.59561446368E+03  0.74463442047E+03  0.46999998093E+01 0. -1.
       -5    1    3    3    0  502  0.26242857172E+03  0.36170842615E+03 -0.58219595470E+03  0.73394547513E+03  0.46999998093E+01 0.  1.
</event>
<event>
 5   0  0.1017079E-02  0.8990037E+03  0.7818609E-02  0.9426828E-01
       -2   -1    0    0    0  501  0.00000000000E+00  0.00000000000E+00  0.21190682570E+03  0.21190682572E+03  0.25500000920E-02 0.  1.
        2   -1    0    0  501    0  0.00000000000E+00  0.00000000000E+00 -0.95349409828E+03  0.95349409829E+03  0.25500000920E-02 0. -1.
    10030    2    1    2    0    0  0.00000000000E+00  0.00000000000E+00 -0.74158727258E+03  0.11654009240E+04  0.89900368787E+03 0.  0.
        1    1    3    3  502    0 -0.37016486347E+03  0.25485992608E+03 -0.38211698882E+03  0.58990592575E+03  0.50400001928E-02 0. -1.
       -1    1    3    3    0  502  0.37016486347E+03 -0.25485992608E+03 -0.35947028376E+03  0.57549499825E+03  0.50400001928E-02 0.  1.
</event>
<event>
 5   0  0.6015709E-03  0.9036975E+03  0.7818609E-02  0.9420971E-01
        1   -1    0    0  501    0  0.00000000000E+00  0.00000000000E+00  0.64907690241E+03  0.64907690243E+03  0.50400001928E-02 0. -1.
       -1   -1    0    0    0  501  0.00000000000E+00  0.00000000000E+00 -0.31455022811E+03  0.31455022815E+03  0.50400001928E-02 0.  1.
    10030    2    1    2    0    0  0.00000000000E+00  0.00000000000E+00  0.33452667430E+03  0.96362713058E+03  0.90369748864E+03 0.  0.
        3    1    3    3  502    0  0.37006321018E+02  0.84072407189E+02  0.63901587185E+03  0.64558417896E+03  0.10100000352E+00 0. -1.
       -3    1    3    3    0  502 -0.37006321018E+02 -0.84072407189E+02 -0.30448919755E+03  0.31804295161E+03  0.10100000352E+00 0.  1.
</event>
<event>
 5   0  0.3996375E-03  0.8918218E+03  0.7818609E-02  0.9435863E-01
        3   -1    0    0  501    0  0.00000000000E+00  0.00000000000E+00  0.62017926721E+03  0.62017927544E+03  0.10100000352E+00 0. -1.
       -3   -1    0    0    0  501  0.00000000000E+00  0.00000000000E+00 -0.32061133444E+03  0.32061135035E+03  0.10100000352E+00 0.  1.
    10030    2    1    2    0    0  0.00000000000E+00  0.00000000000E+00  0.29956793277E+03  0.94079062579E+03  0.89182176203E+03 0.  0.
        5    1    3    3  502    0  0.12516369453E+03 -0.25114125759E+03 -0.21576368851E+03  0.35399709176E+03  0.46999998093E+01 0.  1.
       -5    1    3    3    0  502 -0.12516369453E+03  0.25114125759E+03  0.51533162128E+03  0.58679353403E+03  0.46999998093E+01 0. -1.
</event>
<event>
 5   0  0.6092779E-03  0.8968268E+03  0.7818609E-02  0.9429557E-01
       -1   -1    0    0    0  501  0.00000000000E+00  0.00000000000E+00  0.24229417671E+03  0.24229417676E+03  0.50400001928E-02 0.  1.
        1   -1    0    0  501    0  0.00000000000E+00  0.00000000000E+00 -0.82987780951E+03  0.82987780953E+03  0.50400001928E-02 0. -1.
    10030    2    1    2    0    0  0.00000000000E+00  0.00000000000E+00 -0.58758363280E+03  0.10721719863E+04  0.89682676290E+03 0.  0.
        2    1    3    3  502    0  0.20884677731E+03 -0.39637750684E+03 -0.31591555403E+03  0.54821049024E+03  0.25500000920E-02 0.  1.
       -2    1    3    3    0  502 -0.20884677731E+03  0.39637750684E+03 -0.27166807877E+03  0.52396149606E+03  0.25500000920E-02 0. -1.
</event>
<event>
 5   0  0.6137243E-03  0.8661541E+03  0.7818609E-02  0.9468908E-01
        1   -1    0    0  501    0  0.00000000000E+00  0.00000000000E+00  0.77441874142E+03  0.77441874144E+03  0.50400001928E-02 0.  1.
       -1   -1    0    0    0  501  0.00000000000E+00  0.00000000000E+00 -0.24218902195E+03  0.24218902200E+03  0.50400001928E-02 0. -1.
    10030    2    1    2    0    0  0.00000000000E+00  0.00000000000E+00  0.53222971947E+03  0.10166077634E+04  0.86615406851E+03 0.  0.
        4    1    3    3  502    0  0.42753348895E+03  0.61345430314E+02  0.22888869034E+03  0.48881468008E+03  0.12699999809E+01 0.  1.
       -4    1    3    3    0  502 -0.42753348895E+03 -0.61345430314E+02  0.30334102913E+03  0.52779308336E+03  0.12699999809E+01 0. -1.
</event>
<event>
 5   0  0.6137243E-03  0.8768330E+03  0.7818609E-02  0.9455014E-01
       -1   -1    0    0    0  501  0.00000000000E+00  0.00000000000E+00  0.85510445774E+03  0.85510445775E+03  0.50400001928E-02 0. -1.
        1   -1    0    0  501    0  0.00000000000E+00  0.00000000000E+00 -0.22477840692E+03  0.22477840698E+03  0.50400001928E-02 0.  1.
    10030    2    1    2    0    0  0.00000000000E+00  0.00000000000E+00  0.63032605082E+03  0.10798828647E+04  0.87683297794E+03 0.  0.
        4    1    3    3  502    0  0.25888552762E+03  0.26133770428E+03  0.60890852736E+03  0.71140025280E+03  0.12699999809E+01 0. -1.
       -4    1    3    3    0  502 -0.25888552762E+03 -0.26133770428E+03  0.21417523459E+02  0.36848261194E+03  0.12699999809E+01 0.  1.
</event>
<event>
 5   0  0.6288003E-03  0.9006193E+03  0.7818609E-02  0.9424808E-01
        1   -1    0    0  501    0  0.00000000000E+00  0.00000000000E+00  0.73243189443E+03  0.73243189444E+03  0.50400001928E-02 0. -1.
       -1   -1    0    0    0  501  0.00000000000E+00  0.00000000000E+00 -0.27685681256E+03  0.27685681261E+03  0.50400001928E-02 0.  1.
    10030    2    1    2    0    0  0.00000000000E+00  0.00000000000E+00  0.45557508187E+03  0.10092887070E+04  0.90061925305E+03 0.  0.
        1    1    3    3  502    0  0.15391147760E+02 -0.24819375146E+03 -0.19293326743E+03  0.31473841742E+03  0.50400001928E-02 0.  1.
       -1    1    3    3    0  502 -0.15391147760E+02  0.24819375146E+03  0.64850834929E+03  0.69455028963E+03  0.50400001928E-02 0. -1.
</event>
<event>
 5   0  0.1033749E-02  0.8853849E+03  0.7818609E-02  0.9444038E-01
       -2   -1    0    0    0  501  0.00000000000E+00  0.00000000000E+00  0.18034096880E+03  0.18034096882E+03  0.25500000920E-02 0.  1.
        2   -1    0    0  501    0  0.00000000000E+00  0.00000000000E+00 -0.10867005287E+04  0.10867005287E+04  0.25500000920E-02 0. -1.
    10030    2    1    2    0    0  0.00000000000E+00  0.00000000000E+00 -0.90635955994E+03  0.12670414976E+04  0.88538494715E+03 0.  0.
        5    1    3    3  502    0 -0.15632545015E+03  0.27188856298E+03 -0.61163460751E+01  0.31372047547E+03  0.46999998093E+01 0.  1.
       -5    1    3    3    0  502  0.15632545015E+03 -0.27188856298E+03 -0.90024321387E+03  0.95332102209E+03  0.46999998093E+01 0. -1.
</event>
<event>
 5   0  0.1003252E-02  0.9040357E+03  0.7818609E-02  0.9420551E-01
       -2   -1    0    0    0  501  0.00000000000E+00  0.00000000000E+00  0.20090171611E+03  0.20090171613E+03  0.25500000920E-02 0.  1.
        2   -1    0    0  501    0  0.00000000000E+00  0.00000000000E+00 -0.10170153243E+04  0.10170153243E+04  0.25500000920E-02 0. -1.
    10030    2    1    2    0    0  0.00000000000E+00  0.00000000000E+00 -0.81611360815E+03  0.12179170404E+04  0.90403567179E+03 0.  0.
        2    1    3    3  502    0  0.22772049766E+03  0.16924370406E+02 -0.93359797072E+03  0.96111821870E+03  0.25500000920E-02 0. -1.
       -2    1    3    3    0  502 -0.22772049766E+03 -0.16924370406E+02  0.11748436257E+03  0.25679882169E+03  0.25500000920E-02 0.  1.
</event>
<event>
 5   0  0.6092779E-03  0.8827140E+03  0.7818609E-02  0.9447452E-01
       -1   -1    0    0    0  501  0.00000000000E+00  0.00000000000E+00  0.76478419368E+03  0.76478419370E+03  0.50400001928E-02 0.  1.
        1   -1    0    0  501    0  0.00000000000E+00  0.00000000000E+00 -0.25470712853E+03  0.25470712858E+03  0.50400001928E-02 0. -1.
    10030    2    1    2    0    0  0.00000000000E+00  0.00000000000E+00  0.51007706515E+03  0.10194913223E+04  0.88271396489E+03 0.  0.
        2    1    3    3  502    0  0.28946876311E+03  0.20078000876E+03 -0.52037726651E+02  0.35610771086E+03  0.25500000920E-02 0. -1.
       -2    1    3    3    0  502 -0.28946876311E+03 -0.20078000876E+03  0.56211479180E+03  0.66338361142E+03  0.25500000920E-02 0.  1.
</event>
<event>
 5   0  0.6288003E-03  0.9035579E+03  0.7818609E-02  0.9421145E-01
        1   -1    0    0  501    0  0.00000000000E+00  0.00000000000E+00  0.82611674396E+03  0.82611674398E+03  0.50400001928E-02 0.  1.
       -1   -1    0    0    0  501  0.00000000000E+00  0.00000000000E+00 -0.24706461703E+03  0.24706461708E+03  0.50400001928E-02 0. -1.
    10030    2    1    2    0    0  0.00000000000E+00  0.00000000000E+00  0.57905212693E+03  0.10731813611E+04  0.90355789412E+03 0.  0.
        1    1    3    3  502    0  0.39714882197E+03  0.13705300748E+03  0.48682309825E+03  0.64304544370E+03  0.50400001928E-02 0.  1.
       -1    1    3    3    0  502 -0.39714882197E+03 -0.13705300748E+03  0.92229028685E+02  0.43013591736E+03  0.50400001928E-02 0. -1.
</event>
<event>
 5   0  0.6015709E-03  0.8849456E+03  0.7818609E-02  0.9444598E-01
        1   -1    0    0  501    0  0.00000000000E+00  0.00000000000E+00  0.98110364691E+03  0.98110364693E+03  0.50400001928E-02 0.  1.
       -1   -1    0    0    0  501  0.00000000000E+00  0.00000000000E+00 -0.19955301315E+03  0.19955301321E+03  0.50400001928E-02 0. -1.
    10030    2    1    2    0    0  0.00000000000E+00  0.00000000000E+00  0.78155063376E+03  0.11806566601E+04  0.88494562319E+03 0.  0.
        3    1    3    3  502    0 -0.22146415556E+03 -0.30453419860E+03  0.80760310509E+02  0.38510996906E+03  0.10100000352E+00 0. -1.
       -3    1    3    3    0  502  0.22146415556E+03  0.30453419860E+03  0.70079032325E+03  0.79554669108E+03  0.10100000352E+00 0.  1.
</event>
<event>
 5   0  0.6288003E-03  0.9000875E+03  0.7818609E-02  0.9425472E-01
       -1   -1    0    0    0  501  0.00000000000E+00  0.00000000000E+00  0.33625768147E+03  0.33625768151E+03  0.50400001928E-02 0. -1.
        1   -1    0    0  501    0  0.00000000000E+00  0.00000000000E+00 -0.60233377986E+03  0.60233377988E+03  0.50400001928E-02 0.  1.
    10030    2    1    2    0    0  0.00000000000E+00  0.00000000000E+00 -0.26607609839E+03  0.93859146139E+03  0.90008746312E+03 0.  0.
        1    1    3    3  502    0 -0.26236436981E+03 -0.19744402624E+03  0.18789399667E+03  0.37831648134E+03  0.50400001928E-02 0. -1.
       -1    1    3    3    0  502  0.26236436981E+03  0.19744402624E+03 -0.45397009506E+03  0.56027498005E+03  0.50400001928E-02 0.  1.
</event>
<event>
 5   0  0.6137243E-03  0.9187904E+03  0.7818609E-02  0.9402393E-01
        1   -1    0    0  501    0  0.00000000000E+00  0.00000000000E+00  0.17101775978E+03  0.17101775985E+03  0.50400001928E-02 0.  1.
       -1   -1    0    0    0  501  0.00000000000E+00  0.00000000000E+00 -0.12340469773E+04  0.12340469773E+04  0.50400001928E-02 0. -1.
    10030    2    1    2    0    0  0.00000000000E+00  0.00000000000E+00 -0.10630292175E+04  0.14050647371E+04  0.91879039954E+03 0.  0.
        4    1    3    3  502    0  0.14434833912E+02 -0.11415944377E+03  0.14861985035E+03  0.18796333645E+03  0.12699999809E+01 0.  1.
       -4    1    3    3    0  502 -0.14434833912E+02  0.11415944377E+03 -0.12116490679E+04  0.12171014007E+04  0.12699999809E+01 0. -1.
</event>
<event>
 5   0  0.6137243E-03  0.9284780E+03  0.7818609E-02  0.9390666E-01
        1   -1    0    0  501    0  0.00000000000E+00  0.00000000000E+00  0.36817697557E+03  0.36817697560E+03  0.50400001928E-02 0.  1.
       -1   -1    0    0    0  501  0.00000000000E+00  0.00000000000E+00 -0.58536477197E+03  0.58536477199E+03  0.50400001928E-02 0. -1.
    10030    2    1    2    0    0  0.00000000000E+00  0.00000000000E+00 -0.21718779640E+03  0.95354174760E+03  0.92847796178E+03 0.  0.
        4    1    3    3  502    0  0.35123551014E+03 -0.17225781686E+03  0.14810764050E+03  0.41830207402E+03  0.12699999809E+01 0.  1.
       -4    1    3    3    0  502 -0.35123551014E+03  0.17225781686E+03 -0.36529543689E+03  0.53523967358E+03  0.12699999809E+01 0. -1.
</event>
<event>
 5   0  0.6015709E-03  0.9358066E+03  0.7818609E-02  0.9381896E-01
        1   -1    0    0  501    0  0.00000000000E+00  0.00000000000E+00  0.63619880936E+03  0.63619880938E+03  0.50400001928E-02 0. -1.
       -1   -1    0    0    0  501  0.00000000000E+00  0.00000000000E+00 -0.34412751558E+03  0.34412751562E+03  0.50400001928E-02 0.  1.
    10030    2    1    2    0    0  0.00000000000E+00  0.00000000000E+00  0.29207129377E+03  0.98032632499E+03  0.93580663752E+03 0.  0.
        3    1    3    3  502    0 -0.51689929201E+02 -0.25069285637E+02  0.63249028135E+03  0.63509391752E+03  0.10100000352E+00 0. -1.
       -3    1    3    3    0  502  0.51689929201E+02  0.25069285637E+02 -0.34041898758E+03  0.34523240747E+03  0.10100000352E+00 0.  1.
</event>
<event>
 5   0  0.1003252E-02  0.8821926E+03  0.7818609E-02  0.9448119E-01
        2   -1    0    0  501    0  0.00000000000E+00  0.00000000000E+00  0.97054377451E+03  0.97054377451E+03  0.25500000920E-02 0.  1.
       -2   -1    0    0    0  501  0.00000000000E+00  0.00000000000E+00 -0.20047108728E+03  0.20047108730E+03  0.25500000920E-02 0. -1.
    10030    2    1    2    0    0  0.00000000000E+00  0.00000000000E+00  0.77007268723E+03  0.11710148618E+04  0.88219264504E+03 0.  0.
        2    1    3    3  502    0  0.80150562604E+02 -0.80287331315E+02 -0.18077469426E+03  0.21342365929E+03  0.25500000920E-02 0. -1.
       -2    1    3    3    0  502 -0.80150562604E+02  0.80287331315E+02  0.95084738148E+03  0.95759120252E+03  0.25500000920E-02 0.  1.
</event>
<event>
 5   0  0.6211218E-03  0.9034236E+03  0.7818609E-02  0.9421312E-01
        1   -1    0    0  501    0  0.00000000000E+00  0.00000000000E+00  0.36969270935E+03  0.36969270938E+03  0.50400001928E-02 0.  1.
       -1   -1    0    0    0  501  0.00000000000E+00  0.00000000000E+00 -0.55192741706E+03  0.55192741708E+03  0.50400001928E-02 0. -1.
    10030    2    1    2    0    0  0.00000000000E+00  0.00000000000E+00 -0.18223470771E+03  0.92162012647E+03  0.90342358217E+03 0.  0.
        5    1    3    3  502    0 -0.15517728126E+03  0.25934882920E+03  0.25132168474E+03  0.39309856658E+03  0.46999998093E+01 0.  1.
       -5    1    3    3    0  502  0.15517728126E+03 -0.25934882920E+03 -0.43355639246E+03  0.52852155989E+03  0.46999998093E+01 0. -1.
</event>
<event>
 5   0  0.1017079E-02  0.8998546E+03  0.7818609E-02  0.9425763E-01
        2   -1    0    0  501    0  0.00000000000E+00  0.00000000000E+00  0.21594360083E+04  0.21594360083E+04  0.25500000920E-02 0.  1.
       -2   -1    0    0    0  501  0.00000000000E+00  0.00000000000E+00 -0.93744183252E+02  0.93744183287E+02  0.25500000920E-02 0. -1.
    10030    2    1    2    0    0  0.00000000000E+00  0.00000000000E+00  0.20656918250E+04  0.22531801916E+04  0.89985457697E+03 0.  0.
        1    1    3    3  502    0  0.62779127906E+02 -0.60950045186E+02  0.21379267139E+04  0.21397165141E+04  0.50400001928E-02 0.  1.
       -1    1    3    3    0  502 -0.62779127906E+02  0.60950045186E+02 -0.72234888840E+02  0.11346367745E+03  0.50400001928E-02 0. -1.
</event>
<event>
 5   0  0.6015709E-03  0.8961283E+03  0.7818609E-02  0.9430434E-01
        1   -1    0    0  501    0  0.00000000000E+00  0.00000000000E+00  0.16645999276E+04  0.16645999276E+04  0.50400001928E-02 0. -1.
       -1   -1    0    0    0  501  0.00000000000E+00  0.00000000000E+00 -0.12060645971E+03  0.12060645982E+03  0.50400001928E-02 0.  1.
    10030    2    1    2    0    0  0.00000000000E+00  0.00000000000E+00  0.15439934679E+04  0.17852063874E+04  0.89612834842E+03 0.  0.
        3    1    3    3  502    0 -0.28170140657E+03  0.25083976406E+03  0.12537684457E+04  0.13092790364E+04  0.10100000352E+00 0. -1.
       -3    1    3    3    0  502  0.28170140657E+03 -0.25083976406E+03  0.29022502221E+03  0.47592735099E+03  0.10100000352E+00 0.  1.
</event>
<event>
 5   0  0.1017079E-02  0.8967195E+03  0.7818609E-02  0.9429691E-01
        2   -1    0    0  501    0  0.00000000000E+00  0.00000000000E+00  0.83356414568E+03  0.83356414569E+03  0.25500000920E-02 0. -1.
       -2   -1    0    0    0  501  0.00000000000E+00  0.00000000000E+00 -0.24116498633E+03  0.24116498635E+03  0.25500000920E-02 0.  1.
    10030    2    1    2    0    0  0.00000000000E+00  0.00000000000E+00  0.59239915935E+03  0.10747291320E+04  0.89671954548E+03 0.  0.
        1    1    3    3  502    0 -0.15419857333E+03 -0.32288662914E+03 -0.27606136061E+02  0.35888030605E+03  0.50400001928E-02 0.  1.
       -1    1    3    3    0  502  0.15419857333E+03  0.32288662914E+03  0.62000529541E+03  0.71584882598E+03  0.50400001928E-02 0. -1.
</event>
<event>
 5   0  0.6288003E-03  0.8950121E+03  0.7818609E-02  0.9431838E-01
        1   -1    0    0  501    0  0.00000000000E+00  0.00000000000E+00  0.15004166964E+04  0.15004166964E+04  0.50400001928E-02 0. -1.
       -1   -1    0    0    0  501  0.00000000000E+00  0.00000000000E+00 -0.13347070720E+03  0.13347070729E+03  0.50400001928E-02 0.  1.
    10030    2    1    2    0    0  0.00000000000E+00  0.00000000000E+00  0.13669459892E+04  0.16338874037E+04  0.89501212873E+03 0.  0.
        1    1    3    3  502    0 -0.21153055928E+03 -0.27669465832E+03  0.17050847138E+03  0.38778634619E+03  0.50400001928E-02 0.  1.
       -1    1    3    3    0  502  0.21153055928E+03  0.27669465832E+03  0.11964375178E+04  0.12461010575E+04  0.50400001928E-02 0. -1.
</event>
<event>
 5   0  0.1033749E-02  0.8925177E+03  0.7818609E-02  0.9434983E-01
       -2   -1    0    0    0  501  0.00000000000E+00  0.00000000000E+00  0.14401105241E+03  0.14401105243E+03  0.25500000920E-02 0.  1.
        2   -1    0    0  501    0  0.00000000000E+00  0.00000000000E+00 -0.13828587259E+04  0.13828587259E+04  0.25500000920E-02 0. -1.
    10030    2    1    2    0    0  0.00000000000E+00  0.00000000000E+00 -0.12388476734E+04  0.15268697783E+04  0.89251765353E+03 0.  0.
        5    1    3    3  502    0  0.43107881592E+02  0.42990983072E+03 -0.81026273621E+03  0.91827476482E+03  0.46999998093E+01 0.  1.
       -5    1    3    3    0  502 -0.43107881592E+02 -0.42990983072E+03 -0.42858493723E+03  0.60859501348E+03  0.46999998093E+01 0. -1.
</event>
<event>
 5   0  0.6092779E-03  0.9027216E+03  0.7818609E-02  0.9422186E-01
       -1   -1    0    0    0  501  0.00000000000E+00  0.00000000000E+00  0.52957526232E+03  0.52957526234E+03  0.50400001928E-02 0. -1.
        1   -1    0    0  501    0  0.00000000000E+00  0.00000000000E+00 -0.38469802227E+03  0.38469802230E+03  0.50400001928E-02 0.  1.
    10030    2    1    2    0    0  0.00000000000E+00  0.00000000000E+00  0.14487724004E+03  0.91427328464E+03  0.90272156523E+03 0.  0.
        2    1    3    3  502    0 -0.18151756939E+03  0.39791495098E+03  0.18540798205E+03  0.47503795220E+03  0.25500000920E-02 0. -1.
       -2    1    3    3    0  502  0.18151756939E+03 -0.39791495098E+03 -0.40530742010E+02  0.43923533244E+03  0.25500000920E-02 0.  1.
</event>
<event>
 5   0  0.1028978E-02  0.8715315E+03  0.7818609E-02  0.9461885E-01
        2   -1    0    0  501    0  0.00000000000E+00  0.00000000000E+00  0.80557744388E+03  0.80557744389E+03  0.25500000920E-02 0. -1.
       -2   -1    0    0    0  501  0.00000000000E+00  0.00000000000E+00 -0.23572131203E+03  0.23572131205E+03  0.25500000920E-02 0.  1.
    10030    2    1    2    0    0  0.00000000000E+00  0.00000000000E+00  0.56985613185E+03  0.10412987559E+04  0.87153146134E+03 0.  0.
        3    1    3    3  502    0  0.34768805348E+03  0.26164524627E+03  0.25699587500E+03  0.50536334196E+03  0.10100000352E+00 0.  1.
       -3    1    3    3    0  502 -0.34768805348E+03 -0.26164524627E+03  0.31286025685E+03  0.53593541397E+03  0.10100000352E+00 0. -1.
</event>
<event>
 5   0  0.1003252E-02  0.9040434E+03  0.7818609E-02  0.9420541E-01
        2   -1    0    0  501    0  0.00000000000E+00  0.00000000000E+00  0.81971250225E+03  0.81971250225E+03  0.25500000920E-02 0. -1.
       -2   -1    0    0    0  501  0.00000000000E+00  0.00000000000E+00 -0.24926252005E+03  0.24926252006E+03  0.25500000920E-02 0.  1.
    10030    2    1    2    0    0  0.00000000000E+00  0.00000000000E+00  0.57044998220E+03  0.10689750223E+04  0.90404337072E+03 0.  0.
        2    1    3    3  502    0  0.11065003061E+03  0.33665561572E+03  0.61703137850E+03  0.71155333948E+03  0.25500000920E-02 0. -1.
       -2    1    3    3    0  502 -0.11065003061E+03 -0.33665561572E+03 -0.46581396304E+02  0.35742168283E+03  0.25500000920E-02 0.  1.
</event>
<event>
 5   0  0.3996375E-03  0.9037460E+03  0.7818609E-02  0.9420911E-01
        4   -1    0    0  501    0  0.00000000000E+00  0.00000000000E+00  0.10224315848E+04  0.10224323736E+04  0.12699999809E+01 0. -1.
       -4   -1    0    0    0  501  0.00000000000E+00  0.00000000000E+00 -0.19970651549E+03  0.19971055362E+03  0.12699999809E+01 0.  1.
    10030    2    1    2    0    0  0.00000000000E+00  0.00000000000E+00  0.82272506932E+03  0.12221429272E+04  0.90374597912E+03 0.  0.
        3    1    3    3  502    0  0.39644598089E+03 -0.13779781408E+02  0.11872017422E+03  0.41406978652E+03  0.10100000352E+00 0.  1.
       -3    1    3    3    0  502 -0.39644598089E+03  0.13779781408E+02  0.70400489510E+03  0.80807314066E+03  0.10100000352E+00 0. -1.
</event>
<event>
 5   0  0.1033749E-02  0.8778641E+03  0.7818609E-02  0.9453683E-01
       -2   -1    0    0    0  501  0.00000000000E+00  0.00000000000E+00  0.21085336504E+03  0.21085336506E+03  0.25500000920E-02 0.  1.
        2   -1    0    0  501    0  0.00000000000E+00  0.00000000000E+00 -0.91372198369E+03  0.91372198370E+03  0.25500000920E-02 0. -1.
    10030    2    1    2    0    0  0.00000000000E+00  0.00000000000E+00 -0.70286861865E+03  0.11245753488E+04  0.87786412385E+03 0.  0.
        5    1    3    3  502    0 -0.12905406679E+03 -0.21164783996E+03 -0.81542664265E+03  0.85228660664E+03  0.46999998093E+01 0. -1.
       -5    1    3    3    0  502  0.12905406679E+03  0.21164783996E+03  0.11255802400E+03  0.27228874211E+03  0.46999998093E+01 0.  1.
</event>
<event>
 5   0  0.1033749E-02  0.8977120E+03  0.7818609E-02  0.9428446E-01
       -2   -1    0    0    0  501  0.00000000000E+00  0.00000000000E+00  0.19305319136E+03  0.19305319138E+03  0.25500000920E-02 0. -1.
        2   -1    0    0  501    0  0.00000000000E+00  0.00000000000E+00 -0.10436072063E+04  0.10436072063E+04  0.25500000920E-02 0.  1.
    10030    2    1    2    0    0  0.00000000000E+00  0.00000000000E+00 -0.85055401496E+03  0.12366603977E+04  0.89771198438E+03 0.  0.
        5    1    3    3  502    0 -0.68326758571E+02 -0.25411226972E+02 -0.10353634182E+04  0.10379372689E+04  0.46999998093E+01 0.  1.
       -5    1    3    3    0  502  0.68326758571E+02  0.25411226972E+02  0.18480940326E+03  0.19872312881E+03  0.46999998093E+01 0. -1.
</event>
<event>
 5   0  0.1028978E-02  0.9045282E+03  0.7818609E-02  0.9419939E-01
       -2   -1    0    0    0  501  0.00000000000E+00  0.00000000000E+00  0.15050464305E+03  0.15050464307E+03  0.25500000920E-02 0.  1.
        2   -1    0    0  501    0  0.00000000000E+00  0.00000000000E+00 -0.13590464380E+04  0.13590464380E+04  0.25500000920E-02 0. -1.
    10030    2    1    2    0    0  0.00000000000E+00  0.00000000000E+00 -0.12085417949E+04  0.15095510811E+04  0.90452816220E+03 0.  0.
        3    1    3    3  502    0 -0.40884893843E+03  0.25153933834E+02 -0.28432994214E+03  0.49863182915E+03  0.10100000352E+00 0.  1.
       -3    1    3    3    0  502  0.40884893843E+03 -0.25153933834E+02 -0.92421185278E+03  0.10109192519E+04  0.10100000352E+00 0. -1.
</event>
<event>
 5   0  0.1017079E-02  0.8801209E+03  0.7818609E-02  0.9450778E-01
       -2   -1    0    0    0  501  0.00000000000E+00  0.00000000000E+00  0.31780374354E+03  0.31780374355E+03  0.25500000920E-02 0.  1.
        2   -1    0    0  501    0  0.00000000000E+00  0.00000000000E+00 -0.60934845080E+03  0.60934845081E+03  0.25500000920E-02 0. -1.
    10030    2    1    2    0    0  0.00000000000E+00  0.00000000000E+00 -0.29154470726E+03  0.92715219436E+03  0.88012094349E+03 0.  0.
        1    1    3    3  502    0 -0.29532479367E+03 -0.53110779746E-01 -0.48945209357E+03  0.57164682147E+03  0.50400001928E-02 0. -1.
       -1    1    3    3    0  502  0.29532479367E+03  0.53110779746E-01  0.19790738631E+03  0.35550537289E+03  0.50400001928E-02 0.  1.
</event>
<event>
 5   0  0.6211218E-03  0.8966514E+03  0.7818609E-02  0.9429777E-01
        1   -1    0    0  501    0  0.00000000000E+00  0.00000000000E+00  0.45915031718E+03  0.45915031721E+03  0.50400001928E-02 0. -1.
       -1   -1    0    0    0  501  0.00000000000E+00  0.00000000000E+00 -0.43775626258E+03  0.43775626261E+03  0.50400001928E-02 0.  1.
    10030    2    1    2    0    0  0.00000000000E+00  0.00000000000E+00  0.21394054606E+02  0.89690657982E+03  0.89665138563E+03 0.  0.
        5    1    3    3  502    0 -0.32718760006E+03  0.47873398041E+02 -0.29209401252E+03  0.44123076731E+03  0.46999998093E+01 0.  1.
       -5    1    3    3    0  502  0.32718760006E+03 -0.47873398041E+02  0.31348806713E+03  0.45567581251E+03  0.46999998093E+01 0. -1.
</event>
<event>
 5   0  0.6288003E-03  0.8978953E+03  0.7818609E-02  0.9428216E-01
        1   -1    0    0  501    0  0.00000000000E+00  0.00000000000E+00  0.35539789854E+03  0.35539789858E+03  0.50400001928E-02 0. -1.
       -1   -1    0    0    0  501  0.00000000000E+00  0.00000000000E+00 -0.56712210344E+03  0.56712210346E+03  0.50400001928E-02 0.  1.
    10030    2    1    2    0    0  0.00000000000E+00  0.00000000000E+00 -0.21172420490E+03  0.92252000204E+03  0.89789532531E+03 0.  0.
        1    1    3    3  502    0 -0.24560687394E+03  0.32098046091E+03  0.94953633212E+02  0.41517151311E+03  0.50400001928E-02 0.  1.
       -1    1    3    3    0  502  0.24560687394E+03 -0.32098046091E+03 -0.30667783811E+03  0.50734848893E+03  0.50400001928E-02 0. -1.
</event>
<event>
 5   0  0.3996375E-03  0.9108302E+03  0.7818609E-02  0.9412144E-01
       -3   -1    0    0    0  501  0.00000000000E+00  0.00000000000E+00  0.24484878374E+03  0.24484880457E+03  0.10100000352E+00 0. -1.
        3   -1    0    0  501    0  0.00000000000E+00  0.00000000000E+00 -0.84706524986E+03  0.84706525588E+03  0.10100000352E+00 0.  1.
    10030    2    1    2    0    0  0.00000000000E+00  0.00000000000E+00 -0.60221646612E+03  0.10919140605E+04  0.91083019457E+03 0.  0.
        3    1    3    3  502    0  0.41607297500E+03 -0.58495332213E+02 -0.51171896366E+03  0.66211383643E+03  0.10100000352E+00 0.  1.
       -3    1    3    3    0  502 -0.41607297500E+03  0.58495332213E+02 -0.90497502452E+02  0.42980022402E+03  0.10100000352E+00 0. -1.
</event>
<event>
 5   0  0.1003252E-02  0.9009555E+03  0.7818609E-02  0.9424388E-01
        2   -1    0    0  501    0  0.00000000000E+00  0.00000000000E+00  0.35084068967E+03  0.35084068968E+03  0.25500000920E-02 0.  1.
       -2   -1    0    0    0  501  0.00000000000E+00  0.00000000000E+00 -0.57841120009E+03  0.57841120009E+03  0.25500000920E-02 0. -1.
    10030    2    1    2    0    0  0.00000000000E+00  0.00000000000E+00 -0.22757051042E+03  0.92925188977E+03  0.90095545807E+03 0.  0.
        2    1    3    3  502    0  0.57625376600E+02 -0.33714989908E+03  0.18857618610E+03  0.39057869431E+03  0.25500000920E-02 0.  1.
       -2    1    3    3    0  502 -0.57625376600E+02  0.33714989908E+03 -0.41614669652E+03  0.53867319546E+03  0.25500000920E-02 0. -1.
</event>
<event>
 5   0  0.6092779E-03  0.8998169E+03  0.7818609E-02  0.9425810E-01
        1   -1    0    0  501    0  0.00000000000E+00  0.00000000000E+00  0.79518808963E+03  0.79518808964E+03  0.50400001928E-02 0.  1.
       -1   -1    0    0    0  501  0.00000000000E+00  0.00000000000E+00 -0.25455311812E+03  0.25455311817E+03  0.50400001928E-02 0. -1.
    10030    2    1    2    0    0  0.00000000000E+00  0.00000000000E+00  0.54063497151E+03  0.10497412078E+04  0.89981688747E+03 0.  0.
        2    1    3    3  502    0  0.25116847991E+02 -0.26236472491E+03 -0.15506022688E+03  0.30579368682E+03  0.25500000920E-02 0. -1.
       -2    1    3    3    0  502 -0.25116847991E+02  0.26236472491E+03  0.69569519839E+03  0.74394752100E+03  0.25500000920E-02 0.  1.
</event>
<event>
 5   0  0.1017079E-02  0.8747904E+03  0.7818609E-02  0.9457655E-01
        2   -1    0    0  501    0  0.00000000000E+00  0.00000000000E+00  0.15138580912E+04  0.15138580912E+04  0.25500000920E-02 0. -1.
       -2   -1    0    0    0  501  0.00000000000E+00  0.00000000000E+00 -0.12637549790E+03  0.12637549793E+03  0.25500000920E-02 0.  1.
    10030    2    1    2    0    0  0.00000000000E+00  0.00000000000E+00  0.13874825932E+04  0.16402335891E+04  0.87479042071E+03 0.  0.
        1    1    3    3  502    0  0.39941590262E+03  0.17479864042E+01  0.10279887035E+04  0.11028585101E+04  0.50400001928E-02 0. -1.
       -1    1    3    3    0  502 -0.39941590262E+03 -0.17479864042E+01  0.35949388972E+03  0.53737507896E+03  0.50400001928E-02 0.  1.
</event>
<event>
 5   0  0.1033749E-02  0.9056508E+03  0.7818609E-02  0.9418545E-01
       -2   -1    0    0    0  501  0.00000000000E+00  0.00000000000E+00  0.31852208653E+03  0.31852208654E+03  0.25500000920E-02 0.  1.
        2   -1    0    0  501    0  0.00000000000E+00  0.00000000000E+00 -0.64375710524E+03  0.64375710524E+03  0.25500000920E-02 0. -1.
    10030    2    1    2    0    0  0.00000000000E+00  0.00000000000E+00 -0.32523501871E+03  0.96227919178E+03  0.90565082981E+03 0.  0.
        5    1    3    3  502    0 -0.27187960776E+03  0.88258174548E-03  0.22211476539E+03  0.35110622341E+03  0.46999998093E+01 0.  1.
       -5    1    3    3    0  502  0.27187960776E+03 -0.88258174548E-03 -0.54734978410E+03  0.61117296837E+03  0.46999998093E+01 0. -1.
</event>
<event>
 5   0  0.3996375E-03  0.8976147E+03  0.7818609E-02  0.9428568E-01
       -3   -1    0    0    0  501  0.00000000000E+00  0.00000000000E+00  0.94614146234E+03  0.94614146773E+03  0.10100000352E+00 0. -1.
        3   -1    0    0  501    0  0.00000000000E+00  0.00000000000E+00 -0.21289420034E+03  0.21289422430E+03  0.10100000352E+00 0.  1.
    10030    2    1    2    0    0  0.00000000000E+00  0.00000000000E+00  0.73324726200E+03  0.11590356920E+04  0.89761472145E+03 0.  0.
        3    1    3    3  502    0 -0.38134914745E+03  0.14079231465E+03  0.12102188282E+03  0.42414143213E+03  0.10100000352E+00 0.  1.
       -3    1    3    3    0  502  0.38134914745E+03 -0.14079231465E+03  0.61222537918E+03  0.73489425990E+03  0.10100000352E+00 0. -1.
</event>
<event>
 5   0  0.6015709E-03  0.9056631E+03  0.7818609E-02  0.9418530E-01
       -1   -1    0    0    0  501  0.00000000000E+00  0.00000000000E+00  0.11716858361E+04  0.11716858361E+04  0.50400001928E-02 0.  1.
        1   -1    0    0  501    0  0.00000000000E+00  0.00000000000E+00 -0.17500972007E+03  0.17500972014E+03  0.50400001928E-02 0. -1.
    10030    2    1    2    0    0  0.00000000000E+00  0.00000000000E+00  0.99667611602E+03  0.13466955562E+04  0.90566309461E+03 0.  0.
        3    1    3    3  502    0 -0.53835150965E+02 -0.56940070865E+02  0.11615275255E+04  0.11641677705E+04  0.10100000352E+00 0.  1.
       -3    1    3    3    0  502  0.53835150965E+02  0.56940070865E+02 -0.16485140950E+03  0.18252778573E+03  0.10100000352E+00 0. -1.
</event>
<event>
 5   0  0.6211218E-03  0.9072101E+03  0.7818609E-02  0.9416613E-01
        1   -1    0    0  501    0  0.00000000000E+00  0.00000000000E+00  0.27967280959E+03  0.27967280964E+03  0.50400001928E-02 0. -1.
       -1   -1    0    0    0  501  0.00000000000E+00  0.00000000000E+00 -0.73570803073E+03  0.73570803075E+03  0.50400001928E-02 0.  1.
    10030    2    1    2    0    0  0.00000000000E+00  0.00000000000E+00 -0.45603522114E+03  0.10153808404E+04  0.90721007936E+03 0.  0.
        5    1    3    3  502    0 -0.23188122865E+02  0.29587414174E+03  0.15589165148E+03  0.33526630280E+03  0.46999998093E+01 0. -1.
       -5    1    3    3    0  502  0.23188122865E+02 -0.29587414174E+03 -0.61192687262E+03  0.68011453758E+03  0.46999998093E+01 0.  1.
</event>
<event>
 5   0  0.1017079E-02  0.9045308E+03  0.7818609E-02  0.9419935E-01
        2   -1    0    0  501    0  0.00000000000E+00  0.00000000000E+00  0.81408621667E+03  0.81408621668E+03  0.25500000920E-02 0.  1.
       -2   -1    0    0    0  501  0.00000000000E+00  0.00000000000E+00 -0.25125591780E+03  0.25125591782E+03  0.25500000920E-02 0. -1.
    10030    2    1    2    0    0  0.00000000000E+00  0.00000000000E+00  0.56283029887E+03  0.10653421345E+04  0.90453077239E+03 0.  0.
        1    1    3    3  502    0  0.19808824388E+03  0.19924208342E+03 -0.13600532733E+03  0.31214389191E+03  0.50400001928E-02 0. -1.
       -1    1    3    3    0  502 -0.19808824388E+03 -0.19924208342E+03  0.69883562620E+03  0.75319824259E+03  0.50400001928E-02 0.  1.
</event>
<event>
 5   0  0.1041727E-02  0.9052409E+03  0.7818609E-02  0.9419054E-01
       -2   -1    0    0    0  501  0.00000000000E+00  0.00000000000E+00  0.18535858454E+03  0.18535858456E+03  0.25500000920E-02 0.  1.
        2   -1    0    0  501    0  0.00000000000E+00  0.00000000000E+00 -0.11052375324E+04  0.11052375324E+04  0.25500000920E-02 0. -1.
    10030    2    1    2    0    0  0.00000000000E+00  0.00000000000E+00 -0.91987894782E+03  0.12905961169E+04  0.90524088416E+03 0.  0.
        4    1    3    3  502    0 -0.45349130591E+02  0.28775927731E+03  0.33938780782E+02  0.29328381998E+03  0.12699999809E+01 0.  1.
       -4    1    3    3    0  502  0.45349130591E+02 -0.28775927731E+03 -0.95381772860E+03  0.99731229693E+03  0.12699999809E+01 0. -1.
</event>
<event>
 5   0  0.3996375E-03  0.9117124E+03  0.7818609E-02  0.9411058E-01
        4   -1    0    0  501    0  0.00000000000E+00  0.00000000000E+00  0.37307217477E+03  0.37307433641E+03  0.12699999809E+01 0. -1.
       -4   -1    0    0    0  501  0.00000000000E+00  0.00000000000E+00 -0.55700530006E+03  0.55700674789E+03  0.12699999809E+01 0.  1.
    10030    2    1    2    0    0  0.00000000000E+00  0.00000000000E+00 -0.18393312529E+03  0.93008108431E+03  0.91171236078E+03 0.  0.
        1    1    3    3  502    0 -0.40095430565E+03 -0.19241886840E+03 -0.19406024670E+03  0.48523062095E+03  0.50400001928E-02 0. -1.
       -1    1    3    3    0  502  0.40095430565E+03  0.19241886840E+03  0.10127121409E+02  0.44485046335E+03  0.50400001928E-02 0.  1.
</event>
<event>
 5   0  0.6137243E-03  0.8462719E+03  0.7818609E-02  0.9495354E-01
        1   -1    0    0  501    0  0.00000000000E+00  0.00000000000E+00  0.86441799699E+03  0.86441799700E+03  0.50400001928E-02 0.  1.
       -1   -1    0    0    0  501  0.00000000000E+00  0.00000000000E+00 -0.20712668547E+03  0.20712668553E+03  0.50400001928E-02 0. -1.
    10030    2    1    2    0    0  0.00000000000E+00  0.00000000000E+00  0.65729131151E+03  0.10715446825E+04  0.84627190576E+03 0.  0.
        4    1    3    3  502    0  0.69299723176E+02  0.29974625974E+03  0.69647924692E+03  0.76140345819E+03  0.12699999809E+01 0.  1.
       -4    1    3    3    0  502 -0.69299723176E+02 -0.29974625974E+03 -0.39187935401E+02  0.31014122435E+03  0.12699999809E+01 0. -1.
</event>
<event>
 5   0  0.1028978E-02  0.8880361E+03  0.7818609E-02  0.9440662E-01
       -2   -1    0    0    0  501  0.00000000000E+00  0.00000000000E+00  0.72441917127E+02  0.72441917172E+02  0.25500000920E-02 0. -1.
        2   -1    0    0  501    0  0.00000000000E+00  0.00000000000E+00 -0.27215186911E+04  0.27215186911E+04  0.25500000920E-02 0.  1.
    10030    2    1    2    0    0  0.00000000000E+00  0.00000000000E+00 -0.26490767739E+04  0.27939606082E+04  0.88803610634E+03 0.  0.
        3    1    3    3  502    0 -0.18339758910E+03  0.26456030819E+03 -0.22867131288E+04  0.23092604392E+04  0.10100000352E+00 0.  1.
       -3    1    3    3    0  502  0.18339758910E+03 -0.26456030819E+03 -0.36236364513E+03  0.48470016904E+03  0.10100000352E+00 0. -1.
</event>
<event>
 5   0  0.6288003E-03  0.8993858E+03  0.7818609E-02  0.9426350E-01
        1   -1    0    0  501    0  0.00000000000E+00  0.00000000000E+00  0.83761451867E+03  0.83761451868E+03  0.50400001928E-02 0. -1.
       -1   -1    0    0    0  501  0.00000000000E+00  0.00000000000E+00 -0.24142812668E+03  0.24142812673E+03  0.50400001928E-02 0.  1.
    10030    2    1    2    0    0  0.00000000000E+00  0.00000000000E+00  0.59618639199E+03  0.10790426454E+04  0.89938579965E+03 0.  0.
        1    1    3    3  502    0 -0.26916243740E+03  0.11065259507E+03  0.70940325763E+03  0.76677597541E+03  0.50400001928E-02 0. -1.
       -1    1    3    3    0  502  0.26916243740E+03 -0.11065259507E+03 -0.11321686564E+03  0.31226667000E+03  0.50400001928E-02 0.  1.
</event>
<event>
 5   0  0.1033749E-02  0.9077013E+03  0.7818609E-02  0.9416005E-01
        2   -1    0    0  501    0  0.00000000000E+00  0.00000000000E+00  0.81867015018E+03  0.81867015018E+03  0.25500000920E-02 0. -1.
       -2   -1    0    0    0  501  0.00000000000E+00  0.00000000000E+00 -0.25160366555E+03  0.25160366557E+03  0.25500000920E-02 0.  1.
    10030    2    1    2    0    0  0.00000000000E+00  0.00000000000E+00  0.56706648463E+03  0.10702738157E+04  0.90770129596E+03 0.  0.
        5    1    3    3  502    0  0.73100904777E+02 -0.19794437867E+03  0.75728143654E+03  0.78614437825E+03  0.46999998093E+01 0. -1.
       -5    1    3    3    0  502 -0.73100904777E+02  0.19794437867E+03 -0.19021495191E+03  0.28412943750E+03  0.46999998093E+01 0.  1.
</event>
<event>
 5   0  0.6092779E-03  0.9236534E+03  0.7818609E-02  0.9396487E-01
        1   -1    0    0  501    0  0.00000000000E+00  0.00000000000E+00  0.66859700670E+03  0.66859700672E+03  0.50400001928E-02 0. -1.
       -1   -1    0    0    0  501  0.00000000000E+00  0.00000000000E+00 -0.31900221137E+03  0.31900221141E+03  0.50400001928E-02 0.  1.
    10030    2    1    2    0    0  0.00000000000E+00  0.00000000000E+00  0.34959479533E+03  0.98759921813E+03  0.92365344948E+03 0.  0.
        2    1    3    3  502    0 -0.29554908043E+03  0.21582956539E+03 -0.12640008684E+03  0.38718037424E+03  0.25500000920E-02 0. -1.
       -2    1    3    3    0  502  0.29554908043E+03 -0.21582956539E+03  0.47599488217E+03  0.60041884389E+03  0.25500000920E-02 0.  1.
</event>
<event>
 5   0  0.1017079E-02  0.9003980E+03  0.7818609E-02  0.9425084E-01
        2   -1    0    0  501    0  0.00000000000E+00  0.00000000000E+00  0.43928588123E+03  0.43928588124E+03  0.25500000920E-02 0. -1.
       -2   -1    0    0    0  501  0.00000000000E+00  0.00000000000E+00 -0.46138324161E+03  0.46138324162E+03  0.25500000920E-02 0.  1.
    10030    2    1    2    0    0  0.00000000000E+00  0.00000000000E+00 -0.22097360375E+02  0.90066912286E+03  0.90039800951E+03 0.  0.
        1    1    3    3  502    0 -0.32139318942E+03  0.26426788738E+03 -0.18299588747E+03  0.45455317991E+03  0.50400001928E-02 0.  1.
       -1    1    3    3    0  502  0.32139318942E+03 -0.26426788738E+03  0.16089852710E+03  0.44611594295E+03  0.50400001928E-02 0. -1.
</event>
<event>
 5   0  0.1003252E-02  0.8990696E+03  0.7818609E-02  0.9426745E-01
       -2   -1    0    0    0  501  0.00000000000E+00  0.00000000000E+00  0.33229312204E+03  0.33229312205E+03  0.25500000920E-02 0.  1.
        2   -1    0    0  501    0  0.00000000000E+00  0.00000000000E+00 -0.60814235089E+03  0.60814235090E+03  0.25500000920E-02 0. -1.
    10030    2    1    2    0    0  0.00000000000E+00  0.00000000000E+00 -0.27584922885E+03  0.94043547295E+03  0.89906956446E+03 0.  0.
        2    1    3    3  502    0  0.35873526451E+03  0.22013671769E+03 -0.30308274018E+03  0.51866204014E+03  0.25500000920E-02 0. -1.
       -2    1    3    3    0  502 -0.35873526451E+03 -0.22013671769E+03  0.27233511336E+02  0.42177343281E+03  0.25500000920E-02 0.  1.
</event>
<event>
 5   0  0.3996375E-03  0.8951045E+03  0.7818609E-02  0.9431722E-01
       -3   -1    0    0    0  501  0.00000000000E+00  0.00000000000E+00  0.25308419623E+03  0.25308421638E+03  0.10100000352E+00 0. -1.
        3   -1    0    0  501    0  0.00000000000E+00  0.00000000000E+00 -0.79144800761E+03  0.79144801405E+03  0.10100000352E+00 0.  1.
    10030    2    1    2    0    0  0.00000000000E+00  0.00000000000E+00 -0.53836381137E+03  0.10445322304E+04  0.89510445593E+03 0.  0.
        2    1    3    3  502    0 -0.11152964167E+02  0.16933691814E+03 -0.75244626496E+03  0.77134607157E+03  0.25500000920E-02 0.  1.
       -2    1    3    3    0  502  0.11152964167E+02 -0.16933691814E+03  0.21408245359E+03  0.27318615887E+03  0.25500000920E-02 0. -1.
</event>
<event>
 5   0  0.6137243E-03  0.8822711E+03  0.7818609E-02  0.9448019E-01
        1   -1    0    0  501    0  0.00000000000E+00  0.00000000000E+00  0.42449657254E+03  0.42449657257E+03  0.50400001928E-02 0. -1.
       -1   -1    0    0    0  501  0.00000000000E+00  0.00000000000E+00 -0.45842670539E+03  0.45842670542E+03  0.50400001928E-02 0.  1.
    10030    2    1    2    0    0  0.00000000000E+00  0.00000000000E+00 -0.33930132845E+02  0.88292327799E+03  0.88227108130E+03 0.  0.
        4    1    3    3  502    0  0.25916653463E+03 -0.23765483761E+03 -0.28352983399E+03  0.45170553923E+03  0.12699999809E+01 0. -1.
       -4    1    3    3    0  502 -0.25916653463E+03  0.23765483761E+03  0.24959970114E+03  0.43121773876E+03  0.12699999809E+01 0.  1.
</event>
<event>
 5   0  0.3996375E-03  0.9347267E+03  0.7818609E-02  0.9383183E-01
       -3   -1    0    0    0  501  0.00000000000E+00  0.00000000000E+00  0.15679276659E+03  0.15679279912E+03  0.10100000352E+00 0.  1.
        3   -1    0    0  501    0  0.00000000000E+00  0.00000000000E+00 -0.13931029253E+04  0.13931029290E+04  0.10100000352E+00 0. -1.
    10030    2    1    2    0    0  0.00000000000E+00  0.00000000000E+00 -0.12363101587E+04  0.15498957281E+04  0.93472667632E+03 0.  0.
        1    1    3    3  502    0  0.61765396854E+02 -0.19666509837E+03 -0.13136527039E+04  0.13297276231E+04  0.50400001928E-02 0. -1.
       -1    1    3    3    0  502 -0.61765396854E+02  0.19666509837E+03  0.77342545127E+02  0.22016810504E+03  0.50400001928E-02 0.  1.
</event>
<event>
 5   0  0.1041727E-02  0.9018732E+03  0.7818609E-02  0.9423243E-01
        2   -1    0    0  501    0  0.00000000000E+00  0.00000000000E+00  0.11202293102E+04  0.11202293102E+04  0.25500000920E-02 0.  1.
       -2   -1    0    0    0  501  0.00000000000E+00  0.00000000000E+00 -0.18151981554E+03  0.18151981556E+03  0.25500000920E-02 0. -1.
    10030    2    1    2    0    0  0.00000000000E+00  0.00000000000E+00  0.93870949470E+03  0.13017491258E+04  0.90187320123E+03 0.  0.
        4    1    3    3  502    0  0.43959848186E+03 -0.78660518449E+02  0.37912418374E+03  0.58580804195E+03  0.12699999809E+01 0. -1.
       -4    1    3    3    0  502 -0.43959848186E+03  0.78660518449E+02  0.55958531096E+03  0.71594108386E+03  0.12699999809E+01 0.  1.
</event>
<event>
 5   0  0.1033749E-02  0.8989581E+03  0.7818609E-02  0.9426885E-01
        2   -1    0    0  501    0  0.00000000000E+00  0.00000000000E+00  0.89941719346E+03  0.89941719346E+03  0.25500000920E-02 0.  1.
       -2   -1    0    0    0  501  0.00000000000E+00  0.00000000000E+00 -0.22462479715E+03  0.22462479716E+03  0.25500000920E-02 0. -1.
    10030    2    1    2    0    0  0.00000000000E+00  0.00000000000E+00  0.67479239631E+03  0.11240419906E+04  0.89895807387E+03 0.  0.
        5    1    3    3  502    0 -0.12389157130E+03  0.30168059861E+03  0.72410435866E+03  0.79417222140E+03  0.46999998093E+01 0.  1.
       -5    1    3    3    0  502  0.12389157130E+03 -0.30168059861E+03 -0.49311962350E+02  0.32986976922E+03  0.46999998093E+01 0. -1.
</event>
<event>
 5   0  0.6288003E-03  0.8789748E+03  0.7818609E-02  0.9452252E-01
        1   -1    0    0  501    0  0.00000000000E+00  0.00000000000E+00  0.48762754831E+03  0.48762754833E+03  0.50400001928E-02 0. -1.
       -1   -1    0    0    0  501  0.00000000000E+00  0.00000000000E+00 -0.39609977906E+03  0.39609977910E+03  0.50400001928E-02 0.  1.
    10030    2    1    2    0    0  0.00000000000E+00  0.00000000000E+00  0.91527769245E+02  0.88372732743E+03  0.87897477592E+03 0.  0.
        1    1    3    3  502    0  0.24777891075E+03  0.26625379594E+03 -0.20227571297E+03  0.41617416612E+03  0.50400001928E-02 0.  1.
       -1    1    3    3    0  502 -0.24777891075E+03 -0.26625379594E+03  0.29380348221E+03  0.46755316131E+03  0.50400001928E-02 0. -1.
</event>
<event>
 5   0  0.1041727E-02  0.8995400E+03  0.7818609E-02  0.9426157E-01
        2   -1    0    0  501    0  0.00000000000E+00  0.00000000000E+00  0.10624020496E+04  0.10624020496E+04  0.25500000920E-02 0.  1.
       -2   -1    0    0    0  501  0.00000000000E+00  0.00000000000E+00 -0.19041099589E+03  0.19041099591E+03  0.25500000920E-02 0. -1.
    10030    2    1    2    0    0  0.00000000000E+00  0.00000000000E+00  0.87199105366E+03  0.12528130455E+04  0.89953995421E+03 0.  0.
        4    1    3    3  502    0  0.32465162421E+03 -0.48129453925E+02  0.76867595429E+01  0.32829227924E+03  0.12699999809E+01 0. -1.
       -4    1    3    3    0  502 -0.32465162421E+03  0.48129453925E+02  0.86430429412E+03  0.92452076622E+03  0.12699999809E+01 0.  1.
</event>
<event>
 5   0  0.3996375E-03  0.9039552E+03  0.7818609E-02  0.9420651E-01
        3   -1    0    0  501    0  0.00000000000E+00  0.00000000000E+00  0.85596903681E+03  0.85596904277E+03  0.10100000352E+00 0. -1.
       -3   -1    0    0    0  501  0.00000000000E+00  0.00000000000E+00 -0.23865786755E+03  0.23865788892E+03  0.10100000352E+00 0.  1.
    10030    2    1    2    0    0  0.00000000000E+00  0.00000000000E+00  0.61731116926E+03  0.10946269317E+04  0.90395522007E+03 0.  0.
        1    1    3    3  502    0  0.31712309656E+03  0.30828972705E+03  0.42143570929E+03  0.61091543708E+03  0.50400001928E-02 0. -1.
       -1    1    3    3    0  502 -0.31712309656E+03 -0.30828972705E+03  0.19587545997E+03  0.48371149461E+03  0.50400001928E-02 0.  1.
</event>
<event>
 5   0  0.6015709E-03  0.9117685E+03  0.7818609E-02  0.9410989E-01
       -1   -1    0    0    0  501  0.00000000000E+00  0.00000000000E+00  0.37529834990E+03  0.37529834993E+03  0.50400001928E-02 0.  1.
        1   -1    0    0  501    0  0.00000000000E+00  0.00000000000E+00 -0.55377400720E+03  0.55377400722E+03  0.50400001928E-02 0. -1.
    10030    2    1    2    0    0  0.00000000000E+00  0.00000000000E+00 -0.17847565730E+03  0.92907235715E+03  0.91176854770E+03 0.  0.
        3    1    3    3  502    0 -0.45101543878E+03  0.64215004122E+02 -0.10664918815E+03  0.46788091680E+03  0.10100000352E+00 0. -1.
       -3    1    3    3    0  502  0.45101543878E+03 -0.64215004122E+02 -0.71826469153E+02  0.46119144035E+03  0.10100000352E+00 0.  1.
</event>
<event>
 5   0  0.6092779E-03  0.8922973E+03  0.7818609E-02  0.9435262E-01
       -1   -1    0    0    0  501  0.00000000000E+00  0.00000000000E+00  0.29390796508E+03  0.29390796512E+03  0.50400001928E-02 0. -1.
        1   -1    0    0  501    0  0.00000000000E+00  0.00000000000E+00 -0.67724807703E+03  0.67724807705E+03  0.50400001928E-02 0.  1.
    10030    2    1    2    0    0  0.00000000000E+00  0.00000000000E+00 -0.38334011195E+03  0.97115604217E+03  0.89229726930E+03 0.  0.
        2    1    3    3  502    0  0.90904093797E+01 -0.15688770768E+03 -0.64612746508E+03  0.66496397609E+03  0.25500000920E-02 0.  1.
       -2    1    3    3    0  502 -0.90904093797E+01  0.15688770768E+03  0.26278735312E+03  0.30619206608E+03  0.25500000920E-02 0. -1.
</event>
<event>
 5   0  0.6092779E-03  0.8932313E+03  0.7818609E-02  0.9434082E-01
        1   -1    0    0  501    0  0.00000000000E+00  0.00000000000E+00  0.93886099219E+03  0.93886099221E+03  0.50400001928E-02 0. -1.
       -1   -1    0    0    0  501  0.00000000000E+00  0.00000000000E+00 -0.21245480640E+03  0.21245480646E+03  0.50400001928E-02 0.  1.
    10030    2    1    2    0    0  0.00000000000E+00  0.00000000000E+00  0.72640618579E+03  0.11513157987E+04  0.89323128109E+03 0.  0.
        2    1    3    3  502    0  0.16421731181E+03 -0.21332787274E+03  0.82252199327E+03  0.86545856990E+03  0.25500000920E-02 0. -1.
       -2    1    3    3    0  502 -0.16421731181E+03  0.21332787274E+03 -0.96115807481E+02  0.28585722877E+03  0.25500000920E-02 0.  1.
</event>
<event>
 5   0  0.6288003E-03  0.9236739E+03  0.7818609E-02  0.9396462E-01
       -1   -1    0    0    0  501  0.00000000000E+00  0.00000000000E+00  0.19894037733E+03  0.19894037739E+03  0.50400001928E-02 0. -1.
        1   -1    0    0  501    0  0.00000000000E+00  0.00000000000E+00 -0.10721471001E+04  0.10721471001E+04  0.50400001928E-02 0.  1.
    10030    2    1    2    0    0  0.00000000000E+00  0.00000000000E+00 -0.87320672279E+03  0.12710874775E+04  0.92367385737E+03 0.  0.
        1    1    3    3  502    0  0.36103226296E+03  0.28614648355E+03 -0.48160156158E+03  0.66645642700E+03  0.50400001928E-02 0.  1.
       -1    1    3    3    0  502 -0.36103226296E+03 -0.28614648355E+03 -0.39160516120E+03  0.60463105052E+03  0.50400001928E-02 0. -1.
</event>
<event>
 5   0  0.6211218E-03  0.9006240E+03  0.7818609E-02  0.9424802E-01
        1   -1    0    0  501    0  0.00000000000E+00  0.00000000000E+00  0.10171328055E+04  0.10171328055E+04  0.50400001928E-02 0.  1.
       -1   -1    0    0    0  501  0.00000000000E+00  0.00000000000E+00 -0.19936519955E+03  0.19936519961E+03  0.50400001928E-02 0. -1.
    10030    2    1    2    0    0  0.00000000000E+00  0.00000000000E+00  0.81776760592E+03  0.12164980051E+04  0.90062397210E+03 0.  0.
        5    1    3    3  502    0 -0.18375108212E+03  0.41015243833E+03  0.37141937262E+03  0.58306425307E+03  0.46999998093E+01 0.  1.
       -5    1    3    3    0  502  0.18375108212E+03 -0.41015243833E+03  0.44634823330E+03  0.63343375204E+03  0.46999998093E+01 0. -1.
</event>
<event>
 5   0  0.6092779E-03  0.9167890E+03  0.7818609E-02  0.9404834E-01
       -1   -1    0    0    0  501  0.00000000000E+00  0.00000000000E+00  0.79405892860E+03  0.79405892861E+03  0.50400001928E-02 0.  1.
        1   -1    0    0  501    0  0.00000000000E+00  0.00000000000E+00 -0.26462209769E+03  0.26462209774E+03  0.50400001928E-02 0. -1.
    10030    2    1    2    0    0  0.00000000000E+00  0.00000000000E+00  0.52943683091E+03  0.10586810263E+04  0.91678904751E+03 0.  0.
        2    1    3    3  502    0  0.19570579778E+03  0.17798657572E+03  0.69701856271E+03  0.74552991704E+03  0.25500000920E-02 0.  1.
       -2    1    3    3    0  502 -0.19570579778E+03 -0.17798657572E+03 -0.16758173181E+03  0.31315110931E+03  0.25500000920E-02 0. -1.
</event>
<event>
 5   0  0.1041727E-02  0.9141566E+03  0.7818609E-02  0.9408056E-01
        2   -1    0    0  501    0  0.00000000000E+00  0.00000000000E+00  0.76353071310E+03  0.76353071310E+03  0.25500000920E-02 0.  1.
       -2   -1    0    0    0  501  0.00000000000E+00  0.00000000000E+00 -0.27362430394E+03  0.27362430395E+03  0.25500000920E-02 0. -1.
    10030    2    1    2    0    0  0.00000000000E+00  0.00000000000E+00  0.48990640916E+03  0.10371550171E+04  0.91415657284E+03 0.  0.
        4    1    3    3  502    0 -0.41586719705E+03  0.15234568566E+03  0.11677324917E+03  0.45803093579E+03  0.12699999809E+01 0. -1.
       -4    1    3    3    0  502  0.41586719705E+03 -0.15234568566E+03  0.37313315998E+03  0.57912408126E+03  0.12699999809E+01 0.  1.
</event>
<event>
 5   0  0.1041727E-02  0.9024989E+03  0.7818609E-02  0.9422463E-01
        2   -1    0    0  501    0  0.00000000000E+00  0.00000000000E+00  0.76156588592E+03  0.76156588593E+03  0.25500000920E-02 0.  1.
       -2   -1    0    0    0  501  0.00000000000E+00  0.00000000000E+00 -0.26737816160E+03  0.26737816161E+03  0.25500000920E-02 0. -1.
    10030    2    1    2    0    0  0.00000000000E+00  0.00000000000E+00  0.49418772433E+03  0.10289440475E+04  0.90249894520E+03 0.  0.
        4    1    3    3  502    0 -0.43817832540E+03  0.89943826675E+02  0.17931425880E+03  0.48191840919E+03  0.12699999809E+01 0. -1.
       -4    1    3    3    0  502  0.43817832540E+03 -0.89943826675E+02  0.31487346553E+03  0.54702563834E+03  0.12699999809E+01 0.  1.
</event>
<event>
 5   0  0.1017079E-02  0.9018016E+03  0.7818609E-02  0.9423332E-01
       -2   -1    0    0    0  501  0.00000000000E+00  0.00000000000E+00  0.59613653941E+03  0.59613653942E+03  0.25500000920E-02 0. -1.
        2   -1    0    0  501    0  0.00000000000E+00  0.00000000000E+00 -0.34104860468E+03  0.34104860469E+03  0.25500000920E-02 0.  1.
    10030    2    1    2    0    0  0.00000000000E+00  0.00000000000E+00  0.25508793473E+03  0.93718514410E+03  0.90180160783E+03 0.  0.
        1    1    3    3  502    0 -0.13606039731E+03  0.24064099362E+03 -0.24265041728E+03  0.36783113593E+03  0.50400001928E-02 0.  1.
       -1    1    3    3    0  502  0.13606039731E+03 -0.24064099362E+03  0.49773835202E+03  0.56935400817E+03  0.50400001928E-02 0. -1.
</event>
<event>
 5   0  0.6137243E-03  0.8982000E+03  0.7818609E-02  0.9427834E-01
       -1   -1    0    0    0  501  0.00000000000E+00  0.00000000000E+00  0.29419109803E+03  0.29419109808E+03  0.50400001928E-02 0. -1.
        1   -1    0    0  501    0  0.00000000000E+00  0.00000000000E+00 -0.68557755865E+03  0.68557755866E+03  0.50400001928E-02 0.  1.
    10030    2    1    2    0    0  0.00000000000E+00  0.00000000000E+00 -0.39138646061E+03  0.97976865674E+03  0.89820001068E+03 0.  0.
        4    1    3    3  502    0  0.39929242893E+02 -0.30395466046E+03 -0.55368355175E+03  0.63289009190E+03  0.12699999809E+01 0.  1.
       -4    1    3    3    0  502 -0.39929242893E+02  0.30395466046E+03  0.16229709114E+03  0.34687856484E+03  0.12699999809E+01 0. -1.
</event>
<event>
 5   0  0.6137243E-03  0.9214464E+03  0.7818609E-02  0.9399162E-01
        1   -1    0    0  501    0  0.00000000000E+00  0.00000000000E+00  0.84759542831E+03  0.84759542833E+03  0.50400001928E-02 0. -1.
       -1   -1    0    0    0  501  0.00000000000E+00  0.00000000000E+00 -0.25043301062E+03  0.25043301067E+03  0.50400001928E-02 0.  1.
    10030    2    1    2    0    0  0.00000000000E+00  0.00000000000E+00  0.59716241769E+03  0.10980284390E+04  0.92144641719E+03 0.  0.
        4    1    3    3  502    0  0.19064324634E+03  0.20666496068E+03  0.73350213179E+03  0.78554582526E+03  0.12699999809E+01 0. -1.
       -4    1    3    3    0  502 -0.19064324634E+03 -0.20666496068E+03 -0.13633971409E+03  0.31248261374E+03  0.12699999809E+01 0.  1.
</event>
<event>
 5   0  0.1033749E-02  0.9931438E+03  0.7818609E-02  0.9316097E-01
       -2   -1    0    0    0  501  0.00000000000E+00  0.00000000000E+00  0.18502367668E+03  0.18502367670E+03  0.25500000920E-02 0. -1.
        2   -1    0    0  501    0  0.00000000000E+00  0.00000000000E+00 -0.13327140571E+04  0.13327140571E+04  0.25500000920E-02 0.  1.
    10030    2    1    2    0    0  0.00000000000E+00  0.00000000000E+00 -0.11476903805E+04  0.15177377338E+04  0.99314380596E+03 0.  0.
        5    1    3    3  502    0  0.26494848938E+03 -0.40767722926E+03 -0.72790825669E+03  0.87536903386E+03  0.46999998093E+01 0.  1.
       -5    1    3    3    0  502 -0.26494848938E+03  0.40767722926E+03 -0.41978212377E+03  0.64236869998E+03  0.46999998093E+01 0. -1.
</event>
<event>
 5   0  0.6211218E-03  0.9004036E+03  0.7818609E-02  0.9425077E-01
       -1   -1    0    0    0  501  0.00000000000E+00  0.00000000000E+00  0.13626268237E+03  0.13626268247E+03  0.50400001928E-02 0.  1.
        1   -1    0    0  501    0  0.00000000000E+00  0.00000000000E+00 -0.14874333656E+04  0.14874333656E+04  0.50400001928E-02 0. -1.
    10030    2    1    2    0    0  0.00000000000E+00  0.00000000000E+00 -0.13511706832E+04  0.16236960481E+04  0.90040359912E+03 0.  0.
        5    1    3    3  502    0  0.11476305877E+03  0.29576900880E+03 -0.12515399470E+04  0.12911329115E+04  0.46999998093E+01 0. -1.
       -5    1    3    3    0  502 -0.11476305877E+03 -0.29576900880E+03 -0.99630736259E+02  0.33256313660E+03  0.46999998093E+01 0.  1.
</event>
<event>
 5   0  0.6211218E-03  0.9119090E+03  0.7818609E-02  0.9410816E-01
       -1   -1    0    0    0  501  0.00000000000E+00  0.00000000000E+00  0.12969515331E+03  0.12969515341E+03  0.50400001928E-02 0.  1.
        1   -1    0    0  501    0  0.00000000000E+00  0.00000000000E+00 -0.16029475134E+04  0.16029475134E+04  0.50400001928E-02 0. -1.
    10030    2    1    2    0    0  0.00000000000E+00  0.00000000000E+00 -0.14732523601E+04  0.17326426668E+04  0.91190903841E+03 0.  0.
        5    1    3    3  502    0 -0.15364083779E+03  0.41760014703E+03 -0.92545617139E+03  0.10268819820E+04  0.46999998093E+01 0. -1.
       -5    1    3    3    0  502  0.15364083779E+03 -0.41760014703E+03 -0.54779618867E+03  0.70576068476E+03  0.46999998093E+01 0.  1.
</event>
<event>
 5   0  0.1003252E-02  0.9133145E+03  0.7818609E-02  0.9409089E-01
        2   -1    0    0  501    0  0.00000000000E+00  0.00000000000E+00  0.10980447568E+04  0.10980447568E+04  0.25500000920E-02 0.  1.
       -2   -1    0    0    0  501  0.00000000000E+00  0.00000000000E+00 -0.18991562027E+03  0.18991562028E+03  0.25500000920E-02 0. -1.
    10030    2    1    2    0    0  0.00000000000E+00  0.00000000000E+00  0.90812913653E+03  0.12879603771E+04  0.91331451555E+03 0.  0.
        2    1    3    3  502    0 -0.47384706358E+02 -0.82063391650E+02  0.10840270575E+04  0.10881610046E+04  0.25500000920E-02 0.  1.
       -2    1    3    3    0  502  0.47384706358E+02  0.82063391650E+02 -0.17589792093E+03  0.19979937247E+03  0.25500000920E-02 0. -1.
</event>
<event>
 5   0  0.6015709E-03  0.8970893E+03  0.7818609E-02  0.9429227E-01
        1   -1    0    0  501    0  0.00000000000E+00  0.00000000000E+00  0.11008551092E+04  0.11008551092E+04  0.50400001928E-02 0.  1.
       -1   -1    0    0    0  501  0.00000000000E+00  0.00000000000E+00 -0.18276000512E+03  0.18276000519E+03  0.50400001928E-02 0. -1.
    10030    2    1    2    0    0  0.00000000000E+00  0.00000000000E+00  0.91809510406E+03  0.12836151144E+04  0.89708926075E+03 0.  0.
        3    1    3    3  502    0 -0.75484543790E+02  0.37328535173E+03  0.11998225250E+03  0.39929390339E+03  0.10100000352E+00 0. -1.
       -3    1    3    3    0  502  0.75484543790E+02 -0.37328535173E+03  0.79811285156E+03  0.88432121099E+03  0.10100000352E+00 0.  1.
</event>
<event>
 5   0  0.1028978E-02  0.8976606E+03  0.7818609E-02  0.9428511E-01
       -2   -1    0    0    0  501  0.00000000000E+00  0.00000000000E+00  0.24939813739E+03  0.24939813740E+03  0.25500000920E-02 0. -1.
        2   -1    0    0  501    0  0.00000000000E+00  0.00000000000E+00 -0.80773908295E+03  0.80773908295E+03  0.25500000920E-02 0.  1.
    10030    2    1    2    0    0  0.00000000000E+00  0.00000000000E+00 -0.55834094556E+03  0.10571372204E+04  0.89766056568E+03 0.  0.
        3    1    3    3  502    0  0.38514444228E+03  0.10000507254E+03 -0.52369085263E+03  0.65771526916E+03  0.10100000352E+00 0.  1.
       -3    1    3    3    0  502 -0.38514444228E+03 -0.10000507254E+03 -0.34650092922E+02  0.39942195119E+03  0.10100000352E+00 0. -1.
</event>
<event>
 5   0  0.3996375E-03  0.8891041E+03  0.7818609E-02  0.9439305E-01
        3   -1    0    0  501    0  0.00000000000E+00  0.00000000000E+00  0.15800437040E+04  0.15800437073E+04  0.10100000352E+00 0.  1.
       -3   -1    0    0    0  501  0.00000000000E+00  0.00000000000E+00 -0.12507659770E+03  0.12507663848E+03  0.10100000352E+00 0. -1.
    10030    2    1    2    0    0  0.00000000000E+00  0.00000000000E+00  0.14549671063E+04  0.17051203457E+04  0.88910410693E+03 0.  0.
        1    1    3    3  502    0 -0.36063040263E+03 -0.18157821339E+03  0.10842224533E+04  0.11569629480E+04  0.50400001928E-02 0.  1.
       -1    1    3    3    0  502  0.36063040263E+03  0.18157821339E+03  0.37074465303E+03  0.54815739770E+03  0.50400001928E-02 0. -1.
</event>
<event>
 5   0  0.1041727E-02  0.9320325E+03  0.7818609E-02  0.9386402E-01
       -2   -1    0    0    0  501  0.00000000000E+00  0.00000000000E+00  0.49594158743E+03  0.49594158744E+03  0.25500000920E-02 0.  1.
        2   -1    0    0  501    0  0.00000000000E+00  0.00000000000E+00 -0.43789659984E+03  0.43789659985E+03  0.25500000920E-02 0. -1.
    10030    2    1    2    0    0  0.00000000000E+00  0.00000000000E+00  0.58044987590E+02  0.93383818729E+03  0.93203247768E+03 0.  0.
        4    1    3    3  502    0 -0.37888950064E+03  0.26987110522E+02 -0.24147084605E+03  0.45010592112E+03  0.12699999809E+01 0. -1.
       -4    1    3    3    0  502  0.37888950064E+03 -0.26987110522E+02  0.29951583364E+03  0.48373226617E+03  0.12699999809E+01 0.  1.
</event>
<event>
 5   0  0.1041727E-02  0.8946361E+03  0.7818609E-02  0.9432311E-01
        2   -1    0    0  501    0  0.00000000000E+00  0.00000000000E+00  0.57922342220E+03  0.57922342220E+03  0.25500000920E-02 0.  1.
       -2   -1    0    0    0  501  0.00000000000E+00  0.00000000000E+00 -0.34545124848E+03  0.34545124849E+03  0.25500000920E-02 0. -1.
    10030    2    1    2    0    0  0.00000000000E+00  0.00000000000E+00  0.23377217371E+03  0.92467467069E+03  0.89463613688E+03 0.  0.
        4    1    3    3  502    0 -0.17843619258E+03  0.40990380476E+03  0.10116901503E+03  0.45836381454E+03  0.12699999809E+01 0.  1.
       -4    1    3    3    0  502  0.17843619258E+03 -0.40990380476E+03  0.13260315868E+03  0.46631085615E+03  0.12699999809E+01 0. -1.
</event>
<event>
 5   0  0.6092779E-03  0.8974941E+03  0.7818609E-02  0.9428719E-01
       -1   -1    0    0    0  501  0.00000000000E+00  0.00000000000E+00  0.25193860824E+03  0.25193860829E+03  0.50400001928E-02 0.  1.
        1   -1    0    0  501    0  0.00000000000E+00  0.00000000000E+00 -0.79929757900E+03  0.79929757901E+03  0.50400001928E-02 0. -1.
    10030    2    1    2    0    0  0.00000000000E+00  0.00000000000E+00 -0.54735897076E+03  0.10512361873E+04  0.89749411063E+03 0.  0.
        2    1    3    3  502    0 -0.10270770017E+03  0.18140478956E+03 -0.73914082939E+03  0.76797508751E+03  0.25500000920E-02 0. -1.
       -2    1    3    3    0  502  0.10270770017E+03 -0.18140478956E+03  0.19178185863E+03  0.28326109979E+03  0.25500000920E-02 0.  1.
</event>
<event>
 5   0  0.1017079E-02  0.9027928E+03  0.7818609E-02  0.9422097E-01
       -2   -1    0    0    0  501  0.00000000000E+00  0.00000000000E+00  0.12163082361E+03  0.12163082364E+03  0.25500000920E-02 0. -1.
        2   -1    0    0  501    0  0.00000000000E+00  0.00000000000E+00 -0.16752225534E+04  0.16752225535E+04  0.25500000920E-02 0.  1.
    10030    2    1    2    0    0  0.00000000000E+00  0.00000000000E+00 -0.15535917298E+04  0.17968533771E+04  0.90279277564E+03 0.  0.
        1    1    3    3  502    0  0.20134449032E+03  0.19150450721E+03 -0.14848186990E+04  0.15105959582E+04  0.50400001928E-02 0.  1.
       -1    1    3    3    0  502 -0.20134449032E+03 -0.19150450721E+03 -0.68773030835E+02  0.28625741887E+03  0.50400001928E-02 0. -1.
</event>
<event>
 5   0  0.6288003E-03  0.8981651E+03  0.7818609E-02  0.9427878E-01
        1   -1    0    0  501    0  0.00000000000E+00  0.00000000000E+00  0.70809288179E+03  0.70809288181E+03  0.50400001928E-02 0. -1.
       -1   -1    0    0    0  501  0.00000000000E+00  0.00000000000E+00 -0.28481449929E+03  0.28481449934E+03  0.50400001928E-02 0.  1.
    10030    2    1    2    0    0  0.00000000000E+00  0.00000000000E+00  0.42327838249E+03  0.99290738115E+03  0.89816506192E+03 0.  0.
        1    1    3    3  502    0 -0.19082074459E+03  0.13594443018E+03  0.63517340736E+03  0.67700716548E+03  0.50400001928E-02 0. -1.
       -1    1    3    3    0  502  0.19082074459E+03 -0.13594443018E+03 -0.21189502487E+03  0.31590021566E+03  0.50400001928E-02 0.  1.
</event>
<event>
 5   0  0.6211218E-03  0.8990784E+03  0.7818609E-02  0.9426734E-01
       -1   -1    0    0    0  501  0.00000000000E+00  0.00000000000E+00  0.27316354995E+03  0.27316354999E+03  0.50400001928E-02 0.  1.
        1   -1    0    0  501    0  0.00000000000E+00  0.00000000000E+00 -0.73979677710E+03  0.73979677712E+03  0.50400001928E-02 0. -1.
    10030    2    1    2    0    0  0.00000000000E+00  0.00000000000E+00 -0.46663322716E+03  0.10129603271E+04  0.89907844797E+03 0.  0.
        5    1    3    3  502    0 -0.17983363477E+03 -0.26731898428E+03  0.11985983369E+03  0.34378488227E+03  0.46999998093E+01 0.  1.
       -5    1    3    3    0  502  0.17983363477E+03  0.26731898428E+03 -0.58649306085E+03  0.66917544484E+03  0.46999998093E+01 0. -1.
</event>
<event>
 5   0  0.1017079E-02  0.8949841E+03  0.7818609E-02  0.9431873E-01
        2   -1    0    0  501    0  0.00000000000E+00  0.00000000000E+00  0.55347066553E+03  0.55347066554E+03  0.25500000920E-02 0.  1.
       -2   -1    0    0    0  501  0.00000000000E+00  0.00000000000E+00 -0.36180626081E+03  0.36180626082E+03  0.25500000920E-02 0. -1.
    10030    2    1    2    0    0  0.00000000000E+00  0.00000000000E+00  0.19166440472E+03  0.91527692636E+03  0.89498413834E+03 0.  0.
        1    1    3    3  502    0  0.18005155542E+03 -0.34942679513E+03 -0.12286585173E+03  0.41184179646E+03  0.50400001928E-02 0. -1.
       -1    1    3    3    0  502 -0.18005155542E+03  0.34942679513E+03  0.31453025645E+03  0.50343512990E+03  0.50400001928E-02 0.  1.
</event>
<event>
 5   0  0.6211218E-03  0.9055262E+03  0.7818609E-02  0.9418700E-01
        1   -1    0    0  501    0  0.00000000000E+00  0.00000000000E+00  0.13853861115E+04  0.13853861115E+04  0.50400001928E-02 0.  1.
       -1   -1    0    0    0  501  0.00000000000E+00  0.00000000000E+00 -0.14796915455E+03  0.14796915464E+03  0.50400001928E-02 0. -1.
    10030    2    1    2    0    0  0.00000000000E+00  0.00000000000E+00  0.12374169569E+04  0.15333552661E+04  0.90552617127E+03 0.  0.
        5    1    3    3  502    0 -0.39320034006E+03  0.22301358804E+03  0.66123616275E+03  0.80099745368E+03  0.46999998093E+01 0. -1.
       -5    1    3    3    0  502  0.39320034006E+03 -0.22301358804E+03  0.57618079415E+03  0.73235781242E+03  0.46999998093E+01 0.  1.
</event>
<event>
 5   0  0.6015709E-03  0.9024775E+03  0.7818609E-02  0.9422490E-01
        1   -1    0    0  501    0  0.00000000000E+00  0.00000000000E+00  0.74989646323E+03  0.74989646325E+03  0.50400001928E-02 0. -1.
       -1   -1    0    0    0  501  0.00000000000E+00  0.00000000000E+00 -0.27152602348E+03  0.27152602353E+03  0.50400001928E-02 0.  1.
    10030    2    1    2    0    0  0.00000000000E+00  0.00000000000E+00  0.47837043975E+03  0.10214224868E+04  0.90247748940E+03 0.  0.
        3    1    3    3  502    0 -0.17987498841E+03  0.12587549195E+03  0.68537327451E+03  0.71967783525E+03  0.10100000352E+00 0. -1.
       -3    1    3    3    0  502  0.17987498841E+03 -0.12587549195E+03 -0.20700283476E+03  0.30174465153E+03  0.10100000352E+00 0.  1.
</event>
<event>
 5   0  0.6137243E-03  0.8975060E+03  0.7818609E-02  0.9428704E-01
       -1   -1    0    0    0  501  0.00000000000E+00  0.00000000000E+00  0.19819927331E+03  0.19819927337E+03  0.50400001928E-02 0. -1.
        1   -1    0    0  501    0  0.00000000000E+00  0.00000000000E+00 -0.10160444720E+04  0.10160444720E+04  0.50400001928E-02 0.  1.
    10030    2    1    2    0    0  0.00000000000E+00  0.00000000000E+00 -0.81784519872E+03  0.12142437454E+04  0.89750604689E+03 0.  0.
        4    1    3    3  502    0 -0.29226999247E+03 -0.60207542456E+02  0.44515741591E+02  0.30171171806E+03  0.12699999809E+01 0. -1.
       -4    1    3    3    0  502  0.29226999247E+03  0.60207542456E+02 -0.86236094031E+03  0.91253202735E+03  0.12699999809E+01 0.  1.
</event>
<event>
 5   0  0.1033749E-02  0.8540100E+03  0.7818609E-02  0.9484971E-01
        2   -1    0    0  501    0  0.00000000000E+00  0.00000000000E+00  0.10769293313E+04  0.10769293313E+04  0.25500000920E-02 0.  1.
       -2   -1    0    0    0  501  0.00000000000E+00  0.00000000000E+00 -0.16930847942E+03  0.16930847944E+03  0.25500000920E-02 0. -1.
    10030    2    1    2    0    0  0.00000000000E+00  0.00000000000E+00  0.90762085183E+03  0.12462378107E+04  0.85400999417E+03 0.  0.
        5    1    3    3  502    0 -0.22584566026E+03 -0.81516699715E+02 -0.61419917939E+02  0.24788249416E+03  0.46999998093E+01 0. -1.
       -5    1    3    3    0  502  0.22584566026E+03  0.81516699715E+02  0.96904076977E+03  0.99835531655E+03  0.46999998093E+01 0.  1.
</event>
<event>
 5   0  0.1017079E-02  0.9089803E+03  0.7818609E-02  0.9414425E-01
       -2   -1    0    0    0  501  0.00000000000E+00  0.00000000000E+00  0.96590960935E+02  0.96590960968E+02  0.25500000920E-02 0. -1.
        2   -1    0    0  501    0  0.00000000000E+00  0.00000000000E+00 -0.21385158480E+04  0.21385158480E+04  0.25500000920E-02 0.  1.
    10030    2    1    2    0    0  0.00000000000E+00  0.00000000000E+00 -0.20419248870E+04  0.22351068089E+04  0.90898030951E+03 0.  0.
        1    1    3    3  502    0  0.35411175225E+03 -0.10672131360E+03 -0.37143260166E+03  0.52416290355E+03  0.50400001928E-02 0. -1.
       -1    1    3    3    0  502 -0.35411175225E+03  0.10672131360E+03 -0.16704922854E+04  0.17109439054E+04  0.50400001928E-02 0.  1.
</event>
<event>
 5   0  0.6092779E-03  0.9500363E+03  0.7818609E-02  0.9365108E-01
        1   -1    0    0  501    0  0.00000000000E+00  0.00000000000E+00  0.50647937849E+03  0.50647937851E+03  0.50400001928E-02 0.  1.
       -1   -1    0    0    0  501  0.00000000000E+00  0.00000000000E+00 -0.44551124068E+03  0.44551124071E+03  0.50400001928E-02 0. -1.
    10030    2    1    2    0    0  0.00000000000E+00  0.00000000000E+00  0.60968137804E+02  0.95199061922E+03  0.95003632839E+03 0.  0.
        2    1    3    3  502    0  0.98842088009E+01 -0.31940420174E+03 -0.32170088037E+03  0.45344040194E+03  0.25500000920E-02 0. -1.
       -2    1    3    3    0  502 -0.98842088009E+01  0.31940420174E+03  0.38266901818E+03  0.49855021728E+03  0.25500000920E-02 0.  1.
</event>
<event>
 5   0  0.6211218E-03  0.8955823E+03  0.7818609E-02  0.9431121E-01
       -1   -1    0    0    0  501  0.00000000000E+00  0.00000000000E+00  0.14598921952E+03  0.14598921961E+03  0.50400001928E-02 0. -1.
        1   -1    0    0  501    0  0.00000000000E+00  0.00000000000E+00 -0.13735048006E+04  0.13735048007E+04  0.50400001928E-02 0.  1.
    10030    2    1    2    0    0  0.00000000000E+00  0.00000000000E+00 -0.12275155811E+04  0.15194940203E+04  0.89558225513E+03 0.  0.
        5    1    3    3  502    0 -0.83857894207E+02 -0.21628975432E+03 -0.12635597822E+04  0.12846862719E+04  0.46999998093E+01 0.  1.
       -5    1    3    3    0  502  0.83857894207E+02  0.21628975432E+03  0.36044201030E+02  0.23480774832E+03  0.46999998093E+01 0. -1.
</event>
<event>
 5   0  0.1028978E-02  0.9275206E+03  0.7818609E-02  0.9391819E-01
       -2   -1    0    0    0  501  0.00000000000E+00  0.00000000000E+00  0.57928394460E+03  0.57928394460E+03  0.25500000920E-02 0.  1.
        2   -1    0    0  501    0  0.00000000000E+00  0.00000000000E+00 -0.37127491047E+03  0.37127491048E+03  0.25500000920E-02 0. -1.
    10030    2    1    2    0    0  0.00000000000E+00  0.00000000000E+00  0.20800903412E+03  0.95055885509E+03  0.92752055433E+03 0.  0.
        3    1    3    3  502    0  0.25092981814E+03  0.18656977515E+03  0.45500167913E+03  0.55208748658E+03  0.10100000352E+00 0.  1.
       -3    1    3    3    0  502 -0.25092981814E+03 -0.18656977515E+03 -0.24699264500E+03  0.39847136850E+03  0.10100000352E+00 0. -1.
</event>
<event>
 5   0  0.1017079E-02  0.8464840E+03  0.7818609E-02  0.9495068E-01
       -2   -1    0    0    0  501  0.00000000000E+00  0.00000000000E+00  0.96973550355E+02  0.96973550388E+02  0.25500000920E-02 0.  1.
        2   -1    0    0  501    0  0.00000000000E+00  0.00000000000E+00 -0.18472437300E+04  0.18472437300E+04  0.25500000920E-02 0. -1.
    10030    2    1    2    0    0  0.00000000000E+00  0.00000000000E+00 -0.17502701796E+04  0.19442172804E+04  0.84648398190E+03 0.  0.
        1    1    3    3  502    0  0.59879679010E+02 -0.20029237230E+03 -0.29884711606E+02  0.21117695512E+03  0.50400001928E-02 0.  1.
       -1    1    3    3    0  502 -0.59879679010E+02  0.20029237230E+03 -0.17203854680E+04  0.17330403253E+04  0.50400001928E-02 0. -1.
</event>
<event>
 5   0  0.3996375E-03  0.8848671E+03  0.7818609E-02  0.9444699E-01
       -3   -1    0    0    0  501  0.00000000000E+00  0.00000000000E+00  0.11664255251E+04  0.11664255295E+04  0.10100000352E+00 0. -1.
        3   -1    0    0  501    0  0.00000000000E+00  0.00000000000E+00 -0.16781818332E+03  0.16781821372E+03  0.10100000352E+00 0.  1.
    10030    2    1    2    0    0  0.00000000000E+00  0.00000000000E+00  0.99860734178E+03  0.13342437432E+04  0.88486707657E+03 0.  0.
        5    1    3    3  502    0  0.23044293638E+03 -0.36585203272E+03  0.35806674476E+03  0.56141387628E+03  0.46999998093E+01 0.  1.
       -5    1    3    3    0  502 -0.23044293638E+03  0.36585203272E+03  0.64054059701E+03  0.77282986691E+03  0.46999998093E+01 0. -1.
</event>
<event>
 5   0  0.3996375E-03  0.9121767E+03  0.7818609E-02  0.9410487E-01
        3   -1    0    0  501    0  0.00000000000E+00  0.00000000000E+00  0.22636842182E+03  0.22636844435E+03  0.10100000352E+00 0. -1.
       -3   -1    0    0    0  501  0.00000000000E+00  0.00000000000E+00 -0.91892928737E+03  0.91892929292E+03  0.10100000352E+00 0.  1.
    10030    2    1    2    0    0  0.00000000000E+00  0.00000000000E+00 -0.69256086555E+03  0.11452977373E+04  0.91217671233E+03 0.  0.
        2    1    3    3  502    0  0.37411499577E+03 -0.12449278553E+03 -0.58440524547E+02  0.39859224607E+03  0.25500000920E-02 0. -1.
       -2    1    3    3    0  502 -0.37411499577E+03  0.12449278553E+03 -0.63412034101E+03  0.74670549121E+03  0.25500000920E-02 0.  1.
</event>
<event>
 5   0  0.6092779E-03  0.9044119E+03  0.7818609E-02  0.9420083E-01
        1   -1    0    0  501    0  0.00000000000E+00  0.00000000000E+00  0.11470162848E+04  0.11470162848E+04  0.50400001928E-02 0. -1.
       -1   -1    0    0    0  501  0.00000000000E+00  0.00000000000E+00 -0.17828013148E+03  0.17828013155E+03  0.50400001928E-02 0.  1.
    10030    2    1    2    0    0  0.00000000000E+00  0.00000000000E+00  0.96873615331E+03  0.13252964164E+04  0.90441188431E+03 0.  0.
        2    1    3    3  502    0  0.17840832353E+03  0.41484793483E+03  0.44963312602E+03  0.63725841458E+03  0.25500000920E-02 0. -1.
       -2    1    3    3    0  502 -0.17840832353E+03 -0.41484793483E+03  0.51910302730E+03  0.68803800178E+03  0.25500000920E-02 0.  1.
</event>
<event>
 5   0  0.6211218E-03  0.8985266E+03  0.7818609E-02  0.9427425E-01
        1   -1    0    0  501    0  0.00000000000E+00  0.00000000000E+00  0.32800093172E+03  0.32800093175E+03  0.50400001928E-02 0. -1.
       -1   -1    0    0    0  501  0.00000000000E+00  0.00000000000E+00 -0.61535652699E+03  0.61535652701E+03  0.50400001928E-02 0.  1.
    10030    2    1    2    0    0  0.00000000000E+00  0.00000000000E+00 -0.28735559527E+03  0.94335745876E+03  0.89852660332E+03 0.  0.
        5    1    3    3  502    0 -0.31833482587E+03  0.26920605897E+03  0.32023294722E+02  0.41815851653E+03  0.46999998093E+01 0. -1.
       -5    1    3    3    0  502  0.31833482587E+03 -0.26920605897E+03 -0.31937888999E+03  0.52519894223E+03  0.46999998093E+01 0.  1.
</event>
<event>
 5   0  0.6092779E-03  0.8668266E+03  0.7818609E-02  0.9468027E-01
       -1   -1    0    0    0  501  0.00000000000E+00  0.00000000000E+00  0.17990165170E+03  0.17990165177E+03  0.50400001928E-02 0. -1.
        1   -1    0    0  501    0  0.00000000000E+00  0.00000000000E+00 -0.10441653506E+04  0.10441653506E+04  0.50400001928E-02 0.  1.
    10030    2    1    2    0    0  0.00000000000E+00  0.00000000000E+00 -0.86426369887E+03  0.12240670024E+04  0.86682655997E+03 0.  0.
        2    1    3    3  502    0 -0.26945950705E+03  0.32958839446E+03 -0.31732226000E+03  0.53097114084E+03  0.25500000920E-02 0. -1.
       -2    1    3    3    0  502  0.26945950705E+03 -0.32958839446E+03 -0.54694143887E+03  0.69309586152E+03  0.25500000920E-02 0.  1.
</event>
<event>
 5   0  0.6211218E-03  0.9054187E+03  0.7818609E-02  0.9418833E-01
       -1   -1    0    0    0  501  0.00000000000E+00  0.00000000000E+00  0.25205345914E+03  0.25205345919E+03  0.50400001928E-02 0. -1.
        1   -1    0    0  501    0  0.00000000000E+00  0.00000000000E+00 -0.81310436759E+03  0.81310436760E+03  0.50400001928E-02 0.  1.
    10030    2    1    2    0    0  0.00000000000E+00  0.00000000000E+00 -0.56105090844E+03  0.10651578268E+04  0.90541872861E+03 0.  0.
        5    1    3    3  502    0  0.35086037377E+03  0.64592051139E+02 -0.60834220880E+03  0.70524993297E+03  0.46999998093E+01 0.  1.
       -5    1    3    3    0  502 -0.35086037377E+03 -0.64592051139E+02  0.47291300355E+02  0.35990789382E+03  0.46999998093E+01 0. -1.
</event>
<event>
 5   0  0.3996375E-03  0.9130080E+03  0.7818609E-02  0.9409465E-01
        4   -1    0    0  501    0  0.00000000000E+00  0.00000000000E+00  0.17663084886E+03  0.17663541454E+03  0.12699999809E+01 0. -1.
       -4   -1    0    0    0  501  0.00000000000E+00  0.00000000000E+00 -0.11798183817E+04  0.11798190652E+04  0.12699999809E+01 0.  1.
    10030    2    1    2    0    0  0.00000000000E+00  0.00000000000E+00 -0.10031875328E+04  0.13564544797E+04  0.91300795705E+03 0.  0.
        5    1    3    3  502    0 -0.25700872605E+03 -0.31338716511E+03 -0.18956599941E+03  0.44746213097E+03  0.46999998093E+01 0. -1.
       -5    1    3    3    0  502  0.25700872605E+03  0.31338716511E+03 -0.81362153339E+03  0.90899234877E+03  0.46999998093E+01 0.  1.
</event>
<event>
 5   0  0.1028978E-02  0.9007238E+03  0.7818609E-02  0.9424677E-01
        2   -1    0    0  501    0  0.00000000000E+00  0.00000000000E+00  0.56223755501E+03  0.56223755501E+03  0.25500000920E-02 0. -1.
       -2   -1    0    0    0  501  0.00000000000E+00  0.00000000000E+00 -0.36074758344E+03  0.36074758345E+03  0.25500000920E-02 0.  1.
    10030    2    1    2    0    0  0.00000000000E+00  0.00000000000E+00  0.20148997157E+03  0.92298513846E+03  0.90072379628E+03 0.  0.
        3    1    3    3  502    0 -0.39035659586E+02 -0.37591744504E+03 -0.15023304110E+03  0.40670343624E+03  0.10100000352E+00 0.  1.
       -3    1    3    3    0  502  0.39035659586E+02  0.37591744504E+03  0.35172301267E+03  0.51628170222E+03  0.10100000352E+00 0. -1.
</event>
<event>
 5   0  0.1003252E-02  0.9138005E+03  0.7818609E-02  0.9408493E-01
       -2   -1    0    0    0  501  0.00000000000E+00  0.00000000000E+00  0.30883123325E+03  0.30883123326E+03  0.25500000920E-02 0. -1.
        2   -1    0    0  501    0  0.00000000000E+00  0.00000000000E+00 -0.67596085470E+03  0.67596085471E+03  0.25500000920E-02 0.  1.
    10030    2    1    2    0    0  0.00000000000E+00  0.00000000000E+00 -0.36712962146E+03  0.98479208796E+03  0.91380046923E+03 0.  0.
        2    1    3    3  502    0  0.91852896715E+01  0.34290280278E+03  0.14169559646E+03  0.37113925118E+03  0.25500000920E-02 0. -1.
       -2    1    3    3    0  502 -0.91852896715E+01 -0.34290280278E+03 -0.50882521792E+03  0.61365283679E+03  0.25500000920E-02 0.  1.
</event>
<event>
 5   0  0.1017079E-02  0.9023055E+03  0.7818609E-02  0.9422704E-01
       -2   -1    0    0    0  501  0.00000000000E+00  0.00000000000E+00  0.26086957103E+03  0.26086957104E+03  0.25500000920E-02 0. -1.
        2   -1    0    0  501    0  0.00000000000E+00  0.00000000000E+00 -0.78023204826E+03  0.78023204826E+03  0.25500000920E-02 0.  1.
    10030    2    1    2    0    0  0.00000000000E+00  0.00000000000E+00 -0.51936247723E+03  0.10411016193E+04  0.90230549093E+03 0.  0.
        1    1    3    3  502    0 -0.32718407379E+03  0.69655231998E+02  0.89600764967E+02  0.34630848473E+03  0.50400001928E-02 0. -1.
       -1    1    3    3    0  502  0.32718407379E+03 -0.69655231998E+02 -0.60896324219E+03  0.69479313458E+03  0.50400001928E-02 0.  1.
</event>
<event>
 5   0  0.6092779E-03  0.8947591E+03  0.7818609E-02  0.9432157E-01
        1   -1    0    0  501    0  0.00000000000E+00  0.00000000000E+00  0.88582865251E+03  0.88582865253E+03  0.50400001928E-02 0.  1.
       -1   -1    0    0    0  501  0.00000000000E+00  0.00000000000E+00 -0.22594487545E+03  0.22594487551E+03  0.50400001928E-02 0. -1.
    10030    2    1    2    0    0  0.00000000000E+00  0.00000000000E+00  0.65988377706E+03  0.11117735280E+04  0.89475906166E+03 0.  0.
        2    1    3    3  502    0 -0.13020839121E+03  0.40095146947E+03  0.14384223554E+03  0.44542888854E+03  0.25500000920E-02 0. -1.
       -2    1    3    3    0  502  0.13020839121E+03 -0.40095146947E+03  0.51604154152E+03  0.66634463950E+03  0.25500000920E-02 0.  1.
</event>
<event>
 5   0  0.1041727E-02  0.8920429E+03  0.7818609E-02  0.9435583E-01
        2   -1    0    0  501    0  0.00000000000E+00  0.00000000000E+00  0.25386917867E+04  0.25386917867E+04  0.25500000920E-02 0.  1.
       -2   -1    0    0    0  501  0.00000000000E+00  0.00000000000E+00 -0.78361271515E+02  0.78361271557E+02  0.25500000920E-02 0. -1.
    10030    2    1    2    0    0  0.00000000000E+00  0.00000000000E+00  0.24603305152E+04  0.26170530582E+04  0.89204286095E+03 0.  0.
        4    1    3    3  502    0  0.84415543550E+02  0.13319422703E+03  0.24541747904E+04  0.24592361011E+04  0.12699999809E+01 0.  1.
       -4    1    3    3    0  502 -0.84415543550E+02 -0.13319422703E+03  0.61557247197E+01  0.15781695712E+03  0.12699999809E+01 0. -1.
</event>
<event>
 5   0  0.6288003E-03  0.9028517E+03  0.7818609E-02  0.9422024E-01
       -1   -1    0    0    0  501  0.00000000000E+00  0.00000000000E+00  0.46186865526E+03  0.46186865529E+03  0.50400001928E-02 0. -1.
        1   -1    0    0  501    0  0.00000000000E+00  0.00000000000E+00 -0.44121920002E+03  0.44121920005E+03  0.50400001928E-02 0.  1.
    10030    2    1    2    0    0  0.00000000000E+00  0.00000000000E+00  0.20649455237E+02  0.90308785534E+03  0.90285174556E+03 0.  0.
        1    1    3    3  502    0 -0.14011025167E+03  0.11883839451E+03  0.42278177453E+03  0.46097491855E+03  0.50400001928E-02 0. -1.
       -1    1    3    3    0  502  0.14011025167E+03 -0.11883839451E+03 -0.40213231929E+03  0.44211293679E+03  0.50400001928E-02 0.  1.
</event>
<event>
 5   0  0.6092779E-03  0.8564004E+03  0.7818609E-02  0.9481787E-01
       -1   -1    0    0    0  501  0.00000000000E+00  0.00000000000E+00  0.20649776483E+03  0.20649776489E+03  0.50400001928E-02 0. -1.
        1   -1    0    0  501    0  0.00000000000E+00  0.00000000000E+00 -0.88792933754E+03  0.88792933755E+03  0.50400001928E-02 0.  1.
    10030    2    1    2    0    0  0.00000000000E+00  0.00000000000E+00 -0.68143157271E+03  0.10944271024E+04  0.85640042870E+03 0.  0.
        2    1    3    3  502    0 -0.19642906515E+03  0.99347724619E+02 -0.81008831694E+03  0.83946258361E+03  0.25500000920E-02 0.  1.
       -2    1    3    3    0  502  0.19642906515E+03 -0.99347724619E+02  0.12865674424E+03  0.25496451884E+03  0.25500000920E-02 0. -1.
</event>
<event>
 5   0  0.1028978E-02  0.8337906E+03  0.7818609E-02  0.9512355E-01
       -2   -1    0    0    0  501  0.00000000000E+00  0.00000000000E+00  0.10149437116E+03  0.10149437120E+03  0.25500000920E-02 0.  1.
        2   -1    0    0  501    0  0.00000000000E+00  0.00000000000E+00 -0.17124269036E+04  0.17124269036E+04  0.25500000920E-02 0. -1.
    10030    2    1    2    0    0  0.00000000000E+00  0.00000000000E+00 -0.16109325324E+04  0.18139212748E+04  0.83379060147E+03 0.  0.
        3    1    3    3  502    0  0.34878501638E+03 -0.14775175405E+03 -0.11842809871E+04  0.12433837039E+04  0.10100000352E+00 0. -1.
       -3    1    3    3    0  502 -0.34878501638E+03  0.14775175405E+03 -0.42665154530E+03  0.57053757088E+03  0.10100000352E+00 0.  1.
</event>
<event>
 5   0  0.6211218E-03  0.8946706E+03  0.7818609E-02  0.9432268E-01
        1   -1    0    0  501    0  0.00000000000E+00  0.00000000000E+00  0.92163207265E+03  0.92163207267E+03  0.50400001928E-02 0.  1.
       -1   -1    0    0    0  501  0.00000000000E+00  0.00000000000E+00 -0.21712448472E+03  0.21712448478E+03  0.50400001928E-02 0. -1.
    10030    2    1    2    0    0  0.00000000000E+00  0.00000000000E+00  0.70450758793E+03  0.11387565574E+04  0.89467064090E+03 0.  0.
        5    1    3    3  502    0  0.17410233010E+03 -0.10408903242E+03 -0.15518679037E+03  0.25544310114E+03  0.46999998093E+01 0. -1.
       -5    1    3    3    0  502 -0.17410233010E+03  0.10408903242E+03  0.85969437830E+03  0.88331345631E+03  0.46999998093E+01 0.  1.
</event>
<event>
 5   0  0.1028978E-02  0.9020893E+03  0.7818609E-02  0.9422973E-01
       -2   -1    0    0    0  501  0.00000000000E+00  0.00000000000E+00  0.37250029912E+03  0.37250029913E+03  0.25500000920E-02 0.  1.
        2   -1    0    0  501    0  0.00000000000E+00  0.00000000000E+00 -0.54615062534E+03  0.54615062535E+03  0.25500000920E-02 0. -1.
    10030    2    1    2    0    0  0.00000000000E+00  0.00000000000E+00 -0.17365032622E+03  0.91865092448E+03  0.90208928896E+03 0.  0.
        3    1    3    3  502    0  0.30347031988E+02 -0.31459035271E+03 -0.41452997050E+03  0.52127069648E+03  0.10100000352E+00 0. -1.
       -3    1    3    3    0  502 -0.30347031988E+02  0.31459035271E+03  0.24087964428E+03  0.39738022799E+03  0.10100000352E+00 0.  1.
</event>
<event>
 5   0  0.6137243E-03  0.9071678E+03  0.7818609E-02  0.9416665E-01
        1   -1    0    0  501    0  0.00000000000E+00  0.00000000000E+00  0.20854509406E+03  0.20854509412E+03  0.50400001928E-02 0. -1.
       -1   -1    0    0    0  501  0.00000000000E+00  0.00000000000E+00 -0.98654136557E+03  0.98654136558E+03  0.50400001928E-02 0.  1.
    10030    2    1    2    0    0  0.00000000000E+00  0.00000000000E+00 -0.77799627151E+03  0.11950864597E+04  0.90716781671E+03 0.  0.
        4    1    3    3  502    0  0.33929233727E+03 -0.22579033666E+03 -0.12672270890E+03  0.42680302729E+03  0.12699999809E+01 0. -1.
       -4    1    3    3    0  502 -0.33929233727E+03  0.22579033666E+03 -0.65127356261E+03  0.76828343241E+03  0.12699999809E+01 0.  1.
</event>
<event>
 5   0  0.6211218E-03  0.9014022E+03  0.7818609E-02  0.9423830E-01
        1   -1    0    0  501    0  0.00000000000E+00  0.00000000000E+00  0.48569932451E+03  0.48569932454E+03  0.50400001928E-02 0. -1.
       -1   -1    0    0    0  501  0.00000000000E+00  0.00000000000E+00 -0.41822475350E+03  0.41822475353E+03  0.50400001928E-02 0.  1.
    10030    2    1    2    0    0  0.00000000000E+00  0.00000000000E+00  0.67474571014E+02  0.90392407807E+03  0.90140219723E+03 0.  0.
        5    1    3    3  502    0  0.25509571520E+03 -0.34969434445E+03  0.15958513200E+03  0.46135611279E+03  0.46999998093E+01 0. -1.
       -5    1    3    3    0  502 -0.25509571520E+03  0.34969434445E+03 -0.92110560988E+02  0.44256796528E+03  0.46999998093E+01 0.  1.
</event>
<event>
 5   0  0.1033749E-02  0.9045120E+03  0.7818609E-02  0.9419959E-01
       -2   -1    0    0    0  501  0.00000000000E+00  0.00000000000E+00  0.73641052667E+03  0.73641052667E+03  0.25500000920E-02 0.  1.
        2   -1    0    0  501    0  0.00000000000E+00  0.00000000000E+00 -0.27774653804E+03  0.27774653805E+03  0.25500000920E-02 0. -1.
    10030    2    1    2    0    0  0.00000000000E+00  0.00000000000E+00  0.45866398863E+03  0.10141570647E+04  0.90451196645E+03 0.  0.
        5    1    3    3  502    0 -0.16033110301E+03  0.35968273907E+03  0.47862553362E+03  0.61982435158E+03  0.46999998093E+01 0.  1.
       -5    1    3    3    0  502  0.16033110301E+03 -0.35968273907E+03 -0.19961544988E+02  0.39433271314E+03  0.46999998093E+01 0. -1.
</event>
<event>
 5   0  0.6288003E-03  0.9021548E+03  0.7818609E-02  0.9422892E-01
       -1   -1    0    0    0  501  0.00000000000E+00  0.00000000000E+00  0.43556225532E+03  0.43556225535E+03  0.50400001928E-02 0.  1.
        1   -1    0    0  501    0  0.00000000000E+00  0.00000000000E+00 -0.46714521052E+03  0.46714521055E+03  0.50400001928E-02 0. -1.
    10030    2    1    2    0    0  0.00000000000E+00  0.00000000000E+00 -0.31582955198E+02  0.90270746590E+03  0.90215480153E+03 0.  0.
        1    1    3    3  502    0  0.16021387008E+03  0.39220855643E+03  0.13914131005E+03  0.44593311168E+03  0.50400001928E-02 0.  1.
       -1    1    3    3    0  502 -0.16021387008E+03 -0.39220855643E+03 -0.17072426525E+03  0.45677435422E+03  0.50400001928E-02 0. -1.
</event>
<event>
 5   0  0.1033749E-02  0.8093964E+03  0.7818609E-02  0.9546515E-01
        2   -1    0    0  501    0  0.00000000000E+00  0.00000000000E+00  0.41610128374E+03  0.41610128375E+03  0.25500000920E-02 0. -1.
       -2   -1    0    0    0  501  0.00000000000E+00  0.00000000000E+00 -0.39360757926E+03  0.39360757927E+03  0.25500000920E-02 0.  1.
    10030    2    1    2    0    0  0.00000000000E+00  0.00000000000E+00  0.22493704476E+02  0.80970886302E+03  0.80939636527E+03 0.  0.
        5    1    3    3  502    0 -0.36327619155E+03  0.12315765787E+03  0.14021958533E+03  0.40843729280E+03  0.46999998093E+01 0. -1.
       -5    1    3    3    0  502  0.36327619155E+03 -0.12315765787E+03 -0.11772588085E+03  0.40127157022E+03  0.46999998093E+01 0.  1.
</event>
<event>
 5   0  0.6092779E-03  0.9020723E+03  0.7818609E-02  0.9422995E-01
       -1   -1    0    0    0  501  0.00000000000E+00  0.00000000000E+00  0.57772817220E+03  0.57772817222E+03  0.50400001928E-02 0.  1.
        1   -1    0    0  501    0  0.00000000000E+00  0.00000000000E+00 -0.35212688114E+03  0.35212688117E+03  0.50400001928E-02 0. -1.
    10030    2    1    2    0    0  0.00000000000E+00  0.00000000000E+00  0.22560129106E+03  0.92985505339E+03  0.90207232403E+03 0.  0.
        2    1    3    3  502    0 -0.21516575474E+03 -0.23186296840E+03 -0.21862461781E+03  0.38451717991E+03  0.25500000920E-02 0. -1.
       -2    1    3    3    0  502  0.21516575474E+03  0.23186296840E+03  0.44422590887E+03  0.54533787348E+03  0.25500000920E-02 0.  1.
</event>
<event>
 5   0  0.6015709E-03  0.9045064E+03  0.7818609E-02  0.9419966E-01
       -1   -1    0    0    0  501  0.00000000000E+00  0.00000000000E+00  0.21137502211E+03  0.21137502217E+03  0.50400001928E-02 0.  1.
        1   -1    0    0  501    0  0.00000000000E+00  0.00000000000E+00 -0.96763068719E+03  0.96763068720E+03  0.50400001928E-02 0. -1.
    10030    2    1    2    0    0  0.00000000000E+00  0.00000000000E+00 -0.75625566508E+03  0.11790057094E+04  0.90450640228E+03 0.  0.
        3    1    3    3  502    0  0.13974709646E+03 -0.11413194225E+03  0.16242755545E+03  0.24277164617E+03  0.10100000352E+00 0.  1.
       -3    1    3    3    0  502 -0.13974709646E+03  0.11413194225E+03 -0.91868322054E+03  0.93623406320E+03  0.10100000352E+00 0. -1.
</event>
<event>
 5   0  0.3996375E-03  0.9019800E+03  0.7818609E-02  0.9423110E-01
        3   -1    0    0  501    0  0.00000000000E+00  0.00000000000E+00  0.35157640899E+03  0.35157642350E+03  0.10100000352E+00 0. -1.
       -3   -1    0    0    0  501  0.00000000000E+00  0.00000000000E+00 -0.57851433212E+03  0.57851434094E+03  0.10100000352E+00 0.  1.
    10030    2    1    2    0    0  0.00000000000E+00  0.00000000000E+00 -0.22693792313E+03  0.93009076444E+03  0.90198004919E+03 0.  0.
        5    1    3    3  502    0  0.37189325575E+03 -0.19672570166E+03 -0.28090026655E+03  0.50589786036E+03  0.46999998093E+01 0.  1.
       -5    1    3    3    0  502 -0.37189325575E+03  0.19672570166E+03  0.53962343417E+02  0.42419290408E+03  0.46999998093E+01 0. -1.
</event>
<event>
 5   0  0.6211218E-03  0.9030594E+03  0.7818609E-02  0.9421765E-01
       -1   -1    0    0    0  501  0.00000000000E+00  0.00000000000E+00  0.99691734624E+02  0.99691734751E+02  0.50400001928E-02 0.  1.
        1   -1    0    0  501    0  0.00000000000E+00  0.00000000000E+00 -0.20450950574E+04  0.20450950574E+04  0.50400001928E-02 0. -1.
    10030    2    1    2    0    0  0.00000000000E+00  0.00000000000E+00 -0.19454033228E+04  0.21447867922E+04  0.90305940865E+03 0.  0.
        5    1    3    3  502    0 -0.37579316834E+03 -0.79495561571E+00 -0.37830100466E+03  0.53324935767E+03  0.46999998093E+01 0.  1.
       -5    1    3    3    0  502  0.37579316834E+03  0.79495561571E+00 -0.15671023181E+04  0.16115374345E+04  0.46999998093E+01 0. -1.
</event>
<event>
 5   0  0.1003252E-02  0.8951408E+03  0.7818609E-02  0.9431676E-01
       -2   -1    0    0    0  501  0.00000000000E+00  0.00000000000E+00  0.88635222489E+02  0.88635222526E+02  0.25500000920E-02 0.  1.
        2   -1    0    0  501    0  0.00000000000E+00  0.00000000000E+00 -0.22600415106E+04  0.22600415106E+04  0.25500000920E-02 0. -1.
    10030    2    1    2    0    0  0.00000000000E+00  0.00000000000E+00 -0.21714062881E+04  0.23486767331E+04  0.89514084293E+03 0.  0.
        2    1    3    3  502    0 -0.25745618952E+03 -0.40216930664E+02 -0.13091790167E+03  0.29161719431E+03  0.25500000920E-02 0.  1.
       -2    1    3    3    0  502  0.25745618952E+03  0.40216930664E+02 -0.20404883864E+04  0.20570595388E+04  0.25500000920E-02 0. -1.
</event>
<event>
 5   0  0.1017079E-02  0.9037386E+03  0.7818609E-02  0.9420920E-01
        2   -1    0    0  501    0  0.00000000000E+00  0.00000000000E+00  0.64550649876E+03  0.64550649876E+03  0.25500000920E-02 0. -1.
       -2   -1    0    0    0  501  0.00000000000E+00  0.00000000000E+00 -0.31631887000E+03  0.31631887001E+03  0.25500000920E-02 0.  1.
    10030    2    1    2    0    0  0.00000000000E+00  0.00000000000E+00  0.32918762876E+03  0.96182536877E+03  0.90373864866E+03 0.  0.
        1    1    3    3  502    0 -0.41654848363E+03 -0.12533092424E+03  0.34397817685E+02  0.43635271246E+03  0.50400001928E-02 0.  1.
       -1    1    3    3    0  502  0.41654848363E+03  0.12533092424E+03  0.29478981108E+03  0.52547265631E+03  0.50400001928E-02 0. -1.
</event>
<event>
 5   0  0.6288003E-03  0.8975952E+03  0.7818609E-02  0.9428593E-01
       -1   -1    0    0    0  501  0.00000000000E+00  0.00000000000E+00  0.40187674610E+03  0.40187674613E+03  0.50400001928E-02 0.  1.
        1   -1    0    0  501    0  0.00000000000E+00  0.00000000000E+00 -0.50119666641E+03  0.50119666644E+03  0.50400001928E-02 0. -1.
    10030    2    1    2    0    0  0.00000000000E+00  0.00000000000E+00 -0.99319920312E+02  0.90307341257E+03  0.89759519936E+03 0.  0.
        1    1    3    3  502    0 -0.19519282830E+03  0.20355037229E+03 -0.40091289884E+03  0.49016746807E+03  0.50400001928E-02 0. -1.
       -1    1    3    3    0  502  0.19519282830E+03 -0.20355037229E+03  0.30159297853E+03  0.41290594449E+03  0.50400001928E-02 0.  1.
</event>
<event>
 5   0  0.6015709E-03  0.9006858E+03  0.7818609E-02  0.9424725E-01
       -1   -1    0    0    0  501  0.00000000000E+00  0.00000000000E+00  0.12952939102E+03  0.12952939112E+03  0.50400001928E-02 0. -1.
        1   -1    0    0  501    0  0.00000000000E+00  0.00000000000E+00 -0.15657352368E+04  0.15657352368E+04  0.50400001928E-02 0.  1.
    10030    2    1    2    0    0  0.00000000000E+00  0.00000000000E+00 -0.14362058458E+04  0.16952646280E+04  0.90068580942E+03 0.  0.
        3    1    3    3  502    0  0.21016054491E+03 -0.36185632125E+03 -0.40483637716E+03  0.58223702591E+03  0.10100000352E+00 0. -1.
       -3    1    3    3    0  502 -0.21016054491E+03  0.36185632125E+03 -0.10313694687E+04  0.11130276021E+04  0.10100000352E+00 0.  1.
</event>
<event>
 5   0  0.6015709E-03  0.8971801E+03  0.7818609E-02  0.9429113E-01
        1   -1    0    0  501    0  0.00000000000E+00  0.00000000000E+00  0.56844072362E+03  0.56844072364E+03  0.50400001928E-02 0. -1.
       -1   -1    0    0    0  501  0.00000000000E+00  0.00000000000E+00 -0.35400878921E+03  0.35400878925E+03  0.50400001928E-02 0.  1.
    10030    2    1    2    0    0  0.00000000000E+00  0.00000000000E+00  0.21443193441E+03  0.92244951289E+03  0.89718005403E+03 0.  0.
        3    1    3    3  502    0  0.30674891032E+03 -0.29671339820E+03 -0.34876596953E+02  0.42819402363E+03  0.10100000352E+00 0.  1.
       -3    1    3    3    0  502 -0.30674891032E+03  0.29671339820E+03  0.24930853136E+03  0.49425548926E+03  0.10100000352E+00 0. -1.
</event>
<event>
 5   0  0.6092779E-03  0.8946960E+03  0.7818609E-02  0.9432236E-01
        1   -1    0    0  501    0  0.00000000000E+00  0.00000000000E+00  0.56210629386E+03  0.56210629388E+03  0.50400001928E-02 0.  1.
       -1   -1    0    0    0  501  0.00000000000E+00  0.00000000000E+00 -0.35601849182E+03  0.35601849186E+03  0.50400001928E-02 0. -1.
    10030    2    1    2    0    0  0.00000000000E+00  0.00000000000E+00  0.20608780204E+03  0.91812478574E+03  0.89469600426E+03 0.  0.
        2    1    3    3  502    0  0.17097546440E+03 -0.37309068000E+03  0.28572515357E+03  0.50006812368E+03  0.25500000920E-02 0.  1.
       -2    1    3    3    0  502 -0.17097546440E+03  0.37309068000E+03 -0.79637351534E+02  0.41805666206E+03  0.25500000920E-02 0. -1.
</event>
<event>
 5   0  0.1017079E-02  0.1021530E+04  0.7818609E-02  0.9285241E-01
        2   -1    0    0  501    0  0.00000000000E+00  0.00000000000E+00  0.13112971170E+04  0.13112971170E+04  0.25500000920E-02 0. -1.
       -2   -1    0    0    0  501  0.00000000000E+00  0.00000000000E+00 -0.19894875990E+03  0.19894875991E+03  0.25500000920E-02 0.  1.
    10030    2    1    2    0    0  0.00000000000E+00  0.00000000000E+00  0.11123483571E+04  0.15102458769E+04  0.10215300980E+04 0.  0.
        1    1    3    3  502    0  0.66023250644E+02 -0.21709142672E+03  0.12326896856E+04  0.12534000232E+04  0.50400001928E-02 0. -1.
       -1    1    3    3    0  502 -0.66023250644E+02  0.21709142672E+03 -0.12034132852E+03  0.25684585368E+03  0.50400001928E-02 0.  1.
</event>
<event>
 5   0  0.1028978E-02  0.9133809E+03  0.7818609E-02  0.9409008E-01
        2   -1    0    0  501    0  0.00000000000E+00  0.00000000000E+00  0.15634223139E+04  0.15634223139E+04  0.25500000920E-02 0.  1.
       -2   -1    0    0    0  501  0.00000000000E+00  0.00000000000E+00 -0.13340359186E+03  0.13340359188E+03  0.25500000920E-02 0. -1.
    10030    2    1    2    0    0  0.00000000000E+00  0.00000000000E+00  0.14300187220E+04  0.16968259058E+04  0.91338086751E+03 0.  0.
        3    1    3    3  502    0 -0.47351906379E+02 -0.24177525934E+02 -0.12763456722E+03  0.13826550094E+03  0.10100000352E+00 0. -1.
       -3    1    3    3    0  502  0.47351906379E+02  0.24177525934E+02  0.15576532892E+04  0.15585604048E+04  0.10100000352E+00 0.  1.
</event>
<event>
 5   0  0.6015709E-03  0.9254540E+03  0.7818609E-02  0.9394310E-01
        1   -1    0    0  501    0  0.00000000000E+00  0.00000000000E+00  0.59805864064E+03  0.59805864066E+03  0.50400001928E-02 0. -1.
       -1   -1    0    0    0  501  0.00000000000E+00  0.00000000000E+00 -0.35801888460E+03  0.35801888464E+03  0.50400001928E-02 0.  1.
    10030    2    1    2    0    0  0.00000000000E+00  0.00000000000E+00  0.24003975604E+03  0.95607752530E+03  0.92545402366E+03 0.  0.
        3    1    3    3  502    0  0.33720329424E+03 -0.13413508024E+03 -0.17656519280E+03  0.40357596423E+03  0.10100000352E+00 0.  1.
       -3    1    3    3    0  502 -0.33720329424E+03  0.13413508024E+03  0.41660494883E+03  0.55250156107E+03  0.10100000352E+00 0. -1.
</event>
<event>
 5   0  0.1041727E-02  0.9212624E+03  0.7818609E-02  0.9399386E-01
       -2   -1    0    0    0  501  0.00000000000E+00  0.00000000000E+00  0.19223485562E+03  0.19223485564E+03  0.25500000920E-02 0.  1.
        2   -1    0    0  501    0  0.00000000000E+00  0.00000000000E+00 -0.11037597456E+04  0.11037597456E+04  0.25500000920E-02 0. -1.
    10030    2    1    2    0    0  0.00000000000E+00  0.00000000000E+00 -0.91152489001E+03  0.12959946013E+04  0.92126238468E+03 0.  0.
        4    1    3    3  502    0  0.20323198805E+03  0.94775044619E+02  0.11026193712E+03  0.24988969112E+03  0.12699999809E+01 0.  1.
       -4    1    3    3    0  502 -0.20323198805E+03 -0.94775044619E+02 -0.10217868271E+04  0.10461049102E+04  0.12699999809E+01 0. -1.
</event>
<event>
 5   0  0.6015709E-03  0.9019433E+03  0.7818609E-02  0.9423155E-01
       -1   -1    0    0    0  501  0.00000000000E+00  0.00000000000E+00  0.19700456488E+03  0.19700456495E+03  0.50400001928E-02 0.  1.
        1   -1    0    0  501    0  0.00000000000E+00  0.00000000000E+00 -0.10323385966E+04  0.10323385966E+04  0.50400001928E-02 0. -1.
    10030    2    1    2    0    0  0.00000000000E+00  0.00000000000E+00 -0.83533403175E+03  0.12293431616E+04  0.90194327114E+03 0.  0.
        3    1    3    3  502    0  0.18876162296E+03 -0.11887381656E+02 -0.97566803182E+03  0.99383116205E+03  0.10100000352E+00 0. -1.
       -3    1    3    3    0  502 -0.18876162296E+03  0.11887381656E+02  0.14033400008E+03  0.23551199953E+03  0.10100000352E+00 0.  1.
</event>
<event>
 5   0  0.6015709E-03  0.9227270E+03  0.7818609E-02  0.9397609E-01
       -1   -1    0    0    0  501  0.00000000000E+00  0.00000000000E+00  0.22072859776E+03  0.22072859782E+03  0.50400001928E-02 0. -1.
        1   -1    0    0  501    0  0.00000000000E+00  0.00000000000E+00 -0.96433487249E+03  0.96433487250E+03  0.50400001928E-02 0.  1.
    10030    2    1    2    0    0  0.00000000000E+00  0.00000000000E+00 -0.74360627473E+03  0.11850634703E+04  0.92272701103E+03 0.  0.
        3    1    3    3  502    0 -0.35253995458E+03 -0.19739932918E+03 -0.65784702834E+03  0.77201919512E+03  0.10100000352E+00 0.  1.
       -3    1    3    3    0  502  0.35253995458E+03  0.19739932918E+03 -0.85759246391E+02  0.41304427521E+03  0.10100000352E+00 0. -1.
</event>
<event>
 5   0  0.1033749E-02  0.8935061E+03  0.7818609E-02  0.9433736E-01
        2   -1    0    0  501    0  0.00000000000E+00  0.00000000000E+00  0.26456277588E+03  0.26456277589E+03  0.25500000920E-02 0. -1.
       -2   -1    0    0    0  501  0.00000000000E+00  0.00000000000E+00 -0.75440808026E+03  0.75440808027E+03  0.25500000920E-02 0.  1.
    10030    2    1    2    0    0  0.00000000000E+00  0.00000000000E+00 -0.48984530439E+03  0.10189708562E+04  0.89350611832E+03 0.  0.
        5    1    3    3  502    0 -0.20583395838E+03 -0.62277965953E+02  0.20162077112E+03  0.29482060445E+03  0.46999998093E+01 0. -1.
       -5    1    3    3    0  502  0.20583395838E+03  0.62277965953E+02 -0.69146607551E+03  0.72415025170E+03  0.46999998093E+01 0.  1.
</event>
<event>
 5   0  0.6137243E-03  0.9060525E+03  0.7818609E-02  0.9418047E-01
        1   -1    0    0  501    0  0.00000000000E+00  0.00000000000E+00  0.16674386952E+04  0.16674386953E+04  0.50400001928E-02 0.  1.
       -1   -1    0    0    0  501  0.00000000000E+00  0.00000000000E+00 -0.12308265115E+03  0.12308265125E+03  0.50400001928E-02 0. -1.
    10030    2    1    2    0    0  0.00000000000E+00  0.00000000000E+00  0.15443560441E+04  0.17905213465E+04  0.90605248267E+03 0.  0.
        4    1    3    3  502    0  0.34028022107E+01 -0.39178603590E+03  0.32274063186E+03  0.50761304686E+03  0.12699999809E+01 0.  1.
       -4    1    3    3    0  502 -0.34028022107E+01  0.39178603590E+03  0.12216154122E+04  0.12829082996E+04  0.12699999809E+01 0. -1.
</event>
<event>
 5   0  0.6015709E-03  0.8087396E+03  0.7818609E-02  0.9547452E-01
       -1   -1    0    0    0  501  0.00000000000E+00  0.00000000000E+00  0.33585418857E+03  0.33585418861E+03  0.50400001928E-02 0.  1.
        1   -1    0    0  501    0  0.00000000000E+00  0.00000000000E+00 -0.48686284129E+03  0.48686284131E+03  0.50400001928E-02 0. -1.
    10030    2    1    2    0    0  0.00000000000E+00  0.00000000000E+00 -0.15100865272E+03  0.82271702992E+03  0.80873957374E+03 0.  0.
        3    1    3    3  502    0  0.74339216678E+02 -0.25100392167E+03 -0.38902828796E+03  0.46890543488E+03  0.10100000352E+00 0. -1.
       -3    1    3    3    0  502 -0.74339216678E+02  0.25100392167E+03  0.23801963524E+03  0.35381159505E+03  0.10100000352E+00 0.  1.
</event>
<event>
 5   0  0.1003252E-02  0.8943253E+03  0.7818609E-02  0.9432703E-01
        2   -1    0    0  501    0  0.00000000000E+00  0.00000000000E+00  0.12366825578E+04  0.12366825578E+04  0.25500000920E-02 0.  1.
       -2   -1    0    0    0  501  0.00000000000E+00  0.00000000000E+00 -0.16168613734E+03  0.16168613736E+03  0.25500000920E-02 0. -1.
    10030    2    1    2    0    0  0.00000000000E+00  0.00000000000E+00  0.10749964205E+04  0.13983686952E+04  0.89432527841E+03 0.  0.
        2    1    3    3  502    0  0.28571881568E+03  0.84965101683E+02  0.16323369572E+02  0.29853100767E+03  0.25500000920E-02 0. -1.
       -2    1    3    3    0  502 -0.28571881568E+03 -0.84965101683E+02  0.10586730509E+04  0.10998376875E+04  0.25500000920E-02 0.  1.
</event>
<event>
 5   0  0.6137243E-03  0.9005193E+03  0.7818609E-02  0.9424933E-01
        1   -1    0    0  501    0  0.00000000000E+00  0.00000000000E+00  0.61787283799E+03  0.61787283801E+03  0.50400001928E-02 0. -1.
       -1   -1    0    0    0  501  0.00000000000E+00  0.00000000000E+00 -0.32811563229E+03  0.32811563233E+03  0.50400001928E-02 0.  1.
    10030    2    1    2    0    0  0.00000000000E+00  0.00000000000E+00  0.28975720570E+03  0.94598847033E+03  0.90051926562E+03 0.  0.
        4    1    3    3  502    0  0.24646656415E+03  0.73343444953E+02 -0.24338748888E+03  0.35406794660E+03  0.12699999809E+01 0.  1.
       -4    1    3    3    0  502 -0.24646656415E+03 -0.73343444953E+02  0.53314469458E+03  0.59192052374E+03  0.12699999809E+01 0. -1.
</event>
<event>
 5   0  0.1017079E-02  0.8824164E+03  0.7818609E-02  0.9447833E-01
       -2   -1    0    0    0  501  0.00000000000E+00  0.00000000000E+00  0.12789239884E+03  0.12789239886E+03  0.25500000920E-02 0. -1.
        2   -1    0    0  501    0  0.00000000000E+00  0.00000000000E+00 -0.15220972401E+04  0.15220972401E+04  0.25500000920E-02 0.  1.
    10030    2    1    2    0    0  0.00000000000E+00  0.00000000000E+00 -0.13942048413E+04  0.16499896390E+04  0.88241638091E+03 0.  0.
        1    1    3    3  502    0  0.39003824745E+02 -0.19781516998E+03  0.36711049427E+02  0.20493862738E+03  0.50400001928E-02 0. -1.
       -1    1    3    3    0  502 -0.39003824745E+02  0.19781516998E+03 -0.14309158907E+04  0.14450510116E+04  0.50400001928E-02 0.  1.
</event>
<event>
 5   0  0.3996375E-03  0.8938739E+03  0.7818609E-02  0.9433272E-01
       -4   -1    0    0    0  501  0.00000000000E+00  0.00000000000E+00  0.31613229380E+03  0.31613484477E+03  0.12699999809E+01 0.  1.
        4   -1    0    0  501    0  0.00000000000E+00  0.00000000000E+00 -0.63185826327E+03  0.63185953959E+03  0.12699999809E+01 0. -1.
    10030    2    1    2    0    0  0.00000000000E+00  0.00000000000E+00 -0.31572596948E+03  0.94799438436E+03  0.89387385294E+03 0.  0.
        5    1    3    3  502    0  0.17330143848E+03  0.40559514295E+03 -0.81461570566E+02  0.44855198812E+03  0.46999998093E+01 0.  1.
       -5    1    3    3    0  502 -0.17330143848E+03 -0.40559514295E+03 -0.23426439891E+03  0.49944239624E+03  0.46999998093E+01 0. -1.
</event>
<event>
 5   0  0.6137243E-03  0.9118123E+03  0.7818609E-02  0.9410935E-01
       -1   -1    0    0    0  501  0.00000000000E+00  0.00000000000E+00  0.47841024672E+03  0.47841024674E+03  0.50400001928E-02 0. -1.
        1   -1    0    0  501    0  0.00000000000E+00  0.00000000000E+00 -0.43446065417E+03  0.43446065420E+03  0.50400001928E-02 0.  1.
    10030    2    1    2    0    0  0.00000000000E+00  0.00000000000E+00  0.43949592548E+02  0.91287090094E+03  0.91181232450E+03 0.  0.
        4    1    3    3  502    0  0.33193368365E+03  0.30937129976E+03  0.66278226617E+02  0.45856841112E+03  0.12699999809E+01 0. -1.
       -4    1    3    3    0  502 -0.33193368365E+03 -0.30937129976E+03 -0.22328634069E+02  0.45430248982E+03  0.12699999809E+01 0.  1.
</event>
<event>
 5   0  0.1028978E-02  0.8984421E+03  0.7818609E-02  0.9427531E-01
       -2   -1    0    0    0  501  0.00000000000E+00  0.00000000000E+00  0.40576664577E+03  0.40576664578E+03  0.25500000920E-02 0.  1.
        2   -1    0    0  501    0  0.00000000000E+00  0.00000000000E+00 -0.49732902910E+03  0.49732902910E+03  0.25500000920E-02 0. -1.
    10030    2    1    2    0    0  0.00000000000E+00  0.00000000000E+00 -0.91562383324E+02  0.90309567489E+03  0.89844205598E+03 0.  0.
        3    1    3    3  502    0 -0.44876238755E+03  0.20254235057E+02 -0.47055540323E+02  0.45167704014E+03  0.10100000352E+00 0. -1.
       -3    1    3    3    0  502  0.44876238755E+03 -0.20254235057E+02 -0.44506843001E+02  0.45141863474E+03  0.10100000352E+00 0.  1.
</event>
<event>
 5   0  0.6015709E-03  0.8728844E+03  0.7818609E-02  0.9460127E-01
        1   -1    0    0  501    0  0.00000000000E+00  0.00000000000E+00  0.17654713599E+03  0.17654713606E+03  0.50400001928E-02 0.  1.
       -1   -1    0    0    0  501  0.00000000000E+00  0.00000000000E+00 -0.10789288951E+04  0.10789288951E+04  0.50400001928E-02 0. -1.
    10030    2    1    2    0    0  0.00000000000E+00  0.00000000000E+00 -0.90238175907E+03  0.12554760311E+04  0.87288442858E+03 0.  0.
        3    1    3    3  502    0  0.27297225109E+03 -0.26906021987E+03 -0.15095118657E+03  0.41193873660E+03  0.10100000352E+00 0.  1.
       -3    1    3    3    0  502 -0.27297225109E+03  0.26906021987E+03 -0.75143057251E+03  0.84353729454E+03  0.10100000352E+00 0. -1.
</event>
<event>
 5   0  0.1003252E-02  0.9077063E+03  0.7818609E-02  0.9415999E-01
        2   -1    0    0  501    0  0.00000000000E+00  0.00000000000E+00  0.11226990934E+04  0.11226990934E+04  0.25500000920E-02 0. -1.
       -2   -1    0    0    0  501  0.00000000000E+00  0.00000000000E+00 -0.18347097114E+03  0.18347097116E+03  0.25500000920E-02 0.  1.
    10030    2    1    2    0    0  0.00000000000E+00  0.00000000000E+00  0.93922812227E+03  0.13061700646E+04  0.90770632471E+03 0.  0.
        2    1    3    3  502    0 -0.32478011201E+03 -0.44257146495E+02  0.17898783376E+02  0.32826998435E+03  0.25500000920E-02 0.  1.
       -2    1    3    3    0  502  0.32478011201E+03  0.44257146495E+02  0.92132933889E+03  0.97790008021E+03  0.25500000920E-02 0. -1.
</event>
<event>
 5   0  0.1028978E-02  0.9976727E+03  0.7818609E-02  0.9311101E-01
        2   -1    0    0  501    0  0.00000000000E+00  0.00000000000E+00  0.40139591179E+03  0.40139591180E+03  0.25500000920E-02 0.  1.
       -2   -1    0    0    0  501  0.00000000000E+00  0.00000000000E+00 -0.61993079267E+03  0.61993079267E+03  0.25500000920E-02 0. -1.
    10030    2    1    2    0    0  0.00000000000E+00  0.00000000000E+00 -0.21853488087E+03  0.10213267045E+04  0.99767266330E+03 0.  0.
        3    1    3    3  502    0  0.34768750326E+03  0.17213008433E+03 -0.43026568031E+03  0.57934785035E+03  0.10100000352E+00 0. -1.
       -3    1    3    3    0  502 -0.34768750326E+03 -0.17213008433E+03  0.21173079944E+03  0.44197885412E+03  0.10100000352E+00 0.  1.
</event>
<event>
 5   0  0.1003252E-02  0.8999773E+03  0.7818609E-02  0.9425610E-01
        2   -1    0    0  501    0  0.00000000000E+00  0.00000000000E+00  0.96285671904E+03  0.96285671904E+03  0.25500000920E-02 0.  1.
       -2   -1    0    0    0  501  0.00000000000E+00  0.00000000000E+00 -0.21030104766E+03  0.21030104768E+03  0.25500000920E-02 0. -1.
    10030    2    1    2    0    0  0.00000000000E+00  0.00000000000E+00  0.75255567138E+03  0.11731577667E+04  0.89997728143E+03 0.  0.
        2    1    3    3  502    0  0.77551194321E+02  0.34898910901E+03  0.20045450747E+02  0.35806341066E+03  0.25500000920E-02 0. -1.
       -2    1    3    3    0  502 -0.77551194321E+02 -0.34898910901E+03  0.73251022063E+03  0.81509435606E+03  0.25500000920E-02 0.  1.
</event>
<event>
 5   0  0.1003252E-02  0.9146446E+03  0.7818609E-02  0.9407458E-01
        2   -1    0    0  501    0  0.00000000000E+00  0.00000000000E+00  0.11313565193E+04  0.11313565193E+04  0.25500000920E-02 0. -1.
       -2   -1    0    0    0  501  0.00000000000E+00  0.00000000000E+00 -0.18486099468E+03  0.18486099470E+03  0.25500000920E-02 0.  1.
    10030    2    1    2    0    0  0.00000000000E+00  0.00000000000E+00  0.94649552466E+03  0.13162175140E+04  0.91464461190E+03 0.  0.
        2    1    3    3  502    0 -0.39168024860E+03 -0.96366818903E+02  0.78337416394E+03  0.88112147952E+03  0.25500000920E-02 0.  1.
       -2    1    3    3    0  502  0.39168024860E+03  0.96366818903E+02  0.16312136072E+03  0.43509603453E+03  0.25500000920E-02 0. -1.
</event>
<event>
 5   0  0.6211218E-03  0.8937667E+03  0.7818609E-02  0.9433407E-01
       -1   -1    0    0    0  501  0.00000000000E+00  0.00000000000E+00  0.92507884942E+03  0.92507884944E+03  0.50400001928E-02 0.  1.
        1   -1    0    0  501    0  0.00000000000E+00  0.00000000000E+00 -0.21587858049E+03  0.21587858055E+03  0.50400001928E-02 0. -1.
    10030    2    1    2    0    0  0.00000000000E+00  0.00000000000E+00  0.70920026893E+03  0.11409574300E+04  0.89376665611E+03 0.  0.
        5    1    3    3  502    0  0.15289492562E+03 -0.11350178227E+03 -0.16146203379E+03  0.24970300601E+03  0.46999998093E+01 0. -1.
       -5    1    3    3    0  502 -0.15289492562E+03  0.11350178227E+03  0.87066230273E+03  0.89125442397E+03  0.46999998093E+01 0.  1.
</event>
<event>
 5   0  0.6137243E-03  0.8989147E+03  0.7818609E-02  0.9426939E-01
       -1   -1    0    0    0  501  0.00000000000E+00  0.00000000000E+00  0.20727077211E+03  0.20727077217E+03  0.50400001928E-02 0. -1.
        1   -1    0    0  501    0  0.00000000000E+00  0.00000000000E+00 -0.97462796103E+03  0.97462796105E+03  0.50400001928E-02 0.  1.
    10030    2    1    2    0    0  0.00000000000E+00  0.00000000000E+00 -0.76735718893E+03  0.11818987332E+04  0.89891465678E+03 0.  0.
        4    1    3    3  502    0  0.42796090506E+03  0.12929459120E+03 -0.44453935555E+03  0.63046370166E+03  0.12699999809E+01 0. -1.
       -4    1    3    3    0  502 -0.42796090506E+03 -0.12929459120E+03 -0.32281783338E+03  0.55143503155E+03  0.12699999809E+01 0.  1.
</event>
<event>
 5   0  0.1003252E-02  0.9004748E+03  0.7818609E-02  0.9424988E-01
        2   -1    0    0  501    0  0.00000000000E+00  0.00000000000E+00  0.18079444963E+04  0.18079444963E+04  0.25500000920E-02 0. -1.
       -2   -1    0    0    0  501  0.00000000000E+00  0.00000000000E+00 -0.11212386879E+03  0.11212386882E+03  0.25500000920E-02 0.  1.
    10030    2    1    2    0    0  0.00000000000E+00  0.00000000000E+00  0.16958206275E+04  0.19200683651E+04  0.90047483367E+03 0.  0.
        2    1    3    3  502    0 -0.22627963817E+03  0.14085721324E+03  0.16216401758E+04  0.16433989440E+04  0.25500000920E-02 0. -1.
       -2    1    3    3    0  502  0.22627963817E+03 -0.14085721324E+03  0.74180451642E+02  0.27666942112E+03  0.25500000920E-02 0.  1.
</event>
<event>
 5   0  0.1003252E-02  0.8957208E+03  0.7818609E-02  0.9430946E-01
       -2   -1    0    0    0  501  0.00000000000E+00  0.00000000000E+00  0.15947805063E+03  0.15947805065E+03  0.25500000920E-02 0. -1.
        2   -1    0    0  501    0  0.00000000000E+00  0.00000000000E+00 -0.12577213334E+04  0.12577213334E+04  0.25500000920E-02 0.  1.
    10030    2    1    2    0    0  0.00000000000E+00  0.00000000000E+00 -0.10982432828E+04  0.14171993841E+04  0.89572081926E+03 0.  0.
        2    1    3    3  502    0 -0.25546153808E+02  0.44699672872E+03 -0.56647278052E+03  0.72204576901E+03  0.25500000920E-02 0.  1.
       -2    1    3    3    0  502  0.25546153808E+02 -0.44699672872E+03 -0.53177050227E+03  0.69515361508E+03  0.25500000920E-02 0. -1.
</event>
<event>
 5   0  0.3996375E-03  0.8969107E+03  0.7818609E-02  0.9429452E-01
       -3   -1    0    0    0  501  0.00000000000E+00  0.00000000000E+00  0.16538087085E+04  0.16538087116E+04  0.10100000352E+00 0. -1.
        3   -1    0    0  501    0  0.00000000000E+00  0.00000000000E+00 -0.12160544297E+03  0.12160548491E+03  0.10100000352E+00 0.  1.
    10030    2    1    2    0    0  0.00000000000E+00  0.00000000000E+00  0.15322032656E+04  0.17754141965E+04  0.89691065453E+03 0.  0.
        4    1    3    3  502    0  0.84269255009E+02  0.32998949862E+03  0.13436077591E+04  0.13861016556E+04  0.12699999809E+01 0. -1.
       -4    1    3    3    0  502 -0.84269255009E+02 -0.32998949862E+03  0.18859550648E+03  0.38931254090E+03  0.12699999809E+01 0.  1.
</event>
<event>
 5   0  0.1028978E-02  0.8975533E+03  0.7818609E-02  0.9428645E-01
       -2   -1    0    0    0  501  0.00000000000E+00  0.00000000000E+00  0.32740017231E+03  0.32740017232E+03  0.25500000920E-02 0.  1.
        2   -1    0    0  501    0  0.00000000000E+00  0.00000000000E+00 -0.61515084760E+03  0.61515084760E+03  0.25500000920E-02 0. -1.
    10030    2    1    2    0    0  0.00000000000E+00  0.00000000000E+00 -0.28775067528E+03  0.94255101993E+03  0.89755332657E+03 0.  0.
        3    1    3    3  502    0  0.10458926193E+03  0.24004915025E+02  0.31372919531E+03  0.33157377437E+03  0.10100000352E+00 0.  1.
       -3    1    3    3    0  502 -0.10458926193E+03 -0.24004915025E+02 -0.60147987060E+03  0.61097724556E+03  0.10100000352E+00 0. -1.
</event>
<event>
 5   0  0.3996375E-03  0.8986034E+03  0.7818609E-02  0.9427329E-01
        4   -1    0    0  501    0  0.00000000000E+00  0.00000000000E+00  0.40505723502E+03  0.40505922597E+03  0.12699999809E+01 0.  1.
       -4   -1    0    0    0  501  0.00000000000E+00  0.00000000000E+00 -0.49837497485E+03  0.49837659301E+03  0.12699999809E+01 0. -1.
    10030    2    1    2    0    0  0.00000000000E+00  0.00000000000E+00 -0.93317739831E+02  0.90343581897E+03  0.89860340442E+03 0.  0.
        1    1    3    3  502    0 -0.27386670060E+03  0.13655236639E+03  0.28408212536E+03  0.41755499332E+03  0.50400001928E-02 0.  1.
       -1    1    3    3    0  502  0.27386670060E+03 -0.13655236639E+03 -0.37739986520E+03  0.48588082566E+03  0.50400001928E-02 0. -1.
</event>
<event>
 5   0  0.6288003E-03  0.9106577E+03  0.7818609E-02  0.9412356E-01
        1   -1    0    0  501    0  0.00000000000E+00  0.00000000000E+00  0.80830904178E+03  0.80830904179E+03  0.50400001928E-02 0.  1.
       -1   -1    0    0    0  501  0.00000000000E+00  0.00000000000E+00 -0.25649145731E+03  0.25649145735E+03  0.50400001928E-02 0. -1.
    10030    2    1    2    0    0  0.00000000000E+00  0.00000000000E+00  0.55181758447E+03  0.10648004991E+04  0.91065770543E+03 0.  0.
        1    1    3    3  502    0 -0.18828581157E+03 -0.23302831104E+03 -0.12501560972E+03  0.32462692939E+03  0.50400001928E-02 0. -1.
       -1    1    3    3    0  502  0.18828581157E+03  0.23302831104E+03  0.67683319420E+03  0.74017356976E+03  0.50400001928E-02 0.  1.
</event>
<event>
 5   0  0.1003252E-02  0.9197873E+03  0.7818609E-02  0.9401179E-01
        2   -1    0    0  501    0  0.00000000000E+00  0.00000000000E+00  0.78431508593E+03  0.78431508593E+03  0.25500000920E-02 0. -1.
       -2   -1    0    0    0  501  0.00000000000E+00  0.00000000000E+00 -0.26966477100E+03  0.26966477102E+03  0.25500000920E-02 0.  1.
    10030    2    1    2    0    0  0.00000000000E+00  0.00000000000E+00  0.51465031492E+03  0.10539798569E+04  0.91978725377E+03 0.  0.
        2    1    3    3  502    0  0.28855047911E+02  0.21898235410E+03  0.71955757950E+03  0.75269449010E+03  0.25500000920E-02 0. -1.
       -2    1    3    3    0  502 -0.28855047911E+02 -0.21898235410E+03 -0.20490726458E+03  0.30128536685E+03  0.25500000920E-02 0.  1.
</event>
<event>
 5   0  0.1033749E-02  0.9082244E+03  0.7818609E-02  0.9415359E-01
       -2   -1    0    0    0  501  0.00000000000E+00  0.00000000000E+00  0.14010078714E+03  0.14010078716E+03  0.25500000920E-02 0. -1.
        2   -1    0    0  501    0  0.00000000000E+00  0.00000000000E+00 -0.14719253511E+04  0.14719253511E+04  0.25500000920E-02 0.  1.
    10030    2    1    2    0    0  0.00000000000E+00  0.00000000000E+00 -0.13318245640E+04  0.16120261383E+04  0.90822442232E+03 0.  0.
        5    1    3    3  502    0 -0.25501104871E+03 -0.15730617919E+03 -0.60302904235E+02  0.30567040948E+03  0.46999998093E+01 0. -1.
       -5    1    3    3    0  502  0.25501104871E+03  0.15730617919E+03 -0.12715216597E+04  0.13063557288E+04  0.46999998093E+01 0.  1.
</event>
<event>
 5   0  0.3996375E-03  0.8982169E+03  0.7818609E-02  0.9427813E-01
       -4   -1    0    0    0  501  0.00000000000E+00  0.00000000000E+00  0.84244682701E+03  0.84244778428E+03  0.12699999809E+01 0.  1.
        4   -1    0    0  501    0  0.00000000000E+00  0.00000000000E+00 -0.23941694712E+03  0.23942031549E+03  0.12699999809E+01 0. -1.
    10030    2    1    2    0    0  0.00000000000E+00  0.00000000000E+00  0.60302987989E+03  0.10818680998E+04  0.89821687206E+03 0.  0.
        1    1    3    3  502    0  0.32038225487E+03  0.23802272519E+03  0.53504599459E+02  0.40269386528E+03  0.50400001928E-02 0. -1.
       -1    1    3    3    0  502 -0.32038225487E+03 -0.23802272519E+03  0.54952528043E+03  0.67917423449E+03  0.50400001928E-02 0.  1.
</event>
<event>
 5   0  0.6211218E-03  0.8992641E+03  0.7818609E-02  0.9426502E-01
       -1   -1    0    0    0  501  0.00000000000E+00  0.00000000000E+00  0.12862544577E+04  0.12862544577E+04  0.50400001928E-02 0. -1.
        1   -1    0    0  501    0  0.00000000000E+00  0.00000000000E+00 -0.15717649876E+03  0.15717649884E+03  0.50400001928E-02 0.  1.
    10030    2    1    2    0    0  0.00000000000E+00  0.00000000000E+00  0.11290779590E+04  0.14434309566E+04  0.89926408188E+03 0.  0.
        5    1    3    3  502    0 -0.24262782007E+03 -0.19630946458E+02 -0.42217780432E+02  0.24709930011E+03  0.46999998093E+01 0.  1.
       -5    1    3    3    0  502  0.24262782007E+03  0.19630946458E+02  0.11712957394E+04  0.11963316565E+04  0.46999998093E+01 0. -1.
</event>
<event>
 5   0  0.1041727E-02  0.8958642E+03  0.7818609E-02  0.9430766E-01
       -2   -1    0    0    0  501  0.00000000000E+00  0.00000000000E+00  0.28591974570E+03  0.28591974571E+03  0.25500000920E-02 0. -1.
        2   -1    0    0  501    0  0.00000000000E+00  0.00000000000E+00 -0.70174643875E+03  0.70174643876E+03  0.25500000920E-02 0.  1.
    10030    2    1    2    0    0  0.00000000000E+00  0.00000000000E+00 -0.41582669305E+03  0.98766618447E+03  0.89586419355E+03 0.  0.
        4    1    3    3  502    0  0.16145871224E+03 -0.41199595843E+03 -0.28454882820E+03  0.52609812207E+03  0.12699999809E+01 0.  1.
       -4    1    3    3    0  502 -0.16145871224E+03  0.41199595843E+03 -0.13127786486E+03  0.46156806240E+03  0.12699999809E+01 0. -1.
</event>
<event>
 5   0  0.6015709E-03  0.9023815E+03  0.7818609E-02  0.9422609E-01
       -1   -1    0    0    0  501  0.00000000000E+00  0.00000000000E+00  0.29245336252E+03  0.29245336257E+03  0.50400001928E-02 0.  1.
        1   -1    0    0  501    0  0.00000000000E+00  0.00000000000E+00 -0.69608744413E+03  0.69608744414E+03  0.50400001928E-02 0. -1.
    10030    2    1    2    0    0  0.00000000000E+00  0.00000000000E+00 -0.40363408160E+03  0.98854080671E+03  0.90238154608E+03 0.  0.
        3    1    3    3  502    0 -0.12061298324E+03 -0.39434516230E+03 -0.12589273124E+01  0.41237991447E+03  0.10100000352E+00 0.  1.
       -3    1    3    3    0  502  0.12061298324E+03  0.39434516230E+03 -0.40237515429E+03  0.57616089224E+03  0.10100000352E+00 0. -1.
</event>
<event>
 5   0  0.6092779E-03  0.9132841E+03  0.7818609E-02  0.9409126E-01
        1   -1    0    0  501    0  0.00000000000E+00  0.00000000000E+00  0.13033740545E+04  0.13033740545E+04  0.50400001928E-02 0. -1.
       -1   -1    0    0    0  501  0.00000000000E+00  0.00000000000E+00 -0.15998628861E+03  0.15998628869E+03  0.50400001928E-02 0.  1.
    10030    2    1    2    0    0  0.00000000000E+00  0.00000000000E+00  0.11433877658E+04  0.14633603431E+04  0.91328413477E+03 0.  0.
        2    1    3    3  502    0  0.33799177720E+03  0.23159894156E+03  0.89473025523E+03  0.98408269003E+03  0.25500000920E-02 0. -1.
       -2    1    3    3    0  502 -0.33799177720E+03 -0.23159894156E+03  0.24865751062E+03  0.47927765312E+03  0.25500000920E-02 0.  1.
</event>
<event>
 5   0  0.1003252E-02  0.8977420E+03  0.7818609E-02  0.9428408E-01
       -2   -1    0    0    0  501  0.00000000000E+00  0.00000000000E+00  0.64552335070E+03  0.64552335071E+03  0.25500000920E-02 0. -1.
        2   -1    0    0  501    0  0.00000000000E+00  0.00000000000E+00 -0.31212688874E+03  0.31212688875E+03  0.25500000920E-02 0.  1.
    10030    2    1    2    0    0  0.00000000000E+00  0.00000000000E+00  0.33339646197E+03  0.95765023946E+03  0.89774204551E+03 0.  0.
        2    1    3    3  502    0 -0.27286947219E+03  0.30364732634E+03  0.36576812205E+03  0.54812933397E+03  0.25500000920E-02 0. -1.
       -2    1    3    3    0  502  0.27286947219E+03 -0.30364732634E+03 -0.32371660082E+02  0.40952090548E+03  0.25500000920E-02 0.  1.
</event>
<event>
 5   0  0.1033749E-02  0.9076234E+03  0.7818609E-02  0.9416102E-01
       -2   -1    0    0    0  501  0.00000000000E+00  0.00000000000E+00  0.17571735850E+03  0.17571735852E+03  0.25500000920E-02 0.  1.
        2   -1    0    0  501    0  0.00000000000E+00  0.00000000000E+00 -0.11720245656E+04  0.11720245656E+04  0.25500000920E-02 0. -1.
    10030    2    1    2    0    0  0.00000000000E+00  0.00000000000E+00 -0.99630720707E+03  0.13477419241E+04  0.90762340377E+03 0.  0.
        5    1    3    3  502    0 -0.37337985797E+03 -0.20490673653E+03 -0.73069157949E+03  0.84577276106E+03  0.46999998093E+01 0. -1.
       -5    1    3    3    0  502  0.37337985797E+03  0.20490673653E+03 -0.26561562758E+03  0.50196916303E+03  0.46999998093E+01 0.  1.
</event>
<event>
 5   0  0.6137243E-03  0.8966961E+03  0.7818609E-02  0.9429721E-01
       -1   -1    0    0    0  501  0.00000000000E+00  0.00000000000E+00  0.18047478588E+03  0.18047478595E+03  0.50400001928E-02 0. -1.
        1   -1    0    0  501    0  0.00000000000E+00  0.00000000000E+00 -0.11138174370E+04  0.11138174370E+04  0.50400001928E-02 0.  1.
    10030    2    1    2    0    0  0.00000000000E+00  0.00000000000E+00 -0.93334265111E+03  0.12942922230E+04  0.89669607673E+03 0.  0.
        4    1    3    3  502    0  0.36901262487E+03  0.10866441521E+03 -0.79908032491E+03  0.88685356796E+03  0.12699999809E+01 0.  1.
       -4    1    3    3    0  502 -0.36901262487E+03 -0.10866441521E+03 -0.13426232620E+03  0.40743865500E+03  0.12699999809E+01 0. -1.
</event>
<event>
 5   0  0.1033749E-02  0.8933691E+03  0.7818609E-02  0.9433909E-01
        2   -1    0    0  501    0  0.00000000000E+00  0.00000000000E+00  0.60054766210E+03  0.60054766211E+03  0.25500000920E-02 0. -1.
       -2   -1    0    0    0  501  0.00000000000E+00  0.00000000000E+00 -0.33224184949E+03  0.33224184950E+03  0.25500000920E-02 0.  1.
    10030    2    1    2    0    0  0.00000000000E+00  0.00000000000E+00  0.26830581261E+03  0.93278951160E+03  0.89336905245E+03 0.  0.
        5    1    3    3  502    0 -0.29896218693E+03  0.23603359439E+03  0.37771572195E+03  0.53645270388E+03  0.46999998093E+01 0. -1.
       -5    1    3    3    0  502  0.29896218693E+03 -0.23603359439E+03 -0.10940990934E+03  0.39633680772E+03  0.46999998093E+01 0.  1.
</event>
<event>
 5   0  0.6015709E-03  0.8993138E+03  0.7818609E-02  0.9426440E-01
        1   -1    0    0  501    0  0.00000000000E+00  0.00000000000E+00  0.13026513149E+04  0.13026513149E+04  0.50400001928E-02 0.  1.
       -1   -1    0    0    0  501  0.00000000000E+00  0.00000000000E+00 -0.15521523228E+03  0.15521523237E+03  0.50400001928E-02 0. -1.
    10030    2    1    2    0    0  0.00000000000E+00  0.00000000000E+00  0.11474360826E+04  0.14578665473E+04  0.89931379728E+03 0.  0.
        3    1    3    3  502    0 -0.27998633347E+03 -0.14011063841E+03  0.50510937404E+02  0.31713514930E+03  0.10100000352E+00 0. -1.
       -3    1    3    3    0  502  0.27998633347E+03  0.14011063841E+03  0.10969251452E+04  0.11407313980E+04  0.10100000352E+00 0.  1.
</event>
<event>
 5   0  0.1003252E-02  0.9017665E+03  0.7818609E-02  0.9423376E-01
       -2   -1    0    0    0  501  0.00000000000E+00  0.00000000000E+00  0.12307473466E+04  0.12307473466E+04  0.25500000920E-02 0.  1.
        2   -1    0    0  501    0  0.00000000000E+00  0.00000000000E+00 -0.16518069763E+03  0.16518069765E+03  0.25500000920E-02 0. -1.
    10030    2    1    2    0    0  0.00000000000E+00  0.00000000000E+00  0.10655666489E+04  0.13959280442E+04  0.90176650045E+03 0.  0.
        2    1    3    3  502    0 -0.38028239743E+03  0.24156910357E+03  0.50486053211E+03  0.67664945909E+03  0.25500000920E-02 0.  1.
       -2    1    3    3    0  502  0.38028239743E+03 -0.24156910357E+03  0.56070611683E+03  0.71927858514E+03  0.25500000920E-02 0. -1.
</event>
<event>
 5   0  0.1028978E-02  0.9044685E+03  0.7818609E-02  0.9420013E-01
       -2   -1    0    0    0  501  0.00000000000E+00  0.00000000000E+00  0.12121075813E+03  0.12121075816E+03  0.25500000920E-02 0. -1.
        2   -1    0    0  501    0  0.00000000000E+00  0.00000000000E+00 -0.16872743796E+04  0.16872743796E+04  0.25500000920E-02 0.  1.
    10030    2    1    2    0    0  0.00000000000E+00  0.00000000000E+00 -0.15660636215E+04  0.18084851378E+04  0.90446847761E+03 0.  0.
        3    1    3    3  502    0 -0.86335133081E+02  0.37864867741E+03 -0.31973749860E+03  0.50305134362E+03  0.10100000352E+00 0. -1.
       -3    1    3    3    0  502  0.86335133081E+02 -0.37864867741E+03 -0.12463261229E+04  0.13054337941E+04  0.10100000352E+00 0.  1.
</event>
<event>
 5   0  0.1017079E-02  0.9048735E+03  0.7818609E-02  0.9419510E-01
        2   -1    0    0  501    0  0.00000000000E+00  0.00000000000E+00  0.17887872424E+04  0.17887872424E+04  0.25500000920E-02 0. -1.
       -2   -1    0    0    0  501  0.00000000000E+00  0.00000000000E+00 -0.11443453085E+03  0.11443453088E+03  0.25500000920E-02 0.  1.
    10030    2    1    2    0    0  0.00000000000E+00  0.00000000000E+00  0.16743527116E+04  0.19032217733E+04  0.90487353572E+03 0.  0.
        1    1    3    3  502    0 -0.84173394425E+01  0.48476871169E+02  0.17831434267E+04  0.17838221152E+04  0.50400001928E-02 0. -1.
       -1    1    3    3    0  502  0.84173394425E+01 -0.48476871169E+02 -0.10879071508E+03  0.11939965810E+03  0.50400001928E-02 0.  1.
</event>
<event>
 5   0  0.6288003E-03  0.9296105E+03  0.7818609E-02  0.9389306E-01
       -1   -1    0    0    0  501  0.00000000000E+00  0.00000000000E+00  0.10065939813E+03  0.10065939826E+03  0.50400001928E-02 0.  1.
        1   -1    0    0  501    0  0.00000000000E+00  0.00000000000E+00 -0.21462864937E+04  0.21462864937E+04  0.50400001928E-02 0. -1.
    10030    2    1    2    0    0  0.00000000000E+00  0.00000000000E+00 -0.20456270956E+04  0.22469458920E+04  0.92961047073E+03 0.  0.
        1    1    3    3  502    0 -0.10310870981E+03  0.42577709484E+03 -0.13982509758E+04  0.14652724429E+04  0.50400001928E-02 0.  1.
       -1    1    3    3    0  502  0.10310870981E+03 -0.42577709484E+03 -0.64737611978E+03  0.78167344909E+03  0.50400001928E-02 0. -1.
</event>
<event>
 5   0  0.1028978E-02  0.8998947E+03  0.7818609E-02  0.9425713E-01
       -2   -1    0    0    0  501  0.00000000000E+00  0.00000000000E+00  0.55158650615E+03  0.55158650616E+03  0.25500000920E-02 0. -1.
        2   -1    0    0  501    0  0.00000000000E+00  0.00000000000E+00 -0.36703696148E+03  0.36703696149E+03  0.25500000920E-02 0.  1.
    10030    2    1    2    0    0  0.00000000000E+00  0.00000000000E+00  0.18454954467E+03  0.91862346764E+03  0.89989473877E+03 0.  0.
        3    1    3    3  502    0  0.47998411448E+02 -0.25409938914E+02  0.54822838493E+03  0.55091186659E+03  0.10100000352E+00 0. -1.
       -3    1    3    3    0  502 -0.47998411448E+02  0.25409938914E+02 -0.36367884026E+03  0.36771160106E+03  0.10100000352E+00 0.  1.
</event>
<event>
 5   0  0.6137243E-03  0.9099926E+03  0.7818609E-02  0.9413176E-01
       -1   -1    0    0    0  501  0.00000000000E+00  0.00000000000E+00  0.14175796961E+04  0.14175796961E+04  0.50400001928E-02 0. -1.
        1   -1    0    0  501    0  0.00000000000E+00  0.00000000000E+00 -0.14603880876E+03  0.14603880884E+03  0.50400001928E-02 0.  1.
    10030    2    1    2    0    0  0.00000000000E+00  0.00000000000E+00  0.12715408873E+04  0.15636185050E+04  0.90999263780E+03 0.  0.
        4    1    3    3  502    0 -0.18546509029E+03 -0.24966528465E+03  0.65132089842E+02  0.31776383700E+03  0.12699999809E+01 0. -1.
       -4    1    3    3    0  502  0.18546509029E+03  0.24966528465E+03  0.12064087975E+04  0.12458546680E+04  0.12699999809E+01 0.  1.
</event>
<event>
 5   0  0.1033749E-02  0.8995219E+03  0.7818609E-02  0.9426179E-01
        2   -1    0    0  501    0  0.00000000000E+00  0.00000000000E+00  0.11753869389E+04  0.11753869389E+04  0.25500000920E-02 0.  1.
       -2   -1    0    0    0  501  0.00000000000E+00  0.00000000000E+00 -0.17210070551E+03  0.17210070553E+03  0.25500000920E-02 0. -1.
    10030    2    1    2    0    0  0.00000000000E+00  0.00000000000E+00  0.10032862334E+04  0.13474876444E+04  0.89952192068E+03 0.  0.
        5    1    3    3  502    0  0.94466570104E+02 -0.18206354243E+03  0.11012037834E+04  0.11201530828E+04  0.46999998093E+01 0.  1.
       -5    1    3    3    0  502 -0.94466570104E+02  0.18206354243E+03 -0.97917549948E+02  0.22733456168E+03  0.46999998093E+01 0. -1.
</event>
<event>
 5   0  0.6137243E-03  0.9021843E+03  0.7818609E-02  0.9422855E-01
       -1   -1    0    0    0  501  0.00000000000E+00  0.00000000000E+00  0.17273490488E+03  0.17273490496E+03  0.50400001928E-02 0. -1.
        1   -1    0    0  501    0  0.00000000000E+00  0.00000000000E+00 -0.11780138912E+04  0.11780138912E+04  0.50400001928E-02 0.  1.
    10030    2    1    2    0    0  0.00000000000E+00  0.00000000000E+00 -0.10052789863E+04  0.13507487962E+04  0.90218427719E+03 0.  0.
        4    1    3    3  502    0  0.11686082677E+03  0.39954751257E+03 -0.76277242334E+03  0.86897528753E+03  0.12699999809E+01 0. -1.
       -4    1    3    3    0  502 -0.11686082677E+03 -0.39954751257E+03 -0.24250656297E+03  0.48177350863E+03  0.12699999809E+01 0.  1.
</event>
<event>
 5   0  0.6015709E-03  0.8908586E+03  0.7818609E-02  0.9437081E-01
       -1   -1    0    0    0  501  0.00000000000E+00  0.00000000000E+00  0.10762102959E+03  0.10762102971E+03  0.50400001928E-02 0.  1.
        1   -1    0    0  501    0  0.00000000000E+00  0.00000000000E+00 -0.18435735261E+04  0.18435735261E+04  0.50400001928E-02 0. -1.
    10030    2    1    2    0    0  0.00000000000E+00  0.00000000000E+00 -0.17359524965E+04  0.19511945558E+04  0.89085864452E+03 0.  0.
        3    1    3    3  502    0 -0.11861434890E+03 -0.19724354681E+03 -0.17032389618E+04  0.17187196839E+04  0.10100000352E+00 0. -1.
       -3    1    3    3    0  502  0.11861434890E+03  0.19724354681E+03 -0.32713534680E+02  0.23247487192E+03  0.10100000352E+00 0.  1.
</event>
<event>
 5   0  0.1017079E-02  0.8978644E+03  0.7818609E-02  0.9428255E-01
        2   -1    0    0  501    0  0.00000000000E+00  0.00000000000E+00  0.18821127901E+04  0.18821127901E+04  0.25500000920E-02 0. -1.
       -2   -1    0    0    0  501  0.00000000000E+00  0.00000000000E+00 -0.10708183877E+03  0.10708183880E+03  0.25500000920E-02 0.  1.
    10030    2    1    2    0    0  0.00000000000E+00  0.00000000000E+00  0.17750309513E+04  0.19891946289E+04  0.89786435138E+03 0.  0.
        1    1    3    3  502    0 -0.97343068900E+02  0.62754430961E+02 -0.73413554549E+02  0.13712527734E+03  0.50400001928E-02 0.  1.
       -1    1    3    3    0  502  0.97343068900E+02 -0.62754430961E+02  0.18484445059E+04  0.18520693516E+04  0.50400001928E-02 0. -1.
</event>
<event>
 5   0  0.1041727E-02  0.9001050E+03  0.7818609E-02  0.9425450E-01
       -2   -1    0    0    0  501  0.00000000000E+00  0.00000000000E+00  0.16742653798E+03  0.16742653800E+03  0.25500000920E-02 0. -1.
        2   -1    0    0  501    0  0.00000000000E+00  0.00000000000E+00 -0.12097680183E+04  0.12097680183E+04  0.25500000920E-02 0.  1.
    10030    2    1    2    0    0  0.00000000000E+00  0.00000000000E+00 -0.10423414803E+04  0.13771945563E+04  0.90010504071E+03 0.  0.
        4    1    3    3  502    0  0.18075617148E+03  0.29615776786E+03 -0.82598222782E+02  0.35665991687E+03  0.12699999809E+01 0. -1.
       -4    1    3    3    0  502 -0.18075617148E+03 -0.29615776786E+03 -0.95974325754E+03  0.10205346394E+04  0.12699999809E+01 0.  1.
</event>
<event>
 5   0  0.1028978E-02  0.9000968E+03  0.7818609E-02  0.9425460E-01
       -2   -1    0    0    0  501  0.00000000000E+00  0.00000000000E+00  0.78776057304E+02  0.78776057346E+02  0.25500000920E-02 0.  1.
        2   -1    0    0  501    0  0.00000000000E+00  0.00000000000E+00 -0.25711309647E+04  0.25711309647E+04  0.25500000920E-02 0. -1.
    10030    2    1    2    0    0  0.00000000000E+00  0.00000000000E+00 -0.24923549074E+04  0.26499070220E+04  0.90009679539E+03 0.  0.
        3    1    3    3  502    0 -0.30258987788E+03 -0.40972162632E+01 -0.22268784985E+04  0.22473462748E+04  0.10100000352E+00 0.  1.
       -3    1    3    3    0  502  0.30258987788E+03  0.40972162632E+01 -0.26547640888E+03  0.40256074727E+03  0.10100000352E+00 0. -1.
</event>
<event>
 5   0  0.6092779E-03  0.8889531E+03  0.7818609E-02  0.9439497E-01
        1   -1    0    0  501    0  0.00000000000E+00  0.00000000000E+00  0.49529199096E+03  0.49529199098E+03  0.50400001928E-02 0. -1.
       -1   -1    0    0    0  501  0.00000000000E+00  0.00000000000E+00 -0.39887462580E+03  0.39887462583E+03  0.50400001928E-02 0.  1.
    10030    2    1    2    0    0  0.00000000000E+00  0.00000000000E+00  0.96417365153E+02  0.89416661682E+03  0.88895310918E+03 0.  0.
        2    1    3    3  502    0 -0.24266943370E+03  0.20479843379E+02 -0.32579387394E+03  0.40675487254E+03  0.25500000920E-02 0.  1.
       -2    1    3    3    0  502  0.24266943370E+03 -0.20479843379E+02  0.42221123909E+03  0.48741174427E+03  0.25500000920E-02 0. -1.
</event>
<event>
 5   0  0.6092779E-03  0.9046960E+03  0.7818609E-02  0.9419730E-01
        1   -1    0    0  501    0  0.00000000000E+00  0.00000000000E+00  0.94161431149E+03  0.94161431151E+03  0.50400001928E-02 0. -1.
       -1   -1    0    0    0  501  0.00000000000E+00  0.00000000000E+00 -0.21730630552E+03  0.21730630558E+03  0.50400001928E-02 0.  1.
    10030    2    1    2    0    0  0.00000000000E+00  0.00000000000E+00  0.72430800597E+03  0.11589206171E+04  0.90469603137E+03 0.  0.
        2    1    3    3  502    0 -0.20340670752E+03 -0.39264082058E+03  0.24010419121E+03  0.50318100649E+03  0.25500000920E-02 0.  1.
       -2    1    3    3    0  502  0.20340670752E+03  0.39264082058E+03  0.48420381476E+03  0.65573961059E+03  0.25500000920E-02 0. -1.
</event>
<event>
 5   0  0.1033749E-02  0.9042307E+03  0.7818609E-02  0.9420308E-01
       -2   -1    0    0    0  501  0.00000000000E+00  0.00000000000E+00  0.19049683707E+03  0.19049683709E+03  0.25500000920E-02 0. -1.
        2   -1    0    0  501    0  0.00000000000E+00  0.00000000000E+00 -0.10730271635E+04  0.10730271635E+04  0.25500000920E-02 0.  1.
    10030    2    1    2    0    0  0.00000000000E+00  0.00000000000E+00 -0.88253032640E+03  0.12635240006E+04  0.90423068018E+03 0.  0.
        5    1    3    3  502    0  0.25749631243E+03  0.10788433770E+03  0.55614619043E+02  0.28470766953E+03  0.46999998093E+01 0. -1.
       -5    1    3    3    0  502 -0.25749631243E+03 -0.10788433770E+03 -0.93814494544E+03  0.97881633103E+03  0.46999998093E+01 0.  1.
</event>
<event>
 5   0  0.6288003E-03  0.7481733E+03  0.7818609E-02  0.9638221E-01
        1   -1    0    0  501    0  0.00000000000E+00  0.00000000000E+00  0.51488094851E+03  0.51488094854E+03  0.50400001928E-02 0. -1.
       -1   -1    0    0    0  501  0.00000000000E+00  0.00000000000E+00 -0.27179257339E+03  0.27179257343E+03  0.50400001928E-02 0.  1.
    10030    2    1    2    0    0  0.00000000000E+00  0.00000000000E+00  0.24308837513E+03  0.78667352197E+03  0.74817329012E+03 0.  0.
        1    1    3    3  502    0 -0.10578030229E+03 -0.29454460651E+03 -0.93927492158E+02  0.32675429819E+03  0.50400001928E-02 0.  1.
       -1    1    3    3    0  502  0.10578030229E+03  0.29454460651E+03  0.33701586728E+03  0.45991922378E+03  0.50400001928E-02 0. -1.
</event>
<event>
 5   0  0.1028978E-02  0.9082908E+03  0.7818609E-02  0.9415276E-01
       -2   -1    0    0    0  501  0.00000000000E+00  0.00000000000E+00  0.18800691703E+03  0.18800691704E+03  0.25500000920E-02 0. -1.
        2   -1    0    0  501    0  0.00000000000E+00  0.00000000000E+00 -0.10970237163E+04  0.10970237163E+04  0.25500000920E-02 0.  1.
    10030    2    1    2    0    0  0.00000000000E+00  0.00000000000E+00 -0.90901679923E+03  0.12850306333E+04  0.90829080544E+03 0.  0.
        3    1    3    3  502    0  0.85392860922E+02  0.79108147074E+02 -0.10755592532E+04  0.10818399868E+04  0.10100000352E+00 0.  1.
       -3    1    3    3    0  502 -0.85392860922E+02 -0.79108147074E+02  0.16654245402E+03  0.20319064649E+03  0.10100000352E+00 0. -1.
</event>
<event>
 5   0  0.3996375E-03  0.8995111E+03  0.7818609E-02  0.9426193E-01
        4   -1    0    0  501    0  0.00000000000E+00  0.00000000000E+00  0.19221287075E+03  0.19221706632E+03  0.12699999809E+01 0. -1.
       -4   -1    0    0    0  501  0.00000000000E+00  0.00000000000E+00 -0.10523590854E+04  0.10523598517E+04  0.12699999809E+01 0.  1.
    10030    2    1    2    0    0  0.00000000000E+00  0.00000000000E+00 -0.86014621466E+03  0.12445769181E+04  0.89951108629E+03 0.  0.
        5    1    3    3  502    0 -0.15786191814E+03  0.10327962931E+03 -0.99493867354E+03  0.10126757236E+04  0.46999998093E+01 0.  1.
       -5    1    3    3    0  502  0.15786191814E+03 -0.10327962931E+03  0.13479245888E+03  0.23190119447E+03  0.46999998093E+01 0. -1.
</event>
<event>
 5   0  0.6137243E-03  0.8967930E+03  0.7818609E-02  0.9429599E-01
       -1   -1    0    0    0  501  0.00000000000E+00  0.00000000000E+00  0.17652250293E+03  0.17652250300E+03  0.50400001928E-02 0.  1.
        1   -1    0    0  501    0  0.00000000000E+00  0.00000000000E+00 -0.11390017191E+04  0.11390017191E+04  0.50400001928E-02 0. -1.
    10030    2    1    2    0    0  0.00000000000E+00  0.00000000000E+00 -0.96247921618E+03  0.13155242221E+04  0.89679302932E+03 0.  0.
        4    1    3    3  502    0  0.54862558056E+02 -0.38961791245E+03 -0.16578070435E+03  0.42696237868E+03  0.12699999809E+01 0.  1.
       -4    1    3    3    0  502 -0.54862558056E+02  0.38961791245E+03 -0.79669851183E+03  0.88856184345E+03  0.12699999809E+01 0. -1.
</event>
<event>
 5   0  0.3996375E-03  0.9074514E+03  0.7818609E-02  0.9416314E-01
       -3   -1    0    0    0  501  0.00000000000E+00  0.00000000000E+00  0.68812861458E+03  0.68812862200E+03  0.10100000352E+00 0. -1.
        3   -1    0    0  501    0  0.00000000000E+00  0.00000000000E+00 -0.29916939362E+03  0.29916941067E+03  0.10100000352E+00 0.  1.
    10030    2    1    2    0    0  0.00000000000E+00  0.00000000000E+00  0.38895922096E+03  0.98729803266E+03  0.90745144759E+03 0.  0.
        2    1    3    3  502    0 -0.35880229901E+03  0.23131178551E+03  0.36170051386E+03  0.55952792033E+03  0.25500000920E-02 0.  1.
       -2    1    3    3    0  502  0.35880229901E+03 -0.23131178551E+03  0.27258707100E+02  0.42777011234E+03  0.25500000920E-02 0. -1.
</event>
<event>
 5   0  0.1041727E-02  0.8997735E+03  0.7818609E-02  0.9425865E-01
       -2   -1    0    0    0  501  0.00000000000E+00  0.00000000000E+00  0.31417568397E+03  0.31417568398E+03  0.25500000920E-02 0.  1.
        2   -1    0    0  501    0  0.00000000000E+00  0.00000000000E+00 -0.64421939614E+03  0.64421939615E+03  0.25500000920E-02 0. -1.
    10030    2    1    2    0    0  0.00000000000E+00  0.00000000000E+00 -0.33004371217E+03  0.95839508013E+03  0.89977345908E+03 0.  0.
        4    1    3    3  502    0  0.69505795938E+02  0.30835348222E+03 -0.50600933893E+03  0.59662382592E+03  0.12699999809E+01 0. -1.
       -4    1    3    3    0  502 -0.69505795938E+02 -0.30835348222E+03  0.17596562676E+03  0.36177125421E+03  0.12699999809E+01 0.  1.
</event>
<event>
 5   0  0.6211218E-03  0.8989629E+03  0.7818609E-02  0.9426879E-01
       -1   -1    0    0    0  501  0.00000000000E+00  0.00000000000E+00  0.17134879982E+03  0.17134879990E+03  0.50400001928E-02 0.  1.
        1   -1    0    0  501    0  0.00000000000E+00  0.00000000000E+00 -0.11790777345E+04  0.11790777345E+04  0.50400001928E-02 0. -1.
    10030    2    1    2    0    0  0.00000000000E+00  0.00000000000E+00 -0.10077289347E+04  0.13504265344E+04  0.89896285742E+03 0.  0.
        5    1    3    3  502    0 -0.72518802018E+02  0.44320117994E+03 -0.47677465722E+03  0.65499803535E+03  0.46999998093E+01 0. -1.
       -5    1    3    3    0  502  0.72518802018E+02 -0.44320117994E+03 -0.53095427744E+03  0.69542849904E+03  0.46999998093E+01 0.  1.
</event>
<event>
 5   0  0.1003252E-02  0.8989451E+03  0.7818609E-02  0.9426901E-01
       -2   -1    0    0    0  501  0.00000000000E+00  0.00000000000E+00  0.20920161323E+03  0.20920161325E+03  0.25500000920E-02 0. -1.
        2   -1    0    0  501    0  0.00000000000E+00  0.00000000000E+00 -0.96569787286E+03  0.96569787286E+03  0.25500000920E-02 0.  1.
    10030    2    1    2    0    0  0.00000000000E+00  0.00000000000E+00 -0.75649625963E+03  0.11748994861E+04  0.89894505484E+03 0.  0.
        2    1    3    3  502    0  0.40325532720E+02 -0.20049822460E+03 -0.90136489734E+03  0.92427504825E+03  0.25500000920E-02 0.  1.
       -2    1    3    3    0  502 -0.40325532720E+02  0.20049822460E+03  0.14486863770E+03  0.25062443786E+03  0.25500000920E-02 0. -1.
</event>
<event>
 5   0  0.6092779E-03  0.8996319E+03  0.7818609E-02  0.9426042E-01
        1   -1    0    0  501    0  0.00000000000E+00  0.00000000000E+00  0.17992652568E+03  0.17992652575E+03  0.50400001928E-02 0.  1.
       -1   -1    0    0    0  501  0.00000000000E+00  0.00000000000E+00 -0.11245388548E+04  0.11245388549E+04  0.50400001928E-02 0. -1.
    10030    2    1    2    0    0  0.00000000000E+00  0.00000000000E+00 -0.94461232917E+03  0.13044653806E+04  0.89963185626E+03 0.  0.
        2    1    3    3  502    0 -0.44047903360E+03  0.27309650887E+02 -0.59843752744E+03  0.74356914294E+03  0.25500000920E-02 0.  1.
       -2    1    3    3    0  502  0.44047903360E+03 -0.27309650887E+02 -0.34617480173E+03  0.56089623767E+03  0.25500000920E-02 0. -1.
</event>
<event>
 5   0  0.6288003E-03  0.9042384E+03  0.7818609E-02  0.9420299E-01
        1   -1    0    0  501    0  0.00000000000E+00  0.00000000000E+00  0.69587895728E+03  0.69587895730E+03  0.50400001928E-02 0. -1.
       -1   -1    0    0    0  501  0.00000000000E+00  0.00000000000E+00 -0.29374613672E+03  0.29374613676E+03  0.50400001928E-02 0.  1.
    10030    2    1    2    0    0  0.00000000000E+00  0.00000000000E+00  0.40213282056E+03  0.98962509406E+03  0.90423836538E+03 0.  0.
        1    1    3    3  502    0  0.41582143509E+03 -0.11199727643E+03  0.50365027196E+02  0.43357524353E+03  0.50400001928E-02 0.  1.
       -1    1    3    3    0  502 -0.41582143509E+03  0.11199727643E+03  0.35176779336E+03  0.55604985054E+03  0.50400001928E-02 0. -1.
</event>
<event>
 5   0  0.1003252E-02  0.9018656E+03  0.7818609E-02  0.9423252E-01
       -2   -1    0    0    0  501  0.00000000000E+00  0.00000000000E+00  0.20599374165E+03  0.20599374166E+03  0.25500000920E-02 0.  1.
        2   -1    0    0  501    0  0.00000000000E+00  0.00000000000E+00 -0.98711926657E+03  0.98711926657E+03  0.25500000920E-02 0. -1.
    10030    2    1    2    0    0  0.00000000000E+00  0.00000000000E+00 -0.78112552492E+03  0.11931130082E+04  0.90186560237E+03 0.  0.
        2    1    3    3  502    0  0.23841598762E+03  0.47851849815E+02 -0.89294589512E+03  0.92546439926E+03  0.25500000920E-02 0. -1.
       -2    1    3    3    0  502 -0.23841598762E+03 -0.47851849815E+02  0.11182037020E+03  0.26764860897E+03  0.25500000920E-02 0.  1.
</event>
<event>
 5   0  0.1017079E-02  0.9067269E+03  0.7818609E-02  0.9417211E-01
       -2   -1    0    0    0  501  0.00000000000E+00  0.00000000000E+00  0.21538332728E+03  0.21538332730E+03  0.25500000920E-02 0. -1.
        2   -1    0    0  501    0  0.00000000000E+00  0.00000000000E+00 -0.95429122758E+03  0.95429122758E+03  0.25500000920E-02 0.  1.
    10030    2    1    2    0    0  0.00000000000E+00  0.00000000000E+00 -0.73890790030E+03  0.11696745549E+04  0.90672690443E+03 0.  0.
        1    1    3    3  502    0  0.51411870017E+02 -0.34222939154E+03 -0.74725841683E+03  0.82350426736E+03  0.50400001928E-02 0.  1.
       -1    1    3    3    0  502 -0.51411870017E+02  0.34222939154E+03  0.83505165354E+01  0.34617028752E+03  0.50400001928E-02 0. -1.
</event>
<event>
 5   0  0.6092779E-03  0.8943638E+03  0.7818609E-02  0.9432654E-01
       -1   -1    0    0    0  501  0.00000000000E+00  0.00000000000E+00  0.16944809185E+03  0.16944809192E+03  0.50400001928E-02 0.  1.
        1   -1    0    0  501    0  0.00000000000E+00  0.00000000000E+00 -0.11801352911E+04  0.11801352911E+04  0.50400001928E-02 0. -1.
    10030    2    1    2    0    0  0.00000000000E+00  0.00000000000E+00 -0.10106871993E+04  0.13495833831E+04  0.89436384825E+03 0.  0.
        2    1    3    3  502    0 -0.51989727607E+02  0.25476798796E+02  0.16376863723E+03  0.17370136902E+03  0.25500000920E-02 0.  1.
       -2    1    3    3    0  502  0.51989727607E+02 -0.25476798796E+02 -0.11744558365E+04  0.11758820141E+04  0.25500000920E-02 0. -1.
</event>
<event>
 5   0  0.6288003E-03  0.9005661E+03  0.7818609E-02  0.9424874E-01
        1   -1    0    0  501    0  0.00000000000E+00  0.00000000000E+00  0.10677640929E+04  0.10677640929E+04  0.50400001928E-02 0. -1.
       -1   -1    0    0    0  501  0.00000000000E+00  0.00000000000E+00 -0.18988727300E+03  0.18988727307E+03  0.50400001928E-02 0.  1.
    10030    2    1    2    0    0  0.00000000000E+00  0.00000000000E+00  0.87787681985E+03  0.12576513659E+04  0.90056607053E+03 0.  0.
        1    1    3    3  502    0  0.14313822376E+03 -0.11072130893E+03 -0.13687020086E+03  0.22689471404E+03  0.50400001928E-02 0.  1.
       -1    1    3    3    0  502 -0.14313822376E+03  0.11072130893E+03  0.10147470207E+04  0.10307566519E+04  0.50400001928E-02 0. -1.
</event>
<event>
 5   0  0.6137243E-03  0.8971406E+03  0.7818609E-02  0.9429163E-01
        1   -1    0    0  501    0  0.00000000000E+00  0.00000000000E+00  0.22897149613E+03  0.22897149619E+03  0.50400001928E-02 0.  1.
       -1   -1    0    0    0  501  0.00000000000E+00  0.00000000000E+00 -0.87877894911E+03  0.87877894913E+03  0.50400001928E-02 0. -1.
    10030    2    1    2    0    0  0.00000000000E+00  0.00000000000E+00 -0.64980745298E+03  0.11077504453E+04  0.89714063733E+03 0.  0.
        4    1    3    3  502    0 -0.11791889705E+03  0.41272307109E+03 -0.16406028259E+03  0.45952430720E+03  0.12699999809E+01 0. -1.
       -4    1    3    3    0  502  0.11791889705E+03 -0.41272307109E+03 -0.48574717039E+03  0.64822613811E+03  0.12699999809E+01 0.  1.
</event>
<event>
 5   0  0.1041727E-02  0.9115437E+03  0.7818609E-02  0.9411265E-01
        2   -1    0    0  501    0  0.00000000000E+00  0.00000000000E+00  0.95002106385E+03  0.95002106385E+03  0.25500000920E-02 0. -1.
       -2   -1    0    0    0  501  0.00000000000E+00  0.00000000000E+00 -0.21865617585E+03  0.21865617586E+03  0.25500000920E-02 0.  1.
    10030    2    1    2    0    0  0.00000000000E+00  0.00000000000E+00  0.73136488800E+03  0.11686772397E+04  0.91154368586E+03 0.  0.
        4    1    3    3  502    0 -0.16111680535E+03  0.11660260068E+03 -0.16008463154E+03  0.25531058264E+03  0.12699999809E+01 0.  1.
       -4    1    3    3    0  502  0.16111680535E+03 -0.11660260068E+03  0.89144951954E+03  0.91336665707E+03  0.12699999809E+01 0. -1.
</event>
<event>
 5   0  0.6015709E-03  0.9007736E+03  0.7818609E-02  0.9424615E-01
        1   -1    0    0  501    0  0.00000000000E+00  0.00000000000E+00  0.54721483415E+03  0.54721483417E+03  0.50400001928E-02 0. -1.
       -1   -1    0    0    0  501  0.00000000000E+00  0.00000000000E+00 -0.37069221616E+03  0.37069221620E+03  0.50400001928E-02 0.  1.
    10030    2    1    2    0    0  0.00000000000E+00  0.00000000000E+00  0.17652261798E+03  0.91790705037E+03  0.90077362220E+03 0.  0.
        3    1    3    3  502    0 -0.65700121704E+02 -0.11896783113E+03  0.52582178736E+03  0.54310073937E+03  0.10100000352E+00 0. -1.
       -3    1    3    3    0  502  0.65700121704E+02  0.11896783113E+03 -0.34929916938E+03  0.37480631100E+03  0.10100000352E+00 0.  1.
</event>
<event>
 5   0  0.6288003E-03  0.8976797E+03  0.7818609E-02  0.9428487E-01
       -1   -1    0    0    0  501  0.00000000000E+00  0.00000000000E+00  0.19068206247E+03  0.19068206254E+03  0.50400001928E-02 0. -1.
        1   -1    0    0  501    0  0.00000000000E+00  0.00000000000E+00 -0.10565084577E+04  0.10565084577E+04  0.50400001928E-02 0.  1.
    10030    2    1    2    0    0  0.00000000000E+00  0.00000000000E+00 -0.86582639519E+03  0.12471905202E+04  0.89767970184E+03 0.  0.
        1    1    3    3  502    0  0.28937725190E+03  0.34295587339E+03 -0.44675705162E+03  0.63320596034E+03  0.50400001928E-02 0.  1.
       -1    1    3    3    0  502 -0.28937725190E+03 -0.34295587339E+03 -0.41906934357E+03  0.61398455987E+03  0.50400001928E-02 0. -1.
</event>
<event>
 5   0  0.6288003E-03  0.8119007E+03  0.7818609E-02  0.9542949E-01
       -1   -1    0    0    0  501  0.00000000000E+00  0.00000000000E+00  0.10666976104E+04  0.10666976104E+04  0.50400001928E-02 0. -1.
        1   -1    0    0  501    0  0.00000000000E+00  0.00000000000E+00 -0.15449148919E+03  0.15449148927E+03  0.50400001928E-02 0.  1.
    10030    2    1    2    0    0  0.00000000000E+00  0.00000000000E+00  0.91220612125E+03  0.12211890997E+04  0.81190073877E+03 0.  0.
        1    1    3    3  502    0  0.26520408842E+03 -0.58441047998E+02  0.22522334310E+01  0.27157620880E+03  0.50400001928E-02 0.  1.
       -1    1    3    3    0  502 -0.26520408842E+03  0.58441047998E+02  0.90995388782E+03  0.94961289091E+03  0.50400001928E-02 0. -1.
</event>
<event>
 5   0  0.1041727E-02  0.8595780E+03  0.7818609E-02  0.9477571E-01
       -2   -1    0    0    0  501  0.00000000000E+00  0.00000000000E+00  0.11133939338E+03  0.11133939341E+03  0.25500000920E-02 0. -1.
        2   -1    0    0  501    0  0.00000000000E+00  0.00000000000E+00 -0.16590587089E+04  0.16590587089E+04  0.25500000920E-02 0.  1.
    10030    2    1    2    0    0  0.00000000000E+00  0.00000000000E+00 -0.15477193155E+04  0.17703981023E+04  0.85957801334E+03 0.  0.
        4    1    3    3  502    0  0.12118985253E+02 -0.36368565708E+03 -0.12448893839E+04  0.12969831602E+04  0.12699999809E+01 0.  1.
       -4    1    3    3    0  502 -0.12118985253E+02  0.36368565708E+03 -0.30282993164E+03  0.47341494206E+03  0.12699999809E+01 0. -1.
</event>
<event>
 5   0  0.1028978E-02  0.9121729E+03  0.7818609E-02  0.9410491E-01
        2   -1    0    0  501    0  0.00000000000E+00  0.00000000000E+00  0.85970615927E+03  0.85970615928E+03  0.25500000920E-02 0.  1.
       -2   -1    0    0    0  501  0.00000000000E+00  0.00000000000E+00 -0.24196040628E+03  0.24196040629E+03  0.25500000920E-02 0. -1.
    10030    2    1    2    0    0  0.00000000000E+00  0.00000000000E+00  0.61774575299E+03  0.11016665656E+04  0.91217290376E+03 0.  0.
        3    1    3    3  502    0 -0.17491083037E+03 -0.36226039709E+03  0.56843402334E+03  0.69637895070E+03  0.10100000352E+00 0.  1.
       -3    1    3    3    0  502  0.17491083037E+03  0.36226039709E+03  0.49311729651E+02  0.40528761487E+03  0.10100000352E+00 0. -1.
</event>
<event>
 5   0  0.1033749E-02  0.9098327E+03  0.7818609E-02  0.9413373E-01
        2   -1    0    0  501    0  0.00000000000E+00  0.00000000000E+00  0.89076122255E+03  0.89076122255E+03  0.25500000920E-02 0.  1.
       -2   -1    0    0    0  501  0.00000000000E+00  0.00000000000E+00 -0.23232811549E+03  0.23232811550E+03  0.25500000920E-02 0. -1.
    10030    2    1    2    0    0  0.00000000000E+00  0.00000000000E+00  0.65843310706E+03  0.11230893381E+04  0.90983267955E+03 0.  0.
        5    1    3    3  502    0 -0.21661667725E+03  0.49641425631E+02 -0.16072900062E+03  0.27430449803E+03  0.46999998093E+01 0. -1.
       -5    1    3    3    0  502  0.21661667725E+03 -0.49641425631E+02  0.81916210768E+03  0.84878484002E+03  0.46999998093E+01 0.  1.
</event>
<event>
 5   0  0.1028978E-02  0.9040608E+03  0.7818609E-02  0.9420519E-01
        2   -1    0    0  501    0  0.00000000000E+00  0.00000000000E+00  0.52850530272E+03  0.52850530272E+03  0.25500000920E-02 0.  1.
       -2   -1    0    0    0  501  0.00000000000E+00  0.00000000000E+00 -0.38662142332E+03  0.38662142333E+03  0.25500000920E-02 0. -1.
    10030    2    1    2    0    0  0.00000000000E+00  0.00000000000E+00  0.14188387940E+03  0.91512672605E+03  0.90406077755E+03 0.  0.
        3    1    3    3  502    0  0.41100782440E+03 -0.80947602664E+02 -0.10099450047E+03  0.43090584287E+03  0.10100000352E+00 0. -1.
       -3    1    3    3    0  502 -0.41100782440E+03  0.80947602664E+02  0.24287837987E+03  0.48422088318E+03  0.10100000352E+00 0.  1.
</event>
<event>
 5   0  0.6211218E-03  0.8815718E+03  0.7818609E-02  0.9448915E-01
       -1   -1    0    0    0  501  0.00000000000E+00  0.00000000000E+00  0.90853761579E+02  0.90853761719E+02  0.50400001928E-02 0. -1.
        1   -1    0    0  501    0  0.00000000000E+00  0.00000000000E+00 -0.21385158236E+04  0.21385158236E+04  0.50400001928E-02 0.  1.
    10030    2    1    2    0    0  0.00000000000E+00  0.00000000000E+00 -0.20476620620E+04  0.22293695853E+04  0.88157179386E+03 0.  0.
        5    1    3    3  502    0 -0.41658667063E+03  0.13080619844E+03 -0.87177535485E+03  0.97502260231E+03  0.46999998093E+01 0. -1.
       -5    1    3    3    0  502  0.41658667063E+03 -0.13080619844E+03 -0.11758867072E+04  0.12543469830E+04  0.46999998093E+01 0.  1.
</event>
<event>
 5   0  0.1033749E-02  0.9442622E+03  0.7818609E-02  0.9371882E-01
       -2   -1    0    0    0  501  0.00000000000E+00  0.00000000000E+00  0.40089465574E+03  0.40089465575E+03  0.25500000920E-02 0.  1.
        2   -1    0    0  501    0  0.00000000000E+00  0.00000000000E+00 -0.55602586269E+03  0.55602586270E+03  0.25500000920E-02 0. -1.
    10030    2    1    2    0    0  0.00000000000E+00  0.00000000000E+00 -0.15513120695E+03  0.95692051844E+03  0.94426224495E+03 0.  0.
        5    1    3    3  502    0  0.22763269699E+03 -0.14138616565E+03 -0.47146499757E+03  0.54231727477E+03  0.46999998093E+01 0. -1.
       -5    1    3    3    0  502 -0.22763269699E+03  0.14138616565E+03  0.31633379062E+03  0.41460324367E+03  0.46999998093E+01 0.  1.
</event>
<event>
 5   0  0.1003252E-02  0.9123514E+03  0.7818609E-02  0.9410272E-01
        2   -1    0    0  501    0  0.00000000000E+00  0.00000000000E+00  0.12946780216E+04  0.12946780216E+04  0.25500000920E-02 0. -1.
       -2   -1    0    0    0  501  0.00000000000E+00  0.00000000000E+00 -0.16073205863E+03  0.16073205865E+03  0.25500000920E-02 0.  1.
    10030    2    1    2    0    0  0.00000000000E+00  0.00000000000E+00  0.11339459630E+04  0.14554100803E+04  0.91235138778E+03 0.  0.
        2    1    3    3  502    0  0.34202328793E+02 -0.67944962971E+01  0.12925488150E+04  0.12930191041E+04  0.25500000920E-02 0. -1.
       -2    1    3    3    0  502 -0.34202328793E+02  0.67944962971E+01 -0.15860285199E+03  0.16239097617E+03  0.25500000920E-02 0.  1.
</event>
<event>
 5   0  0.1033749E-02  0.8982031E+03  0.7818609E-02  0.9427830E-01
        2   -1    0    0  501    0  0.00000000000E+00  0.00000000000E+00  0.69685738372E+03  0.69685738372E+03  0.25500000920E-02 0.  1.
       -2   -1    0    0    0  501  0.00000000000E+00  0.00000000000E+00 -0.28943109445E+03  0.28943109446E+03  0.25500000920E-02 0. -1.
    10030    2    1    2    0    0  0.00000000000E+00  0.00000000000E+00  0.40742628926E+03  0.98628847818E+03  0.89820308450E+03 0.  0.
        5    1    3    3  502    0  0.44599656913E+02 -0.19713024619E+03  0.64406548940E+03  0.67504955966E+03  0.46999998093E+01 0.  1.
       -5    1    3    3    0  502 -0.44599656913E+02  0.19713024619E+03 -0.23663920014E+03  0.31123891852E+03  0.46999998093E+01 0. -1.
</event>
<event>
 5   0  0.6288003E-03  0.9054416E+03  0.7818609E-02  0.9418805E-01
        1   -1    0    0  501    0  0.00000000000E+00  0.00000000000E+00  0.11291874870E+04  0.11291874870E+04  0.50400001928E-02 0. -1.
       -1   -1    0    0    0  501  0.00000000000E+00  0.00000000000E+00 -0.18150762800E+03  0.18150762807E+03  0.50400001928E-02 0.  1.
    10030    2    1    2    0    0  0.00000000000E+00  0.00000000000E+00  0.94767985903E+03  0.13106951151E+04  0.90544164339E+03 0.  0.
        1    1    3    3  502    0 -0.13799572219E+03 -0.96645803714E+02 -0.13443967548E+03  0.21553945599E+03  0.50400001928E-02 0.  1.
       -1    1    3    3    0  502  0.13799572219E+03  0.96645803714E+02  0.10821195345E+04  0.10951556591E+04  0.50400001928E-02 0. -1.
</event>
<event>
 5   0  0.1003252E-02  0.8979934E+03  0.7818609E-02  0.9428093E-01
       -2   -1    0    0    0  501  0.00000000000E+00  0.00000000000E+00  0.39053340611E+03  0.39053340612E+03  0.25500000920E-02 0. -1.
        2   -1    0    0  501    0  0.00000000000E+00  0.00000000000E+00 -0.51621201296E+03  0.51621201297E+03  0.25500000920E-02 0.  1.
    10030    2    1    2    0    0  0.00000000000E+00  0.00000000000E+00 -0.12567860685E+03  0.90674541909E+03  0.89799339798E+03 0.  0.
        2    1    3    3  502    0  0.11646741107E+02 -0.30031060553E+03  0.27399230678E+03  0.40668647698E+03  0.25500000920E-02 0. -1.
       -2    1    3    3    0  502 -0.11646741107E+02  0.30031060553E+03 -0.39967091364E+03  0.50005894211E+03  0.25500000920E-02 0.  1.
</event>
<event>
 5   0  0.6211218E-03  0.9159446E+03  0.7818609E-02  0.9405867E-01
       -1   -1    0    0    0  501  0.00000000000E+00  0.00000000000E+00  0.18456636093E+03  0.18456636100E+03  0.50400001928E-02 0.  1.
        1   -1    0    0  501    0  0.00000000000E+00  0.00000000000E+00 -0.11363859170E+04  0.11363859170E+04  0.50400001928E-02 0. -1.
    10030    2    1    2    0    0  0.00000000000E+00  0.00000000000E+00 -0.95181955609E+03  0.13209522780E+04  0.91594456899E+03 0.  0.
        5    1    3    3  502    0 -0.43499107146E+03 -0.11171503323E+03 -0.34676430331E+03  0.56741964448E+03  0.46999998093E+01 0.  1.
       -5    1    3    3    0  502  0.43499107146E+03  0.11171503323E+03 -0.60505525278E+03  0.75353263354E+03  0.46999998093E+01 0. -1.
</event>
<event>
 5   0  0.6015709E-03  0.8998910E+03  0.7818609E-02  0.9425718E-01
        1   -1    0    0  501    0  0.00000000000E+00  0.00000000000E+00  0.81537432877E+03  0.81537432879E+03  0.50400001928E-02 0.  1.
       -1   -1    0    0    0  501  0.00000000000E+00  0.00000000000E+00 -0.24829205598E+03  0.24829205603E+03  0.50400001928E-02 0. -1.
    10030    2    1    2    0    0  0.00000000000E+00  0.00000000000E+00  0.56708227279E+03  0.10636663848E+04  0.89989103456E+03 0.  0.
        3    1    3    3  502    0  0.10956515631E+03  0.21070183249E+03  0.73525979879E+03  0.77266213031E+03  0.10100000352E+00 0.  1.
       -3    1    3    3    0  502 -0.10956515631E+03 -0.21070183249E+03 -0.16817752600E+03  0.29100425451E+03  0.10100000352E+00 0. -1.
</event>
<event>
 5   0  0.1041727E-02  0.9230375E+03  0.7818609E-02  0.9397233E-01
        2   -1    0    0  501    0  0.00000000000E+00  0.00000000000E+00  0.20149718989E+04  0.20149718989E+04  0.25500000920E-02 0.  1.
       -2   -1    0    0    0  501  0.00000000000E+00  0.00000000000E+00 -0.10570845179E+03  0.10570845182E+03  0.25500000920E-02 0. -1.
    10030    2    1    2    0    0  0.00000000000E+00  0.00000000000E+00  0.19092634471E+04  0.21206803507E+04  0.92303750707E+03 0.  0.
        4    1    3    3  502    0 -0.41782159662E+03  0.14382430686E+03  0.12606191978E+04  0.13358228522E+04  0.12699999809E+01 0.  1.
       -4    1    3    3    0  502  0.41782159662E+03 -0.14382430686E+03  0.64864424935E+03  0.78485749850E+03  0.12699999809E+01 0. -1.
</event>
<event>
 5   0  0.6015709E-03  0.9322662E+03  0.7818609E-02  0.9386122E-01
        1   -1    0    0  501    0  0.00000000000E+00  0.00000000000E+00  0.10809404618E+04  0.10809404618E+04  0.50400001928E-02 0. -1.
       -1   -1    0    0    0  501  0.00000000000E+00  0.00000000000E+00 -0.20101020540E+03  0.20101020546E+03  0.50400001928E-02 0.  1.
    10030    2    1    2    0    0  0.00000000000E+00  0.00000000000E+00  0.87993025637E+03  0.12819506672E+04  0.93226619437E+03 0.  0.
        3    1    3    3  502    0  0.40646493835E+03 -0.22377748027E+03  0.50130631356E+03  0.68307989065E+03  0.10100000352E+00 0.  1.
       -3    1    3    3    0  502 -0.40646493835E+03  0.22377748027E+03  0.37862394281E+03  0.59887077659E+03  0.10100000352E+00 0. -1.
</event>
<event>
 5   0  0.6137243E-03  0.9100271E+03  0.7818609E-02  0.9413133E-01
       -1   -1    0    0    0  501  0.00000000000E+00  0.00000000000E+00  0.49563441739E+03  0.49563441741E+03  0.50400001928E-02 0.  1.
        1   -1    0    0  501    0  0.00000000000E+00  0.00000000000E+00 -0.41772188839E+03  0.41772188842E+03  0.50400001928E-02 0. -1.
    10030    2    1    2    0    0  0.00000000000E+00  0.00000000000E+00  0.77912529000E+02  0.91335630583E+03  0.91002713104E+03 0.  0.
        4    1    3    3  502    0 -0.55022108209E+02 -0.41016711507E+03 -0.15086850093E+03  0.44048542785E+03  0.12699999809E+01 0. -1.
       -4    1    3    3    0  502  0.55022108209E+02  0.41016711507E+03  0.22878102993E+03  0.47287087797E+03  0.12699999809E+01 0.  1.
</event>
<event>
 5   0  0.6015709E-03  0.8970229E+03  0.7818609E-02  0.9429311E-01
       -1   -1    0    0    0  501  0.00000000000E+00  0.00000000000E+00  0.79406478259E+03  0.79406478260E+03  0.50400001928E-02 0. -1.
        1   -1    0    0  501    0  0.00000000000E+00  0.00000000000E+00 -0.25333264498E+03  0.25333264503E+03  0.50400001928E-02 0.  1.
    10030    2    1    2    0    0  0.00000000000E+00  0.00000000000E+00  0.54073213760E+03  0.10473974276E+04  0.89702292434E+03 0.  0.
        3    1    3    3  502    0  0.38791722024E+03  0.22200223100E+03  0.22671202844E+03  0.50116176468E+03  0.10100000352E+00 0. -1.
       -3    1    3    3    0  502 -0.38791722024E+03 -0.22200223100E+03  0.31402010916E+03  0.54623566296E+03  0.10100000352E+00 0.  1.
</event>
<event>
 5   0  0.1033749E-02  0.9010338E+03  0.7818609E-02  0.9424290E-01
        2   -1    0    0  501    0  0.00000000000E+00  0.00000000000E+00  0.12300188478E+04  0.12300188478E+04  0.25500000920E-02 0.  1.
       -2   -1    0    0    0  501  0.00000000000E+00  0.00000000000E+00 -0.16501005506E+03  0.16501005508E+03  0.25500000920E-02 0. -1.
    10030    2    1    2    0    0  0.00000000000E+00  0.00000000000E+00  0.10650087928E+04  0.13950289029E+04  0.90103380142E+03 0.  0.
        5    1    3    3  502    0  0.44428057441E+03 -0.30640570872E+02  0.63773229204E+03  0.77784872546E+03  0.46999998093E+01 0.  1.
       -5    1    3    3    0  502 -0.44428057441E+03  0.30640570872E+02  0.42727650074E+03  0.61718017747E+03  0.46999998093E+01 0. -1.
</event>
<event>
 5   0  0.6137243E-03  0.8986631E+03  0.7818609E-02  0.9427254E-01
        1   -1    0    0  501    0  0.00000000000E+00  0.00000000000E+00  0.15078939982E+04  0.15078939982E+04  0.50400001928E-02 0. -1.
       -1   -1    0    0    0  501  0.00000000000E+00  0.00000000000E+00 -0.13389457239E+03  0.13389457248E+03  0.50400001928E-02 0.  1.
    10030    2    1    2    0    0  0.00000000000E+00  0.00000000000E+00  0.13739994258E+04  0.16417885707E+04  0.89866305628E+03 0.  0.
        4    1    3    3  502    0  0.43391782530E+03 -0.10660494095E+03  0.77361817112E+03  0.89338456453E+03  0.12699999809E+01 0. -1.
       -4    1    3    3    0  502 -0.43391782530E+03  0.10660494095E+03  0.60038125468E+03  0.74840400615E+03  0.12699999809E+01 0.  1.
</event>
<event>
 5   0  0.6211218E-03  0.9092773E+03  0.7818609E-02  0.9414058E-01
        1   -1    0    0  501    0  0.00000000000E+00  0.00000000000E+00  0.88504841976E+03  0.88504841977E+03  0.50400001928E-02 0.  1.
       -1   -1    0    0    0  501  0.00000000000E+00  0.00000000000E+00 -0.23354235144E+03  0.23354235149E+03  0.50400001928E-02 0. -1.
    10030    2    1    2    0    0  0.00000000000E+00  0.00000000000E+00  0.65150606832E+03  0.11185907713E+04  0.90927727152E+03 0.  0.
        5    1    3    3  502    0  0.11344299447E+03  0.22236400178E+03  0.79316199568E+03  0.83153057891E+03  0.46999998093E+01 0.  1.
       -5    1    3    3    0  502 -0.11344299447E+03 -0.22236400178E+03 -0.14165592736E+03  0.28706019236E+03  0.46999998093E+01 0. -1.
</event>
<event>
 5   0  0.1033749E-02  0.9027484E+03  0.7818609E-02  0.9422152E-01
       -2   -1    0    0    0  501  0.00000000000E+00  0.00000000000E+00  0.20024678369E+03  0.20024678371E+03  0.25500000920E-02 0.  1.
        2   -1    0    0  501    0  0.00000000000E+00  0.00000000000E+00 -0.10174378875E+04  0.10174378875E+04  0.25500000920E-02 0. -1.
    10030    2    1    2    0    0  0.00000000000E+00  0.00000000000E+00 -0.81719110380E+03  0.12176846712E+04  0.90274839149E+03 0.  0.
        5    1    3    3  502    0  0.24359821072E+03  0.27372300838E+03 -0.76407223766E+03  0.84740359212E+03  0.46999998093E+01 0. -1.
       -5    1    3    3    0  502 -0.24359821072E+03 -0.27372300838E+03 -0.53118866143E+02  0.37028107908E+03  0.46999998093E+01 0.  1.
</event>
<event>
 5   0  0.6211218E-03  0.9502471E+03  0.7818609E-02  0.9364862E-01
       -1   -1    0    0    0  501  0.00000000000E+00  0.00000000000E+00  0.24520509410E+03  0.24520509416E+03  0.50400001928E-02 0.  1.
        1   -1    0    0  501    0  0.00000000000E+00  0.00000000000E+00 -0.92062679987E+03  0.92062679988E+03  0.50400001928E-02 0. -1.
    10030    2    1    2    0    0  0.00000000000E+00  0.00000000000E+00 -0.67542170577E+03  0.11658318940E+04  0.95024708605E+03 0.  0.
        5    1    3    3  502    0 -0.26865546272E+03  0.11388655450E+03  0.12228348264E+03  0.31641941323E+03  0.46999998093E+01 0.  1.
       -5    1    3    3    0  502  0.26865546272E+03 -0.11388655450E+03 -0.79770518840E+03  0.84941248081E+03  0.46999998093E+01 0. -1.
</event>
<event>
 5   0  0.1041727E-02  0.9043681E+03  0.7818609E-02  0.9420138E-01
        2   -1    0    0  501    0  0.00000000000E+00  0.00000000000E+00  0.75189011641E+03  0.75189011641E+03  0.25500000920E-02 0. -1.
       -2   -1    0    0    0  501  0.00000000000E+00  0.00000000000E+00 -0.27194185936E+03  0.27194185937E+03  0.25500000920E-02 0.  1.
    10030    2    1    2    0    0  0.00000000000E+00  0.00000000000E+00  0.47994825705E+03  0.10238319758E+04  0.90436805847E+03 0.  0.
        4    1    3    3  502    0 -0.33462192967E+03 -0.23521874362E+03  0.21713983379E+02  0.40960078508E+03  0.12699999809E+01 0.  1.
       -4    1    3    3    0  502  0.33462192967E+03  0.23521874362E+03  0.45823427367E+03  0.61423119070E+03  0.12699999809E+01 0. -1.
</event>
<event>
 5   0  0.6092779E-03  0.9015325E+03  0.7818609E-02  0.9423668E-01
       -1   -1    0    0    0  501  0.00000000000E+00  0.00000000000E+00  0.11607765330E+03  0.11607765341E+03  0.50400001928E-02 0.  1.
        1   -1    0    0  501    0  0.00000000000E+00  0.00000000000E+00 -0.17504677790E+04  0.17504677790E+04  0.50400001928E-02 0. -1.
    10030    2    1    2    0    0  0.00000000000E+00  0.00000000000E+00 -0.16343901257E+04  0.18665454325E+04  0.90153245550E+03 0.  0.
        2    1    3    3  502    0 -0.95157278009E+02  0.89680090528E+02  0.75949882201E+02  0.15121445304E+03  0.25500000920E-02 0.  1.
       -2    1    3    3    0  502  0.95157278009E+02 -0.89680090528E+02 -0.17103400079E+04  0.17153309794E+04  0.25500000920E-02 0. -1.
</event>
<event>
 5   0  0.6092779E-03  0.9027342E+03  0.7818609E-02  0.9422170E-01
       -1   -1    0    0    0  501  0.00000000000E+00  0.00000000000E+00  0.59634181227E+03  0.59634181229E+03  0.50400001928E-02 0.  1.
        1   -1    0    0  501    0  0.00000000000E+00  0.00000000000E+00 -0.34163670253E+03  0.34163670257E+03  0.50400001928E-02 0. -1.
    10030    2    1    2    0    0  0.00000000000E+00  0.00000000000E+00  0.25470510974E+03  0.93797851486E+03  0.90273418092E+03 0.  0.
        2    1    3    3  502    0 -0.10502048939E+03 -0.35059252760E+02 -0.32730841858E+03  0.34552750292E+03  0.25500000920E-02 0. -1.
       -2    1    3    3    0  502  0.10502048939E+03  0.35059252760E+02  0.58201352832E+03  0.59245101194E+03  0.25500000920E-02 0.  1.
</event>
<event>
 5   0  0.6015709E-03  0.9048209E+03  0.7818609E-02  0.9419575E-01
       -1   -1    0    0    0  501  0.00000000000E+00  0.00000000000E+00  0.48308487508E+03  0.48308487510E+03  0.50400001928E-02 0. -1.
        1   -1    0    0  501    0  0.00000000000E+00  0.00000000000E+00 -0.42368372979E+03  0.42368372982E+03  0.50400001928E-02 0.  1.
    10030    2    1    2    0    0  0.00000000000E+00  0.00000000000E+00  0.59401145286E+02  0.90676860492E+03  0.90482087001E+03 0.  0.
        3    1    3    3  502    0 -0.40287954527E+03 -0.14182395936E+03 -0.11978226713E+03  0.44359189033E+03  0.10100000352E+00 0.  1.
       -3    1    3    3    0  502  0.40287954527E+03  0.14182395936E+03  0.17918341242E+03  0.46317671459E+03  0.10100000352E+00 0. -1.
</event>
<event>
 5   0  0.1028978E-02  0.9036762E+03  0.7818609E-02  0.9420998E-01
       -2   -1    0    0    0  501  0.00000000000E+00  0.00000000000E+00  0.14789004787E+03  0.14789004790E+03  0.25500000920E-02 0.  1.
        2   -1    0    0  501    0  0.00000000000E+00  0.00000000000E+00 -0.13804694087E+04  0.13804694087E+04  0.25500000920E-02 0. -1.
    10030    2    1    2    0    0  0.00000000000E+00  0.00000000000E+00 -0.12325793608E+04  0.15283594566E+04  0.90367624060E+03 0.  0.
        3    1    3    3  502    0 -0.44340820528E+03 -0.45577754461E+02 -0.74136937061E+03  0.86505301693E+03  0.10100000352E+00 0. -1.
       -3    1    3    3    0  502  0.44340820528E+03  0.45577754461E+02 -0.49120999018E+03  0.66330643964E+03  0.10100000352E+00 0.  1.
</event>
<event>
 5   0  0.6092779E-03  0.9149650E+03  0.7818609E-02  0.9407065E-01
        1   -1    0    0  501    0  0.00000000000E+00  0.00000000000E+00  0.10529422399E+04  0.10529422399E+04  0.50400001928E-02 0. -1.
       -1   -1    0    0    0  501  0.00000000000E+00  0.00000000000E+00 -0.19876705572E+03  0.19876705578E+03  0.50400001928E-02 0.  1.
    10030    2    1    2    0    0  0.00000000000E+00  0.00000000000E+00  0.85417518414E+03  0.12517092956E+04  0.91496498054E+03 0.  0.
        2    1    3    3  502    0 -0.24003847052E+03 -0.14805435086E+02 -0.10531151151E+03  0.26254177325E+03  0.25500000920E-02 0.  1.
       -2    1    3    3    0  502  0.24003847052E+03  0.14805435086E+02  0.95948669565E+03  0.98916752240E+03  0.25500000920E-02 0. -1.
</event>
<event>
 5   0  0.3996375E-03  0.9150117E+03  0.7818609E-02  0.9407008E-01
       -3   -1    0    0    0  501  0.00000000000E+00  0.00000000000E+00  0.45163548615E+03  0.45163549745E+03  0.10100000352E+00 0.  1.
        3   -1    0    0  501    0  0.00000000000E+00  0.00000000000E+00 -0.46345246521E+03  0.46345247621E+03  0.10100000352E+00 0. -1.
    10030    2    1    2    0    0  0.00000000000E+00  0.00000000000E+00 -0.11816979055E+02  0.91508797366E+03  0.91501167126E+03 0.  0.
        5    1    3    3  502    0  0.41861122334E+03  0.40064402691E+02  0.17424255546E+03  0.45521760818E+03  0.46999998093E+01 0.  1.
       -5    1    3    3    0  502 -0.41861122334E+03 -0.40064402691E+02 -0.18605953451E+03  0.45987036548E+03  0.46999998093E+01 0. -1.
</event>
<event>
 5   0  0.6092779E-03  0.8976388E+03  0.7818609E-02  0.9428538E-01
        1   -1    0    0  501    0  0.00000000000E+00  0.00000000000E+00  0.23107568885E+04  0.23107568885E+04  0.50400001928E-02 0. -1.
       -1   -1    0    0    0  501  0.00000000000E+00  0.00000000000E+00 -0.87174402753E+02  0.87174402898E+02  0.50400001928E-02 0.  1.
    10030    2    1    2    0    0  0.00000000000E+00  0.00000000000E+00  0.22235824858E+04  0.23979312914E+04  0.89763879561E+03 0.  0.
        2    1    3    3  502    0  0.12427245034E+03  0.17440487649E+03  0.21654729022E+04  0.21760362113E+04  0.25500000920E-02 0. -1.
       -2    1    3    3    0  502 -0.12427245034E+03 -0.17440487649E+03  0.58109583563E+02  0.22189508009E+03  0.25500000920E-02 0.  1.
</event>
<event>
 5   0  0.1033749E-02  0.8903973E+03  0.7818609E-02  0.9437665E-01
        2   -1    0    0  501    0  0.00000000000E+00  0.00000000000E+00  0.12852383703E+03  0.12852383706E+03  0.25500000920E-02 0.  1.
       -2   -1    0    0    0  501  0.00000000000E+00  0.00000000000E+00 -0.15421407881E+04  0.15421407881E+04  0.25500000920E-02 0. -1.
    10030    2    1    2    0    0  0.00000000000E+00  0.00000000000E+00 -0.14136169511E+04  0.16706646252E+04  0.89039733009E+03 0.  0.
        5    1    3    3  502    0  0.19897760966E+03  0.11111118566E+03 -0.14243407694E+04  0.14424654249E+04  0.46999998093E+01 0. -1.
       -5    1    3    3    0  502 -0.19897760966E+03 -0.11111118566E+03  0.10723818302E+02  0.22819920027E+03  0.46999998093E+01 0.  1.
</event>
<event>
 5   0  0.1041727E-02  0.8982812E+03  0.7818609E-02  0.9427733E-01
        2   -1    0    0  501    0  0.00000000000E+00  0.00000000000E+00  0.75116470736E+03  0.75116470737E+03  0.25500000920E-02 0.  1.
       -2   -1    0    0    0  501  0.00000000000E+00  0.00000000000E+00 -0.26855264331E+03  0.26855264332E+03  0.25500000920E-02 0. -1.
    10030    2    1    2    0    0  0.00000000000E+00  0.00000000000E+00  0.48261206405E+03  0.10197173507E+04  0.89828117587E+03 0.  0.
        4    1    3    3  502    0 -0.10644394555E+03 -0.37569780956E+02 -0.25218567574E+03  0.27629880553E+03  0.12699999809E+01 0. -1.
       -4    1    3    3    0  502  0.10644394555E+03  0.37569780956E+02  0.73479773979E+03  0.74341854516E+03  0.12699999809E+01 0.  1.
</event>
<event>
 5   0  0.6092779E-03  0.9102305E+03  0.7818609E-02  0.9412882E-01
        1   -1    0    0  501    0  0.00000000000E+00  0.00000000000E+00  0.48919302649E+03  0.48919302651E+03  0.50400001928E-02 0. -1.
       -1   -1    0    0    0  501  0.00000000000E+00  0.00000000000E+00 -0.42341140068E+03  0.42341140071E+03  0.50400001928E-02 0.  1.
    10030    2    1    2    0    0  0.00000000000E+00  0.00000000000E+00  0.65781625805E+02  0.91260442723E+03  0.91023053031E+03 0.  0.
        2    1    3    3  502    0 -0.67004708039E+02  0.99259571049E+02  0.47311201911E+03  0.48803388814E+03  0.25500000920E-02 0. -1.
       -2    1    3    3    0  502  0.67004708039E+02 -0.99259571049E+02 -0.40733039330E+03  0.42457053909E+03  0.25500000920E-02 0.  1.
</event>
<event>
 5   0  0.6288003E-03  0.8960712E+03  0.7818609E-02  0.9430506E-01
       -1   -1    0    0    0  501  0.00000000000E+00  0.00000000000E+00  0.50694074426E+03  0.50694074429E+03  0.50400001928E-02 0.  1.
        1   -1    0    0  501    0  0.00000000000E+00  0.00000000000E+00 -0.39597506537E+03  0.39597506541E+03  0.50400001928E-02 0. -1.
    10030    2    1    2    0    0  0.00000000000E+00  0.00000000000E+00  0.11096567889E+03  0.90291580969E+03  0.89607118998E+03 0.  0.
        1    1    3    3  502    0 -0.34317830107E+03 -0.19937685287E+02  0.34502252090E+03  0.48704147418E+03  0.50400001928E-02 0.  1.
       -1    1    3    3    0  502  0.34317830107E+03  0.19937685287E+02 -0.23405684201E+03  0.41587433551E+03  0.50400001928E-02 0. -1.
</event>
<event>
 5   0  0.6015709E-03  0.9004008E+03  0.7818609E-02  0.9425081E-01
        1   -1    0    0  501    0  0.00000000000E+00  0.00000000000E+00  0.92646455433E+03  0.92646455434E+03  0.50400001928E-02 0.  1.
       -1   -1    0    0    0  501  0.00000000000E+00  0.00000000000E+00 -0.21876755150E+03  0.21876755156E+03  0.50400001928E-02 0. -1.
    10030    2    1    2    0    0  0.00000000000E+00  0.00000000000E+00  0.70769700283E+03  0.11452321059E+04  0.90040075998E+03 0.  0.
        3    1    3    3  502    0 -0.31796028242E+03  0.31595921009E+03  0.40707787610E+03  0.60550918329E+03  0.10100000352E+00 0.  1.
       -3    1    3    3    0  502  0.31796028242E+03 -0.31595921009E+03  0.30061912673E+03  0.53972292261E+03  0.10100000352E+00 0. -1.
</event>
<event>
 5   0  0.1003252E-02  0.8958789E+03  0.7818609E-02  0.9430748E-01
       -2   -1    0    0    0  501  0.00000000000E+00  0.00000000000E+00  0.10235583127E+04  0.10235583128E+04  0.25500000920E-02 0. -1.
        2   -1    0    0  501    0  0.00000000000E+00  0.00000000000E+00 -0.19603155999E+03  0.19603156000E+03  0.25500000920E-02 0.  1.
    10030    2    1    2    0    0  0.00000000000E+00  0.00000000000E+00  0.82752675276E+03  0.12195898728E+04  0.89587885967E+03 0.  0.
        2    1    3    3  502    0 -0.14951520123E+03 -0.11608393043E+03 -0.13891027779E+03  0.23478999038E+03  0.25500000920E-02 0.  1.
       -2    1    3    3    0  502  0.14951520123E+03  0.11608393043E+03  0.96643703055E+03  0.98479988237E+03  0.25500000920E-02 0. -1.
</event>
<event>
 5   0  0.6288003E-03  0.8386489E+03  0.7818609E-02  0.9505700E-01
        1   -1    0    0  501    0  0.00000000000E+00  0.00000000000E+00  0.98380809029E+03  0.98380809030E+03  0.50400001928E-02 0.  1.
       -1   -1    0    0    0  501  0.00000000000E+00  0.00000000000E+00 -0.17872693763E+03  0.17872693770E+03  0.50400001928E-02 0. -1.
    10030    2    1    2    0    0  0.00000000000E+00  0.00000000000E+00  0.80508115266E+03  0.11625350280E+04  0.83864893069E+03 0.  0.
        1    1    3    3  502    0  0.28622405207E+03 -0.26860555814E+03  0.60702198672E+03  0.72287540160E+03  0.50400001928E-02 0.  1.
       -1    1    3    3    0  502 -0.28622405207E+03  0.26860555814E+03  0.19805916594E+03  0.43965962640E+03  0.50400001928E-02 0. -1.
</event>
<event>
 5   0  0.1033749E-02  0.9067521E+03  0.7818609E-02  0.9417180E-01
        2   -1    0    0  501    0  0.00000000000E+00  0.00000000000E+00  0.84439481787E+03  0.84439481787E+03  0.25500000920E-02 0.  1.
       -2   -1    0    0    0  501  0.00000000000E+00  0.00000000000E+00 -0.24342861528E+03  0.24342861529E+03  0.25500000920E-02 0. -1.
    10030    2    1    2    0    0  0.00000000000E+00  0.00000000000E+00  0.60096620259E+03  0.10878234332E+04  0.90675214093E+03 0.  0.
        5    1    3    3  502    0 -0.20798811213E+03  0.19486251339E+03  0.72344446535E+03  0.77757600166E+03  0.46999998093E+01 0.  1.
       -5    1    3    3    0  502  0.20798811213E+03 -0.19486251339E+03 -0.12247826276E+03  0.31024743151E+03  0.46999998093E+01 0. -1.
</event>
<event>
 5   0  0.6015709E-03  0.9059829E+03  0.7818609E-02  0.9418133E-01
       -1   -1    0    0    0  501  0.00000000000E+00  0.00000000000E+00  0.16359036478E+03  0.16359036486E+03  0.50400001928E-02 0. -1.
        1   -1    0    0  501    0  0.00000000000E+00  0.00000000000E+00 -0.12543601536E+04  0.12543601536E+04  0.50400001928E-02 0.  1.
    10030    2    1    2    0    0  0.00000000000E+00  0.00000000000E+00 -0.10907697888E+04  0.14179505185E+04  0.90598285892E+03 0.  0.
        3    1    3    3  502    0 -0.38463099305E+03  0.20418531652E+02 -0.17223719741E+03  0.42192840580E+03  0.10100000352E+00 0.  1.
       -3    1    3    3    0  502  0.38463099305E+03 -0.20418531652E+02 -0.91853259142E+03  0.99602211269E+03  0.10100000352E+00 0. -1.
</event>
<event>
 5   0  0.1003252E-02  0.9145863E+03  0.7818609E-02  0.9407529E-01
       -2   -1    0    0    0  501  0.00000000000E+00  0.00000000000E+00  0.18516345380E+03  0.18516345382E+03  0.25500000920E-02 0. -1.
        2   -1    0    0  501    0  0.00000000000E+00  0.00000000000E+00 -0.11293644491E+04  0.11293644491E+04  0.25500000920E-02 0.  1.
    10030    2    1    2    0    0  0.00000000000E+00  0.00000000000E+00 -0.94420099526E+03  0.13145279029E+04  0.91458629336E+03 0.  0.
        2    1    3    3  502    0  0.16270890181E+03 -0.23422773195E+03  0.41679166717E+02  0.28822555419E+03  0.25500000920E-02 0. -1.
       -2    1    3    3    0  502 -0.16270890181E+03  0.23422773195E+03 -0.98588016198E+03  0.10263023487E+04  0.25500000920E-02 0.  1.
</event>
<event>
 5   0  0.3996375E-03  0.9076963E+03  0.7818609E-02  0.9416011E-01
       -3   -1    0    0    0  501  0.00000000000E+00  0.00000000000E+00  0.30747916984E+03  0.30747918643E+03  0.10100000352E+00 0. -1.
        3   -1    0    0  501    0  0.00000000000E+00  0.00000000000E+00 -0.66989299372E+03  0.66989300133E+03  0.10100000352E+00 0.  1.
    10030    2    1    2    0    0  0.00000000000E+00  0.00000000000E+00 -0.36241382387E+03  0.97737218776E+03  0.90769632239E+03 0.  0.
        4    1    3    3  502    0 -0.24377910996E+03 -0.20277791002E+03 -0.53083014054E+03  0.61832789542E+03  0.12699999809E+01 0.  1.
       -4    1    3    3    0  502  0.24377910996E+03  0.20277791002E+03  0.16841631667E+03  0.35904429235E+03  0.12699999809E+01 0. -1.
</event>
<event>
 5   0  0.1033749E-02  0.8918573E+03  0.7818609E-02  0.9435818E-01
        2   -1    0    0  501    0  0.00000000000E+00  0.00000000000E+00  0.10335809100E+04  0.10335809100E+04  0.25500000920E-02 0. -1.
       -2   -1    0    0    0  501  0.00000000000E+00  0.00000000000E+00 -0.19239166660E+03  0.19239166661E+03  0.25500000920E-02 0.  1.
    10030    2    1    2    0    0  0.00000000000E+00  0.00000000000E+00  0.84118924337E+03  0.12259725766E+04  0.89185728420E+03 0.  0.
        5    1    3    3  502    0  0.41933382008E+03  0.11431773710E+03  0.28367673494E+03  0.51904140261E+03  0.46999998093E+01 0.  1.
       -5    1    3    3    0  502 -0.41933382008E+03 -0.11431773710E+03  0.55751250843E+03  0.70693117397E+03  0.46999998093E+01 0. -1.
</event>
<event>
 5   0  0.6288003E-03  0.8813497E+03  0.7818609E-02  0.9449200E-01
       -1   -1    0    0    0  501  0.00000000000E+00  0.00000000000E+00  0.42433988053E+03  0.42433988056E+03  0.50400001928E-02 0.  1.
        1   -1    0    0  501    0  0.00000000000E+00  0.00000000000E+00 -0.45763863327E+03  0.45763863330E+03  0.50400001928E-02 0. -1.
    10030    2    1    2    0    0  0.00000000000E+00  0.00000000000E+00 -0.33298752740E+02  0.88197851387E+03  0.88134969903E+03 0.  0.
        1    1    3    3  502    0 -0.24906587508E+03 -0.33581605602E+03 -0.15598983998E+03  0.44625000146E+03  0.50400001928E-02 0.  1.
       -1    1    3    3    0  502  0.24906587508E+03  0.33581605602E+03  0.12269108724E+03  0.43572851240E+03  0.50400001928E-02 0. -1.
</event>
<event>
 5   0  0.6092779E-03  0.9336692E+03  0.7818609E-02  0.9384445E-01
        1   -1    0    0  501    0  0.00000000000E+00  0.00000000000E+00  0.50585949928E+03  0.50585949930E+03  0.50400001928E-02 0.  1.
       -1   -1    0    0    0  501  0.00000000000E+00  0.00000000000E+00 -0.43082028903E+03  0.43082028906E+03  0.50400001928E-02 0. -1.
    10030    2    1    2    0    0  0.00000000000E+00  0.00000000000E+00  0.75039210245E+02  0.93667978836E+03  0.93366918277E+03 0.  0.
        2    1    3    3  502    0 -0.12100230016E+03  0.27068710846E+03 -0.32422799435E+03  0.43935960176E+03  0.25500000920E-02 0. -1.
       -2    1    3    3    0  502  0.12100230016E+03 -0.27068710846E+03  0.39926720460E+03  0.49732018660E+03  0.25500000920E-02 0.  1.
</event>
<event>
 5   0  0.1028978E-02  0.8922831E+03  0.7818609E-02  0.9435280E-01
        2   -1    0    0  501    0  0.00000000000E+00  0.00000000000E+00  0.85810739290E+03  0.85810739290E+03  0.25500000920E-02 0. -1.
       -2   -1    0    0    0  501  0.00000000000E+00  0.00000000000E+00 -0.23195500328E+03  0.23195500329E+03  0.25500000920E-02 0.  1.
    10030    2    1    2    0    0  0.00000000000E+00  0.00000000000E+00  0.62615238962E+03  0.10900623962E+04  0.89228314596E+03 0.  0.
        3    1    3    3  502    0  0.91975249954E+02  0.33129180540E+03 -0.34244898137E+02  0.34552341480E+03  0.10100000352E+00 0.  1.
       -3    1    3    3    0  502 -0.91975249954E+02 -0.33129180540E+03  0.66039728776E+03  0.74453898139E+03  0.10100000352E+00 0. -1.
</event>
<event>
 5   0  0.6211218E-03  0.9270174E+03  0.7818609E-02  0.9392425E-01
        1   -1    0    0  501    0  0.00000000000E+00  0.00000000000E+00  0.39994649440E+03  0.39994649443E+03  0.50400001928E-02 0. -1.
       -1   -1    0    0    0  501  0.00000000000E+00  0.00000000000E+00 -0.53717258799E+03  0.53717258801E+03  0.50400001928E-02 0.  1.
    10030    2    1    2    0    0  0.00000000000E+00  0.00000000000E+00 -0.13722609359E+03  0.93711908244E+03  0.92701735362E+03 0.  0.
        5    1    3    3  502    0 -0.15613777470E+02 -0.18397595276E+03 -0.49836588361E+03  0.53148996715E+03  0.46999998093E+01 0.  1.
       -5    1    3    3    0  502  0.15613777470E+02  0.18397595276E+03  0.36113979002E+03  0.40562911529E+03  0.46999998093E+01 0. -1.
</event>
<event>
 5   0  0.1017079E-02  0.8989372E+03  0.7818609E-02  0.9426911E-01
       -2   -1    0    0    0  501  0.00000000000E+00  0.00000000000E+00  0.92590283092E+02  0.92590283127E+02  0.25500000920E-02 0.  1.
        2   -1    0    0  501    0  0.00000000000E+00  0.00000000000E+00 -0.21818923306E+04  0.21818923306E+04  0.25500000920E-02 0. -1.
    10030    2    1    2    0    0  0.00000000000E+00  0.00000000000E+00 -0.20893020475E+04  0.22744826137E+04  0.89893721383E+03 0.  0.
        1    1    3    3  502    0 -0.29329199301E+03  0.22355536347E+03 -0.16947910788E+04  0.17344491906E+04  0.50400001928E-02 0. -1.
       -1    1    3    3    0  502  0.29329199301E+03 -0.22355536347E+03 -0.39451096863E+03  0.54003342313E+03  0.50400001928E-02 0.  1.
</event>
<event>
 5   0  0.6288003E-03  0.9190164E+03  0.7818609E-02  0.9402117E-01
        1   -1    0    0  501    0  0.00000000000E+00  0.00000000000E+00  0.10693672864E+04  0.10693672864E+04  0.50400001928E-02 0.  1.
       -1   -1    0    0    0  501  0.00000000000E+00  0.00000000000E+00 -0.19745112219E+03  0.19745112225E+03  0.50400001928E-02 0. -1.
    10030    2    1    2    0    0  0.00000000000E+00  0.00000000000E+00  0.87191616422E+03  0.12668184087E+04  0.91901636717E+03 0.  0.
        1    1    3    3  502    0 -0.18444254987E+03  0.40992872862E+03  0.30455514766E+03  0.54296818944E+03  0.50400001928E-02 0.  1.
       -1    1    3    3    0  502  0.18444254987E+03 -0.40992872862E+03  0.56736101656E+03  0.72385021923E+03  0.50400001928E-02 0. -1.
</event>
<event>
 5   0  0.1003252E-02  0.9090536E+03  0.7818609E-02  0.9414334E-01
        2   -1    0    0  501    0  0.00000000000E+00  0.00000000000E+00  0.11727305430E+04  0.11727305430E+04  0.25500000920E-02 0.  1.
       -2   -1    0    0    0  501  0.00000000000E+00  0.00000000000E+00 -0.17616545676E+03  0.17616545678E+03  0.25500000920E-02 0. -1.
    10030    2    1    2    0    0  0.00000000000E+00  0.00000000000E+00  0.99656508629E+03  0.13488959998E+04  0.90905359971E+03 0.  0.
        2    1    3    3  502    0  0.45063585369E+03  0.32288607288E+02  0.42439674665E+03  0.61986113394E+03  0.25500000920E-02 0.  1.
       -2    1    3    3    0  502 -0.45063585369E+03 -0.32288607288E+02  0.57216833964E+03  0.72903486589E+03  0.25500000920E-02 0. -1.
</event>
<event>
 5   0  0.6015709E-03  0.9016510E+03  0.7818609E-02  0.9423520E-01
        1   -1    0    0  501    0  0.00000000000E+00  0.00000000000E+00  0.64670293997E+03  0.64670293999E+03  0.50400001928E-02 0. -1.
       -1   -1    0    0    0  501  0.00000000000E+00  0.00000000000E+00 -0.31427662612E+03  0.31427662616E+03  0.50400001928E-02 0.  1.
    10030    2    1    2    0    0  0.00000000000E+00  0.00000000000E+00  0.33242631385E+03  0.96097956615E+03  0.90165097040E+03 0.  0.
        3    1    3    3  502    0  0.12891548418E+03 -0.38427141749E+03  0.37658350412E+03  0.55326202665E+03  0.10100000352E+00 0. -1.
       -3    1    3    3    0  502 -0.12891548418E+03  0.38427141749E+03 -0.44157190275E+02  0.40771753950E+03  0.10100000352E+00 0.  1.
</event>
<event>
 5   0  0.1041727E-02  0.8989837E+03  0.7818609E-02  0.9426853E-01
       -2   -1    0    0    0  501  0.00000000000E+00  0.00000000000E+00  0.15362266634E+03  0.15362266636E+03  0.25500000920E-02 0.  1.
        2   -1    0    0  501    0  0.00000000000E+00  0.00000000000E+00 -0.13151896426E+04  0.13151896426E+04  0.25500000920E-02 0. -1.
    10030    2    1    2    0    0  0.00000000000E+00  0.00000000000E+00 -0.11615669763E+04  0.14688123090E+04  0.89898373658E+03 0.  0.
        4    1    3    3  502    0 -0.23333749524E+03  0.47570215139E+01  0.46865607337E+02  0.23804834380E+03  0.12699999809E+01 0.  1.
       -4    1    3    3    0  502  0.23333749524E+03 -0.47570215139E+01 -0.12084325836E+04  0.12307639652E+04  0.12699999809E+01 0. -1.
</event>
<event>
 5   0  0.1017079E-02  0.9048716E+03  0.7818609E-02  0.9419512E-01
       -2   -1    0    0    0  501  0.00000000000E+00  0.00000000000E+00  0.44444353636E+03  0.44444353637E+03  0.25500000920E-02 0. -1.
        2   -1    0    0  501    0  0.00000000000E+00  0.00000000000E+00 -0.46057181226E+03  0.46057181226E+03  0.25500000920E-02 0.  1.
    10030    2    1    2    0    0  0.00000000000E+00  0.00000000000E+00 -0.16128275898E+02  0.90501534863E+03  0.90487162624E+03 0.  0.
        1    1    3    3  502    0  0.42273381199E+03 -0.12481148202E+02 -0.16883328521E+03  0.45537274082E+03  0.50400001928E-02 0.  1.
       -1    1    3    3    0  502 -0.42273381199E+03  0.12481148202E+02  0.15270500931E+03  0.44964260781E+03  0.50400001928E-02 0. -1.
</event>
<event>
 5   0  0.6015709E-03  0.9014521E+03  0.7818609E-02  0.9423768E-01
        1   -1    0    0  501    0  0.00000000000E+00  0.00000000000E+00  0.87495877221E+03  0.87495877223E+03  0.50400001928E-02 0. -1.
       -1   -1    0    0    0  501  0.00000000000E+00  0.00000000000E+00 -0.23218689935E+03  0.23218689941E+03  0.50400001928E-02 0.  1.
    10030    2    1    2    0    0  0.00000000000E+00  0.00000000000E+00  0.64277187286E+03  0.11071456716E+04  0.90145208285E+03 0.  0.
        3    1    3    3  502    0 -0.34162239379E+03 -0.11284927030E+03 -0.12067014681E+02  0.35998116727E+03  0.10100000352E+00 0.  1.
       -3    1    3    3    0  502  0.34162239379E+03  0.11284927030E+03  0.65483888754E+03  0.74716450436E+03  0.10100000352E+00 0. -1.
</event>
<event>
 5   0  0.6211218E-03  0.9090375E+03  0.7818609E-02  0.9414354E-01
       -1   -1    0    0    0  501  0.00000000000E+00  0.00000000000E+00  0.12421349007E+04  0.12421349007E+04  0.50400001928E-02 0.  1.
        1   -1    0    0  501    0  0.00000000000E+00  0.00000000000E+00 -0.16631632404E+03  0.16631632411E+03  0.50400001928E-02 0. -1.
    10030    2    1    2    0    0  0.00000000000E+00  0.00000000000E+00  0.10758185767E+04  0.14084512248E+04  0.90903753653E+03 0.  0.
        5    1    3    3  502    0 -0.19148503884E+02 -0.13739586464E+03  0.12084932310E+04  0.12164383536E+04  0.46999998093E+01 0.  1.
       -5    1    3    3    0  502  0.19148503884E+02  0.13739586464E+03 -0.13267465431E+03  0.19201287122E+03  0.46999998093E+01 0. -1.
</event>
<event>
 5   0  0.6015709E-03  0.8915086E+03  0.7818609E-02  0.9436259E-01
        1   -1    0    0  501    0  0.00000000000E+00  0.00000000000E+00  0.46042879393E+03  0.46042879396E+03  0.50400001928E-02 0.  1.
       -1   -1    0    0    0  501  0.00000000000E+00  0.00000000000E+00 -0.43154749128E+03  0.43154749131E+03  0.50400001928E-02 0. -1.
    10030    2    1    2    0    0  0.00000000000E+00  0.00000000000E+00  0.28881302648E+02  0.89197628527E+03  0.89150858877E+03 0.  0.
        3    1    3    3  502    0  0.23791762016E+03 -0.24871332712E+03  0.29784490859E+03  0.45516448988E+03  0.10100000352E+00 0.  1.
       -3    1    3    3    0  502 -0.23791762016E+03  0.24871332712E+03 -0.26896360595E+03  0.43681179539E+03  0.10100000352E+00 0. -1.
</event>
<event>
 5   0  0.6211218E-03  0.8973592E+03  0.7818609E-02  0.9428889E-01
        1   -1    0    0  501    0  0.00000000000E+00  0.00000000000E+00  0.40440862476E+03  0.40440862479E+03  0.50400001928E-02 0.  1.
       -1   -1    0    0    0  501  0.00000000000E+00  0.00000000000E+00 -0.49779701250E+03  0.49779701253E+03  0.50400001928E-02 0. -1.
    10030    2    1    2    0    0  0.00000000000E+00  0.00000000000E+00 -0.93388387749E+02  0.90220563732E+03  0.89735924859E+03 0.  0.
        5    1    3    3  502    0 -0.18456224524E+03  0.31685239319E+03  0.21322212436E+03  0.42419856878E+03  0.46999998093E+01 0.  1.
       -5    1    3    3    0  502  0.18456224524E+03 -0.31685239319E+03 -0.30661051211E+03  0.47800706854E+03  0.46999998093E+01 0. -1.
</event>
<event>
 5   0  0.1003252E-02  0.8534435E+03  0.7818609E-02  0.9485727E-01
       -2   -1    0    0    0  501  0.00000000000E+00  0.00000000000E+00  0.24707524874E+03  0.24707524876E+03  0.25500000920E-02 0.  1.
        2   -1    0    0  501    0  0.00000000000E+00  0.00000000000E+00 -0.73698787255E+03  0.73698787256E+03  0.25500000920E-02 0. -1.
    10030    2    1    2    0    0  0.00000000000E+00  0.00000000000E+00 -0.48991262381E+03  0.98406312132E+03  0.85344352348E+03 0.  0.
        2    1    3    3  502    0  0.17451515499E+03  0.90268475903E+02  0.19181614285E+03  0.27458581487E+03  0.25500000920E-02 0.  1.
       -2    1    3    3    0  502 -0.17451515499E+03 -0.90268475903E+02 -0.68172876666E+03  0.70947730645E+03  0.25500000920E-02 0. -1.
</event>
<event>
 5   0  0.6015709E-03  0.9239585E+03  0.7818609E-02  0.9396118E-01
        1   -1    0    0  501    0  0.00000000000E+00  0.00000000000E+00  0.48843565328E+03  0.48843565330E+03  0.50400001928E-02 0.  1.
       -1   -1    0    0    0  501  0.00000000000E+00  0.00000000000E+00 -0.43695589488E+03  0.43695589491E+03  0.50400001928E-02 0. -1.
    10030    2    1    2    0    0  0.00000000000E+00  0.00000000000E+00  0.51479758394E+02  0.92539154821E+03  0.92395852287E+03 0.  0.
        3    1    3    3  502    0  0.42431406237E+03 -0.17244513942E+03 -0.34728242077E+02  0.45933191772E+03  0.10100000352E+00 0.  1.
       -3    1    3    3    0  502 -0.42431406237E+03  0.17244513942E+03  0.86208000472E+02  0.46605963050E+03  0.10100000352E+00 0. -1.
</event>
<event>
 5   0  0.1017079E-02  0.9089212E+03  0.7818609E-02  0.9414498E-01
        2   -1    0    0  501    0  0.00000000000E+00  0.00000000000E+00  0.12504884944E+04  0.12504884944E+04  0.25500000920E-02 0. -1.
       -2   -1    0    0    0  501  0.00000000000E+00  0.00000000000E+00 -0.16516299902E+03  0.16516299904E+03  0.25500000920E-02 0.  1.
    10030    2    1    2    0    0  0.00000000000E+00  0.00000000000E+00  0.10853254954E+04  0.14156514935E+04  0.90892118468E+03 0.  0.
        1    1    3    3  502    0  0.76376682083E+02  0.28429806604E+03  0.10819195086E+04  0.11212531431E+04  0.50400001928E-02 0.  1.
       -1    1    3    3    0  502 -0.76376682083E+02 -0.28429806604E+03  0.34059868603E+01  0.29439835036E+03  0.50400001928E-02 0. -1.
</event>
<event>
 5   0  0.1041727E-02  0.9000038E+03  0.7818609E-02  0.9425577E-01
       -2   -1    0    0    0  501  0.00000000000E+00  0.00000000000E+00  0.31599434900E+03  0.31599434901E+03  0.25500000920E-02 0. -1.
        2   -1    0    0  501    0  0.00000000000E+00  0.00000000000E+00 -0.64083966722E+03  0.64083966722E+03  0.25500000920E-02 0.  1.
    10030    2    1    2    0    0  0.00000000000E+00  0.00000000000E+00 -0.32484531822E+03  0.95683401624E+03  0.90000380769E+03 0.  0.
        4    1    3    3  502    0  0.38243957393E+03  0.56327074970E+02 -0.40733230621E+03  0.56156387675E+03  0.12699999809E+01 0.  1.
       -4    1    3    3    0  502 -0.38243957393E+03 -0.56327074970E+02  0.82486987994E+02  0.39527013949E+03  0.12699999809E+01 0. -1.
</event>
<event>
 5   0  0.6015709E-03  0.9002439E+03  0.7818609E-02  0.9425277E-01
       -1   -1    0    0    0  501  0.00000000000E+00  0.00000000000E+00  0.19144741125E+03  0.19144741132E+03  0.50400001928E-02 0.  1.
        1   -1    0    0  501    0  0.00000000000E+00  0.00000000000E+00 -0.10583051583E+04  0.10583051583E+04  0.50400001928E-02 0. -1.
    10030    2    1    2    0    0  0.00000000000E+00  0.00000000000E+00 -0.86685774708E+03  0.12497525697E+04  0.90024392901E+03 0.  0.
        3    1    3    3  502    0 -0.27188074927E+03  0.30014078144E+03 -0.16066173974E+03  0.43567859177E+03  0.10100000352E+00 0.  1.
       -3    1    3    3    0  502  0.27188074927E+03 -0.30014078144E+03 -0.70619600734E+03  0.81407397790E+03  0.10100000352E+00 0. -1.
</event>
<event>
 5   0  0.1028978E-02  0.8891539E+03  0.7818609E-02  0.9439242E-01
        2   -1    0    0  501    0  0.00000000000E+00  0.00000000000E+00  0.32756288999E+03  0.32756289000E+03  0.25500000920E-02 0.  1.
       -2   -1    0    0    0  501  0.00000000000E+00  0.00000000000E+00 -0.60339151291E+03  0.60339151291E+03  0.25500000920E-02 0. -1.
    10030    2    1    2    0    0  0.00000000000E+00  0.00000000000E+00 -0.27582862292E+03  0.93095440291E+03  0.88915390742E+03 0.  0.
        3    1    3    3  502    0  0.37674142446E+03 -0.39759955510E+02 -0.38151882755E+03  0.53765377423E+03  0.10100000352E+00 0. -1.
       -3    1    3    3    0  502 -0.37674142446E+03  0.39759955510E+02  0.10569020463E+03  0.39330062868E+03  0.10100000352E+00 0.  1.
</event>
<event>
 5   0  0.1028978E-02  0.9088443E+03  0.7818609E-02  0.9414593E-01
       -2   -1    0    0    0  501  0.00000000000E+00  0.00000000000E+00  0.14653229537E+04  0.14653229537E+04  0.25500000920E-02 0. -1.
        2   -1    0    0  501    0  0.00000000000E+00  0.00000000000E+00 -0.14092420880E+03  0.14092420882E+03  0.25500000920E-02 0.  1.
    10030    2    1    2    0    0  0.00000000000E+00  0.00000000000E+00  0.13243987449E+04  0.16062471626E+04  0.90884427249E+03 0.  0.
        3    1    3    3  502    0 -0.11673579376E+03  0.32897390880E+02 -0.11179153736E+03  0.16494496627E+03  0.10100000352E+00 0.  1.
       -3    1    3    3    0  502  0.11673579376E+03 -0.32897390880E+02  0.14361902823E+04  0.14413021963E+04  0.10100000352E+00 0. -1.
</event>
<event>
 5   0  0.6092779E-03  0.9234948E+03  0.7818609E-02  0.9396679E-01
       -1   -1    0    0    0  501  0.00000000000E+00  0.00000000000E+00  0.56121383948E+03  0.56121383950E+03  0.50400001928E-02 0. -1.
        1   -1    0    0  501    0  0.00000000000E+00  0.00000000000E+00 -0.37990984235E+03  0.37990984238E+03  0.50400001928E-02 0.  1.
    10030    2    1    2    0    0  0.00000000000E+00  0.00000000000E+00  0.18130399713E+03  0.94112368188E+03  0.92349479978E+03 0.  0.
        2    1    3    3  502    0 -0.45425634219E+03 -0.79357184164E+02  0.11485991128E+03  0.47522540581E+03  0.25500000920E-02 0.  1.
       -2    1    3    3    0  502  0.45425634219E+03  0.79357184164E+02  0.66444085844E+02  0.46589827607E+03  0.25500000920E-02 0. -1.
</event>
<event>
 5   0  0.6211218E-03  0.9069144E+03  0.7818609E-02  0.9416979E-01
       -1   -1    0    0    0  501  0.00000000000E+00  0.00000000000E+00  0.26547633620E+03  0.26547633625E+03  0.50400001928E-02 0.  1.
        1   -1    0    0  501    0  0.00000000000E+00  0.00000000000E+00 -0.77454528727E+03  0.77454528729E+03  0.50400001928E-02 0. -1.
    10030    2    1    2    0    0  0.00000000000E+00  0.00000000000E+00 -0.50906895107E+03  0.10400216235E+04  0.90691442843E+03 0.  0.
        5    1    3    3  502    0 -0.13059701915E+03 -0.43284845970E+03 -0.29406034859E+03  0.53935790445E+03  0.46999998093E+01 0. -1.
       -5    1    3    3    0  502  0.13059701915E+03  0.43284845970E+03 -0.21500860248E+03  0.50066371909E+03  0.46999998093E+01 0.  1.
</event>
<event>
 5   0  0.6288003E-03  0.8984620E+03  0.7818609E-02  0.9427506E-01
       -1   -1    0    0    0  501  0.00000000000E+00  0.00000000000E+00  0.10184238842E+03  0.10184238855E+03  0.50400001928E-02 0.  1.
        1   -1    0    0  501    0  0.00000000000E+00  0.00000000000E+00 -0.19815767362E+04  0.19815767362E+04  0.50400001928E-02 0. -1.
    10030    2    1    2    0    0  0.00000000000E+00  0.00000000000E+00 -0.18797343477E+04  0.20834191247E+04  0.89846203658E+03 0.  0.
        1    1    3    3  502    0 -0.22315251504E+03 -0.28810938055E+03 -0.15490048430E+04  0.15912950901E+04  0.50400001928E-02 0. -1.
       -1    1    3    3    0  502  0.22315251504E+03  0.28810938055E+03 -0.33072950479E+03  0.49212403466E+03  0.50400001928E-02 0.  1.
</event>
<event>
 5   0  0.1033749E-02  0.9009689E+03  0.7818609E-02  0.9424371E-01
       -2   -1    0    0    0  501  0.00000000000E+00  0.00000000000E+00  0.31916202174E+03  0.31916202175E+03  0.25500000920E-02 0.  1.
        2   -1    0    0  501    0  0.00000000000E+00  0.00000000000E+00 -0.63584078770E+03  0.63584078770E+03  0.25500000920E-02 0. -1.
    10030    2    1    2    0    0  0.00000000000E+00  0.00000000000E+00 -0.31667876595E+03  0.95500280946E+03  0.90096888141E+03 0.  0.
        5    1    3    3  502    0  0.45025129012E+03 -0.12149795091E+02 -0.15161047020E+03  0.47527009842E+03  0.46999998093E+01 0. -1.
       -5    1    3    3    0  502 -0.45025129012E+03  0.12149795091E+02 -0.16506829575E+03  0.47973271104E+03  0.46999998093E+01 0.  1.
</event>
<event>
 5   0  0.1028978E-02  0.9070076E+03  0.7818609E-02  0.9416864E-01
       -2   -1    0    0    0  501  0.00000000000E+00  0.00000000000E+00  0.32989692024E+03  0.32989692025E+03  0.25500000920E-02 0.  1.
        2   -1    0    0  501    0  0.00000000000E+00  0.00000000000E+00 -0.62342405144E+03  0.62342405144E+03  0.25500000920E-02 0. -1.
    10030    2    1    2    0    0  0.00000000000E+00  0.00000000000E+00 -0.29352713120E+03  0.95332097169E+03  0.90700755141E+03 0.  0.
        3    1    3    3  502    0 -0.30495038374E+03  0.68093704964E+02 -0.49223235998E+03  0.58303018414E+03  0.10100000352E+00 0. -1.
       -3    1    3    3    0  502  0.30495038374E+03 -0.68093704964E+02  0.19870522879E+03  0.37029078755E+03  0.10100000352E+00 0.  1.
</event>
<event>
 5   0  0.1041727E-02  0.1065216E+04  0.7818609E-02  0.9239774E-01
        2   -1    0    0  501    0  0.00000000000E+00  0.00000000000E+00  0.10447047189E+04  0.10447047189E+04  0.25500000920E-02 0.  1.
       -2   -1    0    0    0  501  0.00000000000E+00  0.00000000000E+00 -0.27153242282E+03  0.27153242283E+03  0.25500000920E-02 0. -1.
    10030    2    1    2    0    0  0.00000000000E+00  0.00000000000E+00  0.77317229612E+03  0.13162371418E+04  0.10652158532E+04 0.  0.
        4    1    3    3  502    0 -0.33560252153E+03 -0.35757680701E+03  0.12982184399E+03  0.50729237077E+03  0.12699999809E+01 0. -1.
       -4    1    3    3    0  502  0.33560252153E+03  0.35757680701E+03  0.64335045213E+03  0.80894477100E+03  0.12699999809E+01 0.  1.
</event>
<event>
 5   0  0.1028978E-02  0.8986078E+03  0.7818609E-02  0.9427323E-01
        2   -1    0    0  501    0  0.00000000000E+00  0.00000000000E+00  0.54457031485E+03  0.54457031486E+03  0.25500000920E-02 0.  1.
       -2   -1    0    0    0  501  0.00000000000E+00  0.00000000000E+00 -0.37070327884E+03  0.37070327885E+03  0.25500000920E-02 0. -1.
    10030    2    1    2    0    0  0.00000000000E+00  0.00000000000E+00  0.17386703602E+03  0.91527359371E+03  0.89860781497E+03 0.  0.
        3    1    3    3  502    0  0.11968446970E+03  0.24042096678E+03 -0.27995154941E+03  0.38794264238E+03  0.10100000352E+00 0. -1.
       -3    1    3    3    0  502 -0.11968446970E+03 -0.24042096678E+03  0.45381858542E+03  0.52733095133E+03  0.10100000352E+00 0.  1.
</event>
<event>
 5   0  0.6211218E-03  0.8476416E+03  0.7818609E-02  0.9493508E-01
        1   -1    0    0  501    0  0.00000000000E+00  0.00000000000E+00  0.87011521746E+03  0.87011521748E+03  0.50400001928E-02 0. -1.
       -1   -1    0    0    0  501  0.00000000000E+00  0.00000000000E+00 -0.20643711497E+03  0.20643711504E+03  0.50400001928E-02 0.  1.
    10030    2    1    2    0    0  0.00000000000E+00  0.00000000000E+00  0.66367810249E+03  0.10765523325E+04  0.84764161113E+03 0.  0.
        5    1    3    3  502    0  0.91200062955E+01 -0.18981843281E+03 -0.14925537567E+03  0.24168878566E+03  0.46999998093E+01 0.  1.
       -5    1    3    3    0  502 -0.91200062955E+01  0.18981843281E+03  0.81293347816E+03  0.83486354685E+03  0.46999998093E+01 0. -1.
</event>
<event>
 5   0  0.6137243E-03  0.8992682E+03  0.7818609E-02  0.9426497E-01
        1   -1    0    0  501    0  0.00000000000E+00  0.00000000000E+00  0.91199033409E+03  0.91199033410E+03  0.50400001928E-02 0. -1.
       -1   -1    0    0    0  501  0.00000000000E+00  0.00000000000E+00 -0.22168090105E+03  0.22168090111E+03  0.50400001928E-02 0.  1.
    10030    2    1    2    0    0  0.00000000000E+00  0.00000000000E+00  0.69030943304E+03  0.11336712352E+04  0.89926823374E+03 0.  0.
        4    1    3    3  502    0 -0.21083338369E+03 -0.37605635593E+03  0.50610560468E+03  0.66484102949E+03  0.12699999809E+01 0.  1.
       -4    1    3    3    0  502  0.21083338369E+03  0.37605635593E+03  0.18420382836E+03  0.46883020572E+03  0.12699999809E+01 0. -1.
</event>
<event>
 5   0  0.6211218E-03  0.8964054E+03  0.7818609E-02  0.9430086E-01
       -1   -1    0    0    0  501  0.00000000000E+00  0.00000000000E+00  0.63580849587E+03  0.63580849589E+03  0.50400001928E-02 0.  1.
        1   -1    0    0  501    0  0.00000000000E+00  0.00000000000E+00 -0.31595307826E+03  0.31595307830E+03  0.50400001928E-02 0. -1.
    10030    2    1    2    0    0  0.00000000000E+00  0.00000000000E+00  0.31985541761E+03  0.95176157419E+03  0.89640538035E+03 0.  0.
        5    1    3    3  502    0 -0.10360488935E+03  0.39309913720E+02  0.62100793900E+03  0.63083452087E+03  0.46999998093E+01 0.  1.
       -5    1    3    3    0  502  0.10360488935E+03 -0.39309913720E+02 -0.30115252139E+03  0.32092705332E+03  0.46999998093E+01 0. -1.
</event>
<event>
 5   0  0.6137243E-03  0.9032833E+03  0.7818609E-02  0.9421486E-01
        1   -1    0    0  501    0  0.00000000000E+00  0.00000000000E+00  0.13937198399E+04  0.13937198399E+04  0.50400001928E-02 0.  1.
       -1   -1    0    0    0  501  0.00000000000E+00  0.00000000000E+00 -0.14635665343E+03  0.14635665351E+03  0.50400001928E-02 0. -1.
    10030    2    1    2    0    0  0.00000000000E+00  0.00000000000E+00  0.12473631864E+04  0.15400764934E+04  0.90328328148E+03 0.  0.
        4    1    3    3  502    0 -0.43711924966E+03  0.11148850645E+03  0.66086544934E+03  0.80015478535E+03  0.12699999809E+01 0.  1.
       -4    1    3    3    0  502  0.43711924966E+03 -0.11148850645E+03  0.58649773709E+03  0.73992170803E+03  0.12699999809E+01 0. -1.
</event>
<event>
 5   0  0.1028978E-02  0.8759973E+03  0.7818609E-02  0.9456094E-01
        2   -1    0    0  501    0  0.00000000000E+00  0.00000000000E+00  0.23635945852E+04  0.23635945852E+04  0.25500000920E-02 0.  1.
       -2   -1    0    0    0  501  0.00000000000E+00  0.00000000000E+00 -0.81165702745E+02  0.81165702785E+02  0.25500000920E-02 0. -1.
    10030    2    1    2    0    0  0.00000000000E+00  0.00000000000E+00  0.22824288824E+04  0.24447602880E+04  0.87599729579E+03 0.  0.
        3    1    3    3  502    0  0.34919189893E+03 -0.19453831864E+03  0.16409420342E+04  0.16889259633E+04  0.10100000352E+00 0.  1.
       -3    1    3    3    0  502 -0.34919189893E+03  0.19453831864E+03  0.64148684827E+03  0.75583432470E+03  0.10100000352E+00 0. -1.
</event>
<event>
 5   0  0.6015709E-03  0.8940061E+03  0.7818609E-02  0.9433105E-01
        1   -1    0    0  501    0  0.00000000000E+00  0.00000000000E+00  0.31246043740E+03  0.31246043744E+03  0.50400001928E-02 0. -1.
       -1   -1    0    0    0  501  0.00000000000E+00  0.00000000000E+00 -0.63947854218E+03  0.63947854220E+03  0.50400001928E-02 0.  1.
    10030    2    1    2    0    0  0.00000000000E+00  0.00000000000E+00 -0.32701810478E+03  0.95193897964E+03  0.89400614098E+03 0.  0.
        3    1    3    3  502    0  0.20388309541E+02  0.26798685871E+03 -0.54383711177E+03  0.60662299160E+03  0.10100000352E+00 0.  1.
       -3    1    3    3    0  502 -0.20388309541E+02 -0.26798685871E+03  0.21681900699E+03  0.34531598804E+03  0.10100000352E+00 0. -1.
</event>
<event>
 5   0  0.3996375E-03  0.9151668E+03  0.7818609E-02  0.9406818E-01
       -4   -1    0    0    0  501  0.00000000000E+00  0.00000000000E+00  0.29958777433E+03  0.29959046619E+03  0.12699999809E+01 0. -1.
        4   -1    0    0  501    0  0.00000000000E+00  0.00000000000E+00 -0.69889580019E+03  0.69889695408E+03  0.12699999809E+01 0.  1.
    10030    2    1    2    0    0  0.00000000000E+00  0.00000000000E+00 -0.39930802586E+03  0.99848742026E+03  0.91516677656E+03 0.  0.
        2    1    3    3  502    0  0.77338172117E+01 -0.10712966835E+03  0.28564115463E+03  0.30516789968E+03  0.25500000920E-02 0. -1.
       -2    1    3    3    0  502 -0.77338172117E+01  0.10712966835E+03 -0.68494918049E+03  0.69331952059E+03  0.25500000920E-02 0.  1.
</event>
<event>
 5   0  0.1028978E-02  0.9047457E+03  0.7818609E-02  0.9419668E-01
        2   -1    0    0  501    0  0.00000000000E+00  0.00000000000E+00  0.35498709797E+03  0.35498709798E+03  0.25500000920E-02 0. -1.
       -2   -1    0    0    0  501  0.00000000000E+00  0.00000000000E+00 -0.57647503687E+03  0.57647503688E+03  0.25500000920E-02 0.  1.
    10030    2    1    2    0    0  0.00000000000E+00  0.00000000000E+00 -0.22148793890E+03  0.93146213486E+03  0.90474571102E+03 0.  0.
        3    1    3    3  502    0 -0.13457798679E+03  0.42511073095E+03 -0.32264246399E+02  0.44706974836E+03  0.10100000352E+00 0.  1.
       -3    1    3    3    0  502  0.13457798679E+03 -0.42511073095E+03 -0.18922369250E+03  0.48439238650E+03  0.10100000352E+00 0. -1.
</event>
<event>
 5   0  0.6015709E-03  0.8476898E+03  0.7818609E-02  0.9493443E-01
        1   -1    0    0  501    0  0.00000000000E+00  0.00000000000E+00  0.30351085010E+03  0.30351085015E+03  0.50400001928E-02 0. -1.
       -1   -1    0    0    0  501  0.00000000000E+00  0.00000000000E+00 -0.59188820229E+03  0.59188820231E+03  0.50400001928E-02 0.  1.
    10030    2    1    2    0    0  0.00000000000E+00  0.00000000000E+00 -0.28837735219E+03  0.89539905246E+03  0.84768978164E+03 0.  0.
        3    1    3    3  502    0  0.12180576743E+03  0.39963768613E+02  0.28254217381E+03  0.31026414225E+03  0.10100000352E+00 0. -1.
       -3    1    3    3    0  502 -0.12180576743E+03 -0.39963768613E+02 -0.57091952600E+03  0.58513491021E+03  0.10100000352E+00 0.  1.
</event>
<event>
 5   0  0.1041727E-02  0.9520767E+03  0.7818609E-02  0.9362727E-01
        2   -1    0    0  501    0  0.00000000000E+00  0.00000000000E+00  0.10703376351E+04  0.10703376351E+04  0.25500000920E-02 0. -1.
       -2   -1    0    0    0  501  0.00000000000E+00  0.00000000000E+00 -0.21172057977E+03  0.21172057979E+03  0.25500000920E-02 0.  1.
    10030    2    1    2    0    0  0.00000000000E+00  0.00000000000E+00  0.85861705537E+03  0.12820582149E+04  0.95207668741E+03 0.  0.
        4    1    3    3  502    0  0.32248679487E+03 -0.87948639738E+02 -0.27100911408E+02  0.33536363606E+03  0.12699999809E+01 0.  1.
       -4    1    3    3    0  502 -0.32248679487E+03  0.87948639738E+02  0.88571796678E+03  0.94669457887E+03  0.12699999809E+01 0. -1.
</event>
<event>
 5   0  0.3996375E-03  0.9061884E+03  0.7818609E-02  0.9417879E-01
       -4   -1    0    0    0  501  0.00000000000E+00  0.00000000000E+00  0.27707137171E+03  0.27707428232E+03  0.12699999809E+01 0. -1.
        4   -1    0    0  501    0  0.00000000000E+00  0.00000000000E+00 -0.74093655994E+03  0.74093764836E+03  0.12699999809E+01 0.  1.
    10030    2    1    2    0    0  0.00000000000E+00  0.00000000000E+00 -0.46386518823E+03  0.10180119307E+04  0.90618837896E+03 0.  0.
        2    1    3    3  502    0  0.35060938888E+02  0.28748869462E+03  0.15951275162E+03  0.33064079740E+03  0.25500000920E-02 0. -1.
       -2    1    3    3    0  502 -0.35060938888E+02 -0.28748869462E+03 -0.62337793985E+03  0.68737113328E+03  0.25500000920E-02 0.  1.
</event>
<event>
 5   0  0.6092779E-03  0.9119119E+03  0.7818609E-02  0.9410812E-01
       -1   -1    0    0    0  501  0.00000000000E+00  0.00000000000E+00  0.27629592079E+03  0.27629592084E+03  0.50400001928E-02 0. -1.
        1   -1    0    0  501    0  0.00000000000E+00  0.00000000000E+00 -0.75243908728E+03  0.75243908730E+03  0.50400001928E-02 0.  1.
    10030    2    1    2    0    0  0.00000000000E+00  0.00000000000E+00 -0.47614316649E+03  0.10287350081E+04  0.91191194859E+03 0.  0.
        2    1    3    3  502    0  0.25060430527E+03 -0.75261993380E+02  0.18316600234E+03  0.31940048511E+03  0.25500000920E-02 0. -1.
       -2    1    3    3    0  502 -0.25060430527E+03  0.75261993380E+02 -0.65930916882E+03  0.70933452303E+03  0.25500000920E-02 0.  1.
</event>
<event>
 5   0  0.6137243E-03  0.8952592E+03  0.7818609E-02  0.9431527E-01
        1   -1    0    0  501    0  0.00000000000E+00  0.00000000000E+00  0.39712133617E+03  0.39712133620E+03  0.50400001928E-02 0.  1.
       -1   -1    0    0    0  501  0.00000000000E+00  0.00000000000E+00 -0.50456181687E+03  0.50456181689E+03  0.50400001928E-02 0. -1.
    10030    2    1    2    0    0  0.00000000000E+00  0.00000000000E+00 -0.10744048070E+03  0.90168315309E+03  0.89525920921E+03 0.  0.
        4    1    3    3  502    0 -0.30348779972E+03  0.59970448451E+02 -0.37956813814E+03  0.48966813624E+03  0.12699999809E+01 0. -1.
       -4    1    3    3    0  502  0.30348779972E+03 -0.59970448451E+02  0.27212765744E+03  0.41201501685E+03  0.12699999809E+01 0.  1.
</event>
<event>
 5   0  0.6015709E-03  0.9011417E+03  0.7818609E-02  0.9424155E-01
        1   -1    0    0  501    0  0.00000000000E+00  0.00000000000E+00  0.11746696277E+04  0.11746696277E+04  0.50400001928E-02 0.  1.
       -1   -1    0    0    0  501  0.00000000000E+00  0.00000000000E+00 -0.17282654015E+03  0.17282654023E+03  0.50400001928E-02 0. -1.
    10030    2    1    2    0    0  0.00000000000E+00  0.00000000000E+00  0.10018430875E+04  0.13474961679E+04  0.90114169281E+03 0.  0.
        3    1    3    3  502    0 -0.24907157923E+03  0.23364781215E+03  0.94041908910E+03  0.10005078835E+04  0.10100000352E+00 0.  1.
       -3    1    3    3    0  502  0.24907157923E+03 -0.23364781215E+03  0.61423998421E+02  0.34698828436E+03  0.10100000352E+00 0. -1.
</event>
<event>
 5   0  0.6211218E-03  0.9048150E+03  0.7818609E-02  0.9419582E-01
        1   -1    0    0  501    0  0.00000000000E+00  0.00000000000E+00  0.27349865153E+03  0.27349865158E+03  0.50400001928E-02 0.  1.
       -1   -1    0    0    0  501  0.00000000000E+00  0.00000000000E+00 -0.74834938590E+03  0.74834938592E+03  0.50400001928E-02 0. -1.
    10030    2    1    2    0    0  0.00000000000E+00  0.00000000000E+00 -0.47485073437E+03  0.10218480375E+04  0.90481500419E+03 0.  0.
        5    1    3    3  502    0 -0.22176557325E+03  0.23551272088E+03  0.11971237034E+03  0.34496282813E+03  0.46999998093E+01 0.  1.
       -5    1    3    3    0  502  0.22176557325E+03 -0.23551272088E+03 -0.59456310472E+03  0.67688520937E+03  0.46999998093E+01 0. -1.
</event>
<event>
 5   0  0.1028978E-02  0.9079485E+03  0.7818609E-02  0.9415700E-01
       -2   -1    0    0    0  501  0.00000000000E+00  0.00000000000E+00  0.22563925599E+03  0.22563925601E+03  0.25500000920E-02 0.  1.
        2   -1    0    0  501    0  0.00000000000E+00  0.00000000000E+00 -0.91337220028E+03  0.91337220028E+03  0.25500000920E-02 0. -1.
    10030    2    1    2    0    0  0.00000000000E+00  0.00000000000E+00 -0.68773294429E+03  0.11390114563E+04  0.90794850895E+03 0.  0.
        3    1    3    3  502    0  0.17958952535E+03  0.22554247441E+02 -0.86614918054E+03  0.88485903105E+03  0.10100000352E+00 0. -1.
       -3    1    3    3    0  502 -0.17958952535E+03 -0.22554247441E+02  0.17841623625E+03  0.25415242524E+03  0.10100000352E+00 0.  1.
</event>
<event>
 5   0  0.6288003E-03  0.9017943E+03  0.7818609E-02  0.9423341E-01
       -1   -1    0    0    0  501  0.00000000000E+00  0.00000000000E+00  0.96896360622E+03  0.96896360623E+03  0.50400001928E-02 0. -1.
        1   -1    0    0  501    0  0.00000000000E+00  0.00000000000E+00 -0.20982028971E+03  0.20982028977E+03  0.50400001928E-02 0.  1.
    10030    2    1    2    0    0  0.00000000000E+00  0.00000000000E+00  0.75914331651E+03  0.11787838960E+04  0.90179426615E+03 0.  0.
        1    1    3    3  502    0  0.43729512736E+03  0.15148062971E+02  0.23726748309E+03  0.49774727602E+03  0.50400001928E-02 0.  1.
       -1    1    3    3    0  502 -0.43729512736E+03 -0.15148062971E+02  0.52187583342E+03  0.68103661998E+03  0.50400001928E-02 0. -1.
</event>
<event>
 5   0  0.1017079E-02  0.9063595E+03  0.7818609E-02  0.9417666E-01
       -2   -1    0    0    0  501  0.00000000000E+00  0.00000000000E+00  0.25834156868E+03  0.25834156869E+03  0.25500000920E-02 0. -1.
        2   -1    0    0  501    0  0.00000000000E+00  0.00000000000E+00 -0.79496260969E+03  0.79496260969E+03  0.25500000920E-02 0.  1.
    10030    2    1    2    0    0  0.00000000000E+00  0.00000000000E+00 -0.53662104101E+03  0.10533041784E+04  0.90635950403E+03 0.  0.
        1    1    3    3  502    0  0.40262252786E+03 -0.16261245387E+03 -0.11757339299E+03  0.44985688042E+03  0.50400001928E-02 0. -1.
       -1    1    3    3    0  502 -0.40262252786E+03  0.16261245387E+03 -0.41904764802E+03  0.60344729797E+03  0.50400001928E-02 0.  1.
</event>
<event>
 5   0  0.6015709E-03  0.9015401E+03  0.7818609E-02  0.9423658E-01
       -1   -1    0    0    0  501  0.00000000000E+00  0.00000000000E+00  0.48274694368E+03  0.48274694371E+03  0.50400001928E-02 0. -1.
        1   -1    0    0  501    0  0.00000000000E+00  0.00000000000E+00 -0.42091128161E+03  0.42091128164E+03  0.50400001928E-02 0.  1.
    10030    2    1    2    0    0  0.00000000000E+00  0.00000000000E+00  0.61835662070E+02  0.90365822534E+03  0.90154009291E+03 0.  0.
        3    1    3    3  502    0 -0.22887833578E+02  0.47761665199E+02 -0.41778174677E+03  0.42112542992E+03  0.10100000352E+00 0.  1.
       -3    1    3    3    0  502  0.22887833578E+02 -0.47761665199E+02  0.47961740885E+03  0.48253279542E+03  0.10100000352E+00 0. -1.
</event>
<event>
 5   0  0.6092779E-03  0.8993615E+03  0.7818609E-02  0.9426380E-01
        1   -1    0    0  501    0  0.00000000000E+00  0.00000000000E+00  0.11227216926E+04  0.11227216926E+04  0.50400001928E-02 0. -1.
       -1   -1    0    0    0  501  0.00000000000E+00  0.00000000000E+00 -0.18010944611E+03  0.18010944618E+03  0.50400001928E-02 0.  1.
    10030    2    1    2    0    0  0.00000000000E+00  0.00000000000E+00  0.94261224646E+03  0.13028311388E+04  0.89936151184E+03 0.  0.
        2    1    3    3  502    0  0.20705153843E+03  0.35530920053E+03  0.20776190550E+03  0.46073851253E+03  0.25500000920E-02 0.  1.
       -2    1    3    3    0  502 -0.20705153843E+03 -0.35530920053E+03  0.73485034096E+03  0.84209262623E+03  0.25500000920E-02 0. -1.
</event>
<event>
 5   0  0.6211218E-03  0.9030863E+03  0.7818609E-02  0.9421732E-01
       -1   -1    0    0    0  501  0.00000000000E+00  0.00000000000E+00  0.69732565664E+03  0.69732565666E+03  0.50400001928E-02 0.  1.
        1   -1    0    0  501    0  0.00000000000E+00  0.00000000000E+00 -0.29239023340E+03  0.29239023345E+03  0.50400001928E-02 0. -1.
    10030    2    1    2    0    0  0.00000000000E+00  0.00000000000E+00  0.40493542324E+03  0.98971589011E+03  0.90308628942E+03 0.  0.
        5    1    3    3  502    0 -0.12989667917E+03  0.30662858585E+03  0.53663514124E+03  0.63158024172E+03  0.46999998093E+01 0.  1.
       -5    1    3    3    0  502  0.12989667917E+03 -0.30662858585E+03 -0.13169971800E+03  0.35813564838E+03  0.46999998093E+01 0. -1.
</event>
<event>
 5   0  0.1033749E-02  0.9131351E+03  0.7818609E-02  0.9409309E-01
       -2   -1    0    0    0  501  0.00000000000E+00  0.00000000000E+00  0.12080609066E+03  0.12080609068E+03  0.25500000920E-02 0. -1.
        2   -1    0    0  501    0  0.00000000000E+00  0.00000000000E+00 -0.17255248565E+04  0.17255248565E+04  0.25500000920E-02 0.  1.
    10030    2    1    2    0    0  0.00000000000E+00  0.00000000000E+00 -0.16047187658E+04  0.18463309472E+04  0.91313506616E+03 0.  0.
        5    1    3    3  502    0 -0.26639848734E+03 -0.34399653377E+03 -0.52269792686E+03  0.68010071463E+03  0.46999998093E+01 0. -1.
       -5    1    3    3    0  502  0.26639848734E+03  0.34399653377E+03 -0.10820208390E+04  0.11662302325E+04  0.46999998093E+01 0.  1.
</event>
<event>
 5   0  0.1033749E-02  0.9043719E+03  0.7818609E-02  0.9420133E-01
        2   -1    0    0  501    0  0.00000000000E+00  0.00000000000E+00  0.81469655025E+03  0.81469655026E+03  0.25500000920E-02 0.  1.
       -2   -1    0    0    0  501  0.00000000000E+00  0.00000000000E+00 -0.25097951286E+03  0.25097951287E+03  0.25500000920E-02 0. -1.
    10030    2    1    2    0    0  0.00000000000E+00  0.00000000000E+00  0.56371703739E+03  0.10656760631E+04  0.90437192199E+03 0.  0.
        5    1    3    3  502    0  0.55259141136E+02 -0.19284694823E+03  0.75935850041E+03  0.78542405124E+03  0.46999998093E+01 0.  1.
       -5    1    3    3    0  502 -0.55259141136E+02  0.19284694823E+03 -0.19564146302E+03  0.28025201189E+03  0.46999998093E+01 0. -1.
</event>
<event>
 5   0  0.1033749E-02  0.8995968E+03  0.7818609E-02  0.9426086E-01
       -2   -1    0    0    0  501  0.00000000000E+00  0.00000000000E+00  0.17813990187E+03  0.17813990189E+03  0.25500000920E-02 0.  1.
        2   -1    0    0  501    0  0.00000000000E+00  0.00000000000E+00 -0.11357286807E+04  0.11357286807E+04  0.25500000920E-02 0. -1.
    10030    2    1    2    0    0  0.00000000000E+00  0.00000000000E+00 -0.95758877885E+03  0.13138685826E+04  0.89959678913E+03 0.  0.
        5    1    3    3  502    0 -0.25033152253E+03  0.37036053326E+03 -0.55128784859E+03  0.70976980618E+03  0.46999998093E+01 0.  1.
       -5    1    3    3    0  502  0.25033152253E+03 -0.37036053326E+03 -0.40630093026E+03  0.60409877643E+03  0.46999998093E+01 0. -1.
</event>
<event>
 5   0  0.6137243E-03  0.9045811E+03  0.7818609E-02  0.9419873E-01
        1   -1    0    0  501    0  0.00000000000E+00  0.00000000000E+00  0.40254411247E+03  0.40254411250E+03  0.50400001928E-02 0. -1.
       -1   -1    0    0    0  501  0.00000000000E+00  0.00000000000E+00 -0.50818461649E+03  0.50818461651E+03  0.50400001928E-02 0.  1.
    10030    2    1    2    0    0  0.00000000000E+00  0.00000000000E+00 -0.10564050402E+03  0.91072872901E+03  0.90458106422E+03 0.  0.
        4    1    3    3  502    0 -0.41811468586E+03 -0.61899456980E+02  0.10925103602E+03  0.43656481200E+03  0.12699999809E+01 0. -1.
       -4    1    3    3    0  502  0.41811468586E+03  0.61899456980E+02 -0.21489154004E+03  0.47416391700E+03  0.12699999809E+01 0.  1.
</event>
<event>
 5   0  0.1003252E-02  0.9229403E+03  0.7818609E-02  0.9397351E-01
        2   -1    0    0  501    0  0.00000000000E+00  0.00000000000E+00  0.36832567596E+03  0.36832567597E+03  0.25500000920E-02 0. -1.
       -2   -1    0    0    0  501  0.00000000000E+00  0.00000000000E+00 -0.57816954713E+03  0.57816954714E+03  0.25500000920E-02 0.  1.
    10030    2    1    2    0    0  0.00000000000E+00  0.00000000000E+00 -0.20984387117E+03  0.94649522311E+03  0.92294027819E+03 0.  0.
        2    1    3    3  502    0  0.23464111804E+03  0.27574879306E+03  0.18849347532E+03  0.40819559208E+03  0.25500000920E-02 0. -1.
       -2    1    3    3    0  502 -0.23464111804E+03 -0.27574879306E+03 -0.39833734649E+03  0.53829963103E+03  0.25500000920E-02 0.  1.
</event>
<event>
 5   0  0.1028978E-02  0.8925231E+03  0.7818609E-02  0.9434976E-01
        2   -1    0    0  501    0  0.00000000000E+00  0.00000000000E+00  0.14338962625E+04  0.14338962625E+04  0.25500000920E-02 0.  1.
       -2   -1    0    0    0  501  0.00000000000E+00  0.00000000000E+00 -0.13888687864E+03  0.13888687866E+03  0.25500000920E-02 0. -1.
    10030    2    1    2    0    0  0.00000000000E+00  0.00000000000E+00  0.12950093838E+04  0.15727831411E+04  0.89252311164E+03 0.  0.
        3    1    3    3  502    0  0.20281799394E+03 -0.43676084940E+02 -0.48737029550E+02  0.21311510344E+03  0.10100000352E+00 0. -1.
       -3    1    3    3    0  502 -0.20281799394E+03  0.43676084940E+02  0.13437464134E+04  0.13596680377E+04  0.10100000352E+00 0.  1.
</event>
<event>
 5   0  0.6288003E-03  0.8926649E+03  0.7818609E-02  0.9434797E-01
       -1   -1    0    0    0  501  0.00000000000E+00  0.00000000000E+00  0.18655759229E+03  0.18655759236E+03  0.50400001928E-02 0.  1.
        1   -1    0    0  501    0  0.00000000000E+00  0.00000000000E+00 -0.10678346101E+04  0.10678346101E+04  0.50400001928E-02 0. -1.
    10030    2    1    2    0    0  0.00000000000E+00  0.00000000000E+00 -0.88127701784E+03  0.12543922025E+04  0.89266489542E+03 0.  0.
        1    1    3    3  502    0  0.32433011268E+03 -0.64054477294E+02 -0.19260169442E+02  0.33115548041E+03  0.50400001928E-02 0.  1.
       -1    1    3    3    0  502 -0.32433011268E+03  0.64054477294E+02 -0.86201684840E+03  0.92323672208E+03  0.50400001928E-02 0. -1.
</event>
<event>
 5   0  0.1028978E-02  0.9094263E+03  0.7818609E-02  0.9413874E-01
       -2   -1    0    0    0  501  0.00000000000E+00  0.00000000000E+00  0.35113462761E+03  0.35113462762E+03  0.25500000920E-02 0. -1.
        2   -1    0    0  501    0  0.00000000000E+00  0.00000000000E+00 -0.58884545676E+03  0.58884545676E+03  0.25500000920E-02 0.  1.
    10030    2    1    2    0    0  0.00000000000E+00  0.00000000000E+00 -0.23771082915E+03  0.93998008438E+03  0.90942625910E+03 0.  0.
        3    1    3    3  502    0  0.44187212568E+03  0.93293985106E+02 -0.64072083705E+02  0.45613592845E+03  0.10100000352E+00 0. -1.
       -3    1    3    3    0  502 -0.44187212568E+03 -0.93293985106E+02 -0.17363874544E+03  0.48384415593E+03  0.10100000352E+00 0.  1.
</event>
<event>
 5   0  0.6137243E-03  0.8940140E+03  0.7818609E-02  0.9433095E-01
       -1   -1    0    0    0  501  0.00000000000E+00  0.00000000000E+00  0.61639342387E+03  0.61639342389E+03  0.50400001928E-02 0. -1.
        1   -1    0    0  501    0  0.00000000000E+00  0.00000000000E+00 -0.32416839811E+03  0.32416839815E+03  0.50400001928E-02 0.  1.
    10030    2    1    2    0    0  0.00000000000E+00  0.00000000000E+00  0.29222502576E+03  0.94056182204E+03  0.89401402416E+03 0.  0.
        4    1    3    3  502    0 -0.28044358155E+03 -0.13257771741E+03  0.48472125252E+03  0.57548393473E+03  0.12699999809E+01 0. -1.
       -4    1    3    3    0  502  0.28044358155E+03  0.13257771741E+03 -0.19249622676E+03  0.36507788731E+03  0.12699999809E+01 0.  1.
</event>
<event>
 5   0  0.1033749E-02  0.8851853E+03  0.7818609E-02  0.9444292E-01
       -2   -1    0    0    0  501  0.00000000000E+00  0.00000000000E+00  0.31935650010E+03  0.31935650011E+03  0.25500000920E-02 0.  1.
        2   -1    0    0  501    0  0.00000000000E+00  0.00000000000E+00 -0.61338420213E+03  0.61338420213E+03  0.25500000920E-02 0. -1.
    10030    2    1    2    0    0  0.00000000000E+00  0.00000000000E+00 -0.29402770203E+03  0.93274070224E+03  0.88518525070E+03 0.  0.
        5    1    3    3  502    0  0.29562361586E+03 -0.25299029166E+03  0.75191305537E+02  0.39632465525E+03  0.46999998093E+01 0.  1.
       -5    1    3    3    0  502 -0.29562361586E+03  0.25299029166E+03 -0.36921900757E+03  0.53641604700E+03  0.46999998093E+01 0. -1.
</event>
<event>
 5   0  0.6015709E-03  0.9062184E+03  0.7818609E-02  0.9417841E-01
       -1   -1    0    0    0  501  0.00000000000E+00  0.00000000000E+00  0.29002697618E+03  0.29002697622E+03  0.50400001928E-02 0. -1.
        1   -1    0    0  501    0  0.00000000000E+00  0.00000000000E+00 -0.70789253199E+03  0.70789253201E+03  0.50400001928E-02 0.  1.
    10030    2    1    2    0    0  0.00000000000E+00  0.00000000000E+00 -0.41786555581E+03  0.99791950823E+03  0.90621836340E+03 0.  0.
        3    1    3    3  502    0  0.14651860795E+03  0.10729655088E+03  0.24819768130E+03  0.30754243855E+03  0.10100000352E+00 0. -1.
       -3    1    3    3    0  502 -0.14651860795E+03 -0.10729655088E+03 -0.66606323711E+03  0.69037706968E+03  0.10100000352E+00 0.  1.
</event>
<event>
 5   0  0.1003252E-02  0.8962780E+03  0.7818609E-02  0.9430246E-01
       -2   -1    0    0    0  501  0.00000000000E+00  0.00000000000E+00  0.18234337798E+03  0.18234337800E+03  0.25500000920E-02 0. -1.
        2   -1    0    0  501    0  0.00000000000E+00  0.00000000000E+00 -0.11013755989E+04  0.11013755989E+04  0.25500000920E-02 0.  1.
    10030    2    1    2    0    0  0.00000000000E+00  0.00000000000E+00 -0.91903222087E+03  0.12837189769E+04  0.89627796388E+03 0.  0.
        2    1    3    3  502    0  0.34952676584E+03  0.19122810369E+03 -0.16566730800E+03  0.43148905505E+03  0.25500000920E-02 0. -1.
       -2    1    3    3    0  502 -0.34952676584E+03 -0.19122810369E+03 -0.75336491287E+03  0.85222992181E+03  0.25500000920E-02 0.  1.
</event>
<event>
 5   0  0.6211218E-03  0.9051469E+03  0.7818609E-02  0.9419170E-01
        1   -1    0    0  501    0  0.00000000000E+00  0.00000000000E+00  0.78326725418E+03  0.78326725419E+03  0.50400001928E-02 0. -1.
       -1   -1    0    0    0  501  0.00000000000E+00  0.00000000000E+00 -0.26149788476E+03  0.26149788481E+03  0.50400001928E-02 0.  1.
    10030    2    1    2    0    0  0.00000000000E+00  0.00000000000E+00  0.52176936941E+03  0.10447651390E+04  0.90514690566E+03 0.  0.
        5    1    3    3  502    0 -0.38386992438E+03  0.16919349082E+03  0.45682876775E+03  0.62023960630E+03  0.46999998093E+01 0. -1.
       -5    1    3    3    0  502  0.38386992438E+03 -0.16919349082E+03  0.64940601664E+02  0.42452553271E+03  0.46999998093E+01 0.  1.
</event>
<event>
 5   0  0.6092779E-03  0.9039337E+03  0.7818609E-02  0.9420677E-01
       -1   -1    0    0    0  501  0.00000000000E+00  0.00000000000E+00  0.25488594177E+03  0.25488594182E+03  0.50400001928E-02 0. -1.
        1   -1    0    0  501    0  0.00000000000E+00  0.00000000000E+00 -0.80143309795E+03  0.80143309796E+03  0.50400001928E-02 0.  1.
    10030    2    1    2    0    0  0.00000000000E+00  0.00000000000E+00 -0.54654715618E+03  0.10563190398E+04  0.90393369219E+03 0.  0.
        2    1    3    3  502    0  0.13638315068E+03  0.21227575700E+03 -0.71147195027E+03  0.75488654566E+03  0.25500000920E-02 0.  1.
       -2    1    3    3    0  502 -0.13638315068E+03 -0.21227575700E+03  0.16492479409E+03  0.30143249412E+03  0.25500000920E-02 0. -1.
</event>
<event>
 5   0  0.6211218E-03  0.9100805E+03  0.7818609E-02  0.9413067E-01
        1   -1    0    0  501    0  0.00000000000E+00  0.00000000000E+00  0.26399808843E+03  0.26399808848E+03  0.50400001928E-02 0.  1.
       -1   -1    0    0    0  501  0.00000000000E+00  0.00000000000E+00 -0.78433005560E+03  0.78433005562E+03  0.50400001928E-02 0. -1.
    10030    2    1    2    0    0  0.00000000000E+00  0.00000000000E+00 -0.52033196717E+03  0.10483281441E+04  0.91008051383E+03 0.  0.
        5    1    3    3  502    0 -0.16665356008E+03 -0.94601319698E+02 -0.73555164738E+03  0.76011915825E+03  0.46999998093E+01 0. -1.
       -5    1    3    3    0  502  0.16665356008E+03  0.94601319698E+02  0.21521968021E+03  0.28820898585E+03  0.46999998093E+01 0.  1.
</event>
<event>
 5   0  0.1033749E-02  0.8879973E+03  0.7818609E-02  0.9440711E-01
        2   -1    0    0  501    0  0.00000000000E+00  0.00000000000E+00  0.14681340901E+04  0.14681340901E+04  0.25500000920E-02 0.  1.
       -2   -1    0    0    0  501  0.00000000000E+00  0.00000000000E+00 -0.13427573519E+03  0.13427573521E+03  0.25500000920E-02 0. -1.
    10030    2    1    2    0    0  0.00000000000E+00  0.00000000000E+00  0.13338583549E+04  0.16024098253E+04  0.88799726198E+03 0.  0.
        5    1    3    3  502    0  0.30596409396E+03  0.26623659721E+03  0.99282760170E+03  0.10724852862E+04  0.46999998093E+01 0.  1.
       -5    1    3    3    0  502 -0.30596409396E+03 -0.26623659721E+03  0.34103075321E+03  0.52992453908E+03  0.46999998093E+01 0. -1.
</event>
<event>
 5   0  0.6211218E-03  0.9033959E+03  0.7818609E-02  0.9421346E-01
       -1   -1    0    0    0  501  0.00000000000E+00  0.00000000000E+00  0.20934533261E+03  0.20934533267E+03  0.50400001928E-02 0.  1.
        1   -1    0    0  501    0  0.00000000000E+00  0.00000000000E+00 -0.97461464181E+03  0.97461464182E+03  0.50400001928E-02 0. -1.
    10030    2    1    2    0    0  0.00000000000E+00  0.00000000000E+00 -0.76526930920E+03  0.11839599745E+04  0.90339587423E+03 0.  0.
        5    1    3    3  502    0  0.12231952459E+02  0.36941822746E+03 -0.42418446901E+02  0.37207641968E+03  0.46999998093E+01 0.  1.
       -5    1    3    3    0  502 -0.12231952459E+02 -0.36941822746E+03 -0.72285086230E+03  0.81188355481E+03  0.46999998093E+01 0. -1.
</event>
<event>
 5   0  0.1017079E-02  0.8942788E+03  0.7818609E-02  0.9432762E-01
        2   -1    0    0  501    0  0.00000000000E+00  0.00000000000E+00  0.10570155248E+04  0.10570155248E+04  0.25500000920E-02 0. -1.
       -2   -1    0    0    0  501  0.00000000000E+00  0.00000000000E+00 -0.18914921584E+03  0.18914921585E+03  0.25500000920E-02 0.  1.
    10030    2    1    2    0    0  0.00000000000E+00  0.00000000000E+00  0.86786630900E+03  0.12461647407E+04  0.89427883272E+03 0.  0.
        1    1    3    3  502    0 -0.30938990995E+03  0.92076177831E+02  0.27770705243E+01  0.32281240845E+03  0.50400001928E-02 0.  1.
       -1    1    3    3    0  502  0.30938990995E+03 -0.92076177831E+02  0.86508923847E+03  0.92335233224E+03  0.50400001928E-02 0. -1.
</event>
<event>
 5   0  0.1033749E-02  0.8988983E+03  0.7818609E-02  0.9426960E-01
        2   -1    0    0  501    0  0.00000000000E+00  0.00000000000E+00  0.52363569701E+03  0.52363569702E+03  0.25500000920E-02 0.  1.
       -2   -1    0    0    0  501  0.00000000000E+00  0.00000000000E+00 -0.38577305850E+03  0.38577305851E+03  0.25500000920E-02 0. -1.
    10030    2    1    2    0    0  0.00000000000E+00  0.00000000000E+00  0.13786263851E+03  0.90940875553E+03  0.89889831323E+03 0.  0.
        5    1    3    3  502    0 -0.26432831533E+03 -0.13292366069E+03  0.41118304184E+03  0.50658833558E+03  0.46999998093E+01 0.  1.
       -5    1    3    3    0  502  0.26432831533E+03  0.13292366069E+03 -0.27332040333E+03  0.40282041995E+03  0.46999998093E+01 0. -1.
</event>
<event>
 5   0  0.1033749E-02  0.9036588E+03  0.7818609E-02  0.9421019E-01
        2   -1    0    0  501    0  0.00000000000E+00  0.00000000000E+00  0.62148019845E+03  0.62148019845E+03  0.25500000920E-02 0. -1.
       -2   -1    0    0    0  501  0.00000000000E+00  0.00000000000E+00 -0.32848964210E+03  0.32848964211E+03  0.25500000920E-02 0.  1.
    10030    2    1    2    0    0  0.00000000000E+00  0.00000000000E+00  0.29299055635E+03  0.94996984056E+03  0.90365880279E+03 0.  0.
        5    1    3    3  502    0  0.16576785473E+03  0.39928904104E+03  0.28443331753E+03  0.51752789498E+03  0.46999998093E+01 0. -1.
       -5    1    3    3    0  502 -0.16576785473E+03 -0.39928904104E+03  0.85572388177E+01  0.43244194558E+03  0.46999998093E+01 0.  1.
</event>
<event>
 5   0  0.6211218E-03  0.9033164E+03  0.7818609E-02  0.9421445E-01
        1   -1    0    0  501    0  0.00000000000E+00  0.00000000000E+00  0.94328476602E+03  0.94328476603E+03  0.50400001928E-02 0.  1.
       -1   -1    0    0    0  501  0.00000000000E+00  0.00000000000E+00 -0.21626037288E+03  0.21626037294E+03  0.50400001928E-02 0. -1.
    10030    2    1    2    0    0  0.00000000000E+00  0.00000000000E+00  0.72702439314E+03  0.11595451390E+04  0.90331636822E+03 0.  0.
        5    1    3    3  502    0 -0.33325205682E+03  0.22614074897E+03  0.10114256553E+03  0.41526916606E+03  0.46999998093E+01 0. -1.
       -5    1    3    3    0  502  0.33325205682E+03 -0.22614074897E+03  0.62588182762E+03  0.74427597291E+03  0.46999998093E+01 0.  1.
</event>
<event>
 5   0  0.6211218E-03  0.9005247E+03  0.7818609E-02  0.9424926E-01
        1   -1    0    0  501    0  0.00000000000E+00  0.00000000000E+00  0.15099425409E+04  0.15099425409E+04  0.50400001928E-02 0. -1.
       -1   -1    0    0    0  501  0.00000000000E+00  0.00000000000E+00 -0.13426746886E+03  0.13426746895E+03  0.50400001928E-02 0.  1.
    10030    2    1    2    0    0  0.00000000000E+00  0.00000000000E+00  0.13756750720E+04  0.16442100098E+04  0.90052465413E+03 0.  0.
        5    1    3    3  502    0  0.39787189379E+02  0.43921989127E+03  0.85334467617E+03  0.96058126136E+03  0.46999998093E+01 0. -1.
       -5    1    3    3    0  502 -0.39787189379E+02 -0.43921989127E+03  0.52233039585E+03  0.68362874848E+03  0.46999998093E+01 0.  1.
</event>
<event>
 5   0  0.1033749E-02  0.8096728E+03  0.7818609E-02  0.9546121E-01
       -2   -1    0    0    0  501  0.00000000000E+00  0.00000000000E+00  0.35892072544E+03  0.35892072545E+03  0.25500000920E-02 0.  1.
        2   -1    0    0  501    0  0.00000000000E+00  0.00000000000E+00 -0.45662590114E+03  0.45662590115E+03  0.25500000920E-02 0. -1.
    10030    2    1    2    0    0  0.00000000000E+00  0.00000000000E+00 -0.97705175704E+02  0.81554662659E+03  0.80967277266E+03 0.  0.
        5    1    3    3  502    0 -0.74911321827E+01 -0.29524222061E+03 -0.32771175452E+03  0.44118156120E+03  0.46999998093E+01 0. -1.
       -5    1    3    3    0  502  0.74911321827E+01  0.29524222061E+03  0.23000657881E+03  0.37436506540E+03  0.46999998093E+01 0.  1.
</event>
<event>
 5   0  0.6092779E-03  0.9036960E+03  0.7818609E-02  0.9420973E-01
       -1   -1    0    0    0  501  0.00000000000E+00  0.00000000000E+00  0.60366522023E+03  0.60366522025E+03  0.50400001928E-02 0.  1.
        1   -1    0    0  501    0  0.00000000000E+00  0.00000000000E+00 -0.33821164144E+03  0.33821164148E+03  0.50400001928E-02 0. -1.
    10030    2    1    2    0    0  0.00000000000E+00  0.00000000000E+00  0.26545357879E+03  0.94187686173E+03  0.90369597773E+03 0.  0.
        2    1    3    3  502    0  0.28271437014E+03  0.43432706595E+02 -0.23184135455E+03  0.36819047893E+03  0.25500000920E-02 0. -1.
       -2    1    3    3    0  502 -0.28271437014E+03 -0.43432706595E+02  0.49729493334E+03  0.57368638281E+03  0.25500000920E-02 0.  1.
</event>
<event>
 5   0  0.1017079E-02  0.8683433E+03  0.7818609E-02  0.9466043E-01
       -2   -1    0    0    0  501  0.00000000000E+00  0.00000000000E+00  0.15151567793E+03  0.15151567795E+03  0.25500000920E-02 0.  1.
        2   -1    0    0  501    0  0.00000000000E+00  0.00000000000E+00 -0.12441288906E+04  0.12441288906E+04  0.25500000920E-02 0. -1.
    10030    2    1    2    0    0  0.00000000000E+00  0.00000000000E+00 -0.10926132127E+04  0.13956445685E+04  0.86834332451E+03 0.  0.
        1    1    3    3  502    0  0.24928771327E+03 -0.92173650496E+02 -0.10980983684E+04  0.11298054578E+04  0.50400001928E-02 0. -1.
       -1    1    3    3    0  502 -0.24928771327E+03  0.92173650496E+02  0.54851557239E+01  0.26583911073E+03  0.50400001928E-02 0.  1.
</event>
<event>
 5   0  0.6211218E-03  0.8789032E+03  0.7818609E-02  0.9452345E-01
        1   -1    0    0  501    0  0.00000000000E+00  0.00000000000E+00  0.11791495058E+04  0.11791495058E+04  0.50400001928E-02 0.  1.
       -1   -1    0    0    0  501  0.00000000000E+00  0.00000000000E+00 -0.16377710137E+03  0.16377710145E+03  0.50400001928E-02 0. -1.
    10030    2    1    2    0    0  0.00000000000E+00  0.00000000000E+00  0.10153724044E+04  0.13429266073E+04  0.87890315326E+03 0.  0.
        5    1    3    3  502    0 -0.15290576025E+03 -0.12562534919E+03  0.11071709080E+04  0.11247272600E+04  0.46999998093E+01 0.  1.
       -5    1    3    3    0  502  0.15290576025E+03  0.12562534919E+03 -0.91798503588E+02  0.21819934724E+03  0.46999998093E+01 0. -1.
</event>
<event>
 5   0  0.6288003E-03  0.8676060E+03  0.7818609E-02  0.9467007E-01
        1   -1    0    0  501    0  0.00000000000E+00  0.00000000000E+00  0.10738608178E+04  0.10738608178E+04  0.50400001928E-02 0.  1.
       -1   -1    0    0    0  501  0.00000000000E+00  0.00000000000E+00 -0.17524155550E+03  0.17524155557E+03  0.50400001928E-02 0. -1.
    10030    2    1    2    0    0  0.00000000000E+00  0.00000000000E+00  0.89861926226E+03  0.12491023733E+04  0.86760599387E+03 0.  0.
        1    1    3    3  502    0  0.11699843000E+03 -0.33025826578E+03  0.81756602336E+03  0.88947926188E+03  0.50400001928E-02 0. -1.
       -1    1    3    3    0  502 -0.11699843000E+03  0.33025826578E+03  0.81053238900E+02  0.35962311147E+03  0.50400001928E-02 0.  1.
</event>
<event>
 5   0  0.6288003E-03  0.8966323E+03  0.7818609E-02  0.9429801E-01
        1   -1    0    0  501    0  0.00000000000E+00  0.00000000000E+00  0.31051351851E+03  0.31051351855E+03  0.50400001928E-02 0. -1.
       -1   -1    0    0    0  501  0.00000000000E+00  0.00000000000E+00 -0.64727407808E+03  0.64727407810E+03  0.50400001928E-02 0.  1.
    10030    2    1    2    0    0  0.00000000000E+00  0.00000000000E+00 -0.33676055956E+03  0.95778759665E+03  0.89663225785E+03 0.  0.
        1    1    3    3  502    0 -0.45839958870E+02  0.27712750825E+03  0.20485997923E+03  0.34766157219E+03  0.50400001928E-02 0. -1.
       -1    1    3    3    0  502  0.45839958870E+02 -0.27712750825E+03 -0.54162053879E+03  0.61012602446E+03  0.50400001928E-02 0.  1.
</event>
<event>
 5   0  0.6137243E-03  0.8726301E+03  0.7818609E-02  0.9460457E-01
        1   -1    0    0  501    0  0.00000000000E+00  0.00000000000E+00  0.39120794950E+03  0.39120794954E+03  0.50400001928E-02 0. -1.
       -1   -1    0    0    0  501  0.00000000000E+00  0.00000000000E+00 -0.48662312397E+03  0.48662312400E+03  0.50400001928E-02 0.  1.
    10030    2    1    2    0    0  0.00000000000E+00  0.00000000000E+00 -0.95415174468E+02  0.87783107353E+03  0.87263012677E+03 0.  0.
        4    1    3    3  502    0 -0.10820158369E+02 -0.41896975992E+03 -0.16974213876E+03  0.45217998864E+03  0.12699999809E+01 0. -1.
       -4    1    3    3    0  502  0.10820158369E+02  0.41896975992E+03  0.74326964290E+02  0.42565108490E+03  0.12699999809E+01 0.  1.
</event>
<event>
 5   0  0.1041727E-02  0.9107238E+03  0.7818609E-02  0.9412275E-01
        2   -1    0    0  501    0  0.00000000000E+00  0.00000000000E+00  0.12264089409E+04  0.12264089409E+04  0.25500000920E-02 0.  1.
       -2   -1    0    0    0  501  0.00000000000E+00  0.00000000000E+00 -0.16907449045E+03  0.16907449047E+03  0.25500000920E-02 0. -1.
    10030    2    1    2    0    0  0.00000000000E+00  0.00000000000E+00  0.10573344505E+04  0.13954834314E+04  0.91072381496E+03 0.  0.
        4    1    3    3  502    0 -0.10564456728E+03 -0.20231973018E+03 -0.75095242738E+02  0.24028099425E+03  0.12699999809E+01 0. -1.
       -4    1    3    3    0  502  0.10564456728E+03  0.20231973018E+03  0.11324296932E+04  0.11552024372E+04  0.12699999809E+01 0.  1.
</event>
<event>
 5   0  0.1028978E-02  0.9558963E+03  0.7818609E-02  0.9358285E-01
        2   -1    0    0  501    0  0.00000000000E+00  0.00000000000E+00  0.12237254188E+04  0.12237254188E+04  0.25500000920E-02 0. -1.
       -2   -1    0    0    0  501  0.00000000000E+00  0.00000000000E+00 -0.18667132721E+03  0.18667132723E+03  0.25500000920E-02 0.  1.
    10030    2    1    2    0    0  0.00000000000E+00  0.00000000000E+00  0.10370540916E+04  0.14103967460E+04  0.95589632928E+03 0.  0.
        3    1    3    3  502    0  0.25317127223E+02 -0.27919831029E+03  0.10896728250E+04  0.11251575575E+04  0.10100000352E+00 0. -1.
       -3    1    3    3    0  502 -0.25317127223E+02  0.27919831029E+03 -0.52618733382E+02  0.28523918858E+03  0.10100000352E+00 0.  1.
</event>
<event>
 5   0  0.6137243E-03  0.9032724E+03  0.7818609E-02  0.9421500E-01
        1   -1    0    0  501    0  0.00000000000E+00  0.00000000000E+00  0.48165517093E+03  0.48165517096E+03  0.50400001928E-02 0.  1.
       -1   -1    0    0    0  501  0.00000000000E+00  0.00000000000E+00 -0.42348814764E+03  0.42348814767E+03  0.50400001928E-02 0. -1.
    10030    2    1    2    0    0  0.00000000000E+00  0.00000000000E+00  0.58167023292E+02  0.90514331862E+03  0.90327239781E+03 0.  0.
        4    1    3    3  502    0  0.42024145274E+03  0.16238937094E+03 -0.26120020733E+01  0.45053481758E+03  0.12699999809E+01 0. -1.
       -4    1    3    3    0  502 -0.42024145274E+03 -0.16238937094E+03  0.60779025365E+02  0.45460850104E+03  0.12699999809E+01 0.  1.
</event>
<event>
 5   0  0.1033749E-02  0.8904600E+03  0.7818609E-02  0.9437586E-01
        2   -1    0    0  501    0  0.00000000000E+00  0.00000000000E+00  0.17092895286E+04  0.17092895286E+04  0.25500000920E-02 0.  1.
       -2   -1    0    0    0  501  0.00000000000E+00  0.00000000000E+00 -0.11597201910E+03  0.11597201913E+03  0.25500000920E-02 0. -1.
    10030    2    1    2    0    0  0.00000000000E+00  0.00000000000E+00  0.15933175095E+04  0.18252615478E+04  0.89046001122E+03 0.  0.
        5    1    3    3  502    0  0.54532229470E+02  0.12233579229E+03  0.16669604565E+04  0.16723393984E+04  0.46999998093E+01 0.  1.
       -5    1    3    3    0  502 -0.54532229470E+02 -0.12233579229E+03 -0.73642946938E+02  0.15292214933E+03  0.46999998093E+01 0. -1.
</event>
<event>
 5   0  0.1028978E-02  0.8698770E+03  0.7818609E-02  0.9464040E-01
        2   -1    0    0  501    0  0.00000000000E+00  0.00000000000E+00  0.15736368873E+04  0.15736368873E+04  0.25500000920E-02 0. -1.
       -2   -1    0    0    0  501  0.00000000000E+00  0.00000000000E+00 -0.12021294217E+03  0.12021294220E+03  0.25500000920E-02 0.  1.
    10030    2    1    2    0    0  0.00000000000E+00  0.00000000000E+00  0.14534239451E+04  0.16938498295E+04  0.86987704913E+03 0.  0.
        3    1    3    3  502    0  0.20601842891E+03  0.34646269530E+03  0.10448412699E+04  0.11198987820E+04  0.10100000352E+00 0. -1.
       -3    1    3    3    0  502 -0.20601842891E+03 -0.34646269530E+03  0.40858267518E+03  0.57395104752E+03  0.10100000352E+00 0.  1.
</event>
<event>
 5   0  0.1041727E-02  0.9008044E+03  0.7818609E-02  0.9424576E-01
        2   -1    0    0  501    0  0.00000000000E+00  0.00000000000E+00  0.53136014800E+03  0.53136014801E+03  0.25500000920E-02 0.  1.
       -2   -1    0    0    0  501  0.00000000000E+00  0.00000000000E+00 -0.38177901583E+03  0.38177901584E+03  0.25500000920E-02 0. -1.
    10030    2    1    2    0    0  0.00000000000E+00  0.00000000000E+00  0.14958113218E+03  0.91313916385E+03  0.90080442797E+03 0.  0.
        4    1    3    3  502    0 -0.38969557208E+03 -0.76140150777E+02 -0.14072490955E+03  0.42126603771E+03  0.12699999809E+01 0. -1.
       -4    1    3    3    0  502  0.38969557208E+03  0.76140150777E+02  0.29030604172E+03  0.49187312614E+03  0.12699999809E+01 0.  1.
</event>
<event>
 5   0  0.1003252E-02  0.9045770E+03  0.7818609E-02  0.9419878E-01
        2   -1    0    0  501    0  0.00000000000E+00  0.00000000000E+00  0.34101675980E+03  0.34101675981E+03  0.25500000920E-02 0.  1.
       -2   -1    0    0    0  501  0.00000000000E+00  0.00000000000E+00 -0.59986755636E+03  0.59986755636E+03  0.25500000920E-02 0. -1.
    10030    2    1    2    0    0  0.00000000000E+00  0.00000000000E+00 -0.25885079656E+03  0.94088431617E+03  0.90457700697E+03 0.  0.
        2    1    3    3  502    0 -0.29219848230E+03 -0.14675696738E+03  0.19560267307E+03  0.38102226477E+03  0.25500000920E-02 0.  1.
       -2    1    3    3    0  502  0.29219848230E+03  0.14675696738E+03 -0.45445346963E+03  0.55986205140E+03  0.25500000920E-02 0. -1.
</event>
<event>
 5   0  0.1003252E-02  0.9150990E+03  0.7818609E-02  0.9406901E-01
        2   -1    0    0  501    0  0.00000000000E+00  0.00000000000E+00  0.71563303086E+03  0.71563303087E+03  0.25500000920E-02 0.  1.
       -2   -1    0    0    0  501  0.00000000000E+00  0.00000000000E+00 -0.29254035744E+03  0.29254035745E+03  0.25500000920E-02 0. -1.
    10030    2    1    2    0    0  0.00000000000E+00  0.00000000000E+00  0.42309267342E+03  0.10081733883E+04  0.91509899498E+03 0.  0.
        2    1    3    3  502    0 -0.11319602436E+03 -0.15418588972E+03  0.66947193930E+03  0.69626094680E+03  0.25500000920E-02 0.  1.
       -2    1    3    3    0  502  0.11319602436E+03  0.15418588972E+03 -0.24637926588E+03  0.31191244153E+03  0.25500000920E-02 0. -1.
</event>
<event>
 5   0  0.1003252E-02  0.8921744E+03  0.7818609E-02  0.9435417E-01
       -2   -1    0    0    0  501  0.00000000000E+00  0.00000000000E+00  0.22520331403E+03  0.22520331404E+03  0.25500000920E-02 0.  1.
        2   -1    0    0  501    0  0.00000000000E+00  0.00000000000E+00 -0.88361841191E+03  0.88361841191E+03  0.25500000920E-02 0. -1.
    10030    2    1    2    0    0  0.00000000000E+00  0.00000000000E+00 -0.65841509789E+03  0.11088217260E+04  0.89217441054E+03 0.  0.
        2    1    3    3  502    0 -0.26142341699E+03  0.25480611207E+02 -0.77732053800E+03  0.82049904528E+03  0.25500000920E-02 0. -1.
       -2    1    3    3    0  502  0.26142341699E+03 -0.25480611207E+02  0.11890544011E+03  0.28832268068E+03  0.25500000920E-02 0.  1.
</event>
<event>
 5   0  0.1028978E-02  0.9001682E+03  0.7818609E-02  0.9425371E-01
        2   -1    0    0  501    0  0.00000000000E+00  0.00000000000E+00  0.15542356020E+04  0.15542356020E+04  0.25500000920E-02 0. -1.
       -2   -1    0    0    0  501  0.00000000000E+00  0.00000000000E+00 -0.13033782986E+03  0.13033782989E+03  0.25500000920E-02 0.  1.
    10030    2    1    2    0    0  0.00000000000E+00  0.00000000000E+00  0.14238977722E+04  0.16845734319E+04  0.90016819648E+03 0.  0.
        3    1    3    3  502    0 -0.17142498170E+03  0.12111930528E+03 -0.33138687631E+02  0.21249610181E+03  0.10100000352E+00 0.  1.
       -3    1    3    3    0  502  0.17142498170E+03 -0.12111930528E+03  0.14570364598E+04  0.14720773301E+04  0.10100000352E+00 0. -1.
</event>
<event>
 5   0  0.1041727E-02  0.8500187E+03  0.7818609E-02  0.9490312E-01
        2   -1    0    0  501    0  0.00000000000E+00  0.00000000000E+00  0.12359595104E+04  0.12359595104E+04  0.25500000920E-02 0. -1.
       -2   -1    0    0    0  501  0.00000000000E+00  0.00000000000E+00 -0.14614794485E+03  0.14614794487E+03  0.25500000920E-02 0.  1.
    10030    2    1    2    0    0  0.00000000000E+00  0.00000000000E+00  0.10898115655E+04  0.13821074553E+04  0.85001868774E+03 0.  0.
        4    1    3    3  502    0  0.95234660988E+02 -0.41223835103E+03  0.61037478973E+03  0.74267697928E+03  0.12699999809E+01 0.  1.
       -4    1    3    3    0  502 -0.95234660988E+02  0.41223835103E+03  0.47943677581E+03  0.63943047598E+03  0.12699999809E+01 0. -1.
</event>
<event>
 5   0  0.1017079E-02  0.8824230E+03  0.7818609E-02  0.9447824E-01
        2   -1    0    0  501    0  0.00000000000E+00  0.00000000000E+00  0.51064550493E+03  0.51064550494E+03  0.25500000920E-02 0. -1.
       -2   -1    0    0    0  501  0.00000000000E+00  0.00000000000E+00 -0.38121868457E+03  0.38121868458E+03  0.25500000920E-02 0.  1.
    10030    2    1    2    0    0  0.00000000000E+00  0.00000000000E+00  0.12942682036E+03  0.89186418952E+03  0.88242304521E+03 0.  0.
        1    1    3    3  502    0 -0.43268026739E+03  0.57927922384E+02 -0.93407468229E-03  0.43654078619E+03  0.50400001928E-02 0.  1.
       -1    1    3    3    0  502  0.43268026739E+03 -0.57927922384E+02  0.12942775443E+03  0.45532340333E+03  0.50400001928E-02 0. -1.
</event>
<event>
 5   0  0.6288003E-03  0.9078732E+03  0.7818609E-02  0.9415793E-01
       -1   -1    0    0    0  501  0.00000000000E+00  0.00000000000E+00  0.68693959064E+03  0.68693959065E+03  0.50400001928E-02 0.  1.
        1   -1    0    0  501    0  0.00000000000E+00  0.00000000000E+00 -0.29996588323E+03  0.29996588328E+03  0.50400001928E-02 0. -1.
    10030    2    1    2    0    0  0.00000000000E+00  0.00000000000E+00  0.38697370740E+03  0.98690547393E+03  0.90787320935E+03 0.  0.
        1    1    3    3  502    0 -0.11420289451E+03  0.50136040260E+02 -0.28097436140E+03  0.30741261431E+03  0.50400001928E-02 0. -1.
       -1    1    3    3    0  502  0.11420289451E+03 -0.50136040260E+02  0.66794806880E+03  0.67949285963E+03  0.50400001928E-02 0.  1.
</event>
<event>
 5   0  0.6015709E-03  0.9114685E+03  0.7818609E-02  0.9411358E-01
        1   -1    0    0  501    0  0.00000000000E+00  0.00000000000E+00  0.25607363406E+03  0.25607363411E+03  0.50400001928E-02 0.  1.
       -1   -1    0    0    0  501  0.00000000000E+00  0.00000000000E+00 -0.81107025826E+03  0.81107025828E+03  0.50400001928E-02 0. -1.
    10030    2    1    2    0    0  0.00000000000E+00  0.00000000000E+00 -0.55499662420E+03  0.10671438924E+04  0.91146850422E+03 0.  0.
        3    1    3    3  502    0  0.29562612257E+03 -0.34643015792E+03 -0.25773162063E+03  0.52329175144E+03  0.10100000352E+00 0. -1.
       -3    1    3    3    0  502 -0.29562612257E+03  0.34643015792E+03 -0.29726500357E+03  0.54385214094E+03  0.10100000352E+00 0.  1.
</event>
<event>
 5   0  0.6288003E-03  0.9251141E+03  0.7818609E-02  0.9394721E-01
        1   -1    0    0  501    0  0.00000000000E+00  0.00000000000E+00  0.47595116245E+03  0.47595116248E+03  0.50400001928E-02 0. -1.
       -1   -1    0    0    0  501  0.00000000000E+00  0.00000000000E+00 -0.44953987160E+03  0.44953987163E+03  0.50400001928E-02 0.  1.
    10030    2    1    2    0    0  0.00000000000E+00  0.00000000000E+00  0.26411290848E+02  0.92549103411E+03  0.92511409995E+03 0.  0.
        1    1    3    3  502    0 -0.59428239476E+02  0.45450286091E+03 -0.48903933870E+02  0.46097305887E+03  0.50400001928E-02 0.  1.
       -1    1    3    3    0  502  0.59428239476E+02 -0.45450286091E+03  0.75315224718E+02  0.46451797525E+03  0.50400001928E-02 0. -1.
</event>
<event>
 5   0  0.1041727E-02  0.8993253E+03  0.7818609E-02  0.9426425E-01
       -2   -1    0    0    0  501  0.00000000000E+00  0.00000000000E+00  0.13004822610E+03  0.13004822613E+03  0.25500000920E-02 0. -1.
        2   -1    0    0  501    0  0.00000000000E+00  0.00000000000E+00 -0.15547810256E+04  0.15547810256E+04  0.25500000920E-02 0.  1.
    10030    2    1    2    0    0  0.00000000000E+00  0.00000000000E+00 -0.14247327995E+04  0.16848292517E+04  0.89932533464E+03 0.  0.
        4    1    3    3  502    0  0.12715037173E+03 -0.33522177533E+03 -0.20392913950E+03  0.41246765028E+03  0.12699999809E+01 0. -1.
       -4    1    3    3    0  502 -0.12715037173E+03  0.33522177533E+03 -0.12208036600E+04  0.12723616015E+04  0.12699999809E+01 0.  1.
</event>
<event>
 5   0  0.1003252E-02  0.9006878E+03  0.7818609E-02  0.9424722E-01
       -2   -1    0    0    0  501  0.00000000000E+00  0.00000000000E+00  0.25110778546E+03  0.25110778547E+03  0.25500000920E-02 0.  1.
        2   -1    0    0  501    0  0.00000000000E+00  0.00000000000E+00 -0.80765963423E+03  0.80765963423E+03  0.25500000920E-02 0. -1.
    10030    2    1    2    0    0  0.00000000000E+00  0.00000000000E+00 -0.55655184877E+03  0.10587674197E+04  0.90068778645E+03 0.  0.
        2    1    3    3  502    0 -0.29407010373E+03 -0.23416126705E+03  0.13243180040E+02  0.37614373146E+03  0.25500000920E-02 0.  1.
       -2    1    3    3    0  502  0.29407010373E+03  0.23416126705E+03 -0.56979502881E+03  0.68262368824E+03  0.25500000920E-02 0. -1.
</event>
<event>
 5   0  0.1003252E-02  0.9017388E+03  0.7818609E-02  0.9423410E-01
        2   -1    0    0  501    0  0.00000000000E+00  0.00000000000E+00  0.20927030544E+03  0.20927030545E+03  0.25500000920E-02 0.  1.
       -2   -1    0    0    0  501  0.00000000000E+00  0.00000000000E+00 -0.97139056963E+03  0.97139056963E+03  0.25500000920E-02 0. -1.
    10030    2    1    2    0    0  0.00000000000E+00  0.00000000000E+00 -0.76212026419E+03  0.11806608751E+04  0.90173876752E+03 0.  0.
        2    1    3    3  502    0  0.11222425561E+03  0.24201942171E+03  0.94846048588E+02  0.28313151886E+03  0.25500000920E-02 0.  1.
       -2    1    3    3    0  502 -0.11222425561E+03 -0.24201942171E+03 -0.85696631278E+03  0.89752935622E+03  0.25500000920E-02 0. -1.
</event>
<event>
 5   0  0.1017079E-02  0.9060664E+03  0.7818609E-02  0.9418030E-01
        2   -1    0    0  501    0  0.00000000000E+00  0.00000000000E+00  0.12243515243E+04  0.12243515243E+04  0.25500000920E-02 0.  1.
       -2   -1    0    0    0  501  0.00000000000E+00  0.00000000000E+00 -0.16763085972E+03  0.16763085974E+03  0.25500000920E-02 0. -1.
    10030    2    1    2    0    0  0.00000000000E+00  0.00000000000E+00  0.10567206646E+04  0.13919823841E+04  0.90606644049E+03 0.  0.
        1    1    3    3  502    0 -0.38368440378E+03 -0.19405004352E+03  0.74762505087E+03  0.86244556803E+03  0.50400001928E-02 0. -1.
       -1    1    3    3    0  502  0.38368440378E+03  0.19405004352E+03  0.30909561374E+03  0.52953681605E+03  0.50400001928E-02 0.  1.
</event>
<event>
 5   0  0.1033749E-02  0.9148896E+03  0.7818609E-02  0.9407158E-01
        2   -1    0    0  501    0  0.00000000000E+00  0.00000000000E+00  0.33410107997E+03  0.33410107998E+03  0.25500000920E-02 0.  1.
       -2   -1    0    0    0  501  0.00000000000E+00  0.00000000000E+00 -0.62632472544E+03  0.62632472544E+03  0.25500000920E-02 0. -1.
    10030    2    1    2    0    0  0.00000000000E+00  0.00000000000E+00 -0.29222364546E+03  0.96042580543E+03  0.91488964841E+03 0.  0.
        5    1    3    3  502    0  0.84949620709E+02  0.90638007053E+02 -0.60825252899E+03  0.62082599446E+03  0.46999998093E+01 0. -1.
       -5    1    3    3    0  502 -0.84949620709E+02 -0.90638007053E+02  0.31602888353E+03  0.33959981096E+03  0.46999998093E+01 0.  1.
</event>
<event>
 5   0  0.6092779E-03  0.8931266E+03  0.7818609E-02  0.9434214E-01
       -1   -1    0    0    0  501  0.00000000000E+00  0.00000000000E+00  0.10923947871E+03  0.10923947883E+03  0.50400001928E-02 0. -1.
        1   -1    0    0  501    0  0.00000000000E+00  0.00000000000E+00 -0.18255194303E+04  0.18255194303E+04  0.50400001928E-02 0.  1.
    10030    2    1    2    0    0  0.00000000000E+00  0.00000000000E+00 -0.17162799516E+04  0.19347589092E+04  0.89312662274E+03 0.  0.
        2    1    3    3  502    0 -0.15046340640E+03  0.32158372856E+02  0.50006276627E+02  0.16178388460E+03  0.25500000920E-02 0. -1.
       -2    1    3    3    0  502  0.15046340640E+03 -0.32158372856E+02 -0.17662862282E+04  0.17729750245E+04  0.25500000920E-02 0.  1.
</event>
<event>
 5   0  0.6015709E-03  0.9039538E+03  0.7818609E-02  0.9420652E-01
       -1   -1    0    0    0  501  0.00000000000E+00  0.00000000000E+00  0.25111184861E+03  0.25111184866E+03  0.50400001928E-02 0.  1.
        1   -1    0    0  501    0  0.00000000000E+00  0.00000000000E+00 -0.81351449028E+03  0.81351449030E+03  0.50400001928E-02 0. -1.
    10030    2    1    2    0    0  0.00000000000E+00  0.00000000000E+00 -0.56240264167E+03  0.10646263390E+04  0.90395382086E+03 0.  0.
        3    1    3    3  502    0 -0.33926987930E+02 -0.69308093410E+02 -0.80569889876E+03  0.80938580293E+03  0.10100000352E+00 0. -1.
       -3    1    3    3    0  502  0.33926987930E+02  0.69308093410E+02  0.24329625708E+03  0.25524053603E+03  0.10100000352E+00 0.  1.
</event>
<event>
 5   0  0.6288003E-03  0.9101770E+03  0.7818609E-02  0.9412948E-01
       -1   -1    0    0    0  501  0.00000000000E+00  0.00000000000E+00  0.19243616504E+03  0.19243616511E+03  0.50400001928E-02 0. -1.
        1   -1    0    0  501    0  0.00000000000E+00  0.00000000000E+00 -0.10762299472E+04  0.10762299472E+04  0.50400001928E-02 0.  1.
    10030    2    1    2    0    0  0.00000000000E+00  0.00000000000E+00 -0.88379378213E+03  0.12686661123E+04  0.91017704604E+03 0.  0.
        1    1    3    3  502    0 -0.18082775283E+02 -0.33682115475E+03 -0.16070773010E+02  0.33768883135E+03  0.50400001928E-02 0. -1.
       -1    1    3    3    0  502  0.18082775283E+02  0.33682115475E+03 -0.86772300912E+03  0.93097728094E+03  0.50400001928E-02 0.  1.
</event>
<event>
 5   0  0.6092779E-03  0.8779948E+03  0.7818609E-02  0.9453515E-01
        1   -1    0    0  501    0  0.00000000000E+00  0.00000000000E+00  0.45274867763E+03  0.45274867766E+03  0.50400001928E-02 0.  1.
       -1   -1    0    0    0  501  0.00000000000E+00  0.00000000000E+00 -0.42566375121E+03  0.42566375124E+03  0.50400001928E-02 0. -1.
    10030    2    1    2    0    0  0.00000000000E+00  0.00000000000E+00  0.27084926420E+02  0.87841242889E+03  0.87799476194E+03 0.  0.
        2    1    3    3  502    0 -0.16898790967E+03 -0.24851136195E+02  0.41814083528E+03  0.45168158112E+03  0.25500000920E-02 0.  1.
       -2    1    3    3    0  502  0.16898790967E+03  0.24851136195E+02 -0.39105590886E+03  0.42673084778E+03  0.25500000920E-02 0. -1.
</event>
<event>
 5   0  0.1028978E-02  0.8959149E+03  0.7818609E-02  0.9430702E-01
        2   -1    0    0  501    0  0.00000000000E+00  0.00000000000E+00  0.58204249532E+03  0.58204249532E+03  0.25500000920E-02 0.  1.
       -2   -1    0    0    0  501  0.00000000000E+00  0.00000000000E+00 -0.34476157942E+03  0.34476157943E+03  0.25500000920E-02 0. -1.
    10030    2    1    2    0    0  0.00000000000E+00  0.00000000000E+00  0.23728091590E+03  0.92680407475E+03  0.89591492895E+03 0.  0.
        3    1    3    3  502    0 -0.29812840730E+03 -0.27997879652E+03 -0.70409344998E+02  0.41500139735E+03  0.10100000352E+00 0. -1.
       -3    1    3    3    0  502  0.29812840730E+03  0.27997879652E+03  0.30769026090E+03  0.51180267740E+03  0.10100000352E+00 0.  1.
</event>
<event>
 5   0  0.6092779E-03  0.8975723E+03  0.7818609E-02  0.9428621E-01
       -1   -1    0    0    0  501  0.00000000000E+00  0.00000000000E+00  0.29891985692E+03  0.29891985696E+03  0.50400001928E-02 0. -1.
        1   -1    0    0  501    0  0.00000000000E+00  0.00000000000E+00 -0.67378926215E+03  0.67378926217E+03  0.50400001928E-02 0.  1.
    10030    2    1    2    0    0  0.00000000000E+00  0.00000000000E+00 -0.37486940523E+03  0.97270911913E+03  0.89757225863E+03 0.  0.
        2    1    3    3  502    0 -0.79797850561E+01 -0.41179592636E+03  0.57257717617E+01  0.41191303258E+03  0.25500000920E-02 0. -1.
       -2    1    3    3    0  502  0.79797850561E+01  0.41179592636E+03 -0.38059517699E+03  0.56079608656E+03  0.25500000920E-02 0.  1.
</event>
<event>
 5   0  0.1033749E-02  0.9036181E+03  0.7818609E-02  0.9421070E-01
       -2   -1    0    0    0  501  0.00000000000E+00  0.00000000000E+00  0.53783764950E+03  0.53783764951E+03  0.25500000920E-02 0. -1.
        2   -1    0    0  501    0  0.00000000000E+00  0.00000000000E+00 -0.37954097774E+03  0.37954097775E+03  0.25500000920E-02 0.  1.
    10030    2    1    2    0    0  0.00000000000E+00  0.00000000000E+00  0.15829667176E+03  0.91737862726E+03  0.90361812148E+03 0.  0.
        5    1    3    3  502    0 -0.40564726896E+03 -0.12243650383E+03 -0.79983412633E+02  0.43123061183E+03  0.46999998093E+01 0. -1.
       -5    1    3    3    0  502  0.40564726896E+03  0.12243650383E+03  0.23828008440E+03  0.48614801543E+03  0.46999998093E+01 0.  1.
</event>
<event>
 5   0  0.1017079E-02  0.9071657E+03  0.7818609E-02  0.9416668E-01
        2   -1    0    0  501    0  0.00000000000E+00  0.00000000000E+00  0.72633149675E+03  0.72633149675E+03  0.25500000920E-02 0.  1.
       -2   -1    0    0    0  501  0.00000000000E+00  0.00000000000E+00 -0.28325554395E+03  0.28325554396E+03  0.25500000920E-02 0. -1.
    10030    2    1    2    0    0  0.00000000000E+00  0.00000000000E+00  0.44307595280E+03  0.10095870407E+04  0.90716574716E+03 0.  0.
        1    1    3    3  502    0 -0.12270488247E+03  0.16006954459E+03 -0.23060553413E+03  0.30636197493E+03  0.50400001928E-02 0. -1.
       -1    1    3    3    0  502  0.12270488247E+03 -0.16006954459E+03  0.67368148692E+03  0.70322506578E+03  0.50400001928E-02 0.  1.
</event>
<event>
 5   0  0.6211218E-03  0.8960520E+03  0.7818609E-02  0.9430530E-01
       -1   -1    0    0    0  501  0.00000000000E+00  0.00000000000E+00  0.33744224892E+03  0.33744224896E+03  0.50400001928E-02 0.  1.
        1   -1    0    0  501    0  0.00000000000E+00  0.00000000000E+00 -0.59484939496E+03  0.59484939498E+03  0.50400001928E-02 0. -1.
    10030    2    1    2    0    0  0.00000000000E+00  0.00000000000E+00 -0.25740714604E+03  0.93229164394E+03  0.89605204678E+03 0.  0.
        5    1    3    3  502    0 -0.15497591263E+03 -0.19142410441E+03  0.26065666084E+03  0.35864286704E+03  0.46999998093E+01 0.  1.
       -5    1    3    3    0  502  0.15497591263E+03  0.19142410441E+03 -0.51806380687E+03  0.57364877690E+03  0.46999998093E+01 0. -1.
</event>
<event>
 5   0  0.6015709E-03  0.9064578E+03  0.7818609E-02  0.9417545E-01
       -1   -1    0    0    0  501  0.00000000000E+00  0.00000000000E+00  0.34156235081E+03  0.34156235085E+03  0.50400001928E-02 0. -1.
        1   -1    0    0  501    0  0.00000000000E+00  0.00000000000E+00 -0.60140244704E+03  0.60140244706E+03  0.50400001928E-02 0.  1.
    10030    2    1    2    0    0  0.00000000000E+00  0.00000000000E+00 -0.25984009623E+03  0.94296479791E+03  0.90645779521E+03 0.  0.
        3    1    3    3  502    0 -0.28207403565E+03  0.28090441041E+03  0.95470159077E+02  0.40937465829E+03  0.10100000352E+00 0. -1.
       -3    1    3    3    0  502  0.28207403565E+03 -0.28090441041E+03 -0.35531025530E+03  0.53359013962E+03  0.10100000352E+00 0.  1.
</event>
<event>
 5   0  0.6137243E-03  0.8909994E+03  0.7818609E-02  0.9436903E-01
        1   -1    0    0  501    0  0.00000000000E+00  0.00000000000E+00  0.14139362092E+04  0.14139362092E+04  0.50400001928E-02 0.  1.
       -1   -1    0    0    0  501  0.00000000000E+00  0.00000000000E+00 -0.14036700425E+03  0.14036700434E+03  0.50400001928E-02 0. -1.
    10030    2    1    2    0    0  0.00000000000E+00  0.00000000000E+00  0.12735692049E+04  0.15543032135E+04  0.89099941629E+03 0.  0.
        4    1    3    3  502    0  0.21433578956E+03  0.23958661015E+03  0.98750535269E+02  0.33629578583E+03  0.12699999809E+01 0. -1.
       -4    1    3    3    0  502 -0.21433578956E+03 -0.23958661015E+03  0.11748186696E+04  0.12180074277E+04  0.12699999809E+01 0.  1.
</event>
<event>
 5   0  0.6211218E-03  0.9011856E+03  0.7818609E-02  0.9424101E-01
       -1   -1    0    0    0  501  0.00000000000E+00  0.00000000000E+00  0.21745074620E+03  0.21745074626E+03  0.50400001928E-02 0. -1.
        1   -1    0    0  501    0  0.00000000000E+00  0.00000000000E+00 -0.93370057350E+03  0.93370057352E+03  0.50400001928E-02 0.  1.
    10030    2    1    2    0    0  0.00000000000E+00  0.00000000000E+00 -0.71624982731E+03  0.11511513198E+04  0.90118563343E+03 0.  0.
        5    1    3    3  502    0 -0.26427717758E+03 -0.31547836228E+03 -0.12382935962E+03  0.42979625866E+03  0.46999998093E+01 0. -1.
       -5    1    3    3    0  502  0.26427717758E+03  0.31547836228E+03 -0.59242046769E+03  0.72135506111E+03  0.46999998093E+01 0.  1.
</event>
<event>
 5   0  0.1003252E-02  0.8660342E+03  0.7818609E-02  0.9469066E-01
        2   -1    0    0  501    0  0.00000000000E+00  0.00000000000E+00  0.78395444138E+03  0.78395444139E+03  0.25500000920E-02 0.  1.
       -2   -1    0    0    0  501  0.00000000000E+00  0.00000000000E+00 -0.23917690014E+03  0.23917690016E+03  0.25500000920E-02 0. -1.
    10030    2    1    2    0    0  0.00000000000E+00  0.00000000000E+00  0.54477754124E+03  0.10231313415E+04  0.86603416365E+03 0.  0.
        2    1    3    3  502    0 -0.30261039788E+03  0.17691604705E+01  0.63829362979E+03  0.70639573941E+03  0.25500000920E-02 0.  1.
       -2    1    3    3    0  502  0.30261039788E+03 -0.17691604705E+01 -0.93516088545E+02  0.31673560213E+03  0.25500000920E-02 0. -1.
</event>
<event>
 5   0  0.6092779E-03  0.8864122E+03  0.7818609E-02  0.9442728E-01
       -1   -1    0    0    0  501  0.00000000000E+00  0.00000000000E+00  0.12481806149E+03  0.12481806159E+03  0.50400001928E-02 0.  1.
        1   -1    0    0  501    0  0.00000000000E+00  0.00000000000E+00 -0.15737436725E+04  0.15737436725E+04  0.50400001928E-02 0. -1.
    10030    2    1    2    0    0  0.00000000000E+00  0.00000000000E+00 -0.14489256110E+04  0.16985617341E+04  0.88641217180E+03 0.  0.
        2    1    3    3  502    0  0.32418579818E+03  0.61551472908E+02 -0.12914396392E+04  0.13329296145E+04  0.25500000920E-02 0. -1.
       -2    1    3    3    0  502 -0.32418579818E+03 -0.61551472908E+02 -0.15748597184E+03  0.36563211961E+03  0.25500000920E-02 0.  1.
</event>
<event>
 5   0  0.1033749E-02  0.9025961E+03  0.7818609E-02  0.9422342E-01
        2   -1    0    0  501    0  0.00000000000E+00  0.00000000000E+00  0.12529247442E+04  0.12529247442E+04  0.25500000920E-02 0. -1.
       -2   -1    0    0    0  501  0.00000000000E+00  0.00000000000E+00 -0.16255561202E+03  0.16255561204E+03  0.25500000920E-02 0.  1.
    10030    2    1    2    0    0  0.00000000000E+00  0.00000000000E+00  0.10903691322E+04  0.14154803562E+04  0.90259614142E+03 0.  0.
        5    1    3    3  502    0 -0.31650152243E+03 -0.26628732364E+03  0.26218183653E+03  0.48973825441E+03  0.46999998093E+01 0. -1.
       -5    1    3    3    0  502  0.31650152243E+03  0.26628732364E+03  0.82818729562E+03  0.92574210181E+03  0.46999998093E+01 0.  1.
</event>
<event>
 5   0  0.6288003E-03  0.8950180E+03  0.7818609E-02  0.9431831E-01
       -1   -1    0    0    0  501  0.00000000000E+00  0.00000000000E+00  0.39323948945E+03  0.39323948948E+03  0.50400001928E-02 0. -1.
        1   -1    0    0  501    0  0.00000000000E+00  0.00000000000E+00 -0.50926806074E+03  0.50926806076E+03  0.50400001928E-02 0.  1.
    10030    2    1    2    0    0  0.00000000000E+00  0.00000000000E+00 -0.11602857129E+03  0.90250755025E+03  0.89501801596E+03 0.  0.
        1    1    3    3  502    0  0.10682724085E+03 -0.41053294329E+03  0.85708955253E+02  0.43277636483E+03  0.50400001928E-02 0. -1.
       -1    1    3    3    0  502 -0.10682724085E+03  0.41053294329E+03 -0.20173752654E+03  0.46973118542E+03  0.50400001928E-02 0.  1.
</event>
<event>
 5   0  0.1028978E-02  0.8985170E+03  0.7818609E-02  0.9427437E-01
        2   -1    0    0  501    0  0.00000000000E+00  0.00000000000E+00  0.24358425865E+03  0.24358425867E+03  0.25500000920E-02 0.  1.
       -2   -1    0    0    0  501  0.00000000000E+00  0.00000000000E+00 -0.82859704371E+03  0.82859704372E+03  0.25500000920E-02 0. -1.
    10030    2    1    2    0    0  0.00000000000E+00  0.00000000000E+00 -0.58501278506E+03  0.10721813024E+04  0.89851699288E+03 0.  0.
        3    1    3    3  502    0  0.77045816236E+02 -0.43187966586E+03 -0.40805795190E+03  0.59913888699E+03  0.10100000352E+00 0. -1.
       -3    1    3    3    0  502 -0.77045816236E+02  0.43187966586E+03 -0.17695483316E+03  0.47304241540E+03  0.10100000352E+00 0.  1.
</event>
<event>
 5   0  0.1033749E-02  0.9191617E+03  0.7818609E-02  0.9401940E-01
       -2   -1    0    0    0  501  0.00000000000E+00  0.00000000000E+00  0.39649211610E+03  0.39649211610E+03  0.25500000920E-02 0.  1.
        2   -1    0    0  501    0  0.00000000000E+00  0.00000000000E+00 -0.53270804618E+03  0.53270804619E+03  0.25500000920E-02 0. -1.
    10030    2    1    2    0    0  0.00000000000E+00  0.00000000000E+00 -0.13621593009E+03  0.92920016229E+03  0.91916166260E+03 0.  0.
        5    1    3    3  502    0  0.22239705187E+02 -0.84696476888E+02 -0.52417172788E+03  0.53145666615E+03  0.46999998093E+01 0. -1.
       -5    1    3    3    0  502 -0.22239705187E+02  0.84696476888E+02  0.38795579780E+03  0.39774349615E+03  0.46999998093E+01 0.  1.
</event>
<event>
 5   0  0.1033749E-02  0.9167201E+03  0.7818609E-02  0.9404919E-01
       -2   -1    0    0    0  501  0.00000000000E+00  0.00000000000E+00  0.63609341301E+03  0.63609341302E+03  0.25500000920E-02 0.  1.
        2   -1    0    0  501    0  0.00000000000E+00  0.00000000000E+00 -0.33028785642E+03  0.33028785643E+03  0.25500000920E-02 0. -1.
    10030    2    1    2    0    0  0.00000000000E+00  0.00000000000E+00  0.30580555659E+03  0.96638126944E+03  0.91672008786E+03 0.  0.
        5    1    3    3  502    0  0.16516692704E+03 -0.16622331413E+03  0.56814718450E+03  0.61459223653E+03  0.46999998093E+01 0.  1.
       -5    1    3    3    0  502 -0.16516692704E+03  0.16622331413E+03 -0.26234162791E+03  0.35178903292E+03  0.46999998093E+01 0. -1.
</event>
<event>
 5   0  0.1028978E-02  0.9062042E+03  0.7818609E-02  0.9417859E-01
        2   -1    0    0  501    0  0.00000000000E+00  0.00000000000E+00  0.77691095256E+03  0.77691095256E+03  0.25500000920E-02 0.  1.
       -2   -1    0    0    0  501  0.00000000000E+00  0.00000000000E+00 -0.26425358516E+03  0.26425358517E+03  0.25500000920E-02 0. -1.
    10030    2    1    2    0    0  0.00000000000E+00  0.00000000000E+00  0.51265736739E+03  0.10411645377E+04  0.90620418135E+03 0.  0.
        3    1    3    3  502    0 -0.25605020908E+03  0.11561565259E+03 -0.15210365353E+03  0.31947491343E+03  0.10100000352E+00 0. -1.
       -3    1    3    3    0  502  0.25605020908E+03 -0.11561565259E+03  0.66476102092E+03  0.72168962431E+03  0.10100000352E+00 0.  1.
</event>
<event>
 5   0  0.6288003E-03  0.9019920E+03  0.7818609E-02  0.9423095E-01
        1   -1    0    0  501    0  0.00000000000E+00  0.00000000000E+00  0.14926996312E+04  0.14926996312E+04  0.50400001928E-02 0. -1.
       -1   -1    0    0    0  501  0.00000000000E+00  0.00000000000E+00 -0.13626143985E+03  0.13626143994E+03  0.50400001928E-02 0.  1.
    10030    2    1    2    0    0  0.00000000000E+00  0.00000000000E+00  0.13564381913E+04  0.16289610711E+04  0.90199202013E+03 0.  0.
        1    1    3    3  502    0  0.28531408682E+03 -0.12495992261E+03  0.89193029416E+02  0.32399769586E+03  0.50400001928E-02 0.  1.
       -1    1    3    3    0  502 -0.28531408682E+03  0.12495992261E+03  0.12672451619E+04  0.13049633753E+04  0.50400001928E-02 0. -1.
</event>
<event>
 5   0  0.6092779E-03  0.9015379E+03  0.7818609E-02  0.9423661E-01
       -1   -1    0    0    0  501  0.00000000000E+00  0.00000000000E+00  0.70481319056E+03  0.70481319058E+03  0.50400001928E-02 0.  1.
        1   -1    0    0  501    0  0.00000000000E+00  0.00000000000E+00 -0.28829293912E+03  0.28829293916E+03  0.50400001928E-02 0. -1.
    10030    2    1    2    0    0  0.00000000000E+00  0.00000000000E+00  0.41652025144E+03  0.99310612974E+03  0.90153794433E+03 0.  0.
        2    1    3    3  502    0 -0.75275317857E+02  0.21715829865E+03  0.63541973585E+03  0.67570876927E+03  0.25500000920E-02 0.  1.
       -2    1    3    3    0  502  0.75275317857E+02 -0.21715829865E+03 -0.21889948441E+03  0.31739736047E+03  0.25500000920E-02 0. -1.
</event>
<event>
 5   0  0.6211218E-03  0.9018905E+03  0.7818609E-02  0.9423221E-01
       -1   -1    0    0    0  501  0.00000000000E+00  0.00000000000E+00  0.15976911188E+03  0.15976911196E+03  0.50400001928E-02 0. -1.
        1   -1    0    0  501    0  0.00000000000E+00  0.00000000000E+00 -0.12727841993E+04  0.12727841993E+04  0.50400001928E-02 0.  1.
    10030    2    1    2    0    0  0.00000000000E+00  0.00000000000E+00 -0.11130150874E+04  0.14325533112E+04  0.90189046163E+03 0.  0.
        5    1    3    3  502    0  0.28655840038E+03  0.17719245430E+03 -0.10325386945E+04  0.10861266632E+04  0.46999998093E+01 0.  1.
       -5    1    3    3    0  502 -0.28655840038E+03 -0.17719245430E+03 -0.80476392828E+02  0.34642664806E+03  0.46999998093E+01 0. -1.
</event>
<event>
 5   0  0.1003252E-02  0.9050335E+03  0.7818609E-02  0.9419311E-01
        2   -1    0    0  501    0  0.00000000000E+00  0.00000000000E+00  0.12077041736E+04  0.12077041736E+04  0.25500000920E-02 0.  1.
       -2   -1    0    0    0  501  0.00000000000E+00  0.00000000000E+00 -0.16955428268E+03  0.16955428270E+03  0.25500000920E-02 0. -1.
    10030    2    1    2    0    0  0.00000000000E+00  0.00000000000E+00  0.10381498909E+04  0.13772584563E+04  0.90503351288E+03 0.  0.
        2    1    3    3  502    0  0.22340902455E+03 -0.38721980810E+03  0.62582342726E+03  0.76909409967E+03  0.25500000920E-02 0.  1.
       -2    1    3    3    0  502 -0.22340902455E+03  0.38721980810E+03  0.41232646368E+03  0.60816435665E+03  0.25500000920E-02 0. -1.
</event>
<event>
 5   0  0.6015709E-03  0.1067153E+04  0.7818609E-02  0.9237811E-01
       -1   -1    0    0    0  501  0.00000000000E+00  0.00000000000E+00  0.33237858349E+03  0.33237858352E+03  0.50400001928E-02 0. -1.
        1   -1    0    0  501    0  0.00000000000E+00  0.00000000000E+00 -0.85656576779E+03  0.85656576780E+03  0.50400001928E-02 0.  1.
    10030    2    1    2    0    0  0.00000000000E+00  0.00000000000E+00 -0.52418718430E+03  0.11889443513E+04  0.10671534409E+04 0.  0.
        3    1    3    3  502    0  0.46815077545E+03 -0.20910776234E+03 -0.97546057942E+02  0.52192571161E+03  0.10100000352E+00 0.  1.
       -3    1    3    3    0  502 -0.46815077545E+03  0.20910776234E+03 -0.42664112636E+03  0.66701863971E+03  0.10100000352E+00 0. -1.
</event>
<event>
 5   0  0.6137243E-03  0.9004409E+03  0.7818609E-02  0.9425030E-01
       -1   -1    0    0    0  501  0.00000000000E+00  0.00000000000E+00  0.34588615262E+03  0.34588615266E+03  0.50400001928E-02 0. -1.
        1   -1    0    0  501    0  0.00000000000E+00  0.00000000000E+00 -0.58602647931E+03  0.58602647933E+03  0.50400001928E-02 0.  1.
    10030    2    1    2    0    0  0.00000000000E+00  0.00000000000E+00 -0.24014032669E+03  0.93191263198E+03  0.90044087932E+03 0.  0.
        4    1    3    3  502    0 -0.35207848030E+02  0.23394303006E+03 -0.51650913638E+03  0.56811287148E+03  0.12699999809E+01 0.  1.
       -4    1    3    3    0  502  0.35207848030E+02 -0.23394303006E+03  0.27636880969E+03  0.36379976051E+03  0.12699999809E+01 0. -1.
</event>
<event>
 5   0  0.1041727E-02  0.9042709E+03  0.7818609E-02  0.9420258E-01
        2   -1    0    0  501    0  0.00000000000E+00  0.00000000000E+00  0.90549575323E+03  0.90549575323E+03  0.25500000920E-02 0. -1.
       -2   -1    0    0    0  501  0.00000000000E+00  0.00000000000E+00 -0.22576192176E+03  0.22576192177E+03  0.25500000920E-02 0.  1.
    10030    2    1    2    0    0  0.00000000000E+00  0.00000000000E+00  0.67973383147E+03  0.11312576750E+04  0.90427089172E+03 0.  0.
        4    1    3    3  502    0 -0.14581052533E+03  0.38052669131E+03  0.94835070239E+02  0.41839762851E+03  0.12699999809E+01 0. -1.
       -4    1    3    3    0  502  0.14581052533E+03 -0.38052669131E+03  0.58489876124E+03  0.71286004650E+03  0.12699999809E+01 0.  1.
</event>
<event>
 5   0  0.3996375E-03  0.8589717E+03  0.7818609E-02  0.9478374E-01
       -3   -1    0    0    0  501  0.00000000000E+00  0.00000000000E+00  0.47119099148E+03  0.47119100230E+03  0.10100000352E+00 0. -1.
        3   -1    0    0  501    0  0.00000000000E+00  0.00000000000E+00 -0.39147204442E+03  0.39147205744E+03  0.10100000352E+00 0.  1.
    10030    2    1    2    0    0  0.00000000000E+00  0.00000000000E+00  0.79718947060E+02  0.86266305975E+03  0.85897173651E+03 0.  0.
        5    1    3    3  502    0  0.22157201002E+03 -0.19211021156E+03  0.35495212429E+03  0.46044933440E+03  0.46999998093E+01 0. -1.
       -5    1    3    3    0  502 -0.22157201002E+03  0.19211021156E+03 -0.27523317723E+03  0.40221372535E+03  0.46999998093E+01 0.  1.
</event>
<event>
 5   0  0.6137243E-03  0.9031862E+03  0.7818609E-02  0.9421607E-01
       -1   -1    0    0    0  501  0.00000000000E+00  0.00000000000E+00  0.88489611065E+03  0.88489611067E+03  0.50400001928E-02 0.  1.
        1   -1    0    0  501    0  0.00000000000E+00  0.00000000000E+00 -0.23046358157E+03  0.23046358163E+03  0.50400001928E-02 0. -1.
    10030    2    1    2    0    0  0.00000000000E+00  0.00000000000E+00  0.65443252908E+03  0.11153596923E+04  0.90318619790E+03 0.  0.
        4    1    3    3  502    0 -0.14843283532E+02  0.15940337013E+02 -0.22981233028E+03  0.23084570054E+03  0.12699999809E+01 0. -1.
       -4    1    3    3    0  502  0.14843283532E+02 -0.15940337013E+02  0.88424485936E+03  0.88451399175E+03  0.12699999809E+01 0.  1.
</event>
<event>
 5   0  0.6137243E-03  0.9169010E+03  0.7818609E-02  0.9404697E-01
       -1   -1    0    0    0  501  0.00000000000E+00  0.00000000000E+00  0.29874516628E+03  0.29874516632E+03  0.50400001928E-02 0.  1.
        1   -1    0    0  501    0  0.00000000000E+00  0.00000000000E+00 -0.70353232730E+03  0.70353232732E+03  0.50400001928E-02 0. -1.
    10030    2    1    2    0    0  0.00000000000E+00  0.00000000000E+00 -0.40478716102E+03  0.10022774936E+04  0.91690104621E+03 0.  0.
        4    1    3    3  502    0 -0.14168236448E+03 -0.35986687059E+03  0.66692871662E+02  0.39246351293E+03  0.12699999809E+01 0.  1.
       -4    1    3    3    0  502  0.14168236448E+03  0.35986687059E+03 -0.47148003269E+03  0.60981398071E+03  0.12699999809E+01 0. -1.
</event>
<event>
 5   0  0.6288003E-03  0.8995668E+03  0.7818609E-02  0.9426123E-01
       -1   -1    0    0    0  501  0.00000000000E+00  0.00000000000E+00  0.33993909240E+03  0.33993909244E+03  0.50400001928E-02 0.  1.
        1   -1    0    0  501    0  0.00000000000E+00  0.00000000000E+00 -0.59512157369E+03  0.59512157371E+03  0.50400001928E-02 0. -1.
    10030    2    1    2    0    0  0.00000000000E+00  0.00000000000E+00 -0.25518248129E+03  0.93506066614E+03  0.89956675718E+03 0.  0.
        1    1    3    3  502    0  0.19856866965E+03  0.28004817746E+03  0.17447527796E+03  0.38509495051E+03  0.50400001928E-02 0.  1.
       -1    1    3    3    0  502 -0.19856866965E+03 -0.28004817746E+03 -0.42965775925E+03  0.54996571563E+03  0.50400001928E-02 0. -1.
</event>
<event>
 5   0  0.1017079E-02  0.9039066E+03  0.7818609E-02  0.9420711E-01
        2   -1    0    0  501    0  0.00000000000E+00  0.00000000000E+00  0.59443370843E+03  0.59443370843E+03  0.25500000920E-02 0.  1.
       -2   -1    0    0    0  501  0.00000000000E+00  0.00000000000E+00 -0.34362412911E+03  0.34362412912E+03  0.25500000920E-02 0. -1.
    10030    2    1    2    0    0  0.00000000000E+00  0.00000000000E+00  0.25080957932E+03  0.93805783755E+03  0.90390655574E+03 0.  0.
        1    1    3    3  502    0 -0.18356486171E+03  0.30347029000E+03 -0.16530658826E+03  0.39130109062E+03  0.50400001928E-02 0. -1.
       -1    1    3    3    0  502  0.18356486171E+03 -0.30347029000E+03  0.41611616758E+03  0.54675674693E+03  0.50400001928E-02 0.  1.
</event>
<event>
 5   0  0.6015709E-03  0.9004699E+03  0.7818609E-02  0.9424994E-01
       -1   -1    0    0    0  501  0.00000000000E+00  0.00000000000E+00  0.33520372684E+03  0.33520372688E+03  0.50400001928E-02 0.  1.
        1   -1    0    0  501    0  0.00000000000E+00  0.00000000000E+00 -0.60474120175E+03  0.60474120177E+03  0.50400001928E-02 0. -1.
    10030    2    1    2    0    0  0.00000000000E+00  0.00000000000E+00 -0.26953747491E+03  0.93994492865E+03  0.90046988762E+03 0.  0.
        3    1    3    3  502    0  0.99023622103E+01 -0.13332334760E+03 -0.58354432496E+03  0.59866281093E+03  0.10100000352E+00 0. -1.
       -3    1    3    3    0  502 -0.99023622103E+01  0.13332334760E+03  0.31400685005E+03  0.34128211772E+03  0.10100000352E+00 0.  1.
</event>
<event>
 5   0  0.1003252E-02  0.8280330E+03  0.7818609E-02  0.9520304E-01
       -2   -1    0    0    0  501  0.00000000000E+00  0.00000000000E+00  0.26069820095E+03  0.26069820096E+03  0.25500000920E-02 0.  1.
        2   -1    0    0  501    0  0.00000000000E+00  0.00000000000E+00 -0.65750233432E+03  0.65750233433E+03  0.25500000920E-02 0. -1.
    10030    2    1    2    0    0  0.00000000000E+00  0.00000000000E+00 -0.39680413337E+03  0.91820053529E+03  0.82803303240E+03 0.  0.
        2    1    3    3  502    0  0.14275578228E+03  0.58689043874E+02  0.22760082439E+03  0.27500136821E+03  0.25500000920E-02 0.  1.
       -2    1    3    3    0  502 -0.14275578228E+03 -0.58689043874E+02 -0.62440495777E+03  0.64319916708E+03  0.25500000920E-02 0. -1.
</event>
<event>
 5   0  0.1028978E-02  0.9094697E+03  0.7818609E-02  0.9413821E-01
       -2   -1    0    0    0  501  0.00000000000E+00  0.00000000000E+00  0.27677845021E+03  0.27677845022E+03  0.25500000920E-02 0. -1.
        2   -1    0    0  501    0  0.00000000000E+00  0.00000000000E+00 -0.74710937190E+03  0.74710937190E+03  0.25500000920E-02 0.  1.
    10030    2    1    2    0    0  0.00000000000E+00  0.00000000000E+00 -0.47033092168E+03  0.10238878221E+04  0.90946967866E+03 0.  0.
        3    1    3    3  502    0  0.39542417722E+02  0.37664466611E+03 -0.51854478584E+03  0.64211643214E+03  0.10100000352E+00 0.  1.
       -3    1    3    3    0  502 -0.39542417722E+02 -0.37664466611E+03  0.48213864153E+02  0.38177138998E+03  0.10100000352E+00 0. -1.
</event>
<event>
 5   0  0.3996375E-03  0.8270087E+03  0.7818609E-02  0.9521725E-01
       -3   -1    0    0    0  501  0.00000000000E+00  0.00000000000E+00  0.46709991614E+03  0.46709992706E+03  0.10100000352E+00 0. -1.
        3   -1    0    0  501    0  0.00000000000E+00  0.00000000000E+00 -0.36605835336E+03  0.36605836729E+03  0.10100000352E+00 0.  1.
    10030    2    1    2    0    0  0.00000000000E+00  0.00000000000E+00  0.10104156278E+03  0.83315829435E+03  0.82700867350E+03 0.  0.
        1    1    3    3  502    0  0.87393886180E+02  0.62539194346E+02 -0.35174399602E+03  0.36779434597E+03  0.50400001928E-02 0.  1.
       -1    1    3    3    0  502 -0.87393886180E+02 -0.62539194346E+02  0.45278555880E+03  0.46536394838E+03  0.50400001928E-02 0. -1.
</event>
<event>
 5   0  0.6211218E-03  0.8986628E+03  0.7818609E-02  0.9427254E-01
       -1   -1    0    0    0  501  0.00000000000E+00  0.00000000000E+00  0.38756812455E+03  0.38756812458E+03  0.50400001928E-02 0. -1.
        1   -1    0    0  501    0  0.00000000000E+00  0.00000000000E+00 -0.52093738260E+03  0.52093738263E+03  0.50400001928E-02 0.  1.
    10030    2    1    2    0    0  0.00000000000E+00  0.00000000000E+00 -0.13336925805E+03  0.90850550721E+03  0.89866283869E+03 0.  0.
        5    1    3    3  502    0  0.41128726039E+02 -0.30938123997E+03 -0.39344024983E+03  0.50222071237E+03  0.46999998093E+01 0.  1.
       -5    1    3    3    0  502 -0.41128726039E+02  0.30938123997E+03  0.26007099178E+03  0.40628479484E+03  0.46999998093E+01 0. -1.
</event>
<event>
 5   0  0.1041727E-02  0.9008514E+03  0.7818609E-02  0.9424518E-01
        2   -1    0    0  501    0  0.00000000000E+00  0.00000000000E+00  0.97660822597E+03  0.97660822597E+03  0.25500000920E-02 0.  1.
       -2   -1    0    0    0  501  0.00000000000E+00  0.00000000000E+00 -0.20774278165E+03  0.20774278167E+03  0.25500000920E-02 0. -1.
    10030    2    1    2    0    0  0.00000000000E+00  0.00000000000E+00  0.76886544432E+03  0.11843510076E+04  0.90085139609E+03 0.  0.
        4    1    3    3  502    0 -0.35072506795E+02 -0.26548253723E+03 -0.91719256981E+02  0.28306376191E+03  0.12699999809E+01 0. -1.
       -4    1    3    3    0  502  0.35072506795E+02  0.26548253723E+03  0.86058470130E+03  0.90128724573E+03  0.12699999809E+01 0.  1.
</event>
<event>
 5   0  0.1041727E-02  0.8965548E+03  0.7818609E-02  0.9429898E-01
       -2   -1    0    0    0  501  0.00000000000E+00  0.00000000000E+00  0.90457928600E+03  0.90457928600E+03  0.25500000920E-02 0.  1.
        2   -1    0    0  501    0  0.00000000000E+00  0.00000000000E+00 -0.22215036408E+03  0.22215036409E+03  0.25500000920E-02 0. -1.
    10030    2    1    2    0    0  0.00000000000E+00  0.00000000000E+00  0.68242892192E+03  0.11267296501E+04  0.89655477855E+03 0.  0.
        4    1    3    3  502    0 -0.11845679647E+03  0.13515556295E+03 -0.17489117001E+03  0.25077394816E+03  0.12699999809E+01 0. -1.
       -4    1    3    3    0  502  0.11845679647E+03 -0.13515556295E+03  0.85732009193E+03  0.87595570194E+03  0.12699999809E+01 0.  1.
</event>
<event>
 5   0  0.1003252E-02  0.9365318E+03  0.7818609E-02  0.9381033E-01
       -2   -1    0    0    0  501  0.00000000000E+00  0.00000000000E+00  0.35556190097E+03  0.35556190098E+03  0.25500000920E-02 0.  1.
        2   -1    0    0  501    0  0.00000000000E+00  0.00000000000E+00 -0.61669419388E+03  0.61669419389E+03  0.25500000920E-02 0. -1.
    10030    2    1    2    0    0  0.00000000000E+00  0.00000000000E+00 -0.26113229291E+03  0.97225609487E+03  0.93653181452E+03 0.  0.
        2    1    3    3  502    0 -0.33690742809E+03 -0.26268283077E+02 -0.46708590660E+03  0.57651182290E+03  0.25500000920E-02 0. -1.
       -2    1    3    3    0  502  0.33690742809E+03  0.26268283077E+02  0.20595361369E+03  0.39574427196E+03  0.25500000920E-02 0.  1.
</event>
<event>
 5   0  0.6211218E-03  0.9058532E+03  0.7818609E-02  0.9418294E-01
        1   -1    0    0  501    0  0.00000000000E+00  0.00000000000E+00  0.86470749247E+03  0.86470749248E+03  0.50400001928E-02 0.  1.
       -1   -1    0    0    0  501  0.00000000000E+00  0.00000000000E+00 -0.23723921232E+03  0.23723921237E+03  0.50400001928E-02 0. -1.
    10030    2    1    2    0    0  0.00000000000E+00  0.00000000000E+00  0.62746828015E+03  0.11019467049E+04  0.90585324294E+03 0.  0.
        5    1    3    3  502    0  0.42761621805E+03  0.14444880410E+02  0.13307181308E+03  0.44810097293E+03  0.46999998093E+01 0.  1.
       -5    1    3    3    0  502 -0.42761621805E+03 -0.14444880410E+02  0.49439646706E+03  0.65384573192E+03  0.46999998093E+01 0. -1.
</event>
<event>
 5   0  0.1028978E-02  0.9512147E+03  0.7818609E-02  0.9363732E-01
       -2   -1    0    0    0  501  0.00000000000E+00  0.00000000000E+00  0.43699643738E+03  0.43699643739E+03  0.25500000920E-02 0. -1.
        2   -1    0    0  501    0  0.00000000000E+00  0.00000000000E+00 -0.51762973082E+03  0.51762973082E+03  0.25500000920E-02 0.  1.
    10030    2    1    2    0    0  0.00000000000E+00  0.00000000000E+00 -0.80633293440E+02  0.95462616821E+03  0.95121469344E+03 0.  0.
        3    1    3    3  502    0 -0.15955304319E+03 -0.40471299088E+03  0.15260326175E+03  0.46101794355E+03  0.10100000352E+00 0. -1.
       -3    1    3    3    0  502  0.15955304319E+03  0.40471299088E+03 -0.23323655519E+03  0.49360822466E+03  0.10100000352E+00 0.  1.
</event>
<event>
 5   0  0.3996375E-03  0.9060340E+03  0.7818609E-02  0.9418070E-01
       -3   -1    0    0    0  501  0.00000000000E+00  0.00000000000E+00  0.30908826600E+03  0.30908828250E+03  0.10100000352E+00 0.  1.
        3   -1    0    0  501    0  0.00000000000E+00  0.00000000000E+00 -0.66396697700E+03  0.66396698468E+03  0.10100000352E+00 0. -1.
    10030    2    1    2    0    0  0.00000000000E+00  0.00000000000E+00 -0.35487871100E+03  0.97305526718E+03  0.90603402445E+03 0.  0.
        2    1    3    3  502    0  0.13179818167E+03 -0.25559334721E+03 -0.55336900988E+03  0.62363128605E+03  0.25500000920E-02 0. -1.
       -2    1    3    3    0  502 -0.13179818167E+03  0.25559334721E+03  0.19849029889E+03  0.34942398113E+03  0.25500000920E-02 0.  1.
</event>
<event>
 5   0  0.6015709E-03  0.8948989E+03  0.7818609E-02  0.9431981E-01
       -1   -1    0    0    0  501  0.00000000000E+00  0.00000000000E+00  0.18110666808E+03  0.18110666815E+03  0.50400001928E-02 0.  1.
        1   -1    0    0  501    0  0.00000000000E+00  0.00000000000E+00 -0.11054868023E+04  0.11054868023E+04  0.50400001928E-02 0. -1.
    10030    2    1    2    0    0  0.00000000000E+00  0.00000000000E+00 -0.92438013424E+03  0.12865934705E+04  0.89489894721E+03 0.  0.
        3    1    3    3  502    0 -0.26449861234E+03  0.78497900169E+02  0.44258109483E+02  0.27942839282E+03  0.10100000352E+00 0.  1.
       -3    1    3    3    0  502  0.26449861234E+03 -0.78497900169E+02 -0.96863824372E+03  0.10071650777E+04  0.10100000352E+00 0. -1.
</event>
<event>
 5   0  0.3996375E-03  0.9020004E+03  0.7818609E-02  0.9423084E-01
        3   -1    0    0  501    0  0.00000000000E+00  0.00000000000E+00  0.82378244882E+03  0.82378245501E+03  0.10100000352E+00 0. -1.
       -3   -1    0    0    0  501  0.00000000000E+00  0.00000000000E+00 -0.24691125440E+03  0.24691127506E+03  0.10100000352E+00 0.  1.
    10030    2    1    2    0    0  0.00000000000E+00  0.00000000000E+00  0.57687119442E+03  0.10706937301E+04  0.90200038174E+03 0.  0.
        4    1    3    3  502    0  0.22073876374E+03  0.83866253518E+00 -0.17840234860E+03  0.28382268418E+03  0.12699999809E+01 0.  1.
       -4    1    3    3    0  502 -0.22073876374E+03 -0.83866253518E+00  0.75527354302E+03  0.78687104588E+03  0.12699999809E+01 0. -1.
</event>
<event>
 5   0  0.1041727E-02  0.1047259E+04  0.7818609E-02  0.9258178E-01
       -2   -1    0    0    0  501  0.00000000000E+00  0.00000000000E+00  0.11030585436E+04  0.11030585436E+04  0.25500000920E-02 0. -1.
        2   -1    0    0  501    0  0.00000000000E+00  0.00000000000E+00 -0.24857077244E+03  0.24857077246E+03  0.25500000920E-02 0.  1.
    10030    2    1    2    0    0  0.00000000000E+00  0.00000000000E+00  0.85448777114E+03  0.13516293161E+04  0.10472594984E+04 0.  0.
        4    1    3    3  502    0  0.34361490895E+03 -0.35912737426E+03  0.21461081238E+03  0.54138996138E+03  0.12699999809E+01 0. -1.
       -4    1    3    3    0  502 -0.34361490895E+03  0.35912737426E+03  0.63987695877E+03  0.81023935467E+03  0.12699999809E+01 0.  1.
</event>
<event>
 5   0  0.6137243E-03  0.8985307E+03  0.7818609E-02  0.9427420E-01
        1   -1    0    0  501    0  0.00000000000E+00  0.00000000000E+00  0.10353330773E+04  0.10353330773E+04  0.50400001928E-02 0.  1.
       -1   -1    0    0    0  501  0.00000000000E+00  0.00000000000E+00 -0.19495113414E+03  0.19495113421E+03  0.50400001928E-02 0. -1.
    10030    2    1    2    0    0  0.00000000000E+00  0.00000000000E+00  0.84038194311E+03  0.12302842115E+04  0.89853070660E+03 0.  0.
        4    1    3    3  502    0  0.89687890319E+02  0.24943591946E+03  0.91685204514E+03  0.95440111125E+03  0.12699999809E+01 0.  1.
       -4    1    3    3    0  502 -0.89687890319E+02 -0.24943591946E+03 -0.76470102024E+02  0.27588310022E+03  0.12699999809E+01 0. -1.
</event>
<event>
 5   0  0.6015709E-03  0.8921548E+03  0.7818609E-02  0.9435442E-01
       -1   -1    0    0    0  501  0.00000000000E+00  0.00000000000E+00  0.58073007666E+03  0.58073007668E+03  0.50400001928E-02 0.  1.
        1   -1    0    0  501    0  0.00000000000E+00  0.00000000000E+00 -0.34264632958E+03  0.34264632961E+03  0.50400001928E-02 0. -1.
    10030    2    1    2    0    0  0.00000000000E+00  0.00000000000E+00  0.23808374709E+03  0.92337640630E+03  0.89215476072E+03 0.  0.
        3    1    3    3  502    0  0.25627380392E+03  0.27781389517E+03 -0.12616301183E+03  0.39846447606E+03  0.10100000352E+00 0. -1.
       -3    1    3    3    0  502 -0.25627380392E+03 -0.27781389517E+03  0.36424675892E+03  0.52491193024E+03  0.10100000352E+00 0.  1.
</event>
<event>
 5   0  0.1003252E-02  0.9075320E+03  0.7818609E-02  0.9416215E-01
       -2   -1    0    0    0  501  0.00000000000E+00  0.00000000000E+00  0.31489640291E+03  0.31489640292E+03  0.25500000920E-02 0. -1.
        2   -1    0    0  501    0  0.00000000000E+00  0.00000000000E+00 -0.65387728323E+03  0.65387728324E+03  0.25500000920E-02 0.  1.
    10030    2    1    2    0    0  0.00000000000E+00  0.00000000000E+00 -0.33898088032E+03  0.96877368616E+03  0.90753204779E+03 0.  0.
        2    1    3    3  502    0 -0.69982962224E+02 -0.39285015097E+03 -0.40011277046E+03  0.56508325511E+03  0.25500000920E-02 0.  1.
       -2    1    3    3    0  502  0.69982962224E+02  0.39285015097E+03  0.61131890145E+02  0.40369043104E+03  0.25500000920E-02 0. -1.
</event>
<event>
 5   0  0.6015709E-03  0.9214647E+03  0.7818609E-02  0.9399140E-01
        1   -1    0    0  501    0  0.00000000000E+00  0.00000000000E+00  0.12132803858E+04  0.12132803858E+04  0.50400001928E-02 0.  1.
       -1   -1    0    0    0  501  0.00000000000E+00  0.00000000000E+00 -0.17495898735E+03  0.17495898743E+03  0.50400001928E-02 0. -1.
    10030    2    1    2    0    0  0.00000000000E+00  0.00000000000E+00  0.10383213984E+04  0.13882393732E+04  0.92146472038E+03 0.  0.
        3    1    3    3  502    0 -0.20831027586E+03 -0.38092382149E+02  0.11356171616E+04  0.11551928621E+04  0.10100000352E+00 0.  1.
       -3    1    3    3    0  502  0.20831027586E+03  0.38092382149E+02 -0.97295763215E+02  0.23304651113E+03  0.10100000352E+00 0. -1.
</event>
<event>
 5   0  0.1041727E-02  0.8949752E+03  0.7818609E-02  0.9431885E-01
       -2   -1    0    0    0  501  0.00000000000E+00  0.00000000000E+00  0.22797386370E+03  0.22797386371E+03  0.25500000920E-02 0. -1.
        2   -1    0    0  501    0  0.00000000000E+00  0.00000000000E+00 -0.87836887206E+03  0.87836887207E+03  0.25500000920E-02 0.  1.
    10030    2    1    2    0    0  0.00000000000E+00  0.00000000000E+00 -0.65039500837E+03  0.11063427358E+04  0.89497518518E+03 0.  0.
        4    1    3    3  502    0 -0.76832155337E+02 -0.42920267075E+03 -0.44958743235E+03  0.62629752107E+03  0.12699999809E+01 0. -1.
       -4    1    3    3    0  502  0.76832155337E+02  0.42920267075E+03 -0.20080757601E+03  0.48004521470E+03  0.12699999809E+01 0.  1.
</event>
<event>
 5   0  0.1017079E-02  0.8982119E+03  0.7818609E-02  0.9427819E-01
       -2   -1    0    0    0  501  0.00000000000E+00  0.00000000000E+00  0.21296308067E+03  0.21296308068E+03  0.25500000920E-02 0.  1.
        2   -1    0    0  501    0  0.00000000000E+00  0.00000000000E+00 -0.94709449564E+03  0.94709449565E+03  0.25500000920E-02 0. -1.
    10030    2    1    2    0    0  0.00000000000E+00  0.00000000000E+00 -0.73413141498E+03  0.11600575763E+04  0.89821191594E+03 0.  0.
        1    1    3    3  502    0  0.11060616800E+03  0.34398530153E+03 -0.71153231674E+03  0.79802120890E+03  0.50400001928E-02 0. -1.
       -1    1    3    3    0  502 -0.11060616800E+03 -0.34398530153E+03 -0.22599098239E+02  0.36203636743E+03  0.50400001928E-02 0.  1.
</event>
<event>
 5   0  0.1028978E-02  0.8841560E+03  0.7818609E-02  0.9445607E-01
        2   -1    0    0  501    0  0.00000000000E+00  0.00000000000E+00  0.79520215610E+03  0.79520215611E+03  0.25500000920E-02 0.  1.
       -2   -1    0    0    0  501  0.00000000000E+00  0.00000000000E+00 -0.24576514292E+03  0.24576514293E+03  0.25500000920E-02 0. -1.
    10030    2    1    2    0    0  0.00000000000E+00  0.00000000000E+00  0.54943701319E+03  0.10409672990E+04  0.88415603047E+03 0.  0.
        3    1    3    3  502    0  0.10998671336E+03 -0.11239167271E+03 -0.21172231952E+03  0.26373341842E+03  0.10100000352E+00 0. -1.
       -3    1    3    3    0  502 -0.10998671336E+03  0.11239167271E+03  0.76115933271E+03  0.77723388062E+03  0.10100000352E+00 0.  1.
</event>
<event>
 5   0  0.1028978E-02  0.9155195E+03  0.7818609E-02  0.9406387E-01
       -2   -1    0    0    0  501  0.00000000000E+00  0.00000000000E+00  0.57993576414E+03  0.57993576415E+03  0.25500000920E-02 0. -1.
        2   -1    0    0  501    0  0.00000000000E+00  0.00000000000E+00 -0.36132272246E+03  0.36132272247E+03  0.25500000920E-02 0.  1.
    10030    2    1    2    0    0  0.00000000000E+00  0.00000000000E+00  0.21861304168E+03  0.94125848662E+03  0.91551945727E+03 0.  0.
        3    1    3    3  502    0  0.22889499241E+02  0.17638780920E+01  0.57934352183E+03  0.57979821225E+03  0.10100000352E+00 0. -1.
       -3    1    3    3    0  502 -0.22889499241E+02 -0.17638780920E+01 -0.36073048015E+03  0.36146027437E+03  0.10100000352E+00 0.  1.
</event>
<event>
 5   0  0.1033749E-02  0.8917206E+03  0.7818609E-02  0.9435991E-01
        2   -1    0    0  501    0  0.00000000000E+00  0.00000000000E+00  0.19463630074E+04  0.19463630074E+04  0.25500000920E-02 0. -1.
       -2   -1    0    0    0  501  0.00000000000E+00  0.00000000000E+00 -0.10213480698E+03  0.10213480701E+03  0.25500000920E-02 0.  1.
    10030    2    1    2    0    0  0.00000000000E+00  0.00000000000E+00  0.18442282004E+04  0.20484978144E+04  0.89172060671E+03 0.  0.
        5    1    3    3  502    0  0.31605258634E+03  0.20835558310E+03  0.38107570315E+03  0.53716111910E+03  0.46999998093E+01 0.  1.
       -5    1    3    3    0  502 -0.31605258634E+03 -0.20835558310E+03  0.14631524973E+04  0.15113366953E+04  0.46999998093E+01 0. -1.
</event>
<event>
 5   0  0.6015709E-03  0.9065466E+03  0.7818609E-02  0.9417435E-01
       -1   -1    0    0    0  501  0.00000000000E+00  0.00000000000E+00  0.39411478834E+03  0.39411478837E+03  0.50400001928E-02 0. -1.
        1   -1    0    0  501    0  0.00000000000E+00  0.00000000000E+00 -0.52131182761E+03  0.52131182764E+03  0.50400001928E-02 0.  1.
    10030    2    1    2    0    0  0.00000000000E+00  0.00000000000E+00 -0.12719703927E+03  0.91542661601E+03  0.90654663559E+03 0.  0.
        3    1    3    3  502    0  0.31484013300E+03  0.82977440676E+02 -0.38203990303E+03  0.50196022025E+03  0.10100000352E+00 0.  1.
       -3    1    3    3    0  502 -0.31484013300E+03 -0.82977440676E+02  0.25484286376E+03  0.41346639575E+03  0.10100000352E+00 0. -1.
</event>
<event>
 5   0  0.6137243E-03  0.8984869E+03  0.7818609E-02  0.9427475E-01
       -1   -1    0    0    0  501  0.00000000000E+00  0.00000000000E+00  0.98262023294E+02  0.98262023423E+02  0.50400001928E-02 0. -1.
        1   -1    0    0  501    0  0.00000000000E+00  0.00000000000E+00 -0.20538931162E+04  0.20538931162E+04  0.50400001928E-02 0.  1.
    10030    2    1    2    0    0  0.00000000000E+00  0.00000000000E+00 -0.19556310929E+04  0.21521551396E+04  0.89848693563E+03 0.  0.
        4    1    3    3  502    0  0.42781040118E+03 -0.10107870022E+03 -0.11996817820E+04  0.12776840901E+04  0.12699999809E+01 0.  1.
       -4    1    3    3    0  502 -0.42781040118E+03  0.10107870022E+03 -0.75594931089E+03  0.87447104957E+03  0.12699999809E+01 0. -1.
</event>
<event>
 5   0  0.1041727E-02  0.8790759E+03  0.7818609E-02  0.9452122E-01
       -2   -1    0    0    0  501  0.00000000000E+00  0.00000000000E+00  0.21115537069E+03  0.21115537070E+03  0.25500000920E-02 0.  1.
        2   -1    0    0  501    0  0.00000000000E+00  0.00000000000E+00 -0.91493579952E+03  0.91493579953E+03  0.25500000920E-02 0. -1.
    10030    2    1    2    0    0  0.00000000000E+00  0.00000000000E+00 -0.70378042884E+03  0.11260911702E+04  0.87907589641E+03 0.  0.
        4    1    3    3  502    0 -0.28076064111E+03 -0.19304374975E+03  0.38010125366E+01  0.34074695525E+03  0.12699999809E+01 0.  1.
       -4    1    3    3    0  502  0.28076064111E+03  0.19304374975E+03 -0.70758144137E+03  0.78534421497E+03  0.12699999809E+01 0. -1.
</event>
<event>
 5   0  0.6015709E-03  0.8806595E+03  0.7818609E-02  0.9450086E-01
       -1   -1    0    0    0  501  0.00000000000E+00  0.00000000000E+00  0.27841308729E+03  0.27841308734E+03  0.50400001928E-02 0. -1.
        1   -1    0    0  501    0  0.00000000000E+00  0.00000000000E+00 -0.69641223255E+03  0.69641223257E+03  0.50400001928E-02 0.  1.
    10030    2    1    2    0    0  0.00000000000E+00  0.00000000000E+00 -0.41799914526E+03  0.97482531990E+03  0.88065947953E+03 0.  0.
        3    1    3    3  502    0  0.48339488340E+02 -0.92278823052E+02  0.26457637144E+03  0.28434618661E+03  0.10100000352E+00 0. -1.
       -3    1    3    3    0  502 -0.48339488340E+02  0.92278823052E+02 -0.68257551670E+03  0.69047913329E+03  0.10100000352E+00 0.  1.
</event>
<event>
 5   0  0.6092779E-03  0.8994923E+03  0.7818609E-02  0.9426216E-01
        1   -1    0    0  501    0  0.00000000000E+00  0.00000000000E+00  0.86017856089E+03  0.86017856091E+03  0.50400001928E-02 0. -1.
       -1   -1    0    0    0  501  0.00000000000E+00  0.00000000000E+00 -0.23515071500E+03  0.23515071505E+03  0.50400001928E-02 0.  1.
    10030    2    1    2    0    0  0.00000000000E+00  0.00000000000E+00  0.62502784590E+03  0.10953292760E+04  0.89949230937E+03 0.  0.
        2    1    3    3  502    0 -0.91236447905E+02  0.15765374028E+03  0.81325107494E+03  0.83340032527E+03  0.25500000920E-02 0. -1.
       -2    1    3    3    0  502  0.91236447905E+02 -0.15765374028E+03 -0.18822322905E+03  0.26192895069E+03  0.25500000920E-02 0.  1.
</event>
<event>
 5   0  0.6015709E-03  0.9055363E+03  0.7818609E-02  0.9418687E-01
       -1   -1    0    0    0  501  0.00000000000E+00  0.00000000000E+00  0.20971958032E+03  0.20971958038E+03  0.50400001928E-02 0.  1.
        1   -1    0    0  501    0  0.00000000000E+00  0.00000000000E+00 -0.97749105631E+03  0.97749105633E+03  0.50400001928E-02 0. -1.
    10030    2    1    2    0    0  0.00000000000E+00  0.00000000000E+00 -0.76777147599E+03  0.11872106367E+04  0.90553633642E+03 0.  0.
        3    1    3    3  502    0  0.54267993408E+02 -0.44661785326E+03 -0.45056282622E+03  0.63672552370E+03  0.10100000352E+00 0. -1.
       -3    1    3    3    0  502 -0.54267993408E+02  0.44661785326E+03 -0.31720864977E+03  0.55048511301E+03  0.10100000352E+00 0.  1.
</event>
<event>
 5   0  0.6015709E-03  0.8899436E+03  0.7818609E-02  0.9438240E-01
        1   -1    0    0  501    0  0.00000000000E+00  0.00000000000E+00  0.85994466255E+03  0.85994466257E+03  0.50400001928E-02 0.  1.
       -1   -1    0    0    0  501  0.00000000000E+00  0.00000000000E+00 -0.23024726315E+03  0.23024726320E+03  0.50400001928E-02 0. -1.
    10030    2    1    2    0    0  0.00000000000E+00  0.00000000000E+00  0.62969739941E+03  0.10901919258E+04  0.88994360506E+03 0.  0.
        3    1    3    3  502    0 -0.33537651746E+03  0.88835606336E+02 -0.26467801914E+02  0.34795075536E+03  0.10100000352E+00 0. -1.
       -3    1    3    3    0  502  0.33537651746E+03 -0.88835606336E+02  0.65616520132E+03  0.74224117040E+03  0.10100000352E+00 0.  1.
</event>
<event>
 5   0  0.6211218E-03  0.8602818E+03  0.7818609E-02  0.9476640E-01
       -1   -1    0    0    0  501  0.00000000000E+00  0.00000000000E+00  0.30233874856E+03  0.30233874860E+03  0.50400001928E-02 0.  1.
        1   -1    0    0  501    0  0.00000000000E+00  0.00000000000E+00 -0.61196657187E+03  0.61196657189E+03  0.50400001928E-02 0. -1.
    10030    2    1    2    0    0  0.00000000000E+00  0.00000000000E+00 -0.30962782331E+03  0.91430532049E+03  0.86028183179E+03 0.  0.
        5    1    3    3  502    0 -0.39552705459E+03  0.16135901863E+03 -0.10145413764E+03  0.43908247044E+03  0.46999998093E+01 0. -1.
       -5    1    3    3    0  502  0.39552705459E+03 -0.16135901863E+03 -0.20817368567E+03  0.47522285005E+03  0.46999998093E+01 0.  1.
</event>
<event>
 5   0  0.6092779E-03  0.9036315E+03  0.7818609E-02  0.9421053E-01
       -1   -1    0    0    0  501  0.00000000000E+00  0.00000000000E+00  0.41120422291E+03  0.41120422294E+03  0.50400001928E-02 0.  1.
        1   -1    0    0  501    0  0.00000000000E+00  0.00000000000E+00 -0.49643812285E+03  0.49643812288E+03  0.50400001928E-02 0. -1.
    10030    2    1    2    0    0  0.00000000000E+00  0.00000000000E+00 -0.85233899948E+02  0.90764234581E+03  0.90363145708E+03 0.  0.
        2    1    3    3  502    0 -0.24494678087E+03 -0.16995396133E+03  0.29838098386E+03  0.42179910617E+03  0.25500000920E-02 0.  1.
       -2    1    3    3    0  502  0.24494678087E+03  0.16995396133E+03 -0.38361488381E+03  0.48584323965E+03  0.25500000920E-02 0. -1.
</event>
<event>
 5   0  0.3996375E-03  0.9031564E+03  0.7818609E-02  0.9421644E-01
        3   -1    0    0  501    0  0.00000000000E+00  0.00000000000E+00  0.32393720280E+03  0.32393721854E+03  0.10100000352E+00 0. -1.
       -3   -1    0    0    0  501  0.00000000000E+00  0.00000000000E+00 -0.62951351794E+03  0.62951352604E+03  0.10100000352E+00 0.  1.
    10030    2    1    2    0    0  0.00000000000E+00  0.00000000000E+00 -0.30557631514E+03  0.95345074458E+03  0.90315637515E+03 0.  0.
        1    1    3    3  502    0  0.31860400298E+03  0.26478222234E+03 -0.34253227672E+03  0.53753743739E+03  0.50400001928E-02 0.  1.
       -1    1    3    3    0  502 -0.31860400298E+03 -0.26478222234E+03  0.36955961572E+02  0.41591330719E+03  0.50400001928E-02 0. -1.
</event>
<event>
 5   0  0.3996375E-03  0.9049355E+03  0.7818609E-02  0.9419433E-01
        4   -1    0    0  501    0  0.00000000000E+00  0.00000000000E+00  0.41030031691E+03  0.41030228241E+03  0.12699999809E+01 0. -1.
       -4   -1    0    0    0  501  0.00000000000E+00  0.00000000000E+00 -0.49896489278E+03  0.49896650903E+03  0.12699999809E+01 0.  1.
    10030    2    1    2    0    0  0.00000000000E+00  0.00000000000E+00 -0.88664575875E+02  0.90926879144E+03  0.90493553808E+03 0.  0.
        5    1    3    3  502    0 -0.30977696953E+02  0.35505740047E+03 -0.32437751694E+03  0.48194215300E+03  0.46999998093E+01 0.  1.
       -5    1    3    3    0  502  0.30977696953E+02 -0.35505740047E+03  0.23571294107E+03  0.42732663844E+03  0.46999998093E+01 0. -1.
</event>
<event>
 5   0  0.1033749E-02  0.8981890E+03  0.7818609E-02  0.9427848E-01
        2   -1    0    0  501    0  0.00000000000E+00  0.00000000000E+00  0.27346534675E+03  0.27346534676E+03  0.25500000920E-02 0. -1.
       -2   -1    0    0    0  501  0.00000000000E+00  0.00000000000E+00 -0.73751890079E+03  0.73751890079E+03  0.25500000920E-02 0.  1.
    10030    2    1    2    0    0  0.00000000000E+00  0.00000000000E+00 -0.46405355404E+03  0.10109842476E+04  0.89818898222E+03 0.  0.
        5    1    3    3  502    0  0.82698090836E+02 -0.23215267422E+03  0.19052340095E+03  0.31153666668E+03  0.46999998093E+01 0. -1.
       -5    1    3    3    0  502 -0.82698090836E+02  0.23215267422E+03 -0.65457695500E+03  0.69944758087E+03  0.46999998093E+01 0.  1.
</event>
<event>
 5   0  0.6015709E-03  0.8870000E+03  0.7818609E-02  0.9441980E-01
       -1   -1    0    0    0  501  0.00000000000E+00  0.00000000000E+00  0.25082885508E+03  0.25082885513E+03  0.50400001928E-02 0.  1.
        1   -1    0    0  501    0  0.00000000000E+00  0.00000000000E+00 -0.78416916715E+03  0.78416916716E+03  0.50400001928E-02 0. -1.
    10030    2    1    2    0    0  0.00000000000E+00  0.00000000000E+00 -0.53334031207E+03  0.10349980223E+04  0.88700000996E+03 0.  0.
        3    1    3    3  502    0  0.42205797799E+03 -0.91878726692E+02 -0.14930077924E+03  0.45701791003E+03  0.10100000352E+00 0.  1.
       -3    1    3    3    0  502 -0.42205797799E+03  0.91878726692E+02 -0.38403953282E+03  0.57798011227E+03  0.10100000352E+00 0. -1.
</event>
<event>
 5   0  0.1033749E-02  0.9022192E+03  0.7818609E-02  0.9422812E-01
        2   -1    0    0  501    0  0.00000000000E+00  0.00000000000E+00  0.75639083310E+03  0.75639083310E+03  0.25500000920E-02 0. -1.
       -2   -1    0    0    0  501  0.00000000000E+00  0.00000000000E+00 -0.26904061319E+03  0.26904061320E+03  0.25500000920E-02 0.  1.
    10030    2    1    2    0    0  0.00000000000E+00  0.00000000000E+00  0.48735021991E+03  0.10254314463E+04  0.90221916086E+03 0.  0.
        5    1    3    3  502    0  0.32495815537E+03 -0.65182743027E+02 -0.10410505765E+03  0.34742847574E+03  0.46999998093E+01 0.  1.
       -5    1    3    3    0  502 -0.32495815537E+03  0.65182743027E+02  0.59145527757E+03  0.67800297056E+03  0.46999998093E+01 0. -1.
</event>
<event>
 5   0  0.6015709E-03  0.8999425E+03  0.7818609E-02  0.9425653E-01
       -1   -1    0    0    0  501  0.00000000000E+00  0.00000000000E+00  0.96063530852E+02  0.96063530984E+02  0.50400001928E-02 0.  1.
        1   -1    0    0  501    0  0.00000000000E+00  0.00000000000E+00 -0.21077108079E+04  0.21077108079E+04  0.50400001928E-02 0. -1.
    10030    2    1    2    0    0  0.00000000000E+00  0.00000000000E+00 -0.20116472770E+04  0.22037743389E+04  0.89994253676E+03 0.  0.
        3    1    3    3  502    0 -0.10883464410E+03  0.10075187476E+03 -0.20461383310E+04  0.20515062758E+04  0.10100000352E+00 0. -1.
       -3    1    3    3    0  502  0.10883464410E+03 -0.10075187476E+03  0.34491053946E+02  0.15226806306E+03  0.10100000352E+00 0.  1.
</event>
<event>
 5   0  0.1041727E-02  0.9006389E+03  0.7818609E-02  0.9424783E-01
        2   -1    0    0  501    0  0.00000000000E+00  0.00000000000E+00  0.29121885812E+03  0.29121885813E+03  0.25500000920E-02 0.  1.
       -2   -1    0    0    0  501  0.00000000000E+00  0.00000000000E+00 -0.69634088272E+03  0.69634088273E+03  0.25500000920E-02 0. -1.
    10030    2    1    2    0    0  0.00000000000E+00  0.00000000000E+00 -0.40512202461E+03  0.98755974085E+03  0.90063887709E+03 0.  0.
        4    1    3    3  502    0 -0.44411118673E+03  0.73848495769E+02 -0.19172621895E+03  0.48933516370E+03  0.12699999809E+01 0. -1.
       -4    1    3    3    0  502  0.44411118673E+03 -0.73848495769E+02 -0.21339580566E+03  0.49822457715E+03  0.12699999809E+01 0.  1.
</event>
<event>
 5   0  0.6137243E-03  0.8958887E+03  0.7818609E-02  0.9430735E-01
        1   -1    0    0  501    0  0.00000000000E+00  0.00000000000E+00  0.45973895590E+03  0.45973895592E+03  0.50400001928E-02 0. -1.
       -1   -1    0    0    0  501  0.00000000000E+00  0.00000000000E+00 -0.43645228783E+03  0.43645228786E+03  0.50400001928E-02 0.  1.
    10030    2    1    2    0    0  0.00000000000E+00  0.00000000000E+00  0.23286668066E+02  0.89619124378E+03  0.89588865186E+03 0.  0.
        4    1    3    3  502    0 -0.23272364554E+03  0.24362673918E+03  0.30693487791E+03  0.45576848883E+03  0.12699999809E+01 0. -1.
       -4    1    3    3    0  502  0.23272364554E+03 -0.24362673918E+03 -0.28364820984E+03  0.44042275495E+03  0.12699999809E+01 0.  1.
</event>
<event>
 5   0  0.1041727E-02  0.9002109E+03  0.7818609E-02  0.9425318E-01
       -2   -1    0    0    0  501  0.00000000000E+00  0.00000000000E+00  0.88163978725E+03  0.88163978725E+03  0.25500000920E-02 0. -1.
        2   -1    0    0  501    0  0.00000000000E+00  0.00000000000E+00 -0.22979331992E+03  0.22979331994E+03  0.25500000920E-02 0.  1.
    10030    2    1    2    0    0  0.00000000000E+00  0.00000000000E+00  0.65184646732E+03  0.11114331072E+04  0.90021093906E+03 0.  0.
        4    1    3    3  502    0  0.65739774882E+02 -0.38184370548E+02 -0.22180679101E+03  0.23447735412E+03  0.12699999809E+01 0.  1.
       -4    1    3    3    0  502 -0.65739774882E+02  0.38184370548E+02  0.87365325833E+03  0.87695575307E+03  0.12699999809E+01 0. -1.
</event>
<event>
 5   0  0.1003252E-02  0.8971583E+03  0.7818609E-02  0.9429141E-01
        2   -1    0    0  501    0  0.00000000000E+00  0.00000000000E+00  0.36079626123E+03  0.36079626124E+03  0.25500000920E-02 0. -1.
       -2   -1    0    0    0  501  0.00000000000E+00  0.00000000000E+00 -0.55771992939E+03  0.55771992940E+03  0.25500000920E-02 0.  1.
    10030    2    1    2    0    0  0.00000000000E+00  0.00000000000E+00 -0.19692366816E+03  0.91851619064E+03  0.89715832570E+03 0.  0.
        2    1    3    3  502    0 -0.33042653523E+03  0.30330548601E+03 -0.10550695269E+03  0.46076852117E+03  0.25500000920E-02 0.  1.
       -2    1    3    3    0  502  0.33042653523E+03 -0.30330548601E+03 -0.91416715471E+02  0.45774766947E+03  0.25500000920E-02 0. -1.
</event>
<event>
 5   0  0.6288003E-03  0.9140209E+03  0.7818609E-02  0.9408222E-01
       -1   -1    0    0    0  501  0.00000000000E+00  0.00000000000E+00  0.33005138043E+03  0.33005138046E+03  0.50400001928E-02 0.  1.
        1   -1    0    0  501    0  0.00000000000E+00  0.00000000000E+00 -0.63280611114E+03  0.63280611116E+03  0.50400001928E-02 0. -1.
    10030    2    1    2    0    0  0.00000000000E+00  0.00000000000E+00 -0.30275473071E+03  0.96285749163E+03  0.91402085436E+03 0.  0.
        1    1    3    3  502    0  0.21454495660E+02 -0.21566885780E+03 -0.57522469750E+03  0.61470058097E+03  0.50400001928E-02 0. -1.
       -1    1    3    3    0  502 -0.21454495660E+02  0.21566885780E+03  0.27246996679E+03  0.34815691065E+03  0.50400001928E-02 0.  1.
</event>
<event>
 5   0  0.3996375E-03  0.8960452E+03  0.7818609E-02  0.9430539E-01
       -3   -1    0    0    0  501  0.00000000000E+00  0.00000000000E+00  0.10206057123E+04  0.10206057173E+04  0.10100000352E+00 0.  1.
        3   -1    0    0  501    0  0.00000000000E+00  0.00000000000E+00 -0.19667168994E+03  0.19667171587E+03  0.10100000352E+00 0. -1.
    10030    2    1    2    0    0  0.00000000000E+00  0.00000000000E+00  0.82393402233E+03  0.12172774331E+04  0.89604524221E+03 0.  0.
        4    1    3    3  502    0  0.13551489146E+03 -0.41257531768E+03  0.26228535682E+03  0.50732425515E+03  0.12699999809E+01 0. -1.
       -4    1    3    3    0  502 -0.13551489146E+03  0.41257531768E+03  0.56164866551E+03  0.70995317799E+03  0.12699999809E+01 0.  1.
</event>
<event>
 5   0  0.6288003E-03  0.8956100E+03  0.7818609E-02  0.9431086E-01
       -1   -1    0    0    0  501  0.00000000000E+00  0.00000000000E+00  0.26954479498E+03  0.26954479502E+03  0.50400001928E-02 0.  1.
        1   -1    0    0  501    0  0.00000000000E+00  0.00000000000E+00 -0.74395537317E+03  0.74395537318E+03  0.50400001928E-02 0. -1.
    10030    2    1    2    0    0  0.00000000000E+00  0.00000000000E+00 -0.47441057819E+03  0.10135001682E+04  0.89560995654E+03 0.  0.
        1    1    3    3  502    0 -0.10840121239E+02  0.56450775978E+02 -0.73976307394E+03  0.74199299453E+03  0.50400001928E-02 0. -1.
       -1    1    3    3    0  502  0.10840121239E+02 -0.56450775978E+02  0.26535249575E+03  0.27150717368E+03  0.50400001928E-02 0.  1.
</event>
<event>
 5   0  0.1033749E-02  0.8994881E+03  0.7818609E-02  0.9426222E-01
        2   -1    0    0  501    0  0.00000000000E+00  0.00000000000E+00  0.60514004436E+03  0.60514004437E+03  0.25500000920E-02 0. -1.
       -2   -1    0    0    0  501  0.00000000000E+00  0.00000000000E+00 -0.33425273180E+03  0.33425273181E+03  0.25500000920E-02 0.  1.
    10030    2    1    2    0    0  0.00000000000E+00  0.00000000000E+00  0.27088731256E+03  0.93939277617E+03  0.89948810543E+03 0.  0.
        5    1    3    3  502    0  0.38176840364E+03  0.21319681124E+02 -0.11179935574E+03  0.39840033730E+03  0.46999998093E+01 0.  1.
       -5    1    3    3    0  502 -0.38176840364E+03 -0.21319681124E+02  0.38268666830E+03  0.54099243887E+03  0.46999998093E+01 0. -1.
</event>
<event>
 5   0  0.1028978E-02  0.9027588E+03  0.7818609E-02  0.9422139E-01
       -2   -1    0    0    0  501  0.00000000000E+00  0.00000000000E+00  0.32423071566E+03  0.32423071567E+03  0.25500000920E-02 0. -1.
        2   -1    0    0  501    0  0.00000000000E+00  0.00000000000E+00 -0.62839013438E+03  0.62839013438E+03  0.25500000920E-02 0.  1.
    10030    2    1    2    0    0  0.00000000000E+00  0.00000000000E+00 -0.30415941872E+03  0.95262085005E+03  0.90275884485E+03 0.  0.
        3    1    3    3  502    0 -0.25031309928E+03  0.32954888307E+03 -0.34226845379E+03  0.53703521175E+03  0.10100000352E+00 0.  1.
       -3    1    3    3    0  502  0.25031309928E+03 -0.32954888307E+03  0.38109035076E+02  0.41558563829E+03  0.10100000352E+00 0. -1.
</event>
<event>
 5   0  0.1033749E-02  0.8969098E+03  0.7818609E-02  0.9429453E-01
       -2   -1    0    0    0  501  0.00000000000E+00  0.00000000000E+00  0.36053955504E+03  0.36053955505E+03  0.25500000920E-02 0.  1.
        2   -1    0    0  501    0  0.00000000000E+00  0.00000000000E+00 -0.55780780935E+03  0.55780780936E+03  0.25500000920E-02 0. -1.
    10030    2    1    2    0    0  0.00000000000E+00  0.00000000000E+00 -0.19726825431E+03  0.91834736440E+03  0.89690975998E+03 0.  0.
        5    1    3    3  502    0 -0.27217571084E+03  0.88921573347E+02 -0.45199595363E+03  0.53507858850E+03  0.46999998093E+01 0. -1.
       -5    1    3    3    0  502  0.27217571084E+03 -0.88921573347E+02  0.25472769932E+03  0.38326877590E+03  0.46999998093E+01 0.  1.
</event>
<event>
 5   0  0.6092779E-03  0.9123229E+03  0.7818609E-02  0.9410307E-01
       -1   -1    0    0    0  501  0.00000000000E+00  0.00000000000E+00  0.16716266761E+03  0.16716266768E+03  0.50400001928E-02 0.  1.
        1   -1    0    0  501    0  0.00000000000E+00  0.00000000000E+00 -0.12447951623E+04  0.12447951623E+04  0.50400001928E-02 0. -1.
    10030    2    1    2    0    0  0.00000000000E+00  0.00000000000E+00 -0.10776324946E+04  0.14119578299E+04  0.91232292531E+03 0.  0.
        2    1    3    3  502    0 -0.15331629415E+03 -0.30831759961E+03 -0.75766684561E+02  0.35257087057E+03  0.25500000920E-02 0. -1.
       -2    1    3    3    0  502  0.15331629415E+03  0.30831759961E+03 -0.10018658101E+04  0.10593869594E+04  0.25500000920E-02 0.  1.
</event>
<event>
 5   0  0.1041727E-02  0.8746036E+03  0.7818609E-02  0.9457897E-01
        2   -1    0    0  501    0  0.00000000000E+00  0.00000000000E+00  0.95519292696E+03  0.95519292696E+03  0.25500000920E-02 0. -1.
       -2   -1    0    0    0  501  0.00000000000E+00  0.00000000000E+00 -0.20020341469E+03  0.20020341471E+03  0.25500000920E-02 0.  1.
    10030    2    1    2    0    0  0.00000000000E+00  0.00000000000E+00  0.75498951227E+03  0.11553963417E+04  0.87460364893E+03 0.  0.
        4    1    3    3  502    0  0.17064128162E+03  0.31519425759E+03  0.70845808308E+03  0.79396494595E+03  0.12699999809E+01 0. -1.
       -4    1    3    3    0  502 -0.17064128162E+03 -0.31519425759E+03  0.46531429187E+02  0.36143139573E+03  0.12699999809E+01 0.  1.
</event>
<event>
 5   0  0.6288003E-03  0.9029256E+03  0.7818609E-02  0.9421932E-01
        1   -1    0    0  501    0  0.00000000000E+00  0.00000000000E+00  0.10014162127E+04  0.10014162127E+04  0.50400001928E-02 0. -1.
       -1   -1    0    0    0  501  0.00000000000E+00  0.00000000000E+00 -0.20353040309E+03  0.20353040315E+03  0.50400001928E-02 0.  1.
    10030    2    1    2    0    0  0.00000000000E+00  0.00000000000E+00  0.79788580961E+03  0.12049466159E+04  0.90292556831E+03 0.  0.
        1    1    3    3  502    0 -0.37170808986E+03 -0.17748262661E+03  0.15232661741E+03  0.43917010965E+03  0.50400001928E-02 0.  1.
       -1    1    3    3    0  502  0.37170808986E+03  0.17748262661E+03  0.64555919219E+03  0.76577650621E+03  0.50400001928E-02 0. -1.
</event>
<event>
 5   0  0.1028978E-02  0.9053380E+03  0.7818609E-02  0.9418933E-01
       -2   -1    0    0    0  501  0.00000000000E+00  0.00000000000E+00  0.16161670466E+03  0.16161670468E+03  0.25500000920E-02 0.  1.
        2   -1    0    0  501    0  0.00000000000E+00  0.00000000000E+00 -0.12678715581E+04  0.12678715581E+04  0.25500000920E-02 0. -1.
    10030    2    1    2    0    0  0.00000000000E+00  0.00000000000E+00 -0.11062548534E+04  0.14294882627E+04  0.90533799912E+03 0.  0.
        3    1    3    3  502    0  0.36726311776E+03  0.19747598069E+03 -0.83126681706E+03  0.92999112467E+03  0.10100000352E+00 0. -1.
       -3    1    3    3    0  502 -0.36726311776E+03 -0.19747598069E+03 -0.27498803634E+03  0.49949713807E+03  0.10100000352E+00 0.  1.
</event>
<event>
 5   0  0.6288003E-03  0.9019996E+03  0.7818609E-02  0.9423085E-01
        1   -1    0    0  501    0  0.00000000000E+00  0.00000000000E+00  0.36581523868E+03  0.36581523872E+03  0.50400001928E-02 0. -1.
       -1   -1    0    0    0  501  0.00000000000E+00  0.00000000000E+00 -0.55602065276E+03  0.55602065278E+03  0.50400001928E-02 0.  1.
    10030    2    1    2    0    0  0.00000000000E+00  0.00000000000E+00 -0.19020541407E+03  0.92183589150E+03  0.90199961824E+03 0.  0.
        1    1    3    3  502    0  0.26742301670E+03 -0.81913149390E+02 -0.45668552389E+03  0.53552451080E+03  0.50400001928E-02 0.  1.
       -1    1    3    3    0  502 -0.26742301670E+03  0.81913149390E+02  0.26648010982E+03  0.38631138070E+03  0.50400001928E-02 0. -1.
</event>
<event>
 5   0  0.1033749E-02  0.8931847E+03  0.7818609E-02  0.9434141E-01
        2   -1    0    0  501    0  0.00000000000E+00  0.00000000000E+00  0.38787431240E+03  0.38787431241E+03  0.25500000920E-02 0.  1.
       -2   -1    0    0    0  501  0.00000000000E+00  0.00000000000E+00 -0.51419942434E+03  0.51419942435E+03  0.25500000920E-02 0. -1.
    10030    2    1    2    0    0  0.00000000000E+00  0.00000000000E+00 -0.12632511194E+03  0.90207373676E+03  0.89318474720E+03 0.  0.
        5    1    3    3  502    0 -0.21568679226E+03 -0.18570642340E+03 -0.41070198420E+03  0.49970579131E+03  0.46999998093E+01 0. -1.
       -5    1    3    3    0  502  0.21568679226E+03  0.18570642340E+03  0.28437687226E+03  0.40236794544E+03  0.46999998093E+01 0.  1.
</event>
<event>
 5   0  0.3996375E-03  0.8957448E+03  0.7818609E-02  0.9430916E-01
       -3   -1    0    0    0  501  0.00000000000E+00  0.00000000000E+00  0.12572366113E+04  0.12572366154E+04  0.10100000352E+00 0. -1.
        3   -1    0    0  501    0  0.00000000000E+00  0.00000000000E+00 -0.15954807610E+03  0.15954810806E+03  0.10100000352E+00 0.  1.
    10030    2    1    2    0    0  0.00000000000E+00  0.00000000000E+00  0.10976885352E+04  0.14167847235E+04  0.89574484772E+03 0.  0.
        1    1    3    3  502    0 -0.86301808185E+02 -0.26410695484E+03 -0.67505167379E+01  0.27793174557E+03  0.50400001928E-02 0.  1.
       -1    1    3    3    0  502  0.86301808185E+02  0.26410695484E+03  0.11044390520E+04  0.11388529779E+04  0.50400001928E-02 0. -1.
</event>
<event>
 5   0  0.6137243E-03  0.9016397E+03  0.7818609E-02  0.9423534E-01
       -1   -1    0    0    0  501  0.00000000000E+00  0.00000000000E+00  0.40429200448E+03  0.40429200451E+03  0.50400001928E-02 0.  1.
        1   -1    0    0  501    0  0.00000000000E+00  0.00000000000E+00 -0.50270229432E+03  0.50270229435E+03  0.50400001928E-02 0. -1.
    10030    2    1    2    0    0  0.00000000000E+00  0.00000000000E+00 -0.98410289846E+02  0.90699429886E+03  0.90163965808E+03 0.  0.
        4    1    3    3  502    0  0.33845846082E+03  0.28862885320E+03 -0.12296289744E+03  0.46149998011E+03  0.12699999809E+01 0.  1.
       -4    1    3    3    0  502 -0.33845846082E+03 -0.28862885320E+03  0.24552607594E+02  0.44549431875E+03  0.12699999809E+01 0. -1.
</event>
<event>
 5   0  0.1003252E-02  0.8997478E+03  0.7818609E-02  0.9425897E-01
        2   -1    0    0  501    0  0.00000000000E+00  0.00000000000E+00  0.12761380192E+04  0.12761380192E+04  0.25500000920E-02 0.  1.
       -2   -1    0    0    0  501  0.00000000000E+00  0.00000000000E+00 -0.15859298211E+03  0.15859298213E+03  0.25500000920E-02 0. -1.
    10030    2    1    2    0    0  0.00000000000E+00  0.00000000000E+00  0.11175450370E+04  0.14347310013E+04  0.89974781814E+03 0.  0.
        2    1    3    3  502    0  0.26596350102E+03 -0.15655011822E+03  0.10807233292E+04  0.11239250143E+04  0.25500000920E-02 0.  1.
       -2    1    3    3    0  502 -0.26596350102E+03  0.15655011822E+03  0.36821707817E+02  0.31080598701E+03  0.25500000920E-02 0. -1.
</event>
<event>
 5   0  0.1028978E-02  0.8934585E+03  0.7818609E-02  0.9433796E-01
       -2   -1    0    0    0  501  0.00000000000E+00  0.00000000000E+00  0.21124982471E+03  0.21124982473E+03  0.25500000920E-02 0.  1.
        2   -1    0    0  501    0  0.00000000000E+00  0.00000000000E+00 -0.94469679302E+03  0.94469679302E+03  0.25500000920E-02 0. -1.
    10030    2    1    2    0    0  0.00000000000E+00  0.00000000000E+00 -0.73344696831E+03  0.11559466177E+04  0.89345852045E+03 0.  0.
        3    1    3    3  502    0 -0.33017160747E+03  0.30036205801E+03 -0.39045191859E+03  0.59302897670E+03  0.10100000352E+00 0. -1.
       -3    1    3    3    0  502  0.33017160747E+03 -0.30036205801E+03 -0.34299504972E+03  0.56291764105E+03  0.10100000352E+00 0.  1.
</event>
<event>
 5   0  0.6211218E-03  0.9227442E+03  0.7818609E-02  0.9397588E-01
        1   -1    0    0  501    0  0.00000000000E+00  0.00000000000E+00  0.55551174136E+03  0.55551174138E+03  0.50400001928E-02 0.  1.
       -1   -1    0    0    0  501  0.00000000000E+00  0.00000000000E+00 -0.38318582749E+03  0.38318582752E+03  0.50400001928E-02 0. -1.
    10030    2    1    2    0    0  0.00000000000E+00  0.00000000000E+00  0.17232591387E+03  0.93869756890E+03  0.92274422527E+03 0.  0.
        5    1    3    3  502    0 -0.10269014799E+03 -0.19918107319E+03  0.49640141336E+03  0.54466027907E+03  0.46999998093E+01 0.  1.
       -5    1    3    3    0  502  0.10269014799E+03  0.19918107319E+03 -0.32407549949E+03  0.39403728983E+03  0.46999998093E+01 0. -1.
</event>
<event>
 5   0  0.3996375E-03  0.8986012E+03  0.7818609E-02  0.9427332E-01
        4   -1    0    0  501    0  0.00000000000E+00  0.00000000000E+00  0.28379824034E+03  0.28380108195E+03  0.12699999809E+01 0.  1.
       -4   -1    0    0    0  501  0.00000000000E+00  0.00000000000E+00 -0.71131182913E+03  0.71131296288E+03  0.12699999809E+01 0. -1.
    10030    2    1    2    0    0  0.00000000000E+00  0.00000000000E+00 -0.42751358880E+03  0.99511404484E+03  0.89860118719E+03 0.  0.
        4    1    3    3  502    0  0.52704905578E+02  0.24649268801E+03  0.19812130489E+03  0.32060897783E+03  0.12699999809E+01 0.  1.
       -4    1    3    3    0  502 -0.52704905578E+02 -0.24649268801E+03 -0.62563489369E+03  0.67450506701E+03  0.12699999809E+01 0. -1.
</event>
<event>
 5   0  0.1041727E-02  0.9009071E+03  0.7818609E-02  0.9424448E-01
        2   -1    0    0  501    0  0.00000000000E+00  0.00000000000E+00  0.13600830720E+04  0.13600830720E+04  0.25500000920E-02 0.  1.
       -2   -1    0    0    0  501  0.00000000000E+00  0.00000000000E+00 -0.14918824638E+03  0.14918824640E+03  0.25500000920E-02 0. -1.
    10030    2    1    2    0    0  0.00000000000E+00  0.00000000000E+00  0.12108948256E+04  0.15092713184E+04  0.90090711720E+03 0.  0.
        4    1    3    3  502    0 -0.31850247532E+02  0.29501576299E+03  0.11732116502E+04  0.12101553320E+04  0.12699999809E+01 0.  1.
       -4    1    3    3    0  502  0.31850247532E+02 -0.29501576299E+03  0.37683175454E+02  0.29911598636E+03  0.12699999809E+01 0. -1.
</event>
<event>
 5   0  0.1003252E-02  0.9184644E+03  0.7818609E-02  0.9402790E-01
        2   -1    0    0  501    0  0.00000000000E+00  0.00000000000E+00  0.12476271742E+04  0.12476271742E+04  0.25500000920E-02 0.  1.
       -2   -1    0    0    0  501  0.00000000000E+00  0.00000000000E+00 -0.16903625886E+03  0.16903625888E+03  0.25500000920E-02 0. -1.
    10030    2    1    2    0    0  0.00000000000E+00  0.00000000000E+00  0.10785909153E+04  0.14166634331E+04  0.91846443587E+03 0.  0.
        2    1    3    3  502    0  0.11578618442E+03  0.25515320297E+03 -0.21911603319E+02  0.28105109118E+03  0.25500000920E-02 0. -1.
       -2    1    3    3    0  502 -0.11578618442E+03 -0.25515320297E+03  0.11005025187E+04  0.11356123419E+04  0.25500000920E-02 0.  1.
</event>
<event>
 5   0  0.6092779E-03  0.9296116E+03  0.7818609E-02  0.9389304E-01
        1   -1    0    0  501    0  0.00000000000E+00  0.00000000000E+00  0.33507635776E+03  0.33507635780E+03  0.50400001928E-02 0.  1.
       -1   -1    0    0    0  501  0.00000000000E+00  0.00000000000E+00 -0.64476179148E+03  0.64476179150E+03  0.50400001928E-02 0. -1.
    10030    2    1    2    0    0  0.00000000000E+00  0.00000000000E+00 -0.30968543371E+03  0.97983814929E+03  0.92961160221E+03 0.  0.
        2    1    3    3  502    0 -0.43712825608E+03  0.14763168367E+03 -0.95514739058E+02  0.47116800790E+03  0.25500000920E-02 0. -1.
       -2    1    3    3    0  502  0.43712825608E+03 -0.14763168367E+03 -0.21417069466E+03  0.50867014139E+03  0.25500000920E-02 0.  1.
</event>
<event>
 5   0  0.1003252E-02  0.8890745E+03  0.7818609E-02  0.9439343E-01
        2   -1    0    0  501    0  0.00000000000E+00  0.00000000000E+00  0.74370726697E+03  0.74370726698E+03  0.25500000920E-02 0.  1.
       -2   -1    0    0    0  501  0.00000000000E+00  0.00000000000E+00 -0.26571389947E+03  0.26571389949E+03  0.25500000920E-02 0. -1.
    10030    2    1    2    0    0  0.00000000000E+00  0.00000000000E+00  0.47799336750E+03  0.10094211665E+04  0.88907448053E+03 0.  0.
        2    1    3    3  502    0 -0.19712954706E+03 -0.30762256631E+03  0.52649587585E+03  0.64085069159E+03  0.25500000920E-02 0.  1.
       -2    1    3    3    0  502  0.19712954706E+03  0.30762256631E+03 -0.48502508349E+02  0.36857047487E+03  0.25500000920E-02 0. -1.
</event>
<event>
 5   0  0.1033749E-02  0.9030034E+03  0.7818609E-02  0.9421835E-01
       -2   -1    0    0    0  501  0.00000000000E+00  0.00000000000E+00  0.26882547705E+03  0.26882547706E+03  0.25500000920E-02 0. -1.
        2   -1    0    0  501    0  0.00000000000E+00  0.00000000000E+00 -0.75831279592E+03  0.75831279592E+03  0.25500000920E-02 0.  1.
    10030    2    1    2    0    0  0.00000000000E+00  0.00000000000E+00 -0.48948731887E+03  0.10271382730E+04  0.90300343106E+03 0.  0.
        5    1    3    3  502    0 -0.12084490931E+03 -0.22156390555E+03  0.18106739425E+03  0.31064698230E+03  0.46999998093E+01 0. -1.
       -5    1    3    3    0  502  0.12084490931E+03  0.22156390555E+03 -0.67055471312E+03  0.71649129069E+03  0.46999998093E+01 0.  1.
</event>
<event>
 5   0  0.1041727E-02  0.9042573E+03  0.7818609E-02  0.9420275E-01
       -2   -1    0    0    0  501  0.00000000000E+00  0.00000000000E+00  0.23882859830E+03  0.23882859832E+03  0.25500000920E-02 0.  1.
        2   -1    0    0  501    0  0.00000000000E+00  0.00000000000E+00 -0.85592889707E+03  0.85592889707E+03  0.25500000920E-02 0. -1.
    10030    2    1    2    0    0  0.00000000000E+00  0.00000000000E+00 -0.61710029877E+03  0.10947574954E+04  0.90425726150E+03 0.  0.
        4    1    3    3  502    0  0.62034740365E+02  0.50375636427E+02 -0.84730891114E+03  0.85106992519E+03  0.12699999809E+01 0. -1.
       -4    1    3    3    0  502 -0.62034740365E+02 -0.50375636427E+02  0.23020861238E+03  0.24368757020E+03  0.12699999809E+01 0.  1.
</event>
<event>
 5   0  0.1003252E-02  0.7982951E+03  0.7818609E-02  0.9562488E-01
        2   -1    0    0  501    0  0.00000000000E+00  0.00000000000E+00  0.38305120190E+03  0.38305120191E+03  0.25500000920E-02 0.  1.
       -2   -1    0    0    0  501  0.00000000000E+00  0.00000000000E+00 -0.41592025409E+03  0.41592025409E+03  0.25500000920E-02 0. -1.
    10030    2    1    2    0    0  0.00000000000E+00  0.00000000000E+00 -0.32869052189E+02  0.79897145600E+03  0.79829506632E+03 0.  0.
        2    1    3    3  502    0  0.34056118479E+02 -0.23881684505E+03 -0.33470624471E+03  0.41257917414E+03  0.25500000920E-02 0. -1.
       -2    1    3    3    0  502 -0.34056118479E+02  0.23881684505E+03  0.30183719252E+03  0.38639228186E+03  0.25500000920E-02 0.  1.
</event>
<event>
 5   0  0.1033749E-02  0.9202950E+03  0.7818609E-02  0.9400561E-01
       -2   -1    0    0    0  501  0.00000000000E+00  0.00000000000E+00  0.22860645561E+03  0.22860645562E+03  0.25500000920E-02 0. -1.
        2   -1    0    0  501    0  0.00000000000E+00  0.00000000000E+00 -0.92620181520E+03  0.92620181520E+03  0.25500000920E-02 0.  1.
    10030    2    1    2    0    0  0.00000000000E+00  0.00000000000E+00 -0.69759535959E+03  0.11548082708E+04  0.92029498349E+03 0.  0.
        5    1    3    3  502    0  0.14698844799E+03 -0.31716835162E+03 -0.72422345393E+03  0.80419094022E+03  0.46999998093E+01 0.  1.
       -5    1    3    3    0  502 -0.14698844799E+03  0.31716835162E+03  0.26628094333E+02  0.35061733061E+03  0.46999998093E+01 0. -1.
</event>
<event>
 5   0  0.6288003E-03  0.9096970E+03  0.7818609E-02  0.9413540E-01
       -1   -1    0    0    0  501  0.00000000000E+00  0.00000000000E+00  0.50588164550E+03  0.50588164552E+03  0.50400001928E-02 0. -1.
        1   -1    0    0  501    0  0.00000000000E+00  0.00000000000E+00 -0.40896354705E+03  0.40896354708E+03  0.50400001928E-02 0.  1.
    10030    2    1    2    0    0  0.00000000000E+00  0.00000000000E+00  0.96918098442E+02  0.91484519260E+03  0.90969698726E+03 0.  0.
        1    1    3    3  502    0 -0.21506465720E+03  0.19633675932E+03 -0.30292673021E+03  0.42019701777E+03  0.50400001928E-02 0.  1.
       -1    1    3    3    0  502  0.21506465720E+03 -0.19633675932E+03  0.39984482866E+03  0.49464817483E+03  0.50400001928E-02 0. -1.
</event>
<event>
 5   0  0.1028978E-02  0.7606558E+03  0.7818609E-02  0.9618780E-01
        2   -1    0    0  501    0  0.00000000000E+00  0.00000000000E+00  0.21255409728E+04  0.21255409728E+04  0.25500000920E-02 0. -1.
       -2   -1    0    0    0  501  0.00000000000E+00  0.00000000000E+00 -0.68052946001E+02  0.68052946049E+02  0.25500000920E-02 0.  1.
    10030    2    1    2    0    0  0.00000000000E+00  0.00000000000E+00  0.20574880268E+04  0.21935939189E+04  0.76065583571E+03 0.  0.
        3    1    3    3  502    0  0.30528206339E+03 -0.20919917925E+03  0.77588913800E+03  0.85963096704E+03  0.10100000352E+00 0.  1.
       -3    1    3    3    0  502 -0.30528206339E+03  0.20919917925E+03  0.12815988888E+04  0.13339629518E+04  0.10100000352E+00 0. -1.
</event>
<event>
 5   0  0.6288003E-03  0.8928008E+03  0.7818609E-02  0.9434626E-01
       -1   -1    0    0    0  501  0.00000000000E+00  0.00000000000E+00  0.34028390146E+03  0.34028390150E+03  0.50400001928E-02 0. -1.
        1   -1    0    0  501    0  0.00000000000E+00  0.00000000000E+00 -0.58560904657E+03  0.58560904659E+03  0.50400001928E-02 0.  1.
    10030    2    1    2    0    0  0.00000000000E+00  0.00000000000E+00 -0.24532514511E+03  0.92589294809E+03  0.89280083137E+03 0.  0.
        1    1    3    3  502    0 -0.43753232900E+02  0.77940608012E+02  0.33090896460E+03  0.34276789033E+03  0.50400001928E-02 0. -1.
       -1    1    3    3    0  502  0.43753232900E+02 -0.77940608012E+02 -0.57623410971E+03  0.58312505776E+03  0.50400001928E-02 0.  1.
</event>
<event>
 5   0  0.1003252E-02  0.8971497E+03  0.7818609E-02  0.9429152E-01
        2   -1    0    0  501    0  0.00000000000E+00  0.00000000000E+00  0.11356826130E+04  0.11356826130E+04  0.25500000920E-02 0.  1.
       -2   -1    0    0    0  501  0.00000000000E+00  0.00000000000E+00 -0.17717923465E+03  0.17717923466E+03  0.25500000920E-02 0. -1.
    10030    2    1    2    0    0  0.00000000000E+00  0.00000000000E+00  0.95850337836E+03  0.13128618477E+04  0.89714965571E+03 0.  0.
        2    1    3    3  502    0  0.96816290335E+02  0.38212309235E+03  0.16598138634E+03  0.42771634572E+03  0.25500000920E-02 0. -1.
       -2    1    3    3    0  502 -0.96816290335E+02 -0.38212309235E+03  0.79252199202E+03  0.88514550195E+03  0.25500000920E-02 0.  1.
</event>
<event>
 5   0  0.1033749E-02  0.8669314E+03  0.7818609E-02  0.9467890E-01
       -2   -1    0    0    0  501  0.00000000000E+00  0.00000000000E+00  0.13928835220E+03  0.13928835222E+03  0.25500000920E-02 0.  1.
        2   -1    0    0  501    0  0.00000000000E+00  0.00000000000E+00 -0.13489462666E+04  0.13489462666E+04  0.25500000920E-02 0. -1.
    10030    2    1    2    0    0  0.00000000000E+00  0.00000000000E+00 -0.12096579144E+04  0.14882346188E+04  0.86693137605E+03 0.  0.
        5    1    3    3  502    0 -0.27326226499E+03  0.10444106992E+03 -0.11538686171E+04  0.11903844245E+04  0.46999998093E+01 0. -1.
       -5    1    3    3    0  502  0.27326226499E+03 -0.10444106992E+03 -0.55789297273E+02  0.29785019430E+03  0.46999998093E+01 0.  1.
</event>
<event>
 5   0  0.6288003E-03  0.9035397E+03  0.7818609E-02  0.9421167E-01
        1   -1    0    0  501    0  0.00000000000E+00  0.00000000000E+00  0.12431475826E+04  0.12431475826E+04  0.50400001928E-02 0.  1.
       -1   -1    0    0    0  501  0.00000000000E+00  0.00000000000E+00 -0.16417681343E+03  0.16417681350E+03  0.50400001928E-02 0. -1.
    10030    2    1    2    0    0  0.00000000000E+00  0.00000000000E+00  0.10789707691E+04  0.14073243961E+04  0.90353972527E+03 0.  0.
        1    1    3    3  502    0  0.25950245262E+03 -0.51526002201E+02  0.11098605873E+04  0.11409587964E+04  0.50400001928E-02 0.  1.
       -1    1    3    3    0  502 -0.25950245262E+03  0.51526002201E+02 -0.30889818128E+02  0.26636559971E+03  0.50400001928E-02 0. -1.
</event>
<event>
 5   0  0.6137243E-03  0.8981392E+03  0.7818609E-02  0.9427910E-01
        1   -1    0    0  501    0  0.00000000000E+00  0.00000000000E+00  0.88325818472E+03  0.88325818473E+03  0.50400001928E-02 0.  1.
       -1   -1    0    0    0  501  0.00000000000E+00  0.00000000000E+00 -0.22831774830E+03  0.22831774836E+03  0.50400001928E-02 0. -1.
    10030    2    1    2    0    0  0.00000000000E+00  0.00000000000E+00  0.65494043641E+03  0.11115759331E+04  0.89813923184E+03 0.  0.
        4    1    3    3  502    0  0.41930634794E+03  0.85281288279E+02  0.49613150085E+03  0.65516317860E+03  0.12699999809E+01 0.  1.
       -4    1    3    3    0  502 -0.41930634794E+03 -0.85281288279E+02  0.15880893556E+03  0.45641275449E+03  0.12699999809E+01 0. -1.
</event>
<event>
 5   0  0.6211218E-03  0.9059876E+03  0.7818609E-02  0.9418127E-01
        1   -1    0    0  501    0  0.00000000000E+00  0.00000000000E+00  0.18136038622E+04  0.18136038622E+04  0.50400001928E-02 0.  1.
       -1   -1    0    0    0  501  0.00000000000E+00  0.00000000000E+00 -0.11314675880E+03  0.11314675891E+03  0.50400001928E-02 0. -1.
    10030    2    1    2    0    0  0.00000000000E+00  0.00000000000E+00  0.17004571034E+04  0.19267506211E+04  0.90598763540E+03 0.  0.
        5    1    3    3  502    0 -0.23259985512E+03 -0.96164223313E+02  0.49308975330E+02  0.25652234891E+03  0.46999998093E+01 0. -1.
       -5    1    3    3    0  502  0.23259985512E+03  0.96164223313E+02  0.16511481281E+04  0.16702282722E+04  0.46999998093E+01 0.  1.
</event>
<event>
 5   0  0.3996375E-03  0.8974425E+03  0.7818609E-02  0.9428784E-01
       -3   -1    0    0    0  501  0.00000000000E+00  0.00000000000E+00  0.81356277294E+03  0.81356277921E+03  0.10100000352E+00 0. -1.
        3   -1    0    0  501    0  0.00000000000E+00  0.00000000000E+00 -0.24749258489E+03  0.24749260550E+03  0.10100000352E+00 0.  1.
    10030    2    1    2    0    0  0.00000000000E+00  0.00000000000E+00  0.56607018805E+03  0.10610553847E+04  0.89744251716E+03 0.  0.
        1    1    3    3  502    0  0.16291261637E+03  0.23491637267E+03 -0.12588792893E+03  0.31236836171E+03  0.50400001928E-02 0.  1.
       -1    1    3    3    0  502 -0.16291261637E+03 -0.23491637267E+03  0.69195811699E+03  0.74868702300E+03  0.50400001928E-02 0. -1.
</event>
<event>
 5   0  0.3996375E-03  0.8990268E+03  0.7818609E-02  0.9426799E-01
       -3   -1    0    0    0  501  0.00000000000E+00  0.00000000000E+00  0.34528121184E+03  0.34528122661E+03  0.10100000352E+00 0. -1.
        3   -1    0    0  501    0  0.00000000000E+00  0.00000000000E+00 -0.58521082497E+03  0.58521083368E+03  0.10100000352E+00 0.  1.
    10030    2    1    2    0    0  0.00000000000E+00  0.00000000000E+00 -0.23992961313E+03  0.93049206029E+03  0.89902683776E+03 0.  0.
        2    1    3    3  502    0  0.33616069173E+03  0.29841301761E+03 -0.12288746637E+03  0.46599964500E+03  0.25500000920E-02 0. -1.
       -2    1    3    3    0  502 -0.33616069173E+03 -0.29841301761E+03 -0.11704214676E+03  0.46449241529E+03  0.25500000920E-02 0.  1.
</event>
<event>
 5   0  0.6015709E-03  0.8991289E+03  0.7818609E-02  0.9426671E-01
       -1   -1    0    0    0  501  0.00000000000E+00  0.00000000000E+00  0.61405102437E+03  0.61405102439E+03  0.50400001928E-02 0. -1.
        1   -1    0    0  501    0  0.00000000000E+00  0.00000000000E+00 -0.32913909653E+03  0.32913909656E+03  0.50400001928E-02 0.  1.
    10030    2    1    2    0    0  0.00000000000E+00  0.00000000000E+00  0.28491192785E+03  0.94319012096E+03  0.89912891047E+03 0.  0.
        3    1    3    3  502    0  0.31079931558E+02  0.37065982151E+02 -0.32640125977E+03  0.32996612214E+03  0.10100000352E+00 0.  1.
       -3    1    3    3    0  502 -0.31079931558E+02 -0.37065982151E+02  0.61131318761E+03  0.61322399882E+03  0.10100000352E+00 0. -1.
</event>
<event>
 5   0  0.1033749E-02  0.8988114E+03  0.7818609E-02  0.9427068E-01
        2   -1    0    0  501    0  0.00000000000E+00  0.00000000000E+00  0.10068921308E+04  0.10068921308E+04  0.25500000920E-02 0. -1.
       -2   -1    0    0    0  501  0.00000000000E+00  0.00000000000E+00 -0.20058305658E+03  0.20058305660E+03  0.25500000920E-02 0.  1.
    10030    2    1    2    0    0  0.00000000000E+00  0.00000000000E+00  0.80630907422E+03  0.12074751874E+04  0.89881144019E+03 0.  0.
        5    1    3    3  502    0  0.14109125386E+03  0.40353516750E+03  0.21702494600E+03  0.47944685890E+03  0.46999998093E+01 0.  1.
       -5    1    3    3    0  502 -0.14109125386E+03 -0.40353516750E+03  0.58928412822E+03  0.72802832850E+03  0.46999998093E+01 0. -1.
</event>
<event>
 5   0  0.3996375E-03  0.9042846E+03  0.7818609E-02  0.9420241E-01
       -3   -1    0    0    0  501  0.00000000000E+00  0.00000000000E+00  0.11298129054E+04  0.11298129099E+04  0.10100000352E+00 0. -1.
        3   -1    0    0  501    0  0.00000000000E+00  0.00000000000E+00 -0.18094381213E+03  0.18094384032E+03  0.10100000352E+00 0.  1.
    10030    2    1    2    0    0  0.00000000000E+00  0.00000000000E+00  0.94886909324E+03  0.13107567502E+04  0.90428463555E+03 0.  0.
        2    1    3    3  502    0 -0.12395355261E+03 -0.14542804639E+03  0.10684075547E+04  0.10853610012E+04  0.25500000920E-02 0. -1.
       -2    1    3    3    0  502  0.12395355261E+03  0.14542804639E+03 -0.11953846151E+03  0.22539574900E+03  0.25500000920E-02 0.  1.
</event>
<event>
 5   0  0.1033749E-02  0.8943670E+03  0.7818609E-02  0.9432650E-01
       -2   -1    0    0    0  501  0.00000000000E+00  0.00000000000E+00  0.11509360722E+03  0.11509360725E+03  0.25500000920E-02 0. -1.
        2   -1    0    0  501    0  0.00000000000E+00  0.00000000000E+00 -0.17374822523E+04  0.17374822523E+04  0.25500000920E-02 0.  1.
    10030    2    1    2    0    0  0.00000000000E+00  0.00000000000E+00 -0.16223886451E+04  0.18525758596E+04  0.89436703859E+03 0.  0.
        5    1    3    3  502    0 -0.34368208807E+03 -0.17052063537E+03 -0.33542376147E+03  0.50963305869E+03  0.46999998093E+01 0.  1.
       -5    1    3    3    0  502  0.34368208807E+03  0.17052063537E+03 -0.12869648837E+04  0.13429428009E+04  0.46999998093E+01 0. -1.
</event>
<event>
 5   0  0.6137243E-03  0.9430711E+03  0.7818609E-02  0.9373286E-01
       -1   -1    0    0    0  501  0.00000000000E+00  0.00000000000E+00  0.64388455895E+03  0.64388455897E+03  0.50400001928E-02 0.  1.
        1   -1    0    0  501    0  0.00000000000E+00  0.00000000000E+00 -0.34531930614E+03  0.34531930618E+03  0.50400001928E-02 0. -1.
    10030    2    1    2    0    0  0.00000000000E+00  0.00000000000E+00  0.29856525282E+03  0.98920386515E+03  0.94307108780E+03 0.  0.
        4    1    3    3  502    0  0.21280565675E+03  0.41962285302E+03  0.18202784387E+03  0.50448521799E+03  0.12699999809E+01 0.  1.
       -4    1    3    3    0  502 -0.21280565675E+03 -0.41962285302E+03  0.11653740895E+03  0.48471864716E+03  0.12699999809E+01 0. -1.
</event>
<event>
 5   0  0.6211218E-03  0.9060748E+03  0.7818609E-02  0.9418019E-01
        1   -1    0    0  501    0  0.00000000000E+00  0.00000000000E+00  0.57100736706E+03  0.57100736708E+03  0.50400001928E-02 0.  1.
       -1   -1    0    0    0  501  0.00000000000E+00  0.00000000000E+00 -0.35944000009E+03  0.35944000013E+03  0.50400001928E-02 0. -1.
    10030    2    1    2    0    0  0.00000000000E+00  0.00000000000E+00  0.21156736697E+03  0.93044736721E+03  0.90607480507E+03 0.  0.
        5    1    3    3  502    0 -0.70178503315E+02  0.38287849029E+03 -0.13218195050E+03  0.41111448368E+03  0.46999998093E+01 0. -1.
       -5    1    3    3    0  502  0.70178503315E+02 -0.38287849029E+03  0.34374931747E+03  0.51933288353E+03  0.46999998093E+01 0.  1.
</event>
<event>
 5   0  0.1028978E-02  0.8893242E+03  0.7818609E-02  0.9439026E-01
        2   -1    0    0  501    0  0.00000000000E+00  0.00000000000E+00  0.12719854296E+04  0.12719854296E+04  0.25500000920E-02 0. -1.
       -2   -1    0    0    0  501  0.00000000000E+00  0.00000000000E+00 -0.15544547911E+03  0.15544547913E+03  0.25500000920E-02 0.  1.
    10030    2    1    2    0    0  0.00000000000E+00  0.00000000000E+00  0.11165399505E+04  0.14274309087E+04  0.88932420306E+03 0.  0.
        3    1    3    3  502    0 -0.25851638395E+03 -0.36067639552E+03  0.60384364829E+03  0.74936329296E+03  0.10100000352E+00 0. -1.
       -3    1    3    3    0  502  0.25851638395E+03  0.36067639552E+03  0.51269630217E+03  0.67806761575E+03  0.10100000352E+00 0.  1.
</event>
<event>
 5   0  0.1033749E-02  0.8952486E+03  0.7818609E-02  0.9431540E-01
       -2   -1    0    0    0  501  0.00000000000E+00  0.00000000000E+00  0.25913959287E+03  0.25913959288E+03  0.25500000920E-02 0.  1.
        2   -1    0    0  501    0  0.00000000000E+00  0.00000000000E+00 -0.77320308521E+03  0.77320308521E+03  0.25500000920E-02 0. -1.
    10030    2    1    2    0    0  0.00000000000E+00  0.00000000000E+00 -0.51406349234E+03  0.10323426781E+04  0.89524864192E+03 0.  0.
        5    1    3    3  502    0 -0.15584504194E+03 -0.23438759468E+03  0.14428616069E+03  0.31633180018E+03  0.46999998093E+01 0.  1.
       -5    1    3    3    0  502  0.15584504194E+03  0.23438759468E+03 -0.65834965303E+03  0.71601087791E+03  0.46999998093E+01 0. -1.
</event>
<event>
 5   0  0.3996375E-03  0.8993363E+03  0.7818609E-02  0.9426411E-01
        3   -1    0    0  501    0  0.00000000000E+00  0.00000000000E+00  0.39831436775E+03  0.39831438055E+03  0.10100000352E+00 0. -1.
       -3   -1    0    0    0  501  0.00000000000E+00  0.00000000000E+00 -0.50764284144E+03  0.50764285149E+03  0.10100000352E+00 0.  1.
    10030    2    1    2    0    0  0.00000000000E+00  0.00000000000E+00 -0.10932847369E+03  0.90595723205E+03  0.89933630591E+03 0.  0.
        4    1    3    3  502    0  0.35913687729E+03 -0.54231784619E+02 -0.32171864600E+03  0.48520602137E+03  0.12699999809E+01 0.  1.
       -4    1    3    3    0  502 -0.35913687729E+03  0.54231784619E+02  0.21239017230E+03  0.42075121067E+03  0.12699999809E+01 0. -1.
</event>
<event>
 5   0  0.1041727E-02  0.9094405E+03  0.7818609E-02  0.9413857E-01
       -2   -1    0    0    0  501  0.00000000000E+00  0.00000000000E+00  0.15307403723E+03  0.15307403725E+03  0.25500000920E-02 0. -1.
        2   -1    0    0  501    0  0.00000000000E+00  0.00000000000E+00 -0.13507875242E+04  0.13507875242E+04  0.25500000920E-02 0.  1.
    10030    2    1    2    0    0  0.00000000000E+00  0.00000000000E+00 -0.11977134869E+04  0.15038615614E+04  0.90944048686E+03 0.  0.
        4    1    3    3  502    0  0.17813413389E+03  0.37065904322E+03 -0.91971280239E+03  0.10074686833E+04  0.12699999809E+01 0.  1.
       -4    1    3    3    0  502 -0.17813413389E+03 -0.37065904322E+03 -0.27800068455E+03  0.49639287816E+03  0.12699999809E+01 0. -1.
</event>
<event>
 5   0  0.6288003E-03  0.9042892E+03  0.7818609E-02  0.9420236E-01
       -1   -1    0    0    0  501  0.00000000000E+00  0.00000000000E+00  0.47440393426E+03  0.47440393428E+03  0.50400001928E-02 0. -1.
        1   -1    0    0  501    0  0.00000000000E+00  0.00000000000E+00 -0.43092970432E+03  0.43092970435E+03  0.50400001928E-02 0.  1.
    10030    2    1    2    0    0  0.00000000000E+00  0.00000000000E+00  0.43474229931E+02  0.90533363864E+03  0.90428921733E+03 0.  0.
        1    1    3    3  502    0 -0.20190180750E+03 -0.22529066554E+03  0.35815277789E+03  0.46882153981E+03  0.50400001928E-02 0. -1.
       -1    1    3    3    0  502  0.20190180750E+03  0.22529066554E+03 -0.31467854796E+03  0.43651209883E+03  0.50400001928E-02 0.  1.
</event>
<event>
 5   0  0.6092779E-03  0.9027698E+03  0.7818609E-02  0.9422126E-01
       -1   -1    0    0    0  501  0.00000000000E+00  0.00000000000E+00  0.25929397889E+03  0.25929397894E+03  0.50400001928E-02 0. -1.
        1   -1    0    0  501    0  0.00000000000E+00  0.00000000000E+00 -0.78578111974E+03  0.78578111976E+03  0.50400001928E-02 0.  1.
    10030    2    1    2    0    0  0.00000000000E+00  0.00000000000E+00 -0.52648714086E+03  0.10450750987E+04  0.90276976712E+03 0.  0.
        2    1    3    3  502    0  0.19595690676E+03  0.40416432665E+03 -0.21146750917E+03  0.49645384446E+03  0.25500000920E-02 0. -1.
       -2    1    3    3    0  502 -0.19595690676E+03 -0.40416432665E+03 -0.31501963169E+03  0.54862125423E+03  0.25500000920E-02 0.  1.
</event>
<event>
 5   0  0.6137243E-03  0.8992414E+03  0.7818609E-02  0.9426530E-01
       -1   -1    0    0    0  501  0.00000000000E+00  0.00000000000E+00  0.64492647711E+03  0.64492647713E+03  0.50400001928E-02 0.  1.
        1   -1    0    0  501    0  0.00000000000E+00  0.00000000000E+00 -0.31346016223E+03  0.31346016227E+03  0.50400001928E-02 0. -1.
    10030    2    1    2    0    0  0.00000000000E+00  0.00000000000E+00  0.33146631489E+03  0.95838663940E+03  0.89924136508E+03 0.  0.
        4    1    3    3  502    0  0.26073037570E+03  0.18347376425E+03  0.50362536199E+03  0.59605626339E+03  0.12699999809E+01 0.  1.
       -4    1    3    3    0  502 -0.26073037570E+03 -0.18347376425E+03 -0.17215904710E+03  0.36233037601E+03  0.12699999809E+01 0. -1.
</event>
<event>
 5   0  0.6137243E-03  0.9575839E+03  0.7818609E-02  0.9356330E-01
       -1   -1    0    0    0  501  0.00000000000E+00  0.00000000000E+00  0.28697090506E+03  0.28697090510E+03  0.50400001928E-02 0.  1.
        1   -1    0    0  501    0  0.00000000000E+00  0.00000000000E+00 -0.79883263535E+03  0.79883263536E+03  0.50400001928E-02 0. -1.
    10030    2    1    2    0    0  0.00000000000E+00  0.00000000000E+00 -0.51186173029E+03  0.10858035405E+04  0.95758388538E+03 0.  0.
        4    1    3    3  502    0  0.52113448487E+01 -0.44485365860E+03 -0.45659633822E+03  0.63749805071E+03  0.12699999809E+01 0. -1.
       -4    1    3    3    0  502 -0.52113448487E+01  0.44485365860E+03 -0.55265392068E+02  0.44830548975E+03  0.12699999809E+01 0.  1.
</event>
<event>
 5   0  0.6288003E-03  0.9150633E+03  0.7818609E-02  0.9406945E-01
        1   -1    0    0  501    0  0.00000000000E+00  0.00000000000E+00  0.21421750195E+03  0.21421750201E+03  0.50400001928E-02 0. -1.
       -1   -1    0    0    0  501  0.00000000000E+00  0.00000000000E+00 -0.97720882408E+03  0.97720882409E+03  0.50400001928E-02 0.  1.
    10030    2    1    2    0    0  0.00000000000E+00  0.00000000000E+00 -0.76299132213E+03  0.11914263261E+04  0.91506334911E+03 0.  0.
        1    1    3    3  502    0  0.74942844105E+02 -0.19178514808E+03  0.15048111364E+03  0.25503438688E+03  0.50400001928E-02 0. -1.
       -1    1    3    3    0  502 -0.74942844105E+02  0.19178514808E+03 -0.91347243576E+03  0.93639193922E+03  0.50400001928E-02 0.  1.
</event>
<event>
 5   0  0.6211218E-03  0.8645873E+03  0.7818609E-02  0.9470965E-01
        1   -1    0    0  501    0  0.00000000000E+00  0.00000000000E+00  0.41492756912E+03  0.41492756915E+03  0.50400001928E-02 0.  1.
       -1   -1    0    0    0  501  0.00000000000E+00  0.00000000000E+00 -0.45038654780E+03  0.45038654783E+03  0.50400001928E-02 0. -1.
    10030    2    1    2    0    0  0.00000000000E+00  0.00000000000E+00 -0.35458978685E+02  0.86531411698E+03  0.86458728991E+03 0.  0.
        5    1    3    3  502    0  0.19163691133E+03  0.28354614355E+03  0.24656178319E+03  0.42182688894E+03  0.46999998093E+01 0.  1.
       -5    1    3    3    0  502 -0.19163691133E+03 -0.28354614355E+03 -0.28202076188E+03  0.44348722804E+03  0.46999998093E+01 0. -1.
</event>
<event>
 5   0  0.1041727E-02  0.9114147E+03  0.7818609E-02  0.9411424E-01
        2   -1    0    0  501    0  0.00000000000E+00  0.00000000000E+00  0.23946173433E+04  0.23946173433E+04  0.25500000920E-02 0.  1.
       -2   -1    0    0    0  501  0.00000000000E+00  0.00000000000E+00 -0.86723338052E+02  0.86723338090E+02  0.25500000920E-02 0. -1.
    10030    2    1    2    0    0  0.00000000000E+00  0.00000000000E+00  0.23078940052E+04  0.24813406814E+04  0.91141474514E+03 0.  0.
        4    1    3    3  502    0  0.39496334709E+03  0.15349717500E+03  0.16104063109E+04  0.16652229663E+04  0.12699999809E+01 0.  1.
       -4    1    3    3    0  502 -0.39496334709E+03 -0.15349717500E+03  0.69748769433E+03  0.81611771511E+03  0.12699999809E+01 0. -1.
</event>
<event>
 5   0  0.6211218E-03  0.9033553E+03  0.7818609E-02  0.9421397E-01
       -1   -1    0    0    0  501  0.00000000000E+00  0.00000000000E+00  0.29819945007E+03  0.29819945011E+03  0.50400001928E-02 0. -1.
        1   -1    0    0  501    0  0.00000000000E+00  0.00000000000E+00 -0.68414848490E+03  0.68414848492E+03  0.50400001928E-02 0.  1.
    10030    2    1    2    0    0  0.00000000000E+00  0.00000000000E+00 -0.38594903483E+03  0.98234793503E+03  0.90335530550E+03 0.  0.
        5    1    3    3  502    0  0.46921865836E+01 -0.42457937724E+03 -0.36038767740E+03  0.55694796185E+03  0.46999998093E+01 0.  1.
       -5    1    3    3    0  502 -0.46921865836E+01  0.42457937724E+03 -0.25561357435E+02  0.42539997318E+03  0.46999998093E+01 0. -1.
</event>
<event>
 5   0  0.1041727E-02  0.8801937E+03  0.7818609E-02  0.9450685E-01
        2   -1    0    0  501    0  0.00000000000E+00  0.00000000000E+00  0.73873527904E+03  0.73873527905E+03  0.25500000920E-02 0.  1.
       -2   -1    0    0    0  501  0.00000000000E+00  0.00000000000E+00 -0.26218490253E+03  0.26218490254E+03  0.25500000920E-02 0. -1.
    10030    2    1    2    0    0  0.00000000000E+00  0.00000000000E+00  0.47655037651E+03  0.10009201816E+04  0.88019369946E+03 0.  0.
        4    1    3    3  502    0  0.27584340697E+03  0.65675435501E+02  0.62101117501E+03  0.68268538902E+03  0.12699999809E+01 0.  1.
       -4    1    3    3    0  502 -0.27584340697E+03 -0.65675435501E+02 -0.14446079850E+03  0.31823479257E+03  0.12699999809E+01 0. -1.
</event>
<event>
 5   0  0.6288003E-03  0.9021482E+03  0.7818609E-02  0.9422900E-01
       -1   -1    0    0    0  501  0.00000000000E+00  0.00000000000E+00  0.47461001023E+03  0.47461001026E+03  0.50400001928E-02 0.  1.
        1   -1    0    0  501    0  0.00000000000E+00  0.00000000000E+00 -0.42870532231E+03  0.42870532234E+03  0.50400001928E-02 0. -1.
    10030    2    1    2    0    0  0.00000000000E+00  0.00000000000E+00  0.45904687915E+02  0.90331533260E+03  0.90214818613E+03 0.  0.
        1    1    3    3  502    0  0.19337691141E+03  0.38370889428E+03 -0.11448663703E+03  0.44467329074E+03  0.50400001928E-02 0.  1.
       -1    1    3    3    0  502 -0.19337691141E+03 -0.38370889428E+03  0.16039132495E+03  0.45864204186E+03  0.50400001928E-02 0. -1.
</event>
<event>
 5   0  0.3996375E-03  0.8948457E+03  0.7818609E-02  0.9432048E-01
        3   -1    0    0  501    0  0.00000000000E+00  0.00000000000E+00  0.55738676311E+03  0.55738677227E+03  0.10100000352E+00 0. -1.
       -3   -1    0    0    0  501  0.00000000000E+00  0.00000000000E+00 -0.35915311342E+03  0.35915312762E+03  0.10100000352E+00 0.  1.
    10030    2    1    2    0    0  0.00000000000E+00  0.00000000000E+00  0.19823364969E+03  0.91653989989E+03  0.89484568961E+03 0.  0.
        5    1    3    3  502    0 -0.36673441944E+03 -0.11889450937E+03 -0.13340015563E+03  0.40798006113E+03  0.46999998093E+01 0. -1.
       -5    1    3    3    0  502  0.36673441944E+03  0.11889450937E+03  0.33163380533E+03  0.50855983875E+03  0.46999998093E+01 0.  1.
</event>
<event>
 5   0  0.1017079E-02  0.9062692E+03  0.7818609E-02  0.9417778E-01
        2   -1    0    0  501    0  0.00000000000E+00  0.00000000000E+00  0.71414052480E+03  0.71414052480E+03  0.25500000920E-02 0.  1.
       -2   -1    0    0    0  501  0.00000000000E+00  0.00000000000E+00 -0.28752177466E+03  0.28752177468E+03  0.25500000920E-02 0. -1.
    10030    2    1    2    0    0  0.00000000000E+00  0.00000000000E+00  0.42661875014E+03  0.10016622995E+04  0.90626916765E+03 0.  0.
        1    1    3    3  502    0 -0.22079940164E+03 -0.25924569227E+03 -0.11710626825E+03  0.36010357234E+03  0.50400001928E-02 0. -1.
       -1    1    3    3    0  502  0.22079940164E+03  0.25924569227E+03  0.54372501839E+03  0.64155872714E+03  0.50400001928E-02 0.  1.
</event>
<event>
 5   0  0.6015709E-03  0.9064471E+03  0.7818609E-02  0.9417558E-01
       -1   -1    0    0    0  501  0.00000000000E+00  0.00000000000E+00  0.24050926135E+03  0.24050926140E+03  0.50400001928E-02 0.  1.
        1   -1    0    0  501    0  0.00000000000E+00  0.00000000000E+00 -0.85406926911E+03  0.85406926912E+03  0.50400001928E-02 0. -1.
    10030    2    1    2    0    0  0.00000000000E+00  0.00000000000E+00 -0.61356000776E+03  0.10945785305E+04  0.90644706208E+03 0.  0.
        3    1    3    3  502    0 -0.33911011635E+03  0.80062311162E+01  0.56191771583E+02  0.34382742204E+03  0.10100000352E+00 0.  1.
       -3    1    3    3    0  502  0.33911011635E+03 -0.80062311162E+01 -0.66975177934E+03  0.75075110848E+03  0.10100000352E+00 0. -1.
</event>
<event>
 5   0  0.1003252E-02  0.9004505E+03  0.7818609E-02  0.9425019E-01
        2   -1    0    0  501    0  0.00000000000E+00  0.00000000000E+00  0.45772352982E+03  0.45772352983E+03  0.25500000920E-02 0. -1.
       -2   -1    0    0    0  501  0.00000000000E+00  0.00000000000E+00 -0.44284976446E+03  0.44284976447E+03  0.25500000920E-02 0.  1.
    10030    2    1    2    0    0  0.00000000000E+00  0.00000000000E+00  0.14873765359E+02  0.90057329429E+03  0.90045045921E+03 0.  0.
        2    1    3    3  502    0 -0.31647927471E+03 -0.75863918011E+02  0.31858749022E+03  0.45542557493E+03  0.25500000920E-02 0. -1.
       -2    1    3    3    0  502  0.31647927471E+03  0.75863918011E+02 -0.30371372486E+03  0.44514771936E+03  0.25500000920E-02 0.  1.
</event>
<event>
 5   0  0.6288003E-03  0.9268673E+03  0.7818609E-02  0.9392605E-01
       -1   -1    0    0    0  501  0.00000000000E+00  0.00000000000E+00  0.24951134097E+03  0.24951134102E+03  0.50400001928E-02 0.  1.
        1   -1    0    0  501    0  0.00000000000E+00  0.00000000000E+00 -0.86076547828E+03  0.86076547830E+03  0.50400001928E-02 0. -1.
    10030    2    1    2    0    0  0.00000000000E+00  0.00000000000E+00 -0.61125413731E+03  0.11102768193E+04  0.92686730180E+03 0.  0.
        1    1    3    3  502    0  0.29042410865E+03  0.34114445007E+03 -0.16366400701E+03  0.47698176686E+03  0.50400001928E-02 0.  1.
       -1    1    3    3    0  502 -0.29042410865E+03 -0.34114445007E+03 -0.44759013030E+03  0.63329505246E+03  0.50400001928E-02 0. -1.
</event>
<event>
 5   0  0.6015709E-03  0.9020637E+03  0.7818609E-02  0.9423005E-01
        1   -1    0    0  501    0  0.00000000000E+00  0.00000000000E+00  0.86149155014E+03  0.86149155015E+03  0.50400001928E-02 0.  1.
       -1   -1    0    0    0  501  0.00000000000E+00  0.00000000000E+00 -0.23613664188E+03  0.23613664194E+03  0.50400001928E-02 0. -1.
    10030    2    1    2    0    0  0.00000000000E+00  0.00000000000E+00  0.62535490825E+03  0.10976281921E+04  0.90206368223E+03 0.  0.
        3    1    3    3  502    0  0.22470452807E+03  0.37180382893E+03  0.16515119610E+03  0.46476353118E+03  0.10100000352E+00 0.  1.
       -3    1    3    3    0  502 -0.22470452807E+03 -0.37180382893E+03  0.46020371215E+03  0.63286466091E+03  0.10100000352E+00 0. -1.
</event>
<event>
 5   0  0.6288003E-03  0.9213823E+03  0.7818609E-02  0.9399240E-01
       -1   -1    0    0    0  501  0.00000000000E+00  0.00000000000E+00  0.20786984100E+03  0.20786984106E+03  0.50400001928E-02 0.  1.
        1   -1    0    0  501    0  0.00000000000E+00  0.00000000000E+00 -0.10210058091E+04  0.10210058092E+04  0.50400001928E-02 0. -1.
    10030    2    1    2    0    0  0.00000000000E+00  0.00000000000E+00 -0.81313596814E+03  0.12288756502E+04  0.92138225564E+03 0.  0.
        1    1    3    3  502    0  0.35663575613E+02 -0.13625100536E+03 -0.99158800367E+03  0.10015403118E+04  0.50400001928E-02 0. -1.
       -1    1    3    3    0  502 -0.35663575613E+02  0.13625100536E+03  0.17845203553E+03  0.22733533843E+03  0.50400001928E-02 0.  1.
</event>
<event>
 5   0  0.1033749E-02  0.8645522E+03  0.7818609E-02  0.9471011E-01
        2   -1    0    0  501    0  0.00000000000E+00  0.00000000000E+00  0.86863264679E+03  0.86863264679E+03  0.25500000920E-02 0.  1.
       -2   -1    0    0    0  501  0.00000000000E+00  0.00000000000E+00 -0.21512273663E+03  0.21512273664E+03  0.25500000920E-02 0. -1.
    10030    2    1    2    0    0  0.00000000000E+00  0.00000000000E+00  0.65350991016E+03  0.10837553834E+04  0.86455221268E+03 0.  0.
        5    1    3    3  502    0 -0.21254461908E+03  0.27869940224E+02  0.79727481371E+03  0.82560351697E+03  0.46999998093E+01 0.  1.
       -5    1    3    3    0  502  0.21254461908E+03 -0.27869940224E+02 -0.14376490355E+03  0.25815186646E+03  0.46999998093E+01 0. -1.
</event>
<event>
 5   0  0.1028978E-02  0.9020540E+03  0.7818609E-02  0.9423017E-01
       -2   -1    0    0    0  501  0.00000000000E+00  0.00000000000E+00  0.28107481619E+03  0.28107481620E+03  0.25500000920E-02 0. -1.
        2   -1    0    0  501    0  0.00000000000E+00  0.00000000000E+00 -0.72374091806E+03  0.72374091807E+03  0.25500000920E-02 0.  1.
    10030    2    1    2    0    0  0.00000000000E+00  0.00000000000E+00 -0.44266610187E+03  0.10048157343E+04  0.90205397959E+03 0.  0.
        3    1    3    3  502    0 -0.18485628368E+03 -0.14012915807E+03  0.20953552318E+03  0.31259106230E+03  0.10100000352E+00 0. -1.
       -3    1    3    3    0  502  0.18485628368E+03  0.14012915807E+03 -0.65220162505E+03  0.69222467197E+03  0.10100000352E+00 0.  1.
</event>
<event>
 5   0  0.1017079E-02  0.8799698E+03  0.7818609E-02  0.9450972E-01
       -2   -1    0    0    0  501  0.00000000000E+00  0.00000000000E+00  0.18579742061E+03  0.18579742063E+03  0.25500000920E-02 0.  1.
        2   -1    0    0  501    0  0.00000000000E+00  0.00000000000E+00 -0.10419235609E+04  0.10419235609E+04  0.25500000920E-02 0. -1.
    10030    2    1    2    0    0  0.00000000000E+00  0.00000000000E+00 -0.85612614026E+03  0.12277209815E+04  0.87996979514E+03 0.  0.
        1    1    3    3  502    0 -0.41428869890E+03 -0.87703934917E+01 -0.63441218499E+03  0.75775382963E+03  0.50400001928E-02 0. -1.
       -1    1    3    3    0  502  0.41428869890E+03  0.87703934917E+01 -0.22171395527E+03  0.46996715186E+03  0.50400001928E-02 0.  1.
</event>
<event>
 5   0  0.6092779E-03  0.9060555E+03  0.7818609E-02  0.9418043E-01
       -1   -1    0    0    0  501  0.00000000000E+00  0.00000000000E+00  0.45027924371E+03  0.45027924374E+03  0.50400001928E-02 0.  1.
        1   -1    0    0  501    0  0.00000000000E+00  0.00000000000E+00 -0.45579300353E+03  0.45579300356E+03  0.50400001928E-02 0. -1.
    10030    2    1    2    0    0  0.00000000000E+00  0.00000000000E+00 -0.55137598225E+01  0.90607224730E+03  0.90605547058E+03 0.  0.
        2    1    3    3  502    0 -0.79924023853E+02 -0.38634071336E+03  0.21992892766E+03  0.45168100427E+03  0.25500000920E-02 0.  1.
       -2    1    3    3    0  502  0.79924023853E+02  0.38634071336E+03 -0.22544268748E+03  0.45439124302E+03  0.25500000920E-02 0. -1.
</event>
<event>
 5   0  0.6288003E-03  0.7926687E+03  0.7818609E-02  0.9570690E-01
        1   -1    0    0  501    0  0.00000000000E+00  0.00000000000E+00  0.86543617905E+03  0.86543617907E+03  0.50400001928E-02 0. -1.
       -1   -1    0    0    0  501  0.00000000000E+00  0.00000000000E+00 -0.18150491533E+03  0.18150491540E+03  0.50400001928E-02 0.  1.
    10030    2    1    2    0    0  0.00000000000E+00  0.00000000000E+00  0.68393126372E+03  0.10469410945E+04  0.79266870873E+03 0.  0.
        1    1    3    3  502    0  0.22255267398E+03 -0.10553505448E+03  0.75207495022E+03  0.79138111628E+03  0.50400001928E-02 0. -1.
       -1    1    3    3    0  502 -0.22255267398E+03  0.10553505448E+03 -0.68143686508E+02  0.25555997819E+03  0.50400001928E-02 0.  1.
</event>
<event>
 5   0  0.1033749E-02  0.8897114E+03  0.7818609E-02  0.9438535E-01
       -2   -1    0    0    0  501  0.00000000000E+00  0.00000000000E+00  0.75000347250E+03  0.75000347251E+03  0.25500000920E-02 0.  1.
        2   -1    0    0  501    0  0.00000000000E+00  0.00000000000E+00 -0.26386087630E+03  0.26386087632E+03  0.25500000920E-02 0. -1.
    10030    2    1    2    0    0  0.00000000000E+00  0.00000000000E+00  0.48614259620E+03  0.10138643488E+04  0.88971135430E+03 0.  0.
        5    1    3    3  502    0 -0.12506326029E+03 -0.85369201589E+02 -0.23355986547E+03  0.27839005085E+03  0.46999998093E+01 0. -1.
       -5    1    3    3    0  502  0.12506326029E+03  0.85369201589E+02  0.71970246167E+03  0.73547429798E+03  0.46999998093E+01 0.  1.
</event>
<event>
 5   0  0.6015709E-03  0.8994922E+03  0.7818609E-02  0.9426216E-01
       -1   -1    0    0    0  501  0.00000000000E+00  0.00000000000E+00  0.25378366498E+03  0.25378366503E+03  0.50400001928E-02 0. -1.
        1   -1    0    0  501    0  0.00000000000E+00  0.00000000000E+00 -0.79702361849E+03  0.79702361851E+03  0.50400001928E-02 0.  1.
    10030    2    1    2    0    0  0.00000000000E+00  0.00000000000E+00 -0.54323995351E+03  0.10508072835E+04  0.89949224569E+03 0.  0.
        3    1    3    3  502    0  0.26596295839E+03  0.35360294269E+02 -0.69328999678E+03  0.74339604215E+03  0.10100000352E+00 0.  1.
       -3    1    3    3    0  502 -0.26596295839E+03 -0.35360294269E+02  0.15005004328E+03  0.30741124139E+03  0.10100000352E+00 0. -1.
</event>
<event>
 5   0  0.6137243E-03  0.9641163E+03  0.7818609E-02  0.9348801E-01
       -1   -1    0    0    0  501  0.00000000000E+00  0.00000000000E+00  0.55232218779E+03  0.55232218781E+03  0.50400001928E-02 0. -1.
        1   -1    0    0  501    0  0.00000000000E+00  0.00000000000E+00 -0.42073275727E+03  0.42073275730E+03  0.50400001928E-02 0.  1.
    10030    2    1    2    0    0  0.00000000000E+00  0.00000000000E+00  0.13158943052E+03  0.97305494511E+03  0.96411625232E+03 0.  0.
        4    1    3    3  502    0  0.25680653002E+03  0.31268801060E+03 -0.19865564740E+03  0.45076497754E+03  0.12699999809E+01 0.  1.
       -4    1    3    3    0  502 -0.25680653002E+03 -0.31268801060E+03  0.33024507792E+03  0.52228996757E+03  0.12699999809E+01 0. -1.
</event>
<event>
 5   0  0.1033749E-02  0.9062314E+03  0.7818609E-02  0.9417825E-01
       -2   -1    0    0    0  501  0.00000000000E+00  0.00000000000E+00  0.40454652856E+03  0.40454652857E+03  0.25500000920E-02 0.  1.
        2   -1    0    0  501    0  0.00000000000E+00  0.00000000000E+00 -0.50751603284E+03  0.50751603284E+03  0.25500000920E-02 0. -1.
    10030    2    1    2    0    0  0.00000000000E+00  0.00000000000E+00 -0.10296950428E+03  0.91206256141E+03  0.90623142580E+03 0.  0.
        5    1    3    3  502    0 -0.38066195037E+03 -0.46159743361E+02  0.19143425405E+03  0.42860635318E+03  0.46999998093E+01 0.  1.
       -5    1    3    3    0  502  0.38066195037E+03  0.46159743361E+02 -0.29440375833E+03  0.48345620823E+03  0.46999998093E+01 0. -1.
</event>
<event>
 5   0  0.6211218E-03  0.9178876E+03  0.7818609E-02  0.9403493E-01
       -1   -1    0    0    0  501  0.00000000000E+00  0.00000000000E+00  0.23778431822E+03  0.23778431827E+03  0.50400001928E-02 0. -1.
        1   -1    0    0  501    0  0.00000000000E+00  0.00000000000E+00 -0.88580032491E+03  0.88580032493E+03  0.50400001928E-02 0.  1.
    10030    2    1    2    0    0  0.00000000000E+00  0.00000000000E+00 -0.64801600670E+03  0.11235846432E+04  0.91788763228E+03 0.  0.
        5    1    3    3  502    0  0.39109834356E+02  0.45157786305E+02  0.23297490169E+03  0.24055810030E+03  0.46999998093E+01 0. -1.
       -5    1    3    3    0  502 -0.39109834356E+02 -0.45157786305E+02 -0.88099090838E+03  0.88302654290E+03  0.46999998093E+01 0.  1.
</event>
<event>
 5   0  0.1033749E-02  0.8995932E+03  0.7818609E-02  0.9426090E-01
       -2   -1    0    0    0  501  0.00000000000E+00  0.00000000000E+00  0.24200147050E+03  0.24200147051E+03  0.25500000920E-02 0.  1.
        2   -1    0    0  501    0  0.00000000000E+00  0.00000000000E+00 -0.83601554986E+03  0.83601554987E+03  0.25500000920E-02 0. -1.
    10030    2    1    2    0    0  0.00000000000E+00  0.00000000000E+00 -0.59401407937E+03  0.10780170204E+04  0.89959322460E+03 0.  0.
        5    1    3    3  502    0  0.17039859038E+03  0.16112289134E+03 -0.75692334379E+03  0.79243378531E+03  0.46999998093E+01 0. -1.
       -5    1    3    3    0  502 -0.17039859038E+03 -0.16112289134E+03  0.16290926443E+03  0.28558323507E+03  0.46999998093E+01 0.  1.
</event>
<event>
 5   0  0.1041727E-02  0.8891986E+03  0.7818609E-02  0.9439185E-01
       -2   -1    0    0    0  501  0.00000000000E+00  0.00000000000E+00  0.17829841242E+03  0.17829841243E+03  0.25500000920E-02 0. -1.
        2   -1    0    0  501    0  0.00000000000E+00  0.00000000000E+00 -0.11086387734E+04  0.11086387734E+04  0.25500000920E-02 0.  1.
    10030    2    1    2    0    0  0.00000000000E+00  0.00000000000E+00 -0.93034036098E+03  0.12869371858E+04  0.88919859031E+03 0.  0.
        4    1    3    3  502    0 -0.14933711061E+03 -0.27168319140E+03 -0.39522025625E+01  0.31004928947E+03  0.12699999809E+01 0. -1.
       -4    1    3    3    0  502  0.14933711061E+03  0.27168319140E+03 -0.92638815841E+03  0.97688789636E+03  0.12699999809E+01 0.  1.
</event>
<event>
 5   0  0.1017079E-02  0.8993439E+03  0.7818609E-02  0.9426402E-01
       -2   -1    0    0    0  501  0.00000000000E+00  0.00000000000E+00  0.66174166478E+03  0.66174166478E+03  0.25500000920E-02 0.  1.
        2   -1    0    0  501    0  0.00000000000E+00  0.00000000000E+00 -0.30556463322E+03  0.30556463323E+03  0.25500000920E-02 0. -1.
    10030    2    1    2    0    0  0.00000000000E+00  0.00000000000E+00  0.35617703156E+03  0.96730629802E+03  0.89934386993E+03 0.  0.
        1    1    3    3  502    0  0.97970815956E+02 -0.22573488100E+03 -0.22671757160E+03  0.33459733199E+03  0.50400001928E-02 0. -1.
       -1    1    3    3    0  502 -0.97970815956E+02  0.22573488100E+03  0.58289460315E+03  0.63270896603E+03  0.50400001928E-02 0.  1.
</event>
<event>
 5   0  0.1017079E-02  0.9004112E+03  0.7818609E-02  0.9425068E-01
       -2   -1    0    0    0  501  0.00000000000E+00  0.00000000000E+00  0.96987233392E+02  0.96987233425E+02  0.25500000920E-02 0. -1.
        2   -1    0    0  501    0  0.00000000000E+00  0.00000000000E+00 -0.20898119360E+04  0.20898119360E+04  0.25500000920E-02 0.  1.
    10030    2    1    2    0    0  0.00000000000E+00  0.00000000000E+00 -0.19928247026E+04  0.21867991694E+04  0.90041119055E+03 0.  0.
        1    1    3    3  502    0  0.26668196682E+03 -0.25243800759E+03 -0.16289897707E+04  0.16698658305E+04  0.50400001928E-02 0.  1.
       -1    1    3    3    0  502 -0.26668196682E+03  0.25243800759E+03 -0.36383493193E+03  0.51693333885E+03  0.50400001928E-02 0. -1.
</event>
<event>
 5   0  0.6092779E-03  0.8372933E+03  0.7818609E-02  0.9507552E-01
        1   -1    0    0  501    0  0.00000000000E+00  0.00000000000E+00  0.55236648434E+03  0.55236648436E+03  0.50400001928E-02 0. -1.
       -1   -1    0    0    0  501  0.00000000000E+00  0.00000000000E+00 -0.31729843664E+03  0.31729843668E+03  0.50400001928E-02 0.  1.
    10030    2    1    2    0    0  0.00000000000E+00  0.00000000000E+00  0.23506804770E+03  0.86966492104E+03  0.83729331051E+03 0.  0.
        2    1    3    3  502    0  0.93027724830E+02  0.20507257473E+03 -0.24903590730E+03  0.33574961151E+03  0.25500000920E-02 0.  1.
       -2    1    3    3    0  502 -0.93027724830E+02 -0.20507257473E+03  0.48410395500E+03  0.53391530953E+03  0.25500000920E-02 0. -1.
</event>
<event>
 5   0  0.1017079E-02  0.9045994E+03  0.7818609E-02  0.9419850E-01
       -2   -1    0    0    0  501  0.00000000000E+00  0.00000000000E+00  0.13069012966E+03  0.13069012968E+03  0.25500000920E-02 0. -1.
        2   -1    0    0  501    0  0.00000000000E+00  0.00000000000E+00 -0.15653441196E+04  0.15653441196E+04  0.25500000920E-02 0.  1.
    10030    2    1    2    0    0  0.00000000000E+00  0.00000000000E+00 -0.14346539900E+04  0.16960342493E+04  0.90459941627E+03 0.  0.
        1    1    3    3  502    0  0.38150443027E+03 -0.24247547456E+03 -0.68858287062E+03  0.82370283223E+03  0.50400001928E-02 0. -1.
       -1    1    3    3    0  502 -0.38150443027E+03  0.24247547456E+03 -0.74607111935E+03  0.87233141709E+03  0.50400001928E-02 0.  1.
</event>
<event>
 5   0  0.6211218E-03  0.9693573E+03  0.7818609E-02  0.9342807E-01
        1   -1    0    0  501    0  0.00000000000E+00  0.00000000000E+00  0.97519160107E+03  0.97519160109E+03  0.50400001928E-02 0.  1.
       -1   -1    0    0    0  501  0.00000000000E+00  0.00000000000E+00 -0.24088948638E+03  0.24088948644E+03  0.50400001928E-02 0. -1.
    10030    2    1    2    0    0  0.00000000000E+00  0.00000000000E+00  0.73430211469E+03  0.12160810875E+04  0.96935732101E+03 0.  0.
        5    1    3    3  502    0  0.23448463305E+03 -0.20182944637E+03 -0.10086026632E+03  0.32544285501E+03  0.46999998093E+01 0. -1.
       -5    1    3    3    0  502 -0.23448463305E+03  0.20182944637E+03  0.83516238101E+03  0.89063823251E+03  0.46999998093E+01 0.  1.
</event>
<event>
 5   0  0.6015709E-03  0.8501380E+03  0.7818609E-02  0.9490152E-01
       -1   -1    0    0    0  501  0.00000000000E+00  0.00000000000E+00  0.18644105414E+03  0.18644105421E+03  0.50400001928E-02 0. -1.
        1   -1    0    0  501    0  0.00000000000E+00  0.00000000000E+00 -0.96911943029E+03  0.96911943030E+03  0.50400001928E-02 0.  1.
    10030    2    1    2    0    0  0.00000000000E+00  0.00000000000E+00 -0.78267837615E+03  0.11555604845E+04  0.85013798461E+03 0.  0.
        3    1    3    3  502    0 -0.36989148377E+03  0.17851040880E+03 -0.24245211035E+03  0.47693680066E+03  0.10100000352E+00 0.  1.
       -3    1    3    3    0  502  0.36989148377E+03 -0.17851040880E+03 -0.54022626580E+03  0.67862368385E+03  0.10100000352E+00 0. -1.
</event>
<event>
 5   0  0.1041727E-02  0.8961498E+03  0.7818609E-02  0.9430407E-01
       -2   -1    0    0    0  501  0.00000000000E+00  0.00000000000E+00  0.44335000903E+03  0.44335000904E+03  0.25500000920E-02 0.  1.
        2   -1    0    0  501    0  0.00000000000E+00  0.00000000000E+00 -0.45285014374E+03  0.45285014375E+03  0.25500000920E-02 0. -1.
    10030    2    1    2    0    0  0.00000000000E+00  0.00000000000E+00 -0.95001347103E+01  0.89620015279E+03  0.89614979848E+03 0.  0.
        4    1    3    3  502    0 -0.77349656241E+02 -0.61029852944E+02  0.43238076220E+03  0.44346628811E+03  0.12699999809E+01 0.  1.
       -4    1    3    3    0  502  0.77349656241E+02  0.61029852944E+02 -0.44188089691E+03  0.45273386468E+03  0.12699999809E+01 0. -1.
</event>
<event>
 5   0  0.6137243E-03  0.9008826E+03  0.7818609E-02  0.9424479E-01
        1   -1    0    0  501    0  0.00000000000E+00  0.00000000000E+00  0.15439325275E+04  0.15439325275E+04  0.50400001928E-02 0. -1.
       -1   -1    0    0    0  501  0.00000000000E+00  0.00000000000E+00 -0.13141595104E+03  0.13141595114E+03  0.50400001928E-02 0.  1.
    10030    2    1    2    0    0  0.00000000000E+00  0.00000000000E+00  0.14125165764E+04  0.16753484786E+04  0.90088259287E+03 0.  0.
        4    1    3    3  502    0  0.10228003179E+03  0.11236374864E+01  0.15220457999E+04  0.15254794320E+04  0.12699999809E+01 0. -1.
       -4    1    3    3    0  502 -0.10228003179E+03 -0.11236374864E+01 -0.10952922345E+03  0.14986904668E+03  0.12699999809E+01 0.  1.
</event>
<event>
 5   0  0.1028978E-02  0.8986842E+03  0.7818609E-02  0.9427228E-01
       -2   -1    0    0    0  501  0.00000000000E+00  0.00000000000E+00  0.24660595308E+03  0.24660595309E+03  0.25500000920E-02 0.  1.
        2   -1    0    0  501    0  0.00000000000E+00  0.00000000000E+00 -0.81874870617E+03  0.81874870617E+03  0.25500000920E-02 0. -1.
    10030    2    1    2    0    0  0.00000000000E+00  0.00000000000E+00 -0.57214275309E+03  0.10653546593E+04  0.89868416037E+03 0.  0.
        3    1    3    3  502    0 -0.26606921322E+03 -0.20877183193E+03  0.64652285906E+02  0.34432315099E+03  0.10100000352E+00 0.  1.
       -3    1    3    3    0  502  0.26606921322E+03  0.20877183193E+03 -0.63679503900E+03  0.72103150827E+03  0.10100000352E+00 0. -1.
</event>
<event>
 5   0  0.1028978E-02  0.9009428E+03  0.7818609E-02  0.9424404E-01
       -2   -1    0    0    0  501  0.00000000000E+00  0.00000000000E+00  0.14295668506E+03  0.14295668508E+03  0.25500000920E-02 0.  1.
        2   -1    0    0  501    0  0.00000000000E+00  0.00000000000E+00 -0.14194822479E+04  0.14194822479E+04  0.25500000920E-02 0. -1.
    10030    2    1    2    0    0  0.00000000000E+00  0.00000000000E+00 -0.12765255628E+04  0.15624389330E+04  0.90094278771E+03 0.  0.
        3    1    3    3  502    0  0.47239066553E+02 -0.15889697344E+03  0.88137413526E+02  0.18774448445E+03  0.10100000352E+00 0.  1.
       -3    1    3    3    0  502 -0.47239066553E+02  0.15889697344E+03 -0.13646629764E+04  0.13746944485E+04  0.10100000352E+00 0. -1.
</event>
<event>
 5   0  0.1028978E-02  0.9089585E+03  0.7818609E-02  0.9414452E-01
       -2   -1    0    0    0  501  0.00000000000E+00  0.00000000000E+00  0.51613620619E+03  0.51613620620E+03  0.25500000920E-02 0. -1.
        2   -1    0    0  501    0  0.00000000000E+00  0.00000000000E+00 -0.40018772043E+03  0.40018772044E+03  0.25500000920E-02 0.  1.
    10030    2    1    2    0    0  0.00000000000E+00  0.00000000000E+00  0.11594848576E+03  0.91632392663E+03  0.90895846284E+03 0.  0.
        3    1    3    3  502    0 -0.30220236635E+03  0.31002558902E+03  0.19733051888E+03  0.47579562835E+03  0.10100000352E+00 0. -1.
       -3    1    3    3    0  502  0.30220236635E+03 -0.31002558902E+03 -0.81382033113E+02  0.44052829828E+03  0.10100000352E+00 0.  1.
</event>
<event>
 5   0  0.6092779E-03  0.8779452E+03  0.7818609E-02  0.9453579E-01
        1   -1    0    0  501    0  0.00000000000E+00  0.00000000000E+00  0.24159939760E+03  0.24159939765E+03  0.50400001928E-02 0.  1.
       -1   -1    0    0    0  501  0.00000000000E+00  0.00000000000E+00 -0.79758874724E+03  0.79758874726E+03  0.50400001928E-02 0. -1.
    10030    2    1    2    0    0  0.00000000000E+00  0.00000000000E+00 -0.55598934964E+03  0.10391881449E+04  0.87794523952E+03 0.  0.
        2    1    3    3  502    0  0.67920221127E+02  0.18962059832E+03 -0.73966408023E+03  0.76659772980E+03  0.25500000920E-02 0. -1.
       -2    1    3    3    0  502 -0.67920221127E+02 -0.18962059832E+03  0.18367473059E+03  0.27259041511E+03  0.25500000920E-02 0.  1.
</event>
<event>
 5   0  0.1033749E-02  0.8986731E+03  0.7818609E-02  0.9427242E-01
       -2   -1    0    0    0  501  0.00000000000E+00  0.00000000000E+00  0.70742459571E+03  0.70742459572E+03  0.25500000920E-02 0. -1.
        2   -1    0    0  501    0  0.00000000000E+00  0.00000000000E+00 -0.28540617889E+03  0.28540617890E+03  0.25500000920E-02 0.  1.
    10030    2    1    2    0    0  0.00000000000E+00  0.00000000000E+00  0.42201841682E+03  0.99283077462E+03  0.89867313462E+03 0.  0.
        5    1    3    3  502    0 -0.13643354280E+03 -0.13627655499E+03  0.65935675662E+03  0.68699260079E+03  0.46999998093E+01 0. -1.
       -5    1    3    3    0  502  0.13643354280E+03  0.13627655499E+03 -0.23733833979E+03  0.30583817384E+03  0.46999998093E+01 0.  1.
</event>
<event>
 5   0  0.1033749E-02  0.1004960E+04  0.7818609E-02  0.9303122E-01
        2   -1    0    0  501    0  0.00000000000E+00  0.00000000000E+00  0.17335066606E+04  0.17335066606E+04  0.25500000920E-02 0. -1.
       -2   -1    0    0    0  501  0.00000000000E+00  0.00000000000E+00 -0.14565038870E+03  0.14565038872E+03  0.25500000920E-02 0.  1.
    10030    2    1    2    0    0  0.00000000000E+00  0.00000000000E+00  0.15878562719E+04  0.18791570493E+04  0.10049595394E+04 0.  0.
        5    1    3    3  502    0 -0.10922753806E+03  0.27705645298E+03  0.15506486623E+04  0.15789947109E+04  0.46999998093E+01 0. -1.
       -5    1    3    3    0  502  0.10922753806E+03 -0.27705645298E+03  0.37207609646E+02  0.30016233845E+03  0.46999998093E+01 0.  1.
</event>
<event>
 5   0  0.1041727E-02  0.8966712E+03  0.7818609E-02  0.9429752E-01
        2   -1    0    0  501    0  0.00000000000E+00  0.00000000000E+00  0.83516484302E+03  0.83516484302E+03  0.25500000920E-02 0. -1.
       -2   -1    0    0    0  501  0.00000000000E+00  0.00000000000E+00 -0.24067680698E+03  0.24067680700E+03  0.25500000920E-02 0.  1.
    10030    2    1    2    0    0  0.00000000000E+00  0.00000000000E+00  0.59448803604E+03  0.10758416500E+04  0.89667119443E+03 0.  0.
        4    1    3    3  502    0  0.16187817761E+03  0.17066331861E+03 -0.16069135688E+03  0.28487512665E+03  0.12699999809E+01 0.  1.
       -4    1    3    3    0  502 -0.16187817761E+03 -0.17066331861E+03  0.75517939292E+03  0.79096652337E+03  0.12699999809E+01 0. -1.
</event>
<event>
 5   0  0.1041727E-02  0.8969951E+03  0.7818609E-02  0.9429346E-01
       -2   -1    0    0    0  501  0.00000000000E+00  0.00000000000E+00  0.35819706053E+03  0.35819706054E+03  0.25500000920E-02 0.  1.
        2   -1    0    0  501    0  0.00000000000E+00  0.00000000000E+00 -0.56156251569E+03  0.56156251569E+03  0.25500000920E-02 0. -1.
    10030    2    1    2    0    0  0.00000000000E+00  0.00000000000E+00 -0.20336545516E+03  0.91975957623E+03  0.89699507787E+03 0.  0.
        4    1    3    3  502    0  0.23452905403E+03  0.27964859194E+03  0.16558770741E+03  0.40078437333E+03  0.12699999809E+01 0.  1.
       -4    1    3    3    0  502 -0.23452905403E+03 -0.27964859194E+03 -0.36895316256E+03  0.51897520290E+03  0.12699999809E+01 0. -1.
</event>
<event>
 5   0  0.6092779E-03  0.8935516E+03  0.7818609E-02  0.9433678E-01
       -1   -1    0    0    0  501  0.00000000000E+00  0.00000000000E+00  0.28617554843E+03  0.28617554847E+03  0.50400001928E-02 0. -1.
        1   -1    0    0  501    0  0.00000000000E+00  0.00000000000E+00 -0.69750402579E+03  0.69750402581E+03  0.50400001928E-02 0.  1.
    10030    2    1    2    0    0  0.00000000000E+00  0.00000000000E+00 -0.41132847737E+03  0.98367957429E+03  0.89355155899E+03 0.  0.
        2    1    3    3  502    0 -0.20114762142E+03 -0.39892874909E+03 -0.20788915337E+03  0.49277014170E+03  0.25500000920E-02 0. -1.
       -2    1    3    3    0  502  0.20114762142E+03  0.39892874909E+03 -0.20343932399E+03  0.49090943259E+03  0.25500000920E-02 0.  1.
</event>
<event>
 5   0  0.1028978E-02  0.9155704E+03  0.7818609E-02  0.9406324E-01
        2   -1    0    0  501    0  0.00000000000E+00  0.00000000000E+00  0.71812214596E+03  0.71812214596E+03  0.25500000920E-02 0.  1.
       -2   -1    0    0    0  501  0.00000000000E+00  0.00000000000E+00 -0.29182680800E+03  0.29182680801E+03  0.25500000920E-02 0. -1.
    10030    2    1    2    0    0  0.00000000000E+00  0.00000000000E+00  0.42629533796E+03  0.10099489540E+04  0.91557040935E+03 0.  0.
        3    1    3    3  502    0  0.23742708144E+03  0.17082235981E+03  0.60160691237E+03  0.66894154066E+03  0.10100000352E+00 0.  1.
       -3    1    3    3    0  502 -0.23742708144E+03 -0.17082235981E+03 -0.17531157441E+03  0.34100741331E+03  0.10100000352E+00 0. -1.
</event>
<event>
 5   0  0.6137243E-03  0.9061411E+03  0.7818609E-02  0.9417937E-01
        1   -1    0    0  501    0  0.00000000000E+00  0.00000000000E+00  0.74607803368E+03  0.74607803369E+03  0.50400001928E-02 0. -1.
       -1   -1    0    0    0  501  0.00000000000E+00  0.00000000000E+00 -0.27513601685E+03  0.27513601689E+03  0.50400001928E-02 0.  1.
    10030    2    1    2    0    0  0.00000000000E+00  0.00000000000E+00  0.47094201683E+03  0.10212140506E+04  0.90614113355E+03 0.  0.
        4    1    3    3  502    0 -0.41387848672E+03 -0.42116329240E+02  0.43770925616E+03  0.60387100675E+03  0.12699999809E+01 0. -1.
       -4    1    3    3    0  502  0.41387848672E+03  0.42116329240E+02  0.33232760664E+02  0.41734304384E+03  0.12699999809E+01 0.  1.
</event>
<event>
 5   0  0.1017079E-02  0.8953022E+03  0.7818609E-02  0.9431473E-01
       -2   -1    0    0    0  501  0.00000000000E+00  0.00000000000E+00  0.12419720708E+03  0.12419720710E+03  0.25500000920E-02 0.  1.
        2   -1    0    0  501    0  0.00000000000E+00  0.00000000000E+00 -0.16134943453E+04  0.16134943453E+04  0.25500000920E-02 0. -1.
    10030    2    1    2    0    0  0.00000000000E+00  0.00000000000E+00 -0.14892971382E+04  0.17376915524E+04  0.89530216428E+03 0.  0.
        1    1    3    3  502    0 -0.25384489537E+02 -0.31392164018E+03 -0.13620874932E+04  0.13980248594E+04  0.50400001928E-02 0.  1.
       -1    1    3    3    0  502  0.25384489537E+02  0.31392164018E+03 -0.12720964500E+03  0.33966669294E+03  0.50400001928E-02 0. -1.
</event>
<event>
 5   0  0.1003252E-02  0.9021319E+03  0.7818609E-02  0.9422920E-01
       -2   -1    0    0    0  501  0.00000000000E+00  0.00000000000E+00  0.16466124783E+03  0.16466124785E+03  0.25500000920E-02 0. -1.
        2   -1    0    0  501    0  0.00000000000E+00  0.00000000000E+00 -0.12356306261E+04  0.12356306261E+04  0.25500000920E-02 0.  1.
    10030    2    1    2    0    0  0.00000000000E+00  0.00000000000E+00 -0.10709693782E+04  0.14002918739E+04  0.90213187673E+03 0.  0.
        2    1    3    3  502    0 -0.17252777988E+03 -0.27757139802E+03 -0.10180395492E+04  0.10692129065E+04  0.25500000920E-02 0.  1.
       -2    1    3    3    0  502  0.17252777988E+03  0.27757139802E+03 -0.52929829078E+02  0.33107896738E+03  0.25500000920E-02 0. -1.
</event>
<event>
 5   0  0.6137243E-03  0.8917104E+03  0.7818609E-02  0.9436004E-01
       -1   -1    0    0    0  501  0.00000000000E+00  0.00000000000E+00  0.30005998603E+03  0.30005998608E+03  0.50400001928E-02 0.  1.
        1   -1    0    0  501    0  0.00000000000E+00  0.00000000000E+00 -0.66249036966E+03  0.66249036968E+03  0.50400001928E-02 0. -1.
    10030    2    1    2    0    0  0.00000000000E+00  0.00000000000E+00 -0.36243038362E+03  0.96255035575E+03  0.89171038145E+03 0.  0.
        4    1    3    3  502    0 -0.39995725510E+03  0.19687414270E+03 -0.17285356922E+03  0.47812676484E+03  0.12699999809E+01 0. -1.
       -4    1    3    3    0  502  0.39995725510E+03 -0.19687414270E+03 -0.18957681441E+03  0.48442359091E+03  0.12699999809E+01 0.  1.
</event>
<event>
 5   0  0.6092779E-03  0.1060059E+04  0.7818609E-02  0.9245020E-01
        1   -1    0    0  501    0  0.00000000000E+00  0.00000000000E+00  0.85185552699E+03  0.85185552700E+03  0.50400001928E-02 0. -1.
       -1   -1    0    0    0  501  0.00000000000E+00  0.00000000000E+00 -0.32978744819E+03  0.32978744823E+03  0.50400001928E-02 0.  1.
    10030    2    1    2    0    0  0.00000000000E+00  0.00000000000E+00  0.52206807880E+03  0.11816429752E+04  0.10600589804E+04 0.  0.
        2    1    3    3  502    0  0.52836853352E+02  0.52675337178E+03  0.23217197603E+03  0.57806978317E+03  0.25500000920E-02 0. -1.
       -2    1    3    3    0  502 -0.52836853352E+02 -0.52675337178E+03  0.28989610277E+03  0.60357319205E+03  0.25500000920E-02 0.  1.
</event>
<event>
 5   0  0.1041727E-02  0.8981744E+03  0.7818609E-02  0.9427866E-01
        2   -1    0    0  501    0  0.00000000000E+00  0.00000000000E+00  0.13133063630E+03  0.13133063633E+03  0.25500000920E-02 0. -1.
       -2   -1    0    0    0  501  0.00000000000E+00  0.00000000000E+00 -0.15356607462E+04  0.15356607462E+04  0.25500000920E-02 0.  1.
    10030    2    1    2    0    0  0.00000000000E+00  0.00000000000E+00 -0.14043301099E+04  0.16669913825E+04  0.89817437720E+03 0.  0.
        4    1    3    3  502    0  0.24768143102E+03  0.84057647082E+02 -0.24629283884E+02  0.26271656558E+03  0.12699999809E+01 0. -1.
       -4    1    3    3    0  502 -0.24768143102E+03 -0.84057647082E+02 -0.13797008260E+04  0.14042748169E+04  0.12699999809E+01 0.  1.
</event>
<event>
 5   0  0.1041727E-02  0.9067335E+03  0.7818609E-02  0.9417203E-01
       -2   -1    0    0    0  501  0.00000000000E+00  0.00000000000E+00  0.12474536242E+03  0.12474536245E+03  0.25500000920E-02 0. -1.
        2   -1    0    0  501    0  0.00000000000E+00  0.00000000000E+00 -0.16476877864E+04  0.16476877864E+04  0.25500000920E-02 0.  1.
    10030    2    1    2    0    0  0.00000000000E+00  0.00000000000E+00 -0.15229424239E+04  0.17724331488E+04  0.90673350019E+03 0.  0.
        4    1    3    3  502    0  0.20178249356E+03 -0.15958209850E+03 -0.14911888964E+04  0.15132179481E+04  0.12699999809E+01 0.  1.
       -4    1    3    3    0  502 -0.20178249356E+03  0.15958209850E+03 -0.31753527566E+02  0.25921520072E+03  0.12699999809E+01 0. -1.
</event>
<event>
 5   0  0.6137243E-03  0.8857433E+03  0.7818609E-02  0.9443581E-01
       -1   -1    0    0    0  501  0.00000000000E+00  0.00000000000E+00  0.17296071368E+03  0.17296071375E+03  0.50400001928E-02 0. -1.
        1   -1    0    0  501    0  0.00000000000E+00  0.00000000000E+00 -0.11339876389E+04  0.11339876389E+04  0.50400001928E-02 0.  1.
    10030    2    1    2    0    0  0.00000000000E+00  0.00000000000E+00 -0.96102692526E+03  0.13069483527E+04  0.88574332938E+03 0.  0.
        4    1    3    3  502    0  0.24624723500E+03  0.55530474291E+02 -0.10174399208E+04  0.10482876226E+04  0.12699999809E+01 0.  1.
       -4    1    3    3    0  502 -0.24624723500E+03 -0.55530474291E+02  0.56412995569E+02  0.25866073009E+03  0.12699999809E+01 0. -1.
</event>
<event>
 5   0  0.6092779E-03  0.9134021E+03  0.7818609E-02  0.9408981E-01
       -1   -1    0    0    0  501  0.00000000000E+00  0.00000000000E+00  0.49103198736E+03  0.49103198738E+03  0.50400001928E-02 0.  1.
        1   -1    0    0  501    0  0.00000000000E+00  0.00000000000E+00 -0.42477039743E+03  0.42477039746E+03  0.50400001928E-02 0. -1.
    10030    2    1    2    0    0  0.00000000000E+00  0.00000000000E+00  0.66261589926E+02  0.91580238484E+03  0.91340210739E+03 0.  0.
        2    1    3    3  502    0  0.20428683391E+03  0.15254574708E+02  0.44238235637E+03  0.48751201195E+03  0.25500000920E-02 0.  1.
       -2    1    3    3    0  502 -0.20428683391E+03 -0.15254574708E+02 -0.37612076644E+03  0.42829037289E+03  0.25500000920E-02 0. -1.
</event>
<event>
 5   0  0.1033749E-02  0.9048541E+03  0.7818609E-02  0.9419534E-01
        2   -1    0    0  501    0  0.00000000000E+00  0.00000000000E+00  0.94196391872E+03  0.94196391873E+03  0.25500000920E-02 0. -1.
       -2   -1    0    0    0  501  0.00000000000E+00  0.00000000000E+00 -0.21730158754E+03  0.21730158755E+03  0.25500000920E-02 0.  1.
    10030    2    1    2    0    0  0.00000000000E+00  0.00000000000E+00  0.72466233119E+03  0.11592655063E+04  0.90485414283E+03 0.  0.
        5    1    3    3  502    0 -0.91426547517E+02 -0.17589167094E+03 -0.15866512348E+03  0.25395551757E+03  0.46999998093E+01 0.  1.
       -5    1    3    3    0  502  0.91426547517E+02  0.17589167094E+03  0.88332745466E+03  0.90530998871E+03  0.46999998093E+01 0. -1.
</event>
<event>
 5   0  0.1033749E-02  0.8820324E+03  0.7818609E-02  0.9448325E-01
       -2   -1    0    0    0  501  0.00000000000E+00  0.00000000000E+00  0.28252086649E+03  0.28252086650E+03  0.25500000920E-02 0. -1.
        2   -1    0    0  501    0  0.00000000000E+00  0.00000000000E+00 -0.68842807468E+03  0.68842807469E+03  0.25500000920E-02 0.  1.
    10030    2    1    2    0    0  0.00000000000E+00  0.00000000000E+00 -0.40590720819E+03  0.97094894119E+03  0.88203241705E+03 0.  0.
        5    1    3    3  502    0  0.19604253648E+03  0.10584018912E+03 -0.62189539176E+03  0.66061394932E+03  0.46999998093E+01 0.  1.
       -5    1    3    3    0  502 -0.19604253648E+03 -0.10584018912E+03  0.21598818357E+03  0.31033499187E+03  0.46999998093E+01 0. -1.
</event>
<event>
 5   0  0.6211218E-03  0.9053966E+03  0.7818609E-02  0.9418860E-01
       -1   -1    0    0    0  501  0.00000000000E+00  0.00000000000E+00  0.19455639478E+03  0.19455639485E+03  0.50400001928E-02 0.  1.
        1   -1    0    0  501    0  0.00000000000E+00  0.00000000000E+00 -0.10533489137E+04  0.10533489137E+04  0.50400001928E-02 0. -1.
    10030    2    1    2    0    0  0.00000000000E+00  0.00000000000E+00 -0.85879251890E+03  0.12479053085E+04  0.90539663604E+03 0.  0.
        5    1    3    3  502    0  0.28196212001E+03 -0.22122800260E+03 -0.81053760243E+03  0.88624926585E+03  0.46999998093E+01 0. -1.
       -5    1    3    3    0  502 -0.28196212001E+03  0.22122800260E+03 -0.48254916465E+02  0.36165604269E+03  0.46999998093E+01 0.  1.
</event>
<event>
 5   0  0.1003252E-02  0.8895443E+03  0.7818609E-02  0.9438747E-01
       -2   -1    0    0    0  501  0.00000000000E+00  0.00000000000E+00  0.20368573557E+03  0.20368573559E+03  0.25500000920E-02 0.  1.
        2   -1    0    0  501    0  0.00000000000E+00  0.00000000000E+00 -0.97121324416E+03  0.97121324417E+03  0.25500000920E-02 0. -1.
    10030    2    1    2    0    0  0.00000000000E+00  0.00000000000E+00 -0.76752750859E+03  0.11748989798E+04  0.88954434188E+03 0.  0.
        2    1    3    3  502    0 -0.23761895053E+03 -0.31845631927E+03 -0.11978763924E+03  0.41500153187E+03  0.25500000920E-02 0.  1.
       -2    1    3    3    0  502  0.23761895053E+03  0.31845631927E+03 -0.64773986935E+03  0.75989744788E+03  0.25500000920E-02 0. -1.
</event>
<event>
 5   0  0.6137243E-03  0.8890936E+03  0.7818609E-02  0.9439319E-01
       -1   -1    0    0    0  501  0.00000000000E+00  0.00000000000E+00  0.45143480660E+03  0.45143480663E+03  0.50400001928E-02 0.  1.
        1   -1    0    0  501    0  0.00000000000E+00  0.00000000000E+00 -0.43776385025E+03  0.43776385028E+03  0.50400001928E-02 0. -1.
    10030    2    1    2    0    0  0.00000000000E+00  0.00000000000E+00  0.13670956358E+02  0.88919865691E+03  0.88909355886E+03 0.  0.
        4    1    3    3  502    0 -0.30744769478E+03 -0.28916065159E+03 -0.13275988327E+03  0.44245312403E+03  0.12699999809E+01 0. -1.
       -4    1    3    3    0  502  0.30744769478E+03  0.28916065159E+03  0.14643083962E+03  0.44674553288E+03  0.12699999809E+01 0.  1.
</event>
<event>
 5   0  0.1028978E-02  0.8964493E+03  0.7818609E-02  0.9430031E-01
        2   -1    0    0  501    0  0.00000000000E+00  0.00000000000E+00  0.74475574762E+03  0.74475574762E+03  0.25500000920E-02 0. -1.
       -2   -1    0    0    0  501  0.00000000000E+00  0.00000000000E+00 -0.26976002814E+03  0.26976002815E+03  0.25500000920E-02 0.  1.
    10030    2    1    2    0    0  0.00000000000E+00  0.00000000000E+00  0.47499571948E+03  0.10145157758E+04  0.89644928790E+03 0.  0.
        3    1    3    3  502    0 -0.21768684370E+03  0.10326597991E+02 -0.20576515863E+03  0.29972239031E+03  0.10100000352E+00 0.  1.
       -3    1    3    3    0  502  0.21768684370E+03 -0.10326597991E+02  0.68076087811E+03  0.71479338547E+03  0.10100000352E+00 0. -1.
</event>
<event>
 5   0  0.3996375E-03  0.9009573E+03  0.7818609E-02  0.9424386E-01
       -4   -1    0    0    0  501  0.00000000000E+00  0.00000000000E+00  0.22608201565E+03  0.22608558269E+03  0.12699999809E+01 0. -1.
        4   -1    0    0  501    0  0.00000000000E+00  0.00000000000E+00 -0.89758800296E+03  0.89758890143E+03  0.12699999809E+01 0.  1.
    10030    2    1    2    0    0  0.00000000000E+00  0.00000000000E+00 -0.67150598731E+03  0.11236744841E+04  0.90095729935E+03 0.  0.
        4    1    3    3  502    0 -0.23956321429E+02  0.30860349075E+03  0.72444504303E+02  0.31789910182E+03  0.12699999809E+01 0. -1.
       -4    1    3    3    0  502  0.23956321429E+02 -0.30860349075E+03 -0.74395049161E+03  0.80577538229E+03  0.12699999809E+01 0.  1.
</event>
<event>
 5   0  0.1003252E-02  0.9592601E+03  0.7818609E-02  0.9354392E-01
       -2   -1    0    0    0  501  0.00000000000E+00  0.00000000000E+00  0.17865234373E+03  0.17865234375E+03  0.25500000920E-02 0.  1.
        2   -1    0    0  501    0  0.00000000000E+00  0.00000000000E+00 -0.12876684234E+04  0.12876684234E+04  0.25500000920E-02 0. -1.
    10030    2    1    2    0    0  0.00000000000E+00  0.00000000000E+00 -0.11090160796E+04  0.14663207671E+04  0.95926009361E+03 0.  0.
        2    1    3    3  502    0 -0.36093274579E+03 -0.21633695854E+02 -0.72807523673E+02  0.36883790382E+03  0.25500000920E-02 0.  1.
       -2    1    3    3    0  502  0.36093274579E+03  0.21633695854E+02 -0.10362085560E+04  0.10974828633E+04  0.25500000920E-02 0. -1.
</event>
<event>
 5   0  0.6015709E-03  0.8994562E+03  0.7818609E-02  0.9426261E-01
       -1   -1    0    0    0  501  0.00000000000E+00  0.00000000000E+00  0.11927968686E+04  0.11927968686E+04  0.50400001928E-02 0. -1.
        1   -1    0    0  501    0  0.00000000000E+00  0.00000000000E+00 -0.16956396880E+03  0.16956396888E+03  0.50400001928E-02 0.  1.
    10030    2    1    2    0    0  0.00000000000E+00  0.00000000000E+00  0.10232328998E+04  0.13623608375E+04  0.89945621590E+03 0.  0.
        3    1    3    3  502    0  0.20969024888E+03  0.79635701871E+02 -0.78792875536E+02  0.23773971676E+03  0.10100000352E+00 0.  1.
       -3    1    3    3    0  502 -0.20969024888E+03 -0.79635701871E+02  0.11020257754E+04  0.11246211208E+04  0.10100000352E+00 0. -1.
</event>
<event>
 5   0  0.1003252E-02  0.9050866E+03  0.7818609E-02  0.9419245E-01
       -2   -1    0    0    0  501  0.00000000000E+00  0.00000000000E+00  0.14156450137E+03  0.14156450139E+03  0.25500000920E-02 0.  1.
        2   -1    0    0  501    0  0.00000000000E+00  0.00000000000E+00 -0.14466580222E+04  0.14466580222E+04  0.25500000920E-02 0. -1.
    10030    2    1    2    0    0  0.00000000000E+00  0.00000000000E+00 -0.13050935208E+04  0.15882225236E+04  0.90508656289E+03 0.  0.
        2    1    3    3  502    0  0.19608381052E+03  0.23524500355E+03 -0.67897852005E+02  0.31368645294E+03  0.25500000920E-02 0.  1.
       -2    1    3    3    0  502 -0.19608381052E+03 -0.23524500355E+03 -0.12371956688E+04  0.12745360706E+04  0.25500000920E-02 0. -1.
</event>
<event>
 5   0  0.6211218E-03  0.8988104E+03  0.7818609E-02  0.9427070E-01
       -1   -1    0    0    0  501  0.00000000000E+00  0.00000000000E+00  0.37096299880E+03  0.37096299883E+03  0.50400001928E-02 0.  1.
        1   -1    0    0  501    0  0.00000000000E+00  0.00000000000E+00 -0.54443440233E+03  0.54443440235E+03  0.50400001928E-02 0. -1.
    10030    2    1    2    0    0  0.00000000000E+00  0.00000000000E+00 -0.17347140353E+03  0.91539740118E+03  0.89881036612E+03 0.  0.
        5    1    3    3  502    0 -0.21750895151E+03 -0.34568779173E+03 -0.27763203387E+03  0.49387430543E+03  0.46999998093E+01 0. -1.
       -5    1    3    3    0  502  0.21750895151E+03  0.34568779173E+03  0.10416063034E+03  0.42152309575E+03  0.46999998093E+01 0.  1.
</event>
<event>
 5   0  0.6137243E-03  0.9849213E+03  0.7818609E-02  0.9325239E-01
       -1   -1    0    0    0  501  0.00000000000E+00  0.00000000000E+00  0.24515123920E+03  0.24515123925E+03  0.50400001928E-02 0. -1.
        1   -1    0    0  501    0  0.00000000000E+00  0.00000000000E+00 -0.98925656578E+03  0.98925656579E+03  0.50400001928E-02 0.  1.
    10030    2    1    2    0    0  0.00000000000E+00  0.00000000000E+00 -0.74410532658E+03  0.12344078050E+04  0.98492126187E+03 0.  0.
        4    1    3    3  502    0 -0.22050127274E+03 -0.19634337792E+03 -0.86602752112E+03  0.91497366823E+03  0.12699999809E+01 0.  1.
       -4    1    3    3    0  502  0.22050127274E+03  0.19634337792E+03  0.12192219453E+03  0.31943413680E+03  0.12699999809E+01 0. -1.
</event>
<event>
 5   0  0.1028978E-02  0.8951398E+03  0.7818609E-02  0.9431677E-01
        2   -1    0    0  501    0  0.00000000000E+00  0.00000000000E+00  0.57589991925E+03  0.57589991926E+03  0.25500000920E-02 0.  1.
       -2   -1    0    0    0  501  0.00000000000E+00  0.00000000000E+00 -0.34783617336E+03  0.34783617337E+03  0.25500000920E-02 0. -1.
    10030    2    1    2    0    0  0.00000000000E+00  0.00000000000E+00  0.22806374589E+03  0.92373609263E+03  0.89513981960E+03 0.  0.
        3    1    3    3  502    0  0.33682558225E+03  0.27997717846E+03  0.19002458870E+02  0.43840597277E+03  0.10100000352E+00 0. -1.
       -3    1    3    3    0  502 -0.33682558225E+03 -0.27997717846E+03  0.20906128702E+03  0.48533011986E+03  0.10100000352E+00 0.  1.
</event>
<event>
 5   0  0.6015709E-03  0.8774938E+03  0.7818609E-02  0.9454161E-01
        1   -1    0    0  501    0  0.00000000000E+00  0.00000000000E+00  0.10312730412E+04  0.10312730412E+04  0.50400001928E-02 0. -1.
       -1   -1    0    0    0  501  0.00000000000E+00  0.00000000000E+00 -0.18666138233E+03  0.18666138240E+03  0.50400001928E-02 0.  1.
    10030    2    1    2    0    0  0.00000000000E+00  0.00000000000E+00  0.84461165885E+03  0.12179344236E+04  0.87749382102E+03 0.  0.
        3    1    3    3  502    0 -0.16502622918E+03 -0.19786449413E+03  0.91521047643E+03  0.95078611723E+03  0.10100000352E+00 0. -1.
       -3    1    3    3    0  502  0.16502622918E+03  0.19786449413E+03 -0.70598817576E+02  0.26714830637E+03  0.10100000352E+00 0.  1.
</event>
<event>
 5   0  0.6092779E-03  0.9441842E+03  0.7818609E-02  0.9371974E-01
        1   -1    0    0  501    0  0.00000000000E+00  0.00000000000E+00  0.75134476507E+03  0.75134476508E+03  0.50400001928E-02 0. -1.
       -1   -1    0    0    0  501  0.00000000000E+00  0.00000000000E+00 -0.29662941250E+03  0.29662941255E+03  0.50400001928E-02 0.  1.
    10030    2    1    2    0    0  0.00000000000E+00  0.00000000000E+00  0.45471535256E+03  0.10479741776E+04  0.94418421144E+03 0.  0.
        2    1    3    3  502    0  0.22826661668E+03  0.23950506186E+03 -0.14641316447E+03  0.36180815038E+03  0.25500000920E-02 0.  1.
       -2    1    3    3    0  502 -0.22826661668E+03 -0.23950506186E+03  0.60112851704E+03  0.68616602725E+03  0.25500000920E-02 0. -1.
</event>
<event>
 5   0  0.6092779E-03  0.9240543E+03  0.7818609E-02  0.9396002E-01
       -1   -1    0    0    0  501  0.00000000000E+00  0.00000000000E+00  0.58230053326E+03  0.58230053329E+03  0.50400001928E-02 0.  1.
        1   -1    0    0  501    0  0.00000000000E+00  0.00000000000E+00 -0.36659607968E+03  0.36659607972E+03  0.50400001928E-02 0. -1.
    10030    2    1    2    0    0  0.00000000000E+00  0.00000000000E+00  0.21570445358E+03  0.94889661300E+03  0.92405431165E+03 0.  0.
        2    1    3    3  502    0  0.20205402459E+03 -0.11148667157E+03  0.51888041935E+03  0.56788378774E+03  0.25500000920E-02 0.  1.
       -2    1    3    3    0  502 -0.20205402459E+03  0.11148667157E+03 -0.30317596577E+03  0.38101282526E+03  0.25500000920E-02 0. -1.
</event>
<event>
 5   0  0.1041727E-02  0.9130246E+03  0.7818609E-02  0.9409445E-01
        2   -1    0    0  501    0  0.00000000000E+00  0.00000000000E+00  0.96355983179E+03  0.96355983179E+03  0.25500000920E-02 0. -1.
       -2   -1    0    0    0  501  0.00000000000E+00  0.00000000000E+00 -0.21628493251E+03  0.21628493253E+03  0.25500000920E-02 0.  1.
    10030    2    1    2    0    0  0.00000000000E+00  0.00000000000E+00  0.74727489928E+03  0.11798447643E+04  0.91302458500E+03 0.  0.
        4    1    3    3  502    0  0.32315014538E+03  0.21893086222E+03  0.67715030483E+02  0.39616117571E+03  0.12699999809E+01 0.  1.
       -4    1    3    3    0  502 -0.32315014538E+03 -0.21893086222E+03  0.67955986879E+03  0.78368358861E+03  0.12699999809E+01 0. -1.
</event>
<event>
 5   0  0.6137243E-03  0.8989974E+03  0.7818609E-02  0.9426836E-01
        1   -1    0    0  501    0  0.00000000000E+00  0.00000000000E+00  0.18762021858E+04  0.18762021858E+04  0.50400001928E-02 0. -1.
       -1   -1    0    0    0  501  0.00000000000E+00  0.00000000000E+00 -0.10769045565E+03  0.10769045577E+03  0.50400001928E-02 0.  1.
    10030    2    1    2    0    0  0.00000000000E+00  0.00000000000E+00  0.17685117301E+04  0.19838926416E+04  0.89899737130E+03 0.  0.
        4    1    3    3  502    0 -0.31472277406E+02  0.26940590072E+03  0.93261964765E+02  0.28682651649E+03  0.12699999809E+01 0.  1.
       -4    1    3    3    0  502  0.31472277406E+02 -0.26940590072E+03  0.16752497654E+04  0.16970661251E+04  0.12699999809E+01 0. -1.
</event>
<event>
 5   0  0.6288003E-03  0.9054901E+03  0.7818609E-02  0.9418744E-01
        1   -1    0    0  501    0  0.00000000000E+00  0.00000000000E+00  0.72955694313E+03  0.72955694315E+03  0.50400001928E-02 0. -1.
       -1   -1    0    0    0  501  0.00000000000E+00  0.00000000000E+00 -0.28096242794E+03  0.28096242798E+03  0.50400001928E-02 0.  1.
    10030    2    1    2    0    0  0.00000000000E+00  0.00000000000E+00  0.44859451520E+03  0.10105193711E+04  0.90549012163E+03 0.  0.
        1    1    3    3  502    0 -0.20142304250E+03  0.33235422986E+03  0.48350420897E+03  0.62032805536E+03  0.50400001928E-02 0. -1.
       -1    1    3    3    0  502  0.20142304250E+03 -0.33235422986E+03 -0.34909693769E+02  0.39019131577E+03  0.50400001928E-02 0.  1.
</event>
<event>
 5   0  0.1033749E-02  0.9414927E+03  0.7818609E-02  0.9375150E-01
       -2   -1    0    0    0  501  0.00000000000E+00  0.00000000000E+00  0.37316676290E+03  0.37316676291E+03  0.25500000920E-02 0. -1.
        2   -1    0    0  501    0  0.00000000000E+00  0.00000000000E+00 -0.59384204565E+03  0.59384204566E+03  0.25500000920E-02 0.  1.
    10030    2    1    2    0    0  0.00000000000E+00  0.00000000000E+00 -0.22067528276E+03  0.96700880857E+03  0.94149267412E+03 0.  0.
        5    1    3    3  502    0  0.34091044090E+03 -0.18046838854E+03  0.16677292837E+03  0.42026666250E+03  0.46999998093E+01 0. -1.
       -5    1    3    3    0  502 -0.34091044090E+03  0.18046838854E+03 -0.38744821113E+03  0.54674214606E+03  0.46999998093E+01 0.  1.
</event>
<event>
 5   0  0.1017079E-02  0.9135681E+03  0.7818609E-02  0.9408778E-01
        2   -1    0    0  501    0  0.00000000000E+00  0.00000000000E+00  0.77362259300E+03  0.77362259301E+03  0.25500000920E-02 0. -1.
       -2   -1    0    0    0  501  0.00000000000E+00  0.00000000000E+00 -0.26970732202E+03  0.26970732203E+03  0.25500000920E-02 0.  1.
    10030    2    1    2    0    0  0.00000000000E+00  0.00000000000E+00  0.50391527098E+03  0.10433299150E+04  0.91356812077E+03 0.  0.
        1    1    3    3  502    0 -0.43725620431E+03 -0.60565065701E+02  0.11784437761E+03  0.45688993505E+03  0.50400001928E-02 0.  1.
       -1    1    3    3    0  502  0.43725620431E+03  0.60565065701E+02  0.38607089338E+03  0.58643997999E+03  0.50400001928E-02 0. -1.
</event>
<event>
 5   0  0.1017079E-02  0.9013904E+03  0.7818609E-02  0.9423845E-01
        2   -1    0    0  501    0  0.00000000000E+00  0.00000000000E+00  0.13239528608E+04  0.13239528608E+04  0.25500000920E-02 0. -1.
       -2   -1    0    0    0  501  0.00000000000E+00  0.00000000000E+00 -0.15342402346E+03  0.15342402348E+03  0.25500000920E-02 0.  1.
    10030    2    1    2    0    0  0.00000000000E+00  0.00000000000E+00  0.11705288374E+04  0.14773768843E+04  0.90139042549E+03 0.  0.
        1    1    3    3  502    0  0.27693159287E+03 -0.10930315465E+02  0.11677790609E+04  0.12002160281E+04  0.50400001928E-02 0. -1.
       -1    1    3    3    0  502 -0.27693159287E+03  0.10930315465E+02  0.27497764421E+01  0.27716085622E+03  0.50400001928E-02 0.  1.
</event>
<event>
 5   0  0.6015709E-03  0.8994122E+03  0.7818609E-02  0.9426317E-01
        1   -1    0    0  501    0  0.00000000000E+00  0.00000000000E+00  0.20646027412E+03  0.20646027418E+03  0.50400001928E-02 0. -1.
       -1   -1    0    0    0  501  0.00000000000E+00  0.00000000000E+00 -0.97953742911E+03  0.97953742912E+03  0.50400001928E-02 0.  1.
    10030    2    1    2    0    0  0.00000000000E+00  0.00000000000E+00 -0.77307715499E+03  0.11859977033E+04  0.89941217730E+03 0.  0.
        3    1    3    3  502    0  0.14708495362E+03 -0.18622180240E+03  0.11717885201E+03  0.26465720627E+03  0.10100000352E+00 0. -1.
       -3    1    3    3    0  502 -0.14708495362E+03  0.18622180240E+03 -0.89025600700E+03  0.92134049703E+03  0.10100000352E+00 0.  1.
</event>
<event>
 5   0  0.1033749E-02  0.8965426E+03  0.7818609E-02  0.9429914E-01
       -2   -1    0    0    0  501  0.00000000000E+00  0.00000000000E+00  0.74808335421E+03  0.74808335421E+03  0.25500000920E-02 0.  1.
        2   -1    0    0  501    0  0.00000000000E+00  0.00000000000E+00 -0.26861598209E+03  0.26861598210E+03  0.25500000920E-02 0. -1.
    10030    2    1    2    0    0  0.00000000000E+00  0.00000000000E+00  0.47946737212E+03  0.10166993363E+04  0.89654256984E+03 0.  0.
        5    1    3    3  502    0  0.36046336440E+03 -0.17227119488E+02 -0.61785024016E+02  0.36615582736E+03  0.46999998093E+01 0. -1.
       -5    1    3    3    0  502 -0.36046336440E+03  0.17227119488E+02  0.54125239613E+03  0.65054350895E+03  0.46999998093E+01 0.  1.
</event>
<event>
 5   0  0.1003252E-02  0.8911101E+03  0.7818609E-02  0.9436763E-01
       -2   -1    0    0    0  501  0.00000000000E+00  0.00000000000E+00  0.12021721214E+03  0.12021721217E+03  0.25500000920E-02 0. -1.
        2   -1    0    0  501    0  0.00000000000E+00  0.00000000000E+00 -0.16513384109E+04  0.16513384109E+04  0.25500000920E-02 0.  1.
    10030    2    1    2    0    0  0.00000000000E+00  0.00000000000E+00 -0.15311211988E+04  0.17715556231E+04  0.89111009441E+03 0.  0.
        2    1    3    3  502    0  0.16855093998E+03 -0.18510932701E+03 -0.32830000930E+02  0.25249295293E+03  0.25500000920E-02 0. -1.
       -2    1    3    3    0  502 -0.16855093998E+03  0.18510932701E+03 -0.14982911978E+04  0.15190626701E+04  0.25500000920E-02 0.  1.
</event>
<event>
 5   0  0.6211218E-03  0.8982254E+03  0.7818609E-02  0.9427802E-01
       -1   -1    0    0    0  501  0.00000000000E+00  0.00000000000E+00  0.31297229205E+03  0.31297229210E+03  0.50400001928E-02 0.  1.
        1   -1    0    0  501    0  0.00000000000E+00  0.00000000000E+00 -0.64447307592E+03  0.64447307594E+03  0.50400001928E-02 0. -1.
    10030    2    1    2    0    0  0.00000000000E+00  0.00000000000E+00 -0.33150078387E+03  0.95744536804E+03  0.89822539658E+03 0.  0.
        5    1    3    3  502    0  0.12327230885E+03 -0.57316101156E+02  0.29048622315E+03  0.32075774881E+03  0.46999998093E+01 0.  1.
       -5    1    3    3    0  502 -0.12327230885E+03  0.57316101156E+02 -0.62198700702E+03  0.63668761923E+03  0.46999998093E+01 0. -1.
</event>
<event>
 5   0  0.1017079E-02  0.8968613E+03  0.7818609E-02  0.9429513E-01
       -2   -1    0    0    0  501  0.00000000000E+00  0.00000000000E+00  0.10213383721E+03  0.10213383724E+03  0.25500000920E-02 0. -1.
        2   -1    0    0  501    0  0.00000000000E+00  0.00000000000E+00 -0.19688877102E+04  0.19688877102E+04  0.25500000920E-02 0.  1.
    10030    2    1    2    0    0  0.00000000000E+00  0.00000000000E+00 -0.18667538730E+04  0.20710215474E+04  0.89686132017E+03 0.  0.
        1    1    3    3  502    0 -0.84990257823E+02 -0.27379368859E+03 -0.17296408991E+04  0.17532381378E+04  0.50400001928E-02 0.  1.
       -1    1    3    3    0  502  0.84990257823E+02  0.27379368859E+03 -0.13711297390E+03  0.31778340969E+03  0.50400001928E-02 0. -1.
</event>
<event>
 5   0  0.1041727E-02  0.8933974E+03  0.7818609E-02  0.9433873E-01
       -2   -1    0    0    0  501  0.00000000000E+00  0.00000000000E+00  0.38747995125E+03  0.38747995126E+03  0.25500000920E-02 0.  1.
        2   -1    0    0  501    0  0.00000000000E+00  0.00000000000E+00 -0.51496787308E+03  0.51496787308E+03  0.25500000920E-02 0. -1.
    10030    2    1    2    0    0  0.00000000000E+00  0.00000000000E+00 -0.12748792183E+03  0.90244782434E+03  0.89339739503E+03 0.  0.
        4    1    3    3  502    0 -0.38746896150E+03  0.11042996354E+03  0.13111209644E+03  0.42369678746E+03  0.12699999809E+01 0.  1.
       -4    1    3    3    0  502  0.38746896150E+03 -0.11042996354E+03 -0.25860001827E+03  0.47875103688E+03  0.12699999809E+01 0. -1.
</event>
<event>
 5   0  0.1017079E-02  0.9073326E+03  0.7818609E-02  0.9416462E-01
       -2   -1    0    0    0  501  0.00000000000E+00  0.00000000000E+00  0.32845766796E+04  0.32845766796E+04  0.25500000920E-02 0.  1.
        2   -1    0    0  501    0  0.00000000000E+00  0.00000000000E+00 -0.62660462498E+02  0.62660462550E+02  0.25500000920E-02 0. -1.
    10030    2    1    2    0    0  0.00000000000E+00  0.00000000000E+00  0.32219162171E+04  0.33472371421E+04  0.90733256073E+03 0.  0.
        1    1    3    3  502    0  0.35227523454E+03 -0.24631645358E+03  0.10758044033E+04  0.11585010791E+04  0.50400001928E-02 0. -1.
       -1    1    3    3    0  502 -0.35227523454E+03  0.24631645358E+03  0.21461118138E+04  0.21887360630E+04  0.50400001928E-02 0.  1.
</event>
<event>
 5   0  0.1003252E-02  0.9010627E+03  0.7818609E-02  0.9424254E-01
       -2   -1    0    0    0  501  0.00000000000E+00  0.00000000000E+00  0.37045117656E+03  0.37045117657E+03  0.25500000920E-02 0. -1.
        2   -1    0    0  501    0  0.00000000000E+00  0.00000000000E+00 -0.54792244077E+03  0.54792244077E+03  0.25500000920E-02 0.  1.
    10030    2    1    2    0    0  0.00000000000E+00  0.00000000000E+00 -0.17747126420E+03  0.91837361734E+03  0.90106273445E+03 0.  0.
        2    1    3    3  502    0 -0.43282585792E+03  0.12043265365E+03 -0.54379498792E+02  0.45254765191E+03  0.25500000920E-02 0.  1.
       -2    1    3    3    0  502  0.43282585792E+03 -0.12043265365E+03 -0.12309176541E+03  0.46582596543E+03  0.25500000920E-02 0. -1.
</event>
<event>
 5   0  0.6092779E-03  0.8992073E+03  0.7818609E-02  0.9426573E-01
       -1   -1    0    0    0  501  0.00000000000E+00  0.00000000000E+00  0.13552281061E+03  0.13552281070E+03  0.50400001928E-02 0.  1.
        1   -1    0    0  501    0  0.00000000000E+00  0.00000000000E+00 -0.14915823112E+04  0.14915823113E+04  0.50400001928E-02 0. -1.
    10030    2    1    2    0    0  0.00000000000E+00  0.00000000000E+00 -0.13560595006E+04  0.16271051220E+04  0.89920726679E+03 0.  0.
        2    1    3    3  502    0 -0.40955357723E+03 -0.12082493620E+03 -0.42334382793E+03  0.60129260305E+03  0.25500000920E-02 0. -1.
       -2    1    3    3    0  502  0.40955357723E+03  0.12082493620E+03 -0.93271567271E+03  0.10258125189E+04  0.25500000920E-02 0.  1.
</event>
<event>
 5   0  0.6092779E-03  0.9177100E+03  0.7818609E-02  0.9403710E-01
        1   -1    0    0  501    0  0.00000000000E+00  0.00000000000E+00  0.65951167882E+03  0.65951167884E+03  0.50400001928E-02 0. -1.
       -1   -1    0    0    0  501  0.00000000000E+00  0.00000000000E+00 -0.31924821328E+03  0.31924821332E+03  0.50400001928E-02 0.  1.
    10030    2    1    2    0    0  0.00000000000E+00  0.00000000000E+00  0.34026346555E+03  0.97875989216E+03  0.91771003074E+03 0.  0.
        2    1    3    3  502    0 -0.29057664680E+03 -0.25571858442E+03  0.43294098766E+03  0.58074493617E+03  0.25500000920E-02 0. -1.
       -2    1    3    3    0  502  0.29057664680E+03  0.25571858442E+03 -0.92677522111E+02  0.39801495599E+03  0.25500000920E-02 0.  1.
</event>
<event>
 5   0  0.1017079E-02  0.9022129E+03  0.7818609E-02  0.9422819E-01
       -2   -1    0    0    0  501  0.00000000000E+00  0.00000000000E+00  0.14784108902E+03  0.14784108904E+03  0.25500000920E-02 0.  1.
        2   -1    0    0  501    0  0.00000000000E+00  0.00000000000E+00 -0.13764578933E+04  0.13764578933E+04  0.25500000920E-02 0. -1.
    10030    2    1    2    0    0  0.00000000000E+00  0.00000000000E+00 -0.12286168043E+04  0.15242989824E+04  0.90221291048E+03 0.  0.
        1    1    3    3  502    0 -0.43294906953E+03  0.12545300823E+03 -0.58438545036E+03  0.73803096730E+03  0.50400001928E-02 0. -1.
       -1    1    3    3    0  502  0.43294906953E+03 -0.12545300823E+03 -0.64423135393E+03  0.78626801505E+03  0.50400001928E-02 0.  1.
</event>
<event>
 5   0  0.6288003E-03  0.8999838E+03  0.7818609E-02  0.9425602E-01
        1   -1    0    0  501    0  0.00000000000E+00  0.00000000000E+00  0.17292432666E+04  0.17292432666E+04  0.50400001928E-02 0.  1.
       -1   -1    0    0    0  501  0.00000000000E+00  0.00000000000E+00 -0.11709902521E+03  0.11709902532E+03  0.50400001928E-02 0. -1.
    10030    2    1    2    0    0  0.00000000000E+00  0.00000000000E+00  0.16121442414E+04  0.18463422919E+04  0.89998377980E+03 0.  0.
        1    1    3    3  502    0 -0.20449644828E+03  0.87522365283E+02  0.16085678860E+04  0.16238748738E+04  0.50400001928E-02 0.  1.
       -1    1    3    3    0  502  0.20449644828E+03 -0.87522365283E+02  0.35763553612E+01  0.22246741812E+03  0.50400001928E-02 0. -1.
</event>
<event>
 5   0  0.6211218E-03  0.8864036E+03  0.7818609E-02  0.9442739E-01
        1   -1    0    0  501    0  0.00000000000E+00  0.00000000000E+00  0.48291150067E+03  0.48291150070E+03  0.50400001928E-02 0.  1.
       -1   -1    0    0    0  501  0.00000000000E+00  0.00000000000E+00 -0.40675739680E+03  0.40675739683E+03  0.50400001928E-02 0. -1.
    10030    2    1    2    0    0  0.00000000000E+00  0.00000000000E+00  0.76154103871E+02  0.88966889754E+03  0.88640357609E+03 0.  0.
        5    1    3    3  502    0 -0.22151307805E+03  0.11542309899E+03 -0.32935237634E+03  0.41338313140E+03  0.46999998093E+01 0. -1.
       -5    1    3    3    0  502  0.22151307805E+03 -0.11542309899E+03  0.40550648021E+03  0.47628576613E+03  0.46999998093E+01 0.  1.
</event>
<event>
 5   0  0.1017079E-02  0.9148725E+03  0.7818609E-02  0.9407179E-01
        2   -1    0    0  501    0  0.00000000000E+00  0.00000000000E+00  0.16373273397E+03  0.16373273399E+03  0.25500000920E-02 0.  1.
       -2   -1    0    0    0  501  0.00000000000E+00  0.00000000000E+00 -0.12779846061E+04  0.12779846061E+04  0.25500000920E-02 0. -1.
    10030    2    1    2    0    0  0.00000000000E+00  0.00000000000E+00 -0.11142518722E+04  0.14417173401E+04  0.91487247976E+03 0.  0.
        1    1    3    3  502    0 -0.22155945031E+03 -0.16745235189E+02  0.72982308165E+02  0.23387049889E+03  0.50400001928E-02 0.  1.
       -1    1    3    3    0  502  0.22155945031E+03  0.16745235189E+02 -0.11872341803E+04  0.12078468412E+04  0.50400001928E-02 0. -1.
</event>
<event>
 5   0  0.6137243E-03  0.8972774E+03  0.7818609E-02  0.9428991E-01
        1   -1    0    0  501    0  0.00000000000E+00  0.00000000000E+00  0.15979503639E+04  0.15979503639E+04  0.50400001928E-02 0.  1.
       -1   -1    0    0    0  501  0.00000000000E+00  0.00000000000E+00 -0.12595927098E+03  0.12595927108E+03  0.50400001928E-02 0. -1.
    10030    2    1    2    0    0  0.00000000000E+00  0.00000000000E+00  0.14719910929E+04  0.17239096350E+04  0.89727735509E+03 0.  0.
        4    1    3    3  502    0 -0.15819587203E+03 -0.46863017968E+02  0.15375416612E+04  0.15463693120E+04  0.12699999809E+01 0.  1.
       -4    1    3    3    0  502  0.15819587203E+03  0.46863017968E+02 -0.65550568264E+02  0.17754032297E+03  0.12699999809E+01 0. -1.
</event>
<event>
 5   0  0.1003252E-02  0.9142737E+03  0.7818609E-02  0.9407912E-01
       -2   -1    0    0    0  501  0.00000000000E+00  0.00000000000E+00  0.12028731957E+03  0.12028731959E+03  0.25500000920E-02 0. -1.
        2   -1    0    0  501    0  0.00000000000E+00  0.00000000000E+00 -0.17372910079E+04  0.17372910079E+04  0.25500000920E-02 0.  1.
    10030    2    1    2    0    0  0.00000000000E+00  0.00000000000E+00 -0.16170036884E+04  0.18575783275E+04  0.91427365418E+03 0.  0.
        2    1    3    3  502    0 -0.28815479740E+03  0.93306322293E+02 -0.15041653863E+04  0.15343574441E+04  0.25500000920E-02 0.  1.
       -2    1    3    3    0  502  0.28815479740E+03 -0.93306322293E+02 -0.11283830208E+03  0.32322088340E+03  0.25500000920E-02 0. -1.
</event>
<event>
 5   0  0.6137243E-03  0.8948668E+03  0.7818609E-02  0.9432021E-01
       -1   -1    0    0    0  501  0.00000000000E+00  0.00000000000E+00  0.16420432786E+03  0.16420432794E+03  0.50400001928E-02 0.  1.
        1   -1    0    0  501    0  0.00000000000E+00  0.00000000000E+00 -0.12191922652E+04  0.12191922652E+04  0.50400001928E-02 0. -1.
    10030    2    1    2    0    0  0.00000000000E+00  0.00000000000E+00 -0.10549879374E+04  0.13833965932E+04  0.89486679792E+03 0.  0.
        4    1    3    3  502    0  0.17774742288E+03  0.33275929523E+03 -0.15559662776E+03  0.40808677799E+03  0.12699999809E+01 0.  1.
       -4    1    3    3    0  502 -0.17774742288E+03 -0.33275929523E+03 -0.89939130962E+03  0.97530981520E+03  0.12699999809E+01 0. -1.
</event>
<event>
 5   0  0.6288003E-03  0.8960267E+03  0.7818609E-02  0.9430562E-01
       -1   -1    0    0    0  501  0.00000000000E+00  0.00000000000E+00  0.16707501295E+03  0.16707501302E+03  0.50400001928E-02 0. -1.
        1   -1    0    0  501    0  0.00000000000E+00  0.00000000000E+00 -0.12013524648E+04  0.12013524649E+04  0.50400001928E-02 0.  1.
    10030    2    1    2    0    0  0.00000000000E+00  0.00000000000E+00 -0.10342774519E+04  0.13684274779E+04  0.89602673772E+03 0.  0.
        1    1    3    3  502    0  0.31175949875E+01  0.36239092148E+02  0.16481633545E+03  0.16878215443E+03  0.50400001928E-02 0. -1.
       -1    1    3    3    0  502 -0.31175949875E+01 -0.36239092148E+02 -0.11990937873E+04  0.11996453234E+04  0.50400001928E-02 0.  1.
</event>
<event>
 5   0  0.1033749E-02  0.8795225E+03  0.7818609E-02  0.9451548E-01
        2   -1    0    0  501    0  0.00000000000E+00  0.00000000000E+00  0.23446737684E+04  0.23446737684E+04  0.25500000920E-02 0. -1.
       -2   -1    0    0    0  501  0.00000000000E+00  0.00000000000E+00 -0.82480542754E+02  0.82480542793E+02  0.25500000920E-02 0.  1.
    10030    2    1    2    0    0  0.00000000000E+00  0.00000000000E+00  0.22621932256E+04  0.24271543112E+04  0.87952251830E+03 0.  0.
        5    1    3    3  502    0  0.31031450492E+03 -0.43615045840E+02  0.27975938385E+03  0.42010090102E+03  0.46999998093E+01 0.  1.
       -5    1    3    3    0  502 -0.31031450492E+03  0.43615045840E+02  0.19824338418E+04  0.20070534102E+04  0.46999998093E+01 0. -1.
</event>
<event>
 5   0  0.6015709E-03  0.9025540E+03  0.7818609E-02  0.9422394E-01
       -1   -1    0    0    0  501  0.00000000000E+00  0.00000000000E+00  0.34772255042E+03  0.34772255046E+03  0.50400001928E-02 0. -1.
        1   -1    0    0  501    0  0.00000000000E+00  0.00000000000E+00 -0.58567071459E+03  0.58567071461E+03  0.50400001928E-02 0.  1.
    10030    2    1    2    0    0  0.00000000000E+00  0.00000000000E+00 -0.23794816417E+03  0.93339326506E+03  0.90255396428E+03 0.  0.
        3    1    3    3  502    0  0.11362275810E+03  0.24039051888E+03  0.25811228879E+03  0.37056672348E+03  0.10100000352E+00 0. -1.
       -3    1    3    3    0  502 -0.11362275810E+03 -0.24039051888E+03 -0.49606045295E+03  0.56282654158E+03  0.10100000352E+00 0.  1.
</event>
<event>
 5   0  0.6015709E-03  0.8957167E+03  0.7818609E-02  0.9430952E-01
       -1   -1    0    0    0  501  0.00000000000E+00  0.00000000000E+00  0.20317171014E+03  0.20317171020E+03  0.50400001928E-02 0. -1.
        1   -1    0    0  501    0  0.00000000000E+00  0.00000000000E+00 -0.98722957130E+03  0.98722957132E+03  0.50400001928E-02 0.  1.
    10030    2    1    2    0    0  0.00000000000E+00  0.00000000000E+00 -0.78405786116E+03  0.11904012815E+04  0.89571674172E+03 0.  0.
        3    1    3    3  502    0  0.18625935660E+03  0.35319236981E+03 -0.66158760894E+03  0.77274547719E+03  0.10100000352E+00 0.  1.
       -3    1    3    3    0  502 -0.18625935660E+03 -0.35319236981E+03 -0.12247025222E+03  0.41765580433E+03  0.10100000352E+00 0. -1.
</event>
<event>
 5   0  0.1003252E-02  0.9038012E+03  0.7818609E-02  0.9420842E-01
        2   -1    0    0  501    0  0.00000000000E+00  0.00000000000E+00  0.11366821171E+04  0.11366821171E+04  0.25500000920E-02 0. -1.
       -2   -1    0    0    0  501  0.00000000000E+00  0.00000000000E+00 -0.17965810339E+03  0.17965810341E+03  0.25500000920E-02 0.  1.
    10030    2    1    2    0    0  0.00000000000E+00  0.00000000000E+00  0.95702401372E+03  0.13163402205E+04  0.90380120232E+03 0.  0.
        2    1    3    3  502    0 -0.26839675256E+03 -0.12322043159E+03  0.97668151986E+03  0.10203562529E+04  0.25500000920E-02 0. -1.
       -2    1    3    3    0  502  0.26839675256E+03  0.12322043159E+03 -0.19657506142E+02  0.29598396764E+03  0.25500000920E-02 0.  1.
</event>
<event>
 5   0  0.1041727E-02  0.9017560E+03  0.7818609E-02  0.9423389E-01
        2   -1    0    0  501    0  0.00000000000E+00  0.00000000000E+00  0.12953399258E+04  0.12953399258E+04  0.25500000920E-02 0.  1.
       -2   -1    0    0    0  501  0.00000000000E+00  0.00000000000E+00 -0.15694024012E+03  0.15694024014E+03  0.25500000920E-02 0. -1.
    10030    2    1    2    0    0  0.00000000000E+00  0.00000000000E+00  0.11383996857E+04  0.14522801659E+04  0.90175597365E+03 0.  0.
        4    1    3    3  502    0 -0.72424785186E+02  0.14841543029E+03  0.12448758671E+04  0.12557826352E+04  0.12699999809E+01 0.  1.
       -4    1    3    3    0  502  0.72424785186E+02 -0.14841543029E+03 -0.10647618146E+03  0.19649753071E+03  0.12699999809E+01 0. -1.
</event>
<event>
 5   0  0.6015709E-03  0.9236406E+03  0.7818609E-02  0.9396503E-01
       -1   -1    0    0    0  501  0.00000000000E+00  0.00000000000E+00  0.84738996562E+03  0.84738996564E+03  0.50400001928E-02 0.  1.
        1   -1    0    0  501    0  0.00000000000E+00  0.00000000000E+00 -0.25168811118E+03  0.25168811123E+03  0.50400001928E-02 0. -1.
    10030    2    1    2    0    0  0.00000000000E+00  0.00000000000E+00  0.59570185444E+03  0.10990780769E+04  0.92364057927E+03 0.  0.
        3    1    3    3  502    0 -0.28460984866E+03  0.13905221925E+03 -0.10204669742E+03  0.33279396672E+03  0.10100000352E+00 0. -1.
       -3    1    3    3    0  502  0.28460984866E+03 -0.13905221925E+03  0.69774855187E+03  0.76628411015E+03  0.10100000352E+00 0.  1.
</event>
<event>
 5   0  0.1003252E-02  0.9217440E+03  0.7818609E-02  0.9398801E-01
       -2   -1    0    0    0  501  0.00000000000E+00  0.00000000000E+00  0.12204489411E+03  0.12204489414E+03  0.25500000920E-02 0. -1.
        2   -1    0    0  501    0  0.00000000000E+00  0.00000000000E+00 -0.17403679471E+04  0.17403679471E+04  0.25500000920E-02 0.  1.
    10030    2    1    2    0    0  0.00000000000E+00  0.00000000000E+00 -0.16183230530E+04  0.18624128412E+04  0.92174404657E+03 0.  0.
        2    1    3    3  502    0 -0.36014296666E+03 -0.24212404991E+02 -0.23016793455E+03  0.42809633857E+03  0.25500000920E-02 0. -1.
       -2    1    3    3    0  502  0.36014296666E+03  0.24212404991E+02 -0.13881551184E+04  0.14343165027E+04  0.25500000920E-02 0.  1.
</event>
<event>
 5   0  0.1041727E-02  0.9003338E+03  0.7818609E-02  0.9425164E-01
        2   -1    0    0  501    0  0.00000000000E+00  0.00000000000E+00  0.11405006265E+04  0.11405006265E+04  0.25500000920E-02 0. -1.
       -2   -1    0    0    0  501  0.00000000000E+00  0.00000000000E+00 -0.17768533036E+03  0.17768533037E+03  0.25500000920E-02 0.  1.
    10030    2    1    2    0    0  0.00000000000E+00  0.00000000000E+00  0.96281529611E+03  0.13181859568E+04  0.90033378388E+03 0.  0.
        4    1    3    3  502    0 -0.24031641078E+03  0.36247713584E+03  0.31124977685E+03  0.53480808500E+03  0.12699999809E+01 0.  1.
       -4    1    3    3    0  502  0.24031641078E+03 -0.36247713584E+03  0.65156551926E+03  0.78337787183E+03  0.12699999809E+01 0. -1.
</event>
<event>
 5   0  0.1028978E-02  0.8952487E+03  0.7818609E-02  0.9431540E-01
       -2   -1    0    0    0  501  0.00000000000E+00  0.00000000000E+00  0.20748647100E+03  0.20748647101E+03  0.25500000920E-02 0.  1.
        2   -1    0    0  501    0  0.00000000000E+00  0.00000000000E+00 -0.96568968272E+03  0.96568968272E+03  0.25500000920E-02 0. -1.
    10030    2    1    2    0    0  0.00000000000E+00  0.00000000000E+00 -0.75820321172E+03  0.11731761537E+04  0.89524866793E+03 0.  0.
        3    1    3    3  502    0 -0.10180536834E+03 -0.42843432620E+03 -0.48432349638E+03  0.65459114280E+03  0.10100000352E+00 0.  1.
       -3    1    3    3    0  502  0.10180536834E+03  0.42843432620E+03 -0.27387971534E+03  0.51858501093E+03  0.10100000352E+00 0. -1.
</event>
<event>
 5   0  0.6015709E-03  0.9032407E+03  0.7818609E-02  0.9421539E-01
        1   -1    0    0  501    0  0.00000000000E+00  0.00000000000E+00  0.62269669348E+03  0.62269669350E+03  0.50400001928E-02 0. -1.
       -1   -1    0    0    0  501  0.00000000000E+00  0.00000000000E+00 -0.32754463658E+03  0.32754463662E+03  0.50400001928E-02 0.  1.
    10030    2    1    2    0    0  0.00000000000E+00  0.00000000000E+00  0.29515205690E+03  0.95024133012E+03  0.90324074796E+03 0.  0.
        3    1    3    3  502    0  0.23861098142E+03  0.35571090644E+03 -0.30360078413E+01  0.42833944128E+03  0.10100000352E+00 0.  1.
       -3    1    3    3    0  502 -0.23861098142E+03 -0.35571090644E+03  0.29818806474E+03  0.52190188884E+03  0.10100000352E+00 0. -1.
</event>
<event>
 5   0  0.1003252E-02  0.8933601E+03  0.7818609E-02  0.9433920E-01
        2   -1    0    0  501    0  0.00000000000E+00  0.00000000000E+00  0.16489006008E+04  0.16489006008E+04  0.25500000920E-02 0. -1.
       -2   -1    0    0    0  501  0.00000000000E+00  0.00000000000E+00 -0.12100370859E+03  0.12100370862E+03  0.25500000920E-02 0.  1.
    10030    2    1    2    0    0  0.00000000000E+00  0.00000000000E+00  0.15278968922E+04  0.17699043094E+04  0.89336014646E+03 0.  0.
        2    1    3    3  502    0  0.23733045033E+03 -0.31489465759E+03  0.34819059756E+03  0.52604285022E+03  0.25500000920E-02 0.  1.
       -2    1    3    3    0  502 -0.23733045033E+03  0.31489465759E+03  0.11797062947E+04  0.12438614592E+04  0.25500000920E-02 0. -1.
</event>
<event>
 5   0  0.3996375E-03  0.9034746E+03  0.7818609E-02  0.9421248E-01
       -3   -1    0    0    0  501  0.00000000000E+00  0.00000000000E+00  0.68115311579E+03  0.68115312328E+03  0.10100000352E+00 0.  1.
        3   -1    0    0  501    0  0.00000000000E+00  0.00000000000E+00 -0.29958985507E+03  0.29958987210E+03  0.10100000352E+00 0. -1.
    10030    2    1    2    0    0  0.00000000000E+00  0.00000000000E+00  0.38156326072E+03  0.98074299538E+03  0.90347457134E+03 0.  0.
        2    1    3    3  502    0 -0.26390023241E+03  0.27221244855E+03 -0.75832399142E+02  0.38664389634E+03  0.25500000920E-02 0. -1.
       -2    1    3    3    0  502  0.26390023241E+03 -0.27221244855E+03  0.45739565986E+03  0.59409909904E+03  0.25500000920E-02 0.  1.
</event>
<event>
 5   0  0.6137243E-03  0.8909613E+03  0.7818609E-02  0.9436951E-01
        1   -1    0    0  501    0  0.00000000000E+00  0.00000000000E+00  0.97421373889E+03  0.97421373891E+03  0.50400001928E-02 0.  1.
       -1   -1    0    0    0  501  0.00000000000E+00  0.00000000000E+00 -0.20370580628E+03  0.20370580634E+03  0.50400001928E-02 0. -1.
    10030    2    1    2    0    0  0.00000000000E+00  0.00000000000E+00  0.77050793261E+03  0.11779195452E+04  0.89096126788E+03 0.  0.
        4    1    3    3  502    0 -0.14567400709E+03  0.71053172909E+02  0.93384735222E+03  0.94780903132E+03  0.12699999809E+01 0.  1.
       -4    1    3    3    0  502  0.14567400709E+03 -0.71053172909E+02 -0.16333941960E+03  0.23011051392E+03  0.12699999809E+01 0. -1.
</event>
<event>
 5   0  0.1003252E-02  0.9059810E+03  0.7818609E-02  0.9418136E-01
       -2   -1    0    0    0  501  0.00000000000E+00  0.00000000000E+00  0.36520968458E+03  0.36520968458E+03  0.25500000920E-02 0. -1.
        2   -1    0    0  501    0  0.00000000000E+00  0.00000000000E+00 -0.56187002188E+03  0.56187002188E+03  0.25500000920E-02 0.  1.
    10030    2    1    2    0    0  0.00000000000E+00  0.00000000000E+00 -0.19666033730E+03  0.92707970647E+03  0.90598095668E+03 0.  0.
        2    1    3    3  502    0 -0.14950331741E+02 -0.15069883770E+03 -0.53519963917E+03  0.55621246469E+03  0.25500000920E-02 0.  1.
       -2    1    3    3    0  502  0.14950331741E+02  0.15069883770E+03  0.33853930187E+03  0.37086724177E+03  0.25500000920E-02 0. -1.
</event>
<event>
 5   0  0.6211218E-03  0.9005554E+03  0.7818609E-02  0.9424887E-01
        1   -1    0    0  501    0  0.00000000000E+00  0.00000000000E+00  0.17189785615E+03  0.17189785623E+03  0.50400001928E-02 0. -1.
       -1   -1    0    0    0  501  0.00000000000E+00  0.00000000000E+00 -0.11794796603E+04  0.11794796603E+04  0.50400001928E-02 0.  1.
    10030    2    1    2    0    0  0.00000000000E+00  0.00000000000E+00 -0.10075818041E+04  0.13513775165E+04  0.90055543979E+03 0.  0.
        5    1    3    3  502    0 -0.44855436013E+03 -0.28954315353E+02 -0.46441415266E+03  0.64632960753E+03  0.46999998093E+01 0. -1.
       -5    1    3    3    0  502  0.44855436013E+03  0.28954315353E+02 -0.54316765144E+03  0.70504790897E+03  0.46999998093E+01 0.  1.
</event>
<event>
 5   0  0.6015709E-03  0.8881847E+03  0.7818609E-02  0.9440473E-01
        1   -1    0    0  501    0  0.00000000000E+00  0.00000000000E+00  0.10198931866E+04  0.10198931866E+04  0.50400001928E-02 0.  1.
       -1   -1    0    0    0  501  0.00000000000E+00  0.00000000000E+00 -0.19337126217E+03  0.19337126224E+03  0.50400001928E-02 0. -1.
    10030    2    1    2    0    0  0.00000000000E+00  0.00000000000E+00  0.82652192441E+03  0.12132644488E+04  0.88818473937E+03 0.  0.
        3    1    3    3  502    0  0.91915212398E+02  0.14310219306E+03  0.97364157171E+03  0.98838482602E+03  0.10100000352E+00 0.  1.
       -3    1    3    3    0  502 -0.91915212398E+02 -0.14310219306E+03 -0.14711964731E+03  0.22487962281E+03  0.10100000352E+00 0. -1.
</event>
<event>
 5   0  0.6015709E-03  0.8912829E+03  0.7818609E-02  0.9436544E-01
        1   -1    0    0  501    0  0.00000000000E+00  0.00000000000E+00  0.59276946369E+03  0.59276946371E+03  0.50400001928E-02 0.  1.
       -1   -1    0    0    0  501  0.00000000000E+00  0.00000000000E+00 -0.33503124466E+03  0.33503124470E+03  0.50400001928E-02 0. -1.
    10030    2    1    2    0    0  0.00000000000E+00  0.00000000000E+00  0.25773821903E+03  0.92780070841E+03  0.89128287596E+03 0.  0.
        3    1    3    3  502    0 -0.15119742224E+03 -0.37798914836E+02 -0.30573755340E+03  0.34316888002E+03  0.10100000352E+00 0. -1.
       -3    1    3    3    0  502  0.15119742224E+03  0.37798914836E+02  0.56347577242E+03  0.58463182839E+03  0.10100000352E+00 0.  1.
</event>
<event>
 5   0  0.6092779E-03  0.9011529E+03  0.7818609E-02  0.9424141E-01
       -1   -1    0    0    0  501  0.00000000000E+00  0.00000000000E+00  0.13360931030E+03  0.13360931039E+03  0.50400001928E-02 0.  1.
        1   -1    0    0  501    0  0.00000000000E+00  0.00000000000E+00 -0.15194984638E+04  0.15194984638E+04  0.50400001928E-02 0. -1.
    10030    2    1    2    0    0  0.00000000000E+00  0.00000000000E+00 -0.13858891535E+04  0.16531077742E+04  0.90115291006E+03 0.  0.
        2    1    3    3  502    0 -0.32048324733E+03  0.19447235015E+01 -0.12739307620E+04  0.13136258524E+04  0.25500000920E-02 0. -1.
       -2    1    3    3    0  502  0.32048324733E+03 -0.19447235015E+01 -0.11195839148E+03  0.33948192175E+03  0.25500000920E-02 0.  1.
</event>
<event>
 5   0  0.1033749E-02  0.8972916E+03  0.7818609E-02  0.9428973E-01
        2   -1    0    0  501    0  0.00000000000E+00  0.00000000000E+00  0.12550340754E+04  0.12550340754E+04  0.25500000920E-02 0. -1.
       -2   -1    0    0    0  501  0.00000000000E+00  0.00000000000E+00 -0.16038053417E+03  0.16038053419E+03  0.25500000920E-02 0.  1.
    10030    2    1    2    0    0  0.00000000000E+00  0.00000000000E+00  0.10946535412E+04  0.14154146095E+04  0.89729155890E+03 0.  0.
        5    1    3    3  502    0  0.40242986150E+03 -0.13505054241E+03  0.77631236093E+03  0.88480021143E+03  0.46999998093E+01 0.  1.
       -5    1    3    3    0  502 -0.40242986150E+03  0.13505054241E+03  0.31834118026E+03  0.53061439811E+03  0.46999998093E+01 0. -1.
</event>
<event>
 5   0  0.6137243E-03  0.9010255E+03  0.7818609E-02  0.9424300E-01
        1   -1    0    0  501    0  0.00000000000E+00  0.00000000000E+00  0.11624082083E+04  0.11624082083E+04  0.50400001928E-02 0.  1.
       -1   -1    0    0    0  501  0.00000000000E+00  0.00000000000E+00 -0.17460451393E+03  0.17460451400E+03  0.50400001928E-02 0. -1.
    10030    2    1    2    0    0  0.00000000000E+00  0.00000000000E+00  0.98780369437E+03  0.13370127223E+04  0.90102546079E+03 0.  0.
        4    1    3    3  502    0 -0.19085063376E+03 -0.39398349942E+03  0.65173206491E+03  0.78511353291E+03  0.12699999809E+01 0.  1.
       -4    1    3    3    0  502  0.19085063376E+03  0.39398349942E+03  0.33607162946E+03  0.55189918939E+03  0.12699999809E+01 0. -1.
</event>
<event>
 5   0  0.6015709E-03  0.9001588E+03  0.7818609E-02  0.9425383E-01
       -1   -1    0    0    0  501  0.00000000000E+00  0.00000000000E+00  0.54959262883E+03  0.54959262885E+03  0.50400001928E-02 0. -1.
        1   -1    0    0  501    0  0.00000000000E+00  0.00000000000E+00 -0.36858474308E+03  0.36858474311E+03  0.50400001928E-02 0.  1.
    10030    2    1    2    0    0  0.00000000000E+00  0.00000000000E+00  0.18100788575E+03  0.91817737197E+03  0.90015878138E+03 0.  0.
        3    1    3    3  502    0  0.11193656542E+03  0.10763803620E+03 -0.34039227553E+03  0.37414255700E+03  0.10100000352E+00 0.  1.
       -3    1    3    3    0  502 -0.11193656542E+03 -0.10763803620E+03  0.52140016128E+03  0.54403481497E+03  0.10100000352E+00 0. -1.
</event>
<event>
 5   0  0.1003252E-02  0.9039735E+03  0.7818609E-02  0.9420628E-01
        2   -1    0    0  501    0  0.00000000000E+00  0.00000000000E+00  0.12128441906E+04  0.12128441906E+04  0.25500000920E-02 0. -1.
       -2   -1    0    0    0  501  0.00000000000E+00  0.00000000000E+00 -0.16844044108E+03  0.16844044110E+03  0.25500000920E-02 0.  1.
    10030    2    1    2    0    0  0.00000000000E+00  0.00000000000E+00  0.10444037495E+04  0.13812846317E+04  0.90397347405E+03 0.  0.
        2    1    3    3  502    0 -0.43886402987E+03 -0.65329594652E+02  0.39055814112E+03  0.59110511269E+03  0.25500000920E-02 0.  1.
       -2    1    3    3    0  502  0.43886402987E+03  0.65329594652E+02  0.65384560842E+03  0.79017951903E+03  0.25500000920E-02 0. -1.
</event>
<event>
 5   0  0.3996375E-03  0.8716022E+03  0.7818609E-02  0.9461793E-01
        4   -1    0    0  501    0  0.00000000000E+00  0.00000000000E+00  0.21021080554E+03  0.21021464189E+03  0.12699999809E+01 0.  1.
       -4   -1    0    0    0  501  0.00000000000E+00  0.00000000000E+00 -0.90347380739E+03  0.90347470000E+03  0.12699999809E+01 0. -1.
    10030    2    1    2    0    0  0.00000000000E+00  0.00000000000E+00 -0.69326300185E+03  0.11136893419E+04  0.87160218018E+03 0.  0.
        5    1    3    3  502    0 -0.23161481155E+03 -0.29835846705E+03 -0.68923553479E+02  0.38397362150E+03  0.46999998093E+01 0.  1.
       -5    1    3    3    0  502  0.23161481155E+03  0.29835846705E+03 -0.62433944837E+03  0.72971572039E+03  0.46999998093E+01 0. -1.
</event>
<event>
 5   0  0.1033749E-02  0.9120760E+03  0.7818609E-02  0.9410610E-01
        2   -1    0    0  501    0  0.00000000000E+00  0.00000000000E+00  0.89892988616E+03  0.89892988616E+03  0.25500000920E-02 0. -1.
       -2   -1    0    0    0  501  0.00000000000E+00  0.00000000000E+00 -0.23135359145E+03  0.23135359146E+03  0.25500000920E-02 0.  1.
    10030    2    1    2    0    0  0.00000000000E+00  0.00000000000E+00  0.66757629471E+03  0.11302834776E+04  0.91207600041E+03 0.  0.
        5    1    3    3  502    0  0.37976417829E+03 -0.15414020439E+02  0.64604322458E+03  0.74956811643E+03  0.46999998093E+01 0. -1.
       -5    1    3    3    0  502 -0.37976417829E+03  0.15414020439E+02  0.21533070130E+02  0.38071536119E+03  0.46999998093E+01 0.  1.
</event>
<event>
 5   0  0.6288003E-03  0.8744516E+03  0.7818609E-02  0.9458094E-01
       -1   -1    0    0    0  501  0.00000000000E+00  0.00000000000E+00  0.30765762815E+03  0.30765762819E+03  0.50400001928E-02 0. -1.
        1   -1    0    0  501    0  0.00000000000E+00  0.00000000000E+00 -0.62136077364E+03  0.62136077367E+03  0.50400001928E-02 0.  1.
    10030    2    1    2    0    0  0.00000000000E+00  0.00000000000E+00 -0.31370314550E+03  0.92901840185E+03  0.87445155811E+03 0.  0.
        1    1    3    3  502    0  0.38615361044E+03 -0.20298597228E+03 -0.12590548203E+03  0.45405958445E+03  0.50400001928E-02 0. -1.
       -1    1    3    3    0  502 -0.38615361044E+03  0.20298597228E+03 -0.18779766347E+03  0.47495881740E+03  0.50400001928E-02 0.  1.
</event>
<event>
 5   0  0.1028978E-02  0.9016029E+03  0.7818609E-02  0.9423580E-01
       -2   -1    0    0    0  501  0.00000000000E+00  0.00000000000E+00  0.41226657387E+03  0.41226657388E+03  0.25500000920E-02 0. -1.
        2   -1    0    0  501    0  0.00000000000E+00  0.00000000000E+00 -0.49293821763E+03  0.49293821763E+03  0.25500000920E-02 0.  1.
    10030    2    1    2    0    0  0.00000000000E+00  0.00000000000E+00 -0.80671643760E+02  0.90520479151E+03  0.90160290620E+03 0.  0.
        3    1    3    3  502    0 -0.23015577950E+03  0.23950634222E+03  0.26565537847E+03  0.42533253004E+03  0.10100000352E+00 0. -1.
       -3    1    3    3    0  502  0.23015577950E+03 -0.23950634222E+03 -0.34632702223E+03  0.47987226147E+03  0.10100000352E+00 0.  1.
</event>
<event>
 5   0  0.1033749E-02  0.8979424E+03  0.7818609E-02  0.9428157E-01
        2   -1    0    0  501    0  0.00000000000E+00  0.00000000000E+00  0.14851408515E+04  0.14851408515E+04  0.25500000920E-02 0.  1.
       -2   -1    0    0    0  501  0.00000000000E+00  0.00000000000E+00 -0.13572795986E+03  0.13572795989E+03  0.25500000920E-02 0. -1.
    10030    2    1    2    0    0  0.00000000000E+00  0.00000000000E+00  0.13494128916E+04  0.16208688114E+04  0.89794239882E+03 0.  0.
        5    1    3    3  502    0 -0.18772201453E+03 -0.21744210284E+03  0.51930215930E+02  0.29195797669E+03  0.46999998093E+01 0. -1.
       -5    1    3    3    0  502  0.18772201453E+03  0.21744210284E+03  0.12974826757E+04  0.13289108347E+04  0.46999998093E+01 0.  1.
</event>
<event>
 5   0  0.6288003E-03  0.9047576E+03  0.7818609E-02  0.9419654E-01
       -1   -1    0    0    0  501  0.00000000000E+00  0.00000000000E+00  0.19046191886E+03  0.19046191893E+03  0.50400001928E-02 0.  1.
        1   -1    0    0  501    0  0.00000000000E+00  0.00000000000E+00 -0.10744749655E+04  0.10744749655E+04  0.50400001928E-02 0. -1.
    10030    2    1    2    0    0  0.00000000000E+00  0.00000000000E+00 -0.88401304668E+03  0.12649368845E+04  0.90475756698E+03 0.  0.
        1    1    3    3  502    0 -0.15194591736E+03  0.19274090961E+03  0.89287807357E+02  0.26116839895E+03  0.50400001928E-02 0.  1.
       -1    1    3    3    0  502  0.15194591736E+03 -0.19274090961E+03 -0.97330085403E+03  0.10037684855E+04  0.50400001928E-02 0. -1.
</event>
<event>
 5   0  0.1003252E-02  0.8950530E+03  0.7818609E-02  0.9431787E-01
        2   -1    0    0  501    0  0.00000000000E+00  0.00000000000E+00  0.40020702742E+03  0.40020702743E+03  0.25500000920E-02 0.  1.
       -2   -1    0    0    0  501  0.00000000000E+00  0.00000000000E+00 -0.50044094464E+03  0.50044094465E+03  0.25500000920E-02 0. -1.
    10030    2    1    2    0    0  0.00000000000E+00  0.00000000000E+00 -0.10023391722E+03  0.90064797208E+03  0.89505303276E+03 0.  0.
        2    1    3    3  502    0 -0.36610002294E+03 -0.11045410947E+03  0.18382426144E+03  0.42428845872E+03  0.25500000920E-02 0.  1.
       -2    1    3    3    0  502  0.36610002294E+03  0.11045410947E+03 -0.28405817867E+03  0.47635951336E+03  0.25500000920E-02 0. -1.
</event>
<event>
 5   0  0.1033749E-02  0.8958464E+03  0.7818609E-02  0.9430789E-01
       -2   -1    0    0    0  501  0.00000000000E+00  0.00000000000E+00  0.72706991097E+03  0.72706991098E+03  0.25500000920E-02 0.  1.
        2   -1    0    0  501    0  0.00000000000E+00  0.00000000000E+00 -0.27595034143E+03  0.27595034145E+03  0.25500000920E-02 0. -1.
    10030    2    1    2    0    0  0.00000000000E+00  0.00000000000E+00  0.45111956954E+03  0.10030202524E+04  0.89584639350E+03 0.  0.
        5    1    3    3  502    0 -0.13185977844E+03 -0.14700224749E+03 -0.22455048111E+03  0.29906800314E+03  0.46999998093E+01 0. -1.
       -5    1    3    3    0  502  0.13185977844E+03  0.14700224749E+03  0.67567005065E+03  0.70395224929E+03  0.46999998093E+01 0.  1.
</event>
<event>
 5   0  0.6092779E-03  0.8979694E+03  0.7818609E-02  0.9428123E-01
        1   -1    0    0  501    0  0.00000000000E+00  0.00000000000E+00  0.12413124120E+04  0.12413124121E+04  0.50400001928E-02 0. -1.
       -1   -1    0    0    0  501  0.00000000000E+00  0.00000000000E+00 -0.16239849868E+03  0.16239849876E+03  0.50400001928E-02 0.  1.
    10030    2    1    2    0    0  0.00000000000E+00  0.00000000000E+00  0.10789139134E+04  0.14037109108E+04  0.89796942526E+03 0.  0.
        2    1    3    3  502    0  0.48212078339E+02  0.73968904974E+02 -0.14869358021E+03  0.17293231104E+03  0.25500000920E-02 0.  1.
       -2    1    3    3    0  502 -0.48212078339E+02 -0.73968904974E+02  0.12276074936E+04  0.12307785998E+04  0.25500000920E-02 0. -1.
</event>
<event>
 5   0  0.1033749E-02  0.8981881E+03  0.7818609E-02  0.9427849E-01
        2   -1    0    0  501    0  0.00000000000E+00  0.00000000000E+00  0.24004193485E+03  0.24004193486E+03  0.25500000920E-02 0.  1.
       -2   -1    0    0    0  501  0.00000000000E+00  0.00000000000E+00 -0.84020929653E+03  0.84020929653E+03  0.25500000920E-02 0. -1.
    10030    2    1    2    0    0  0.00000000000E+00  0.00000000000E+00 -0.60016736168E+03  0.10802512314E+04  0.89818809884E+03 0.  0.
        5    1    3    3  502    0 -0.32976940375E+03 -0.30481773831E+03 -0.29853318185E+03  0.53926418748E+03  0.46999998093E+01 0. -1.
       -5    1    3    3    0  502  0.32976940375E+03  0.30481773831E+03 -0.30163417983E+03  0.54098704391E+03  0.46999998093E+01 0.  1.
</event>
<event>
 5   0  0.6137243E-03  0.9191799E+03  0.7818609E-02  0.9401918E-01
        1   -1    0    0  501    0  0.00000000000E+00  0.00000000000E+00  0.33265255555E+03  0.33265255559E+03  0.50400001928E-02 0.  1.
       -1   -1    0    0    0  501  0.00000000000E+00  0.00000000000E+00 -0.63496554656E+03  0.63496554658E+03  0.50400001928E-02 0. -1.
    10030    2    1    2    0    0  0.00000000000E+00  0.00000000000E+00 -0.30231299101E+03  0.96761810217E+03  0.91917987746E+03 0.  0.
        4    1    3    3  502    0 -0.60232764686E+02  0.13792087045E+03 -0.60828794108E+03  0.62663066044E+03  0.12699999809E+01 0. -1.
       -4    1    3    3    0  502  0.60232764686E+02 -0.13792087045E+03  0.30597495007E+03  0.34098744173E+03  0.12699999809E+01 0.  1.
</event>
<event>
 5   0  0.6211218E-03  0.9007863E+03  0.7818609E-02  0.9424599E-01
        1   -1    0    0  501    0  0.00000000000E+00  0.00000000000E+00  0.35103546179E+03  0.35103546183E+03  0.50400001928E-02 0. -1.
       -1   -1    0    0    0  501  0.00000000000E+00  0.00000000000E+00 -0.57787327347E+03  0.57787327349E+03  0.50400001928E-02 0.  1.
    10030    2    1    2    0    0  0.00000000000E+00  0.00000000000E+00 -0.22683781168E+03  0.92890873532E+03  0.90078634856E+03 0.  0.
        5    1    3    3  502    0  0.32033553141E+03 -0.26390819060E+03  0.66881071576E+02  0.42042544343E+03  0.46999998093E+01 0. -1.
       -5    1    3    3    0  502 -0.32033553141E+03  0.26390819060E+03 -0.29371888325E+03  0.50848329189E+03  0.46999998093E+01 0.  1.
</event>
<event>
 5   0  0.6211218E-03  0.9039095E+03  0.7818609E-02  0.9420708E-01
       -1   -1    0    0    0  501  0.00000000000E+00  0.00000000000E+00  0.56154664565E+03  0.56154664567E+03  0.50400001928E-02 0.  1.
        1   -1    0    0  501    0  0.00000000000E+00  0.00000000000E+00 -0.36375089826E+03  0.36375089829E+03  0.50400001928E-02 0. -1.
    10030    2    1    2    0    0  0.00000000000E+00  0.00000000000E+00  0.19779574739E+03  0.92529754397E+03  0.90390950165E+03 0.  0.
        5    1    3    3  502    0  0.13226575190E+03 -0.42643092985E+03  0.17057933974E+03  0.47797172322E+03  0.46999998093E+01 0.  1.
       -5    1    3    3    0  502 -0.13226575190E+03  0.42643092985E+03  0.27216407655E+02  0.44732582074E+03  0.46999998093E+01 0. -1.
</event>
<event>
 5   0  0.3996375E-03  0.9074929E+03  0.7818609E-02  0.9416263E-01
       -3   -1    0    0    0  501  0.00000000000E+00  0.00000000000E+00  0.95394193147E+03  0.95394193682E+03  0.10100000352E+00 0. -1.
        3   -1    0    0  501    0  0.00000000000E+00  0.00000000000E+00 -0.21582635162E+03  0.21582637525E+03  0.10100000352E+00 0.  1.
    10030    2    1    2    0    0  0.00000000000E+00  0.00000000000E+00  0.73811557985E+03  0.11697683121E+04  0.90749286206E+03 0.  0.
        2    1    3    3  502    0 -0.32819588774E+03  0.14733055928E+03  0.12611884491E+02  0.35996929600E+03  0.25500000920E-02 0.  1.
       -2    1    3    3    0  502  0.32819588774E+03 -0.14733055928E+03  0.72550369536E+03  0.80979901606E+03  0.25500000920E-02 0. -1.
</event>
<event>
 5   0  0.1028978E-02  0.9002191E+03  0.7818609E-02  0.9425308E-01
       -2   -1    0    0    0  501  0.00000000000E+00  0.00000000000E+00  0.36046067075E+03  0.36046067076E+03  0.25500000920E-02 0.  1.
        2   -1    0    0  501    0  0.00000000000E+00  0.00000000000E+00 -0.56205467568E+03  0.56205467569E+03  0.25500000920E-02 0. -1.
    10030    2    1    2    0    0  0.00000000000E+00  0.00000000000E+00 -0.20159400493E+03  0.92251534645E+03  0.90021909645E+03 0.  0.
        3    1    3    3  502    0 -0.36730358062E+03 -0.81834571957E+02  0.15228071178E+03  0.40595349843E+03  0.10100000352E+00 0.  1.
       -3    1    3    3    0  502  0.36730358062E+03  0.81834571957E+02 -0.35387471671E+03  0.51656184802E+03  0.10100000352E+00 0. -1.
</event>
<event>
 5   0  0.6211218E-03  0.8323838E+03  0.7818609E-02  0.9514291E-01
        1   -1    0    0  501    0  0.00000000000E+00  0.00000000000E+00  0.88830997809E+03  0.88830997811E+03  0.50400001928E-02 0. -1.
       -1   -1    0    0    0  501  0.00000000000E+00  0.00000000000E+00 -0.19499466459E+03  0.19499466466E+03  0.50400001928E-02 0.  1.
    10030    2    1    2    0    0  0.00000000000E+00  0.00000000000E+00  0.69331531350E+03  0.10833046428E+04  0.83238382079E+03 0.  0.
        5    1    3    3  502    0  0.29736017400E+03  0.23596458439E+03  0.56863478373E+03  0.68371775276E+03  0.46999998093E+01 0. -1.
       -5    1    3    3    0  502 -0.29736017400E+03 -0.23596458439E+03  0.12468052977E+03  0.39958689001E+03  0.46999998093E+01 0.  1.
</event>
<event>
 5   0  0.6211218E-03  0.9179125E+03  0.7818609E-02  0.9403463E-01
        1   -1    0    0  501    0  0.00000000000E+00  0.00000000000E+00  0.50498889510E+03  0.50498889513E+03  0.50400001928E-02 0.  1.
       -1   -1    0    0    0  501  0.00000000000E+00  0.00000000000E+00 -0.41711970658E+03  0.41711970662E+03  0.50400001928E-02 0. -1.
    10030    2    1    2    0    0  0.00000000000E+00  0.00000000000E+00  0.87869188518E+02  0.92210860174E+03  0.91791245722E+03 0.  0.
        5    1    3    3  502    0  0.38013859061E+03  0.66502605180E+02 -0.20557713063E+03  0.43727793359E+03  0.46999998093E+01 0. -1.
       -5    1    3    3    0  502 -0.38013859061E+03 -0.66502605180E+02  0.29344631915E+03  0.48483066816E+03  0.46999998093E+01 0.  1.
</event>
<event>
 5   0  0.1028978E-02  0.9017163E+03  0.7818609E-02  0.9423439E-01
        2   -1    0    0  501    0  0.00000000000E+00  0.00000000000E+00  0.78065872070E+03  0.78065872071E+03  0.25500000920E-02 0. -1.
       -2   -1    0    0    0  501  0.00000000000E+00  0.00000000000E+00 -0.26038658794E+03  0.26038658795E+03  0.25500000920E-02 0.  1.
    10030    2    1    2    0    0  0.00000000000E+00  0.00000000000E+00  0.52027213277E+03  0.10410453087E+04  0.90171627608E+03 0.  0.
        3    1    3    3  502    0  0.35795332583E+03 -0.11937335441E+03 -0.24756760927E+02  0.37814479849E+03  0.10100000352E+00 0.  1.
       -3    1    3    3    0  502 -0.35795332583E+03  0.11937335441E+03  0.54502889369E+03  0.66290051016E+03  0.10100000352E+00 0. -1.
</event>
<event>
 5   0  0.1017079E-02  0.8940284E+03  0.7818609E-02  0.9433077E-01
       -2   -1    0    0    0  501  0.00000000000E+00  0.00000000000E+00  0.36263003344E+03  0.36263003345E+03  0.25500000920E-02 0.  1.
        2   -1    0    0  501    0  0.00000000000E+00  0.00000000000E+00 -0.55103462691E+03  0.55103462691E+03  0.25500000920E-02 0. -1.
    10030    2    1    2    0    0  0.00000000000E+00  0.00000000000E+00 -0.18840459347E+03  0.91366466036E+03  0.89402842279E+03 0.  0.
        1    1    3    3  502    0  0.38501787797E+03 -0.21081672795E+02 -0.32530738190E+03  0.50448795429E+03  0.50400001928E-02 0. -1.
       -1    1    3    3    0  502 -0.38501787797E+03  0.21081672795E+02  0.13690278843E+03  0.40917670607E+03  0.50400001928E-02 0.  1.
</event>
<event>
 5   0  0.1041727E-02  0.9044912E+03  0.7818609E-02  0.9419985E-01
        2   -1    0    0  501    0  0.00000000000E+00  0.00000000000E+00  0.15837996737E+04  0.15837996737E+04  0.25500000920E-02 0. -1.
       -2   -1    0    0    0  501  0.00000000000E+00  0.00000000000E+00 -0.12913632652E+03  0.12913632655E+03  0.25500000920E-02 0.  1.
    10030    2    1    2    0    0  0.00000000000E+00  0.00000000000E+00  0.14546633472E+04  0.17129360003E+04  0.90449117593E+03 0.  0.
        4    1    3    3  502    0 -0.18681377990E+03  0.38446204880E+03  0.10070394192E+04  0.10940020384E+04  0.12699999809E+01 0. -1.
       -4    1    3    3    0  502  0.18681377990E+03 -0.38446204880E+03  0.44762392800E+03  0.61893396186E+03  0.12699999809E+01 0.  1.
</event>
<event>
 5   0  0.6092779E-03  0.8925723E+03  0.7818609E-02  0.9434914E-01
       -1   -1    0    0    0  501  0.00000000000E+00  0.00000000000E+00  0.37113147817E+03  0.37113147820E+03  0.50400001928E-02 0.  1.
        1   -1    0    0  501    0  0.00000000000E+00  0.00000000000E+00 -0.53665976358E+03  0.53665976360E+03  0.50400001928E-02 0. -1.
    10030    2    1    2    0    0  0.00000000000E+00  0.00000000000E+00 -0.16552828541E+03  0.90779124180E+03  0.89257230823E+03 0.  0.
        2    1    3    3  502    0  0.44349854809E+03 -0.15274663423E+02 -0.13097549568E+03  0.46268656559E+03  0.25500000920E-02 0. -1.
       -2    1    3    3    0  502 -0.44349854809E+03  0.15274663423E+02 -0.34552789722E+02  0.44510467621E+03  0.25500000920E-02 0.  1.
</event>
<event>
 5   0  0.1033749E-02  0.9013317E+03  0.7818609E-02  0.9423918E-01
        2   -1    0    0  501    0  0.00000000000E+00  0.00000000000E+00  0.59761510653E+03  0.59761510654E+03  0.25500000920E-02 0. -1.
       -2   -1    0    0    0  501  0.00000000000E+00  0.00000000000E+00 -0.33985035864E+03  0.33985035865E+03  0.25500000920E-02 0.  1.
    10030    2    1    2    0    0  0.00000000000E+00  0.00000000000E+00  0.25776474789E+03  0.93746546519E+03  0.90133169986E+03 0.  0.
        5    1    3    3  502    0 -0.24844209026E+03  0.17730524282E+03  0.47371079989E+03  0.56354647836E+03  0.46999998093E+01 0. -1.
       -5    1    3    3    0  502  0.24844209026E+03 -0.17730524282E+03 -0.21594605199E+03  0.37391898683E+03  0.46999998093E+01 0.  1.
</event>
<event>
 5   0  0.6137243E-03  0.9149223E+03  0.7818609E-02  0.9407118E-01
        1   -1    0    0  501    0  0.00000000000E+00  0.00000000000E+00  0.54744593610E+03  0.54744593613E+03  0.50400001928E-02 0.  1.
       -1   -1    0    0    0  501  0.00000000000E+00  0.00000000000E+00 -0.38226733830E+03  0.38226733834E+03  0.50400001928E-02 0. -1.
    10030    2    1    2    0    0  0.00000000000E+00  0.00000000000E+00  0.16517859780E+03  0.92971327446E+03  0.91492229372E+03 0.  0.
        4    1    3    3  502    0  0.29074216622E+02  0.81813204652E+02  0.53899438171E+03  0.54594438082E+03  0.12699999809E+01 0.  1.
       -4    1    3    3    0  502 -0.29074216622E+02 -0.81813204652E+02 -0.37381578391E+03  0.38376889365E+03  0.12699999809E+01 0. -1.
</event>
<event>
 5   0  0.1017079E-02  0.8936477E+03  0.7818609E-02  0.9433557E-01
       -2   -1    0    0    0  501  0.00000000000E+00  0.00000000000E+00  0.14620252896E+03  0.14620252898E+03  0.25500000920E-02 0. -1.
        2   -1    0    0  501    0  0.00000000000E+00  0.00000000000E+00 -0.13655819868E+04  0.13655819868E+04  0.25500000920E-02 0.  1.
    10030    2    1    2    0    0  0.00000000000E+00  0.00000000000E+00 -0.12193794578E+04  0.15117845158E+04  0.89364767105E+03 0.  0.
        1    1    3    3  502    0 -0.17571034315E+03  0.24526194479E+03 -0.11672431027E+04  0.12056052451E+04  0.50400001928E-02 0.  1.
       -1    1    3    3    0  502  0.17571034315E+03 -0.24526194479E+03 -0.52136355179E+02  0.30617927070E+03  0.50400001928E-02 0. -1.
</event>
<event>
 5   0  0.1033749E-02  0.9107348E+03  0.7818609E-02  0.9412261E-01
       -2   -1    0    0    0  501  0.00000000000E+00  0.00000000000E+00  0.62316177625E+03  0.62316177625E+03  0.25500000920E-02 0. -1.
        2   -1    0    0  501    0  0.00000000000E+00  0.00000000000E+00 -0.33275385715E+03  0.33275385716E+03  0.25500000920E-02 0.  1.
    10030    2    1    2    0    0  0.00000000000E+00  0.00000000000E+00  0.29040791910E+03  0.95591563341E+03  0.91073483447E+03 0.  0.
        5    1    3    3  502    0 -0.42032005189E+03  0.94201947164E+02 -0.97492197635E+01  0.43088291931E+03  0.46999998093E+01 0.  1.
       -5    1    3    3    0  502  0.42032005189E+03 -0.94201947164E+02  0.30015713886E+03  0.52503271410E+03  0.46999998093E+01 0. -1.
</event>
<event>
 5   0  0.1003252E-02  0.9028508E+03  0.7818609E-02  0.9422025E-01
        2   -1    0    0  501    0  0.00000000000E+00  0.00000000000E+00  0.16658882469E+03  0.16658882471E+03  0.25500000920E-02 0.  1.
       -2   -1    0    0    0  501  0.00000000000E+00  0.00000000000E+00 -0.12232807374E+04  0.12232807374E+04  0.25500000920E-02 0. -1.
    10030    2    1    2    0    0  0.00000000000E+00  0.00000000000E+00 -0.10566919127E+04  0.13898695621E+04  0.90285081894E+03 0.  0.
        2    1    3    3  502    0 -0.83807740677E+02  0.11422132815E+03 -0.11881727453E+04  0.11965887856E+04  0.25500000920E-02 0. -1.
       -2    1    3    3    0  502  0.83807740677E+02 -0.11422132815E+03  0.13148083261E+03  0.19328077647E+03  0.25500000920E-02 0.  1.
</event>
<event>
 5   0  0.6288003E-03  0.8998910E+03  0.7818609E-02  0.9425718E-01
       -1   -1    0    0    0  501  0.00000000000E+00  0.00000000000E+00  0.90850944401E+03  0.90850944403E+03  0.50400001928E-02 0.  1.
        1   -1    0    0  501    0  0.00000000000E+00  0.00000000000E+00 -0.22283857927E+03  0.22283857933E+03  0.50400001928E-02 0. -1.
    10030    2    1    2    0    0  0.00000000000E+00  0.00000000000E+00  0.68567086474E+03  0.11313480234E+04  0.89989100184E+03 0.  0.
        1    1    3    3  502    0  0.12597750960E+02 -0.11052019526E+03  0.89095046210E+03  0.89786755306E+03  0.50400001928E-02 0.  1.
       -1    1    3    3    0  502 -0.12597750960E+02  0.11052019526E+03 -0.20527959736E+03  0.23348047029E+03  0.50400001928E-02 0. -1.
</event>
<event>
 5   0  0.6137243E-03  0.8945709E+03  0.7818609E-02  0.9432394E-01
        1   -1    0    0  501    0  0.00000000000E+00  0.00000000000E+00  0.35726282192E+03  0.35726282196E+03  0.50400001928E-02 0. -1.
       -1   -1    0    0    0  501  0.00000000000E+00  0.00000000000E+00 -0.55999191430E+03  0.55999191432E+03  0.50400001928E-02 0.  1.
    10030    2    1    2    0    0  0.00000000000E+00  0.00000000000E+00 -0.20272909238E+03  0.91725473628E+03  0.89457093980E+03 0.  0.
        4    1    3    3  502    0  0.18141512543E+03  0.13449782738E+03  0.29451039858E+03  0.37113218815E+03  0.12699999809E+01 0. -1.
       -4    1    3    3    0  502 -0.18141512543E+03 -0.13449782738E+03 -0.49723949096E+03  0.54612254813E+03  0.12699999809E+01 0.  1.
</event>
<event>
 5   0  0.1003252E-02  0.9046086E+03  0.7818609E-02  0.9419839E-01
        2   -1    0    0  501    0  0.00000000000E+00  0.00000000000E+00  0.73059383965E+03  0.73059383966E+03  0.25500000920E-02 0.  1.
       -2   -1    0    0    0  501  0.00000000000E+00  0.00000000000E+00 -0.28001763295E+03  0.28001763296E+03  0.25500000920E-02 0. -1.
    10030    2    1    2    0    0  0.00000000000E+00  0.00000000000E+00  0.45057620671E+03  0.10106114726E+04  0.90460855099E+03 0.  0.
        2    1    3    3  502    0 -0.37198528423E+03 -0.15301218960E+03  0.45639441641E+03  0.60834336126E+03  0.25500000920E-02 0.  1.
       -2    1    3    3    0  502  0.37198528423E+03  0.15301218960E+03 -0.58182097051E+01  0.40226811136E+03  0.25500000920E-02 0. -1.
</event>
<event>
 5   0  0.1033749E-02  0.8961774E+03  0.7818609E-02  0.9430373E-01
        2   -1    0    0  501    0  0.00000000000E+00  0.00000000000E+00  0.55851239012E+03  0.55851239013E+03  0.25500000920E-02 0. -1.
       -2   -1    0    0    0  501  0.00000000000E+00  0.00000000000E+00 -0.35949692174E+03  0.35949692175E+03  0.25500000920E-02 0.  1.
    10030    2    1    2    0    0  0.00000000000E+00  0.00000000000E+00  0.19901546839E+03  0.91800931188E+03  0.89617740433E+03 0.  0.
        5    1    3    3  502    0  0.50989750929E+02  0.28791133507E+03 -0.24827532567E+03  0.38360867938E+03  0.46999998093E+01 0.  1.
       -5    1    3    3    0  502 -0.50989750929E+02 -0.28791133507E+03  0.44729079406E+03  0.53440063249E+03  0.46999998093E+01 0. -1.
</event>
<event>
 5   0  0.6137243E-03  0.9004416E+03  0.7818609E-02  0.9425030E-01
        1   -1    0    0  501    0  0.00000000000E+00  0.00000000000E+00  0.16098372816E+04  0.16098372816E+04  0.50400001928E-02 0.  1.
       -1   -1    0    0    0  501  0.00000000000E+00  0.00000000000E+00 -0.12591258888E+03  0.12591258898E+03  0.50400001928E-02 0. -1.
    10030    2    1    2    0    0  0.00000000000E+00  0.00000000000E+00  0.14839246927E+04  0.17357498706E+04  0.90044162473E+03 0.  0.
        4    1    3    3  502    0  0.21794798445E+03  0.39134653204E+03  0.65481706803E+03  0.79337282381E+03  0.12699999809E+01 0. -1.
       -4    1    3    3    0  502 -0.21794798445E+03 -0.39134653204E+03  0.82910762467E+03  0.94237704676E+03  0.12699999809E+01 0.  1.
</event>
<event>
 5   0  0.6092779E-03  0.8524831E+03  0.7818609E-02  0.9487010E-01
       -1   -1    0    0    0  501  0.00000000000E+00  0.00000000000E+00  0.81279580003E+02  0.81279580159E+02  0.50400001928E-02 0. -1.
        1   -1    0    0  501    0  0.00000000000E+00  0.00000000000E+00 -0.22352706509E+04  0.22352706509E+04  0.50400001928E-02 0.  1.
    10030    2    1    2    0    0  0.00000000000E+00  0.00000000000E+00 -0.21539910709E+04  0.23165502311E+04  0.85248310221E+03 0.  0.
        2    1    3    3  502    0 -0.26128523939E+03  0.32682799085E+03 -0.12976815435E+04  0.13634749357E+04  0.25500000920E-02 0.  1.
       -2    1    3    3    0  502  0.26128523939E+03 -0.32682799085E+03 -0.85630952743E+03  0.95307529540E+03  0.25500000920E-02 0. -1.
</event>
<event>
 5   0  0.1041727E-02  0.8946220E+03  0.7818609E-02  0.9432329E-01
       -2   -1    0    0    0  501  0.00000000000E+00  0.00000000000E+00  0.64383422684E+03  0.64383422684E+03  0.25500000920E-02 0.  1.
        2   -1    0    0  501    0  0.00000000000E+00  0.00000000000E+00 -0.31077430218E+03  0.31077430219E+03  0.25500000920E-02 0. -1.
    10030    2    1    2    0    0  0.00000000000E+00  0.00000000000E+00  0.33305992465E+03  0.95460852903E+03  0.89462200414E+03 0.  0.
        4    1    3    3  502    0 -0.14854964434E+03 -0.37504781712E+03 -0.39711297870E+02  0.40534733506E+03  0.12699999809E+01 0. -1.
       -4    1    3    3    0  502  0.14854964434E+03  0.37504781712E+03  0.37277122252E+03  0.54926119397E+03  0.12699999809E+01 0.  1.
</event>
<event>
 5   0  0.6211218E-03  0.8917685E+03  0.7818609E-02  0.9435930E-01
        1   -1    0    0  501    0  0.00000000000E+00  0.00000000000E+00  0.15852216295E+04  0.15852216295E+04  0.50400001928E-02 0. -1.
       -1   -1    0    0    0  501  0.00000000000E+00  0.00000000000E+00 -0.12541639360E+03  0.12541639370E+03  0.50400001928E-02 0.  1.
    10030    2    1    2    0    0  0.00000000000E+00  0.00000000000E+00  0.14598052359E+04  0.17106380232E+04  0.89176853480E+03 0.  0.
        5    1    3    3  502    0  0.41615725082E+03 -0.11147485238E+03  0.50970258628E+03  0.66740715952E+03  0.46999998093E+01 0.  1.
       -5    1    3    3    0  502 -0.41615725082E+03  0.11147485238E+03  0.95010264964E+03  0.10432308637E+04  0.46999998093E+01 0. -1.
</event>
<event>
 5   0  0.1041727E-02  0.9014759E+03  0.7818609E-02  0.9423738E-01
        2   -1    0    0  501    0  0.00000000000E+00  0.00000000000E+00  0.11170956675E+04  0.11170956675E+04  0.25500000920E-02 0. -1.
       -2   -1    0    0    0  501  0.00000000000E+00  0.00000000000E+00 -0.18186867661E+03  0.18186867662E+03  0.25500000920E-02 0.  1.
    10030    2    1    2    0    0  0.00000000000E+00  0.00000000000E+00  0.93522699087E+03  0.12989643441E+04  0.90147592469E+03 0.  0.
        4    1    3    3  502    0  0.42414914096E+03 -0.43860370315E+02  0.25713464034E+03  0.49794182594E+03  0.12699999809E+01 0.  1.
       -4    1    3    3    0  502 -0.42414914096E+03  0.43860370315E+02  0.67809235054E+03  0.80102251817E+03  0.12699999809E+01 0. -1.
</event>
<event>
 5   0  0.1041727E-02  0.9096255E+03  0.7818609E-02  0.9413628E-01
       -2   -1    0    0    0  501  0.00000000000E+00  0.00000000000E+00  0.40764829842E+03  0.40764829843E+03  0.25500000920E-02 0. -1.
        2   -1    0    0  501    0  0.00000000000E+00  0.00000000000E+00 -0.50743409629E+03  0.50743409629E+03  0.25500000920E-02 0.  1.
    10030    2    1    2    0    0  0.00000000000E+00  0.00000000000E+00 -0.99785797863E+02  0.91508239473E+03  0.90962551838E+03 0.  0.
        4    1    3    3  502    0 -0.96194935415E+02 -0.28488684657E+03 -0.39317162926E+03  0.49497426590E+03  0.12699999809E+01 0.  1.
       -4    1    3    3    0  502  0.96194935415E+02  0.28488684657E+03  0.29338583140E+03  0.42010812883E+03  0.12699999809E+01 0. -1.
</event>
<event>
 5   0  0.1028978E-02  0.9171278E+03  0.7818609E-02  0.9404420E-01
       -2   -1    0    0    0  501  0.00000000000E+00  0.00000000000E+00  0.30904175058E+03  0.30904175059E+03  0.25500000920E-02 0. -1.
        2   -1    0    0  501    0  0.00000000000E+00  0.00000000000E+00 -0.68042865943E+03  0.68042865944E+03  0.25500000920E-02 0.  1.
    10030    2    1    2    0    0  0.00000000000E+00  0.00000000000E+00 -0.37138690885E+03  0.98947041002E+03  0.91712782983E+03 0.  0.
        3    1    3    3  502    0 -0.27664515708E+03 -0.33896596241E+03 -0.33382006226E+03  0.55033290904E+03  0.10100000352E+00 0.  1.
       -3    1    3    3    0  502  0.27664515708E+03  0.33896596241E+03 -0.37566846598E+02  0.43913750098E+03  0.10100000352E+00 0. -1.
</event>
<event>
 5   0  0.6092779E-03  0.9026704E+03  0.7818609E-02  0.9422249E-01
        1   -1    0    0  501    0  0.00000000000E+00  0.00000000000E+00  0.42563066494E+03  0.42563066497E+03  0.50400001928E-02 0. -1.
       -1   -1    0    0    0  501  0.00000000000E+00  0.00000000000E+00 -0.47859207184E+03  0.47859207186E+03  0.50400001928E-02 0.  1.
    10030    2    1    2    0    0  0.00000000000E+00  0.00000000000E+00 -0.52961406892E+02  0.90422273684E+03  0.90267039787E+03 0.  0.
        2    1    3    3  502    0  0.26461745582E+03 -0.20852850091E+03  0.27436381051E+03  0.43449054551E+03  0.25500000920E-02 0. -1.
       -2    1    3    3    0  502 -0.26461745582E+03  0.20852850091E+03 -0.32732521740E+03  0.46973219133E+03  0.25500000920E-02 0.  1.
</event>
<event>
 5   0  0.6137243E-03  0.8951458E+03  0.7818609E-02  0.9431670E-01
       -1   -1    0    0    0  501  0.00000000000E+00  0.00000000000E+00  0.21305225372E+03  0.21305225378E+03  0.50400001928E-02 0.  1.
        1   -1    0    0  501    0  0.00000000000E+00  0.00000000000E+00 -0.94024588829E+03  0.94024588830E+03  0.50400001928E-02 0. -1.
    10030    2    1    2    0    0  0.00000000000E+00  0.00000000000E+00 -0.72719363457E+03  0.11532981421E+04  0.89514581068E+03 0.  0.
        4    1    3    3  502    0  0.21118048228E+03  0.18819358862E+03 -0.81047712518E+03  0.85842227734E+03  0.12699999809E+01 0. -1.
       -4    1    3    3    0  502 -0.21118048228E+03 -0.18819358862E+03  0.83283490618E+02  0.29487586474E+03  0.12699999809E+01 0.  1.
</event>
<event>
 5   0  0.6211218E-03  0.8875893E+03  0.7818609E-02  0.9441230E-01
        1   -1    0    0  501    0  0.00000000000E+00  0.00000000000E+00  0.19404004128E+04  0.19404004128E+04  0.50400001928E-02 0.  1.
       -1   -1    0    0    0  501  0.00000000000E+00  0.00000000000E+00 -0.10150157895E+03  0.10150157907E+03  0.50400001928E-02 0. -1.
    10030    2    1    2    0    0  0.00000000000E+00  0.00000000000E+00  0.18388988339E+04  0.20419019919E+04  0.88758933257E+03 0.  0.
        5    1    3    3  502    0  0.93693005123E+02  0.30000751682E+02  0.19149406346E+04  0.19174718116E+04  0.46999998093E+01 0.  1.
       -5    1    3    3    0  502 -0.93693005123E+02 -0.30000751682E+02 -0.76041800720E+02  0.12443018028E+03  0.46999998093E+01 0. -1.
</event>
<event>
 5   0  0.1017079E-02  0.9064826E+03  0.7818609E-02  0.9417514E-01
        2   -1    0    0  501    0  0.00000000000E+00  0.00000000000E+00  0.11031146471E+04  0.11031146471E+04  0.25500000920E-02 0.  1.
       -2   -1    0    0    0  501  0.00000000000E+00  0.00000000000E+00 -0.18622515075E+03  0.18622515076E+03  0.25500000920E-02 0. -1.
    10030    2    1    2    0    0  0.00000000000E+00  0.00000000000E+00  0.91688949630E+03  0.12893397978E+04  0.90648263403E+03 0.  0.
        1    1    3    3  502    0 -0.79986477910E+02  0.20228525354E+02  0.10923438139E+04  0.10954551737E+04  0.50400001928E-02 0.  1.
       -1    1    3    3    0  502  0.79986477910E+02 -0.20228525354E+02 -0.17545431757E+03  0.19388462411E+03  0.50400001928E-02 0. -1.
</event>
<event>
 5   0  0.1033749E-02  0.9018231E+03  0.7818609E-02  0.9423305E-01
        2   -1    0    0  501    0  0.00000000000E+00  0.00000000000E+00  0.17326173216E+04  0.17326173216E+04  0.25500000920E-02 0. -1.
       -2   -1    0    0    0  501  0.00000000000E+00  0.00000000000E+00 -0.11734917559E+03  0.11734917561E+03  0.25500000920E-02 0.  1.
    10030    2    1    2    0    0  0.00000000000E+00  0.00000000000E+00  0.16152681460E+04  0.18499664972E+04  0.90182307428E+03 0.  0.
        5    1    3    3  502    0  0.40744763939E+03  0.33679057720E+02  0.41759844561E+03  0.58442998686E+03  0.46999998093E+01 0. -1.
       -5    1    3    3    0  502 -0.40744763939E+03 -0.33679057720E+02  0.11976697004E+04  0.12655365104E+04  0.46999998093E+01 0.  1.
</event>
<event>
 5   0  0.1041727E-02  0.8964839E+03  0.7818609E-02  0.9429987E-01
       -2   -1    0    0    0  501  0.00000000000E+00  0.00000000000E+00  0.16421985500E+03  0.16421985502E+03  0.25500000920E-02 0.  1.
        2   -1    0    0  501    0  0.00000000000E+00  0.00000000000E+00 -0.12234868458E+04  0.12234868458E+04  0.25500000920E-02 0. -1.
    10030    2    1    2    0    0  0.00000000000E+00  0.00000000000E+00 -0.10592669908E+04  0.13877067008E+04  0.89648387028E+03 0.  0.
        4    1    3    3  502    0 -0.29886522528E+03 -0.31559669217E+03 -0.69918475812E+03  0.82327555161E+03  0.12699999809E+01 0. -1.
       -4    1    3    3    0  502  0.29886522528E+03  0.31559669217E+03 -0.36008223267E+03  0.56443114920E+03  0.12699999809E+01 0.  1.
</event>
<event>
 5   0  0.6211218E-03  0.8979471E+03  0.7818609E-02  0.9428151E-01
       -1   -1    0    0    0  501  0.00000000000E+00  0.00000000000E+00  0.12239128326E+03  0.12239128337E+03  0.50400001928E-02 0. -1.
        1   -1    0    0  501    0  0.00000000000E+00  0.00000000000E+00 -0.16469903588E+04  0.16469903588E+04  0.50400001928E-02 0.  1.
    10030    2    1    2    0    0  0.00000000000E+00  0.00000000000E+00 -0.15245990755E+04  0.17693816421E+04  0.89794713348E+03 0.  0.
        5    1    3    3  502    0  0.17793316038E+03 -0.12700029537E+03  0.10382382490E+02  0.21890447334E+03  0.46999998093E+01 0.  1.
       -5    1    3    3    0  502 -0.17793316038E+03  0.12700029537E+03 -0.15349814580E+04  0.15504771688E+04  0.46999998093E+01 0. -1.
</event>
<event>
 5   0  0.6288003E-03  0.9002525E+03  0.7818609E-02  0.9425266E-01
       -1   -1    0    0    0  501  0.00000000000E+00  0.00000000000E+00  0.12640026996E+03  0.12640027006E+03  0.50400001928E-02 0.  1.
        1   -1    0    0  501    0  0.00000000000E+00  0.00000000000E+00 -0.16029525517E+04  0.16029525517E+04  0.50400001928E-02 0. -1.
    10030    2    1    2    0    0  0.00000000000E+00  0.00000000000E+00 -0.14765522817E+04  0.17293528217E+04  0.90025248758E+03 0.  0.
        1    1    3    3  502    0  0.32595458294E+02  0.11419605269E+03 -0.15723163187E+04  0.15767947896E+04  0.50400001928E-02 0. -1.
       -1    1    3    3    0  502 -0.32595458294E+02 -0.11419605269E+03  0.95764037027E+02  0.15255803212E+03  0.50400001928E-02 0.  1.
</event>
<event>
 5   0  0.6092779E-03  0.9090343E+03  0.7818609E-02  0.9414358E-01
        1   -1    0    0  501    0  0.00000000000E+00  0.00000000000E+00  0.67327218348E+03  0.67327218350E+03  0.50400001928E-02 0. -1.
       -1   -1    0    0    0  501  0.00000000000E+00  0.00000000000E+00 -0.30683853079E+03  0.30683853083E+03  0.50400001928E-02 0.  1.
    10030    2    1    2    0    0  0.00000000000E+00  0.00000000000E+00  0.36643365270E+03  0.98011071433E+03  0.90903431757E+03 0.  0.
        2    1    3    3  502    0 -0.81617255778E+01  0.35616377162E+03 -0.12110493147E+03  0.37627868716E+03  0.25500000920E-02 0.  1.
       -2    1    3    3    0  502  0.81617255778E+01 -0.35616377162E+03  0.48753858417E+03  0.60383202717E+03  0.25500000920E-02 0. -1.
</event>
<event>
 5   0  0.6092779E-03  0.9101851E+03  0.7818609E-02  0.9412938E-01
       -1   -1    0    0    0  501  0.00000000000E+00  0.00000000000E+00  0.71526095393E+03  0.71526095395E+03  0.50400001928E-02 0. -1.
        1   -1    0    0  501    0  0.00000000000E+00  0.00000000000E+00 -0.28955755210E+03  0.28955755214E+03  0.50400001928E-02 0.  1.
    10030    2    1    2    0    0  0.00000000000E+00  0.00000000000E+00  0.42570340183E+03  0.10048185061E+04  0.91018506022E+03 0.  0.
        2    1    3    3  502    0 -0.11156640308E+03  0.34654402470E+03  0.51431761206E+03  0.63012889906E+03  0.25500000920E-02 0. -1.
       -2    1    3    3    0  502  0.11156640308E+03 -0.34654402470E+03 -0.88614210235E+02  0.37468960703E+03  0.25500000920E-02 0.  1.
</event>
<event>
 5   0  0.6211218E-03  0.9012218E+03  0.7818609E-02  0.9424055E-01
        1   -1    0    0  501    0  0.00000000000E+00  0.00000000000E+00  0.53944915745E+03  0.53944915747E+03  0.50400001928E-02 0.  1.
       -1   -1    0    0    0  501  0.00000000000E+00  0.00000000000E+00 -0.37640284847E+03  0.37640284850E+03  0.50400001928E-02 0. -1.
    10030    2    1    2    0    0  0.00000000000E+00  0.00000000000E+00  0.16304630898E+03  0.91585200597E+03  0.90122183616E+03 0.  0.
        5    1    3    3  502    0 -0.77793671365E+02  0.43709597983E+03  0.33103951135E+01  0.44400202657E+03  0.46999998093E+01 0. -1.
       -5    1    3    3    0  502  0.77793671365E+02 -0.43709597983E+03  0.15973591387E+03  0.47184997940E+03  0.46999998093E+01 0.  1.
</event>
<event>
 5   0  0.1017079E-02  0.8844303E+03  0.7818609E-02  0.9445256E-01
       -2   -1    0    0    0  501  0.00000000000E+00  0.00000000000E+00  0.37237502221E+03  0.37237502222E+03  0.25500000920E-02 0. -1.
        2   -1    0    0  501    0  0.00000000000E+00  0.00000000000E+00 -0.52515404202E+03  0.52515404203E+03  0.25500000920E-02 0.  1.
    10030    2    1    2    0    0  0.00000000000E+00  0.00000000000E+00 -0.15277901981E+03  0.89752906425E+03  0.88443032076E+03 0.  0.
        1    1    3    3  502    0 -0.18903848041E+03  0.32863491368E+03 -0.30739609500E+03  0.48808689064E+03  0.50400001928E-02 0.  1.
       -1    1    3    3    0  502  0.18903848041E+03 -0.32863491368E+03  0.15461707520E+03  0.40944217361E+03  0.50400001928E-02 0. -1.
</event>
<event>
 5   0  0.6092779E-03  0.8935250E+03  0.7818609E-02  0.9433712E-01
        1   -1    0    0  501    0  0.00000000000E+00  0.00000000000E+00  0.59491520666E+03  0.59491520668E+03  0.50400001928E-02 0.  1.
       -1   -1    0    0    0  501  0.00000000000E+00  0.00000000000E+00 -0.33550452430E+03  0.33550452434E+03  0.50400001928E-02 0. -1.
    10030    2    1    2    0    0  0.00000000000E+00  0.00000000000E+00  0.25941068236E+03  0.93041973102E+03  0.89352502693E+03 0.  0.
        2    1    3    3  502    0  0.41319889885E+03  0.11830118878E+03  0.27350828110E+01  0.42980923903E+03  0.25500000920E-02 0. -1.
       -2    1    3    3    0  502 -0.41319889885E+03 -0.11830118878E+03  0.25667559955E+03  0.50061049199E+03  0.25500000920E-02 0.  1.
</event>
<event>
 5   0  0.6288003E-03  0.9243872E+03  0.7818609E-02  0.9395599E-01
        1   -1    0    0  501    0  0.00000000000E+00  0.00000000000E+00  0.21454584198E+03  0.21454584204E+03  0.50400001928E-02 0.  1.
       -1   -1    0    0    0  501  0.00000000000E+00  0.00000000000E+00 -0.99569828248E+03  0.99569828250E+03  0.50400001928E-02 0. -1.
    10030    2    1    2    0    0  0.00000000000E+00  0.00000000000E+00 -0.78115244050E+03  0.12102441245E+04  0.92438720548E+03 0.  0.
        1    1    3    3  502    0 -0.19185860822E+03 -0.10371324387E+03  0.14293964942E+03  0.26076408094E+03  0.50400001928E-02 0.  1.
       -1    1    3    3    0  502  0.19185860822E+03  0.10371324387E+03 -0.92409208993E+03  0.94948004360E+03  0.50400001928E-02 0. -1.
</event>
<event>
 5   0  0.1041727E-02  0.8799116E+03  0.7818609E-02  0.9451047E-01
        2   -1    0    0  501    0  0.00000000000E+00  0.00000000000E+00  0.35969569741E+03  0.35969569742E+03  0.25500000920E-02 0.  1.
       -2   -1    0    0    0  501  0.00000000000E+00  0.00000000000E+00 -0.53812461345E+03  0.53812461346E+03  0.25500000920E-02 0. -1.
    10030    2    1    2    0    0  0.00000000000E+00  0.00000000000E+00 -0.17842891604E+03  0.89782031088E+03  0.87991160497E+03 0.  0.
        4    1    3    3  502    0 -0.27329033635E+03  0.21270400610E+03  0.18765465931E+03  0.39388638744E+03  0.12699999809E+01 0.  1.
       -4    1    3    3    0  502  0.27329033635E+03 -0.21270400610E+03 -0.36608357535E+03  0.50393392344E+03  0.12699999809E+01 0. -1.
</event>
<event>
 5   0  0.6211218E-03  0.9143807E+03  0.7818609E-02  0.9407781E-01
       -1   -1    0    0    0  501  0.00000000000E+00  0.00000000000E+00  0.32425910533E+03  0.32425910537E+03  0.50400001928E-02 0.  1.
        1   -1    0    0  501    0  0.00000000000E+00  0.00000000000E+00 -0.64461727207E+03  0.64461727209E+03  0.50400001928E-02 0. -1.
    10030    2    1    2    0    0  0.00000000000E+00  0.00000000000E+00 -0.32035816674E+03  0.96887637746E+03  0.91438070835E+03 0.  0.
        5    1    3    3  502    0  0.44141275750E+03 -0.89042568355E+02 -0.76563884670E+02  0.45679089296E+03  0.46999998093E+01 0.  1.
       -5    1    3    3    0  502 -0.44141275750E+03  0.89042568355E+02 -0.24379428207E+03  0.51208548449E+03  0.46999998093E+01 0. -1.
</event>
<event>
 5   0  0.6211218E-03  0.9094144E+03  0.7818609E-02  0.9413889E-01
        1   -1    0    0  501    0  0.00000000000E+00  0.00000000000E+00  0.58936197815E+03  0.58936197817E+03  0.50400001928E-02 0. -1.
       -1   -1    0    0    0  501  0.00000000000E+00  0.00000000000E+00 -0.35081770846E+03  0.35081770850E+03  0.50400001928E-02 0.  1.
    10030    2    1    2    0    0  0.00000000000E+00  0.00000000000E+00  0.23854426969E+03  0.94017968667E+03  0.90941435805E+03 0.  0.
        5    1    3    3  502    0  0.29670622957E+03  0.32282583497E+03 -0.51548671105E+01  0.43851997565E+03  0.46999998093E+01 0.  1.
       -5    1    3    3    0  502 -0.29670622957E+03 -0.32282583497E+03  0.24369913680E+03  0.50165971102E+03  0.46999998093E+01 0. -1.
</event>
<event>
 5   0  0.6092779E-03  0.7829762E+03  0.7818609E-02  0.9584991E-01
        1   -1    0    0  501    0  0.00000000000E+00  0.00000000000E+00  0.27378868115E+03  0.27378868120E+03  0.50400001928E-02 0.  1.
       -1   -1    0    0    0  501  0.00000000000E+00  0.00000000000E+00 -0.55978548671E+03  0.55978548674E+03  0.50400001928E-02 0. -1.
    10030    2    1    2    0    0  0.00000000000E+00  0.00000000000E+00 -0.28599680556E+03  0.83357416793E+03  0.78297619418E+03 0.  0.
        2    1    3    3  502    0 -0.20091358631E+03  0.65502950485E+02  0.20785254014E+03  0.29641117411E+03  0.25500000920E-02 0.  1.
       -2    1    3    3    0  502  0.20091358631E+03 -0.65502950485E+02 -0.49384934570E+03  0.53716299383E+03  0.25500000920E-02 0. -1.
</event>
<event>
 5   0  0.1017079E-02  0.9005908E+03  0.7818609E-02  0.9424843E-01
        2   -1    0    0  501    0  0.00000000000E+00  0.00000000000E+00  0.18723244071E+04  0.18723244071E+04  0.25500000920E-02 0.  1.
       -2   -1    0    0    0  501  0.00000000000E+00  0.00000000000E+00 -0.10829637349E+03  0.10829637352E+03  0.25500000920E-02 0. -1.
    10030    2    1    2    0    0  0.00000000000E+00  0.00000000000E+00  0.17640280336E+04  0.19806207806E+04  0.90059079125E+03 0.  0.
        1    1    3    3  502    0 -0.36584668814E+03 -0.62969727247E+02  0.14425282782E+04  0.14895290595E+04  0.50400001928E-02 0.  1.
       -1    1    3    3    0  502  0.36584668814E+03  0.62969727247E+02  0.32149975542E+03  0.49109172110E+03  0.50400001928E-02 0. -1.
</event>
<event>
 5   0  0.6092779E-03  0.8831556E+03  0.7818609E-02  0.9446886E-01
       -1   -1    0    0    0  501  0.00000000000E+00  0.00000000000E+00  0.38065488654E+03  0.38065488658E+03  0.50400001928E-02 0. -1.
        1   -1    0    0  501    0  0.00000000000E+00  0.00000000000E+00 -0.51225125886E+03  0.51225125889E+03  0.50400001928E-02 0.  1.
    10030    2    1    2    0    0  0.00000000000E+00  0.00000000000E+00 -0.13159637232E+03  0.89290614547E+03  0.88315558052E+03 0.  0.
        2    1    3    3  502    0 -0.73192404863E+02 -0.42593124775E+03  0.25846879810E+02  0.43294643681E+03  0.25500000920E-02 0. -1.
       -2    1    3    3    0  502  0.73192404863E+02  0.42593124775E+03 -0.15744325213E+03  0.45995970866E+03  0.25500000920E-02 0.  1.
</event>
<event>
 5   0  0.1017079E-02  0.9139104E+03  0.7818609E-02  0.9408358E-01
       -2   -1    0    0    0  501  0.00000000000E+00  0.00000000000E+00  0.63020240022E+03  0.63020240022E+03  0.25500000920E-02 0.  1.
        2   -1    0    0  501    0  0.00000000000E+00  0.00000000000E+00 -0.33133494346E+03  0.33133494347E+03  0.25500000920E-02 0. -1.
    10030    2    1    2    0    0  0.00000000000E+00  0.00000000000E+00  0.29886745676E+03  0.96153734369E+03  0.91391044780E+03 0.  0.
        1    1    3    3  502    0  0.26267360311E+02  0.20902029192E+03 -0.27719610303E+03  0.34816251408E+03  0.50400001928E-02 0. -1.
       -1    1    3    3    0  502 -0.26267360311E+02 -0.20902029192E+03  0.57606355979E+03  0.61337482961E+03  0.50400001928E-02 0.  1.
</event>
<event>
 5   0  0.1028978E-02  0.8900531E+03  0.7818609E-02  0.9438102E-01
        2   -1    0    0  501    0  0.00000000000E+00  0.00000000000E+00  0.33988037186E+03  0.33988037187E+03  0.25500000920E-02 0.  1.
       -2   -1    0    0    0  501  0.00000000000E+00  0.00000000000E+00 -0.58270100224E+03  0.58270100225E+03  0.25500000920E-02 0. -1.
    10030    2    1    2    0    0  0.00000000000E+00  0.00000000000E+00 -0.24282063038E+03  0.92258137412E+03  0.89005310703E+03 0.  0.
        3    1    3    3  502    0  0.17464828994E+03  0.40694652543E+03 -0.75741963815E+02  0.44927091495E+03  0.10100000352E+00 0.  1.
       -3    1    3    3    0  502 -0.17464828994E+03 -0.40694652543E+03 -0.16707866656E+03  0.47331045917E+03  0.10100000352E+00 0. -1.
</event>
<event>
 5   0  0.1028978E-02  0.9183108E+03  0.7818609E-02  0.9402977E-01
        2   -1    0    0  501    0  0.00000000000E+00  0.00000000000E+00  0.25972824924E+03  0.25972824926E+03  0.25500000920E-02 0.  1.
       -2   -1    0    0    0  501  0.00000000000E+00  0.00000000000E+00 -0.81170867418E+03  0.81170867419E+03  0.25500000920E-02 0. -1.
    10030    2    1    2    0    0  0.00000000000E+00  0.00000000000E+00 -0.55198042494E+03  0.10714369234E+04  0.91831078149E+03 0.  0.
        3    1    3    3  502    0 -0.35366805091E+03  0.79186969666E+02  0.52925019993E+02  0.36626866415E+03  0.10100000352E+00 0.  1.
       -3    1    3    3    0  502  0.35366805091E+03 -0.79186969666E+02 -0.60490544494E+03  0.70516825929E+03  0.10100000352E+00 0. -1.
</event>
<event>
 5   0  0.6288003E-03  0.9182687E+03  0.7818609E-02  0.9403029E-01
        1   -1    0    0  501    0  0.00000000000E+00  0.00000000000E+00  0.46550045688E+03  0.46550045690E+03  0.50400001928E-02 0. -1.
       -1   -1    0    0    0  501  0.00000000000E+00  0.00000000000E+00 -0.45285526499E+03  0.45285526502E+03  0.50400001928E-02 0.  1.
    10030    2    1    2    0    0  0.00000000000E+00  0.00000000000E+00  0.12645191882E+02  0.91835572193E+03  0.91826865955E+03 0.  0.
        1    1    3    3  502    0  0.34042270531E+03 -0.70053973017E+02 -0.29372110743E+03  0.45504644422E+03  0.50400001928E-02 0.  1.
       -1    1    3    3    0  502 -0.34042270531E+03  0.70053973017E+02  0.30636629931E+03  0.46330927770E+03  0.50400001928E-02 0. -1.
</event>
<event>
 5   0  0.6211218E-03  0.9060802E+03  0.7818609E-02  0.9418013E-01
       -1   -1    0    0    0  501  0.00000000000E+00  0.00000000000E+00  0.24543387457E+03  0.24543387462E+03  0.50400001928E-02 0. -1.
        1   -1    0    0  501    0  0.00000000000E+00  0.00000000000E+00 -0.83625518973E+03  0.83625518975E+03  0.50400001928E-02 0.  1.
    10030    2    1    2    0    0  0.00000000000E+00  0.00000000000E+00 -0.59082131516E+03  0.10816890644E+04  0.90608024233E+03 0.  0.
        5    1    3    3  502    0 -0.29917729419E+03  0.11410495778E+03 -0.67798259171E+03  0.74980629459E+03  0.46999998093E+01 0.  1.
       -5    1    3    3    0  502  0.29917729419E+03 -0.11410495778E+03  0.87161276547E+02  0.33188276978E+03  0.46999998093E+01 0. -1.
</event>
<event>
 5   0  0.1028978E-02  0.8983783E+03  0.7818609E-02  0.9427611E-01
       -2   -1    0    0    0  501  0.00000000000E+00  0.00000000000E+00  0.26205928683E+03  0.26205928685E+03  0.25500000920E-02 0. -1.
        2   -1    0    0  501    0  0.00000000000E+00  0.00000000000E+00 -0.76994375468E+03  0.76994375468E+03  0.25500000920E-02 0.  1.
    10030    2    1    2    0    0  0.00000000000E+00  0.00000000000E+00 -0.50788446784E+03  0.10320030415E+04  0.89837834182E+03 0.  0.
        3    1    3    3  502    0 -0.10574357099E+03 -0.10326523421E+03  0.23332594482E+03  0.27619996040E+03  0.10100000352E+00 0. -1.
       -3    1    3    3    0  502  0.10574357099E+03  0.10326523421E+03 -0.74121041266E+03  0.75580308112E+03  0.10100000352E+00 0.  1.
</event>
<event>
 5   0  0.6211218E-03  0.8959165E+03  0.7818609E-02  0.9430700E-01
       -1   -1    0    0    0  501  0.00000000000E+00  0.00000000000E+00  0.20200951439E+03  0.20200951445E+03  0.50400001928E-02 0.  1.
        1   -1    0    0  501    0  0.00000000000E+00  0.00000000000E+00 -0.99335212332E+03  0.99335212333E+03  0.50400001928E-02 0. -1.
    10030    2    1    2    0    0  0.00000000000E+00  0.00000000000E+00 -0.79134260894E+03  0.11953616378E+04  0.89591646952E+03 0.  0.
        5    1    3    3  502    0 -0.86286206591E+02 -0.36820422952E+03 -0.71595631014E+03  0.80971303072E+03  0.46999998093E+01 0. -1.
       -5    1    3    3    0  502  0.86286206591E+02  0.36820422952E+03 -0.75386298792E+02  0.38564860706E+03  0.46999998093E+01 0.  1.
</event>
<event>
 5   0  0.1003252E-02  0.8957288E+03  0.7818609E-02  0.9430936E-01
        2   -1    0    0  501    0  0.00000000000E+00  0.00000000000E+00  0.10141170096E+04  0.10141170096E+04  0.25500000920E-02 0. -1.
       -2   -1    0    0    0  501  0.00000000000E+00  0.00000000000E+00 -0.19779031942E+03  0.19779031943E+03  0.25500000920E-02 0.  1.
    10030    2    1    2    0    0  0.00000000000E+00  0.00000000000E+00  0.81632669015E+03  0.12119073290E+04  0.89572881445E+03 0.  0.
        2    1    3    3  502    0 -0.34142641708E+03  0.23048421920E+03  0.64594843728E+03  0.76612293870E+03  0.25500000920E-02 0. -1.
       -2    1    3    3    0  502  0.34142641708E+03 -0.23048421920E+03  0.17037825287E+03  0.44578439030E+03  0.25500000920E-02 0.  1.
</event>
<event>
 5   0  0.6288003E-03  0.8567109E+03  0.7818609E-02  0.9481374E-01
       -1   -1    0    0    0  501  0.00000000000E+00  0.00000000000E+00  0.19702101308E+03  0.19702101315E+03  0.50400001928E-02 0. -1.
        1   -1    0    0  501    0  0.00000000000E+00  0.00000000000E+00 -0.93131388822E+03  0.93131388824E+03  0.50400001928E-02 0.  1.
    10030    2    1    2    0    0  0.00000000000E+00  0.00000000000E+00 -0.73429287514E+03  0.11283349014E+04  0.85671093328E+03 0.  0.
        1    1    3    3  502    0 -0.37098962812E+00 -0.71674009652E+02 -0.92336005094E+03  0.92613772464E+03  0.50400001928E-02 0.  1.
       -1    1    3    3    0  502  0.37098962812E+00  0.71674009652E+02  0.18906717580E+03  0.20219717675E+03  0.50400001928E-02 0. -1.
</event>
<event>
 5   0  0.6288003E-03  0.9063710E+03  0.7818609E-02  0.9417652E-01
       -1   -1    0    0    0  501  0.00000000000E+00  0.00000000000E+00  0.48379742871E+03  0.48379742874E+03  0.50400001928E-02 0. -1.
        1   -1    0    0  501    0  0.00000000000E+00  0.00000000000E+00 -0.42451052707E+03  0.42451052710E+03  0.50400001928E-02 0.  1.
    10030    2    1    2    0    0  0.00000000000E+00  0.00000000000E+00  0.59286901637E+02  0.90830795584E+03  0.90637100899E+03 0.  0.
        1    1    3    3  502    0  0.34605773505E+02  0.20126580250E+03 -0.37578460713E+03  0.42769095595E+03  0.50400001928E-02 0.  1.
       -1    1    3    3    0  502 -0.34605773505E+02 -0.20126580250E+03  0.43507150877E+03  0.48061699989E+03  0.50400001928E-02 0. -1.
</event>
<event>
 5   0  0.6092779E-03  0.8999322E+03  0.7818609E-02  0.9425666E-01
        1   -1    0    0  501    0  0.00000000000E+00  0.00000000000E+00  0.12581623136E+04  0.12581623136E+04  0.50400001928E-02 0.  1.
       -1   -1    0    0    0  501  0.00000000000E+00  0.00000000000E+00 -0.16092477805E+03  0.16092477813E+03  0.50400001928E-02 0. -1.
    10030    2    1    2    0    0  0.00000000000E+00  0.00000000000E+00  0.10972375355E+04  0.14190870917E+04  0.89993219995E+03 0.  0.
        2    1    3    3  502    0 -0.23161219711E+03 -0.37900700034E+03  0.43513828780E+03  0.62180048704E+03  0.25500000920E-02 0. -1.
       -2    1    3    3    0  502  0.23161219711E+03  0.37900700034E+03  0.66209924771E+03  0.79728660467E+03  0.25500000920E-02 0.  1.
</event>
<event>
 5   0  0.1041727E-02  0.8936893E+03  0.7818609E-02  0.9433505E-01
        2   -1    0    0  501    0  0.00000000000E+00  0.00000000000E+00  0.17792553140E+04  0.17792553140E+04  0.25500000920E-02 0. -1.
       -2   -1    0    0    0  501  0.00000000000E+00  0.00000000000E+00 -0.11222117339E+03  0.11222117342E+03  0.25500000920E-02 0.  1.
    10030    2    1    2    0    0  0.00000000000E+00  0.00000000000E+00  0.16670341406E+04  0.18914764875E+04  0.89368925055E+03 0.  0.
        4    1    3    3  502    0  0.42650027674E+02 -0.37680762881E+03  0.13337660687E+04  0.13866277629E+04  0.12699999809E+01 0. -1.
       -4    1    3    3    0  502 -0.42650027674E+02  0.37680762881E+03  0.33326807193E+03  0.50484872452E+03  0.12699999809E+01 0.  1.
</event>
<event>
 5   0  0.6015709E-03  0.8982392E+03  0.7818609E-02  0.9427785E-01
        1   -1    0    0  501    0  0.00000000000E+00  0.00000000000E+00  0.90465831030E+03  0.90465831032E+03  0.50400001928E-02 0.  1.
       -1   -1    0    0    0  501  0.00000000000E+00  0.00000000000E+00 -0.22296640775E+03  0.22296640781E+03  0.50400001928E-02 0. -1.
    10030    2    1    2    0    0  0.00000000000E+00  0.00000000000E+00  0.68169190256E+03  0.11276247181E+04  0.89823919694E+03 0.  0.
        3    1    3    3  502    0  0.25143782354E+03 -0.35395459815E+03  0.19659515499E+03  0.47660728260E+03  0.10100000352E+00 0. -1.
       -3    1    3    3    0  502 -0.25143782354E+03  0.35395459815E+03  0.48509674756E+03  0.65101743552E+03  0.10100000352E+00 0.  1.
</event>
<event>
 5   0  0.6211218E-03  0.9010585E+03  0.7818609E-02  0.9424259E-01
        1   -1    0    0  501    0  0.00000000000E+00  0.00000000000E+00  0.42057820696E+03  0.42057820699E+03  0.50400001928E-02 0.  1.
       -1   -1    0    0    0  501  0.00000000000E+00  0.00000000000E+00 -0.48261320872E+03  0.48261320875E+03  0.50400001928E-02 0. -1.
    10030    2    1    2    0    0  0.00000000000E+00  0.00000000000E+00 -0.62035001758E+02  0.90319141574E+03  0.90105848424E+03 0.  0.
        5    1    3    3  502    0 -0.56172033245E+02 -0.37294836812E+03  0.21595714897E+03  0.43463244563E+03  0.46999998093E+01 0.  1.
       -5    1    3    3    0  502  0.56172033245E+02  0.37294836812E+03 -0.27799215073E+03  0.46855897011E+03  0.46999998093E+01 0. -1.
</event>
<event>
 5   0  0.6092779E-03  0.8987803E+03  0.7818609E-02  0.9427107E-01
        1   -1    0    0  501    0  0.00000000000E+00  0.00000000000E+00  0.12016048941E+04  0.12016048942E+04  0.50400001928E-02 0. -1.
       -1   -1    0    0    0  501  0.00000000000E+00  0.00000000000E+00 -0.16806815011E+03  0.16806815018E+03  0.50400001928E-02 0.  1.
    10030    2    1    2    0    0  0.00000000000E+00  0.00000000000E+00  0.10335367440E+04  0.13696730443E+04  0.89878031081E+03 0.  0.
        2    1    3    3  502    0  0.18204449994E+03 -0.39467075885E+03  0.34270511548E+03  0.55349074431E+03  0.25500000920E-02 0. -1.
       -2    1    3    3    0  502 -0.18204449994E+03  0.39467075885E+03  0.69083162856E+03  0.81618230003E+03  0.25500000920E-02 0.  1.
</event>
<event>
 5   0  0.1003252E-02  0.9083367E+03  0.7818609E-02  0.9415220E-01
       -2   -1    0    0    0  501  0.00000000000E+00  0.00000000000E+00  0.22038852066E+03  0.22038852067E+03  0.25500000920E-02 0.  1.
        2   -1    0    0  501    0  0.00000000000E+00  0.00000000000E+00 -0.93593299223E+03  0.93593299224E+03  0.25500000920E-02 0. -1.
    10030    2    1    2    0    0  0.00000000000E+00  0.00000000000E+00 -0.71554447157E+03  0.11563215129E+04  0.90833669442E+03 0.  0.
        2    1    3    3  502    0 -0.30422594897E+03 -0.38043173556E+02  0.68768075051E+02  0.31421292022E+03  0.25500000920E-02 0.  1.
       -2    1    3    3    0  502  0.30422594897E+03  0.38043173556E+02 -0.78431254662E+03  0.84210859269E+03  0.25500000920E-02 0. -1.
</event>
<event>
 5   0  0.3996375E-03  0.8764393E+03  0.7818609E-02  0.9455522E-01
        3   -1    0    0  501    0  0.00000000000E+00  0.00000000000E+00  0.26304089674E+03  0.26304091614E+03  0.10100000352E+00 0.  1.
       -3   -1    0    0    0  501  0.00000000000E+00  0.00000000000E+00 -0.73006300683E+03  0.73006301382E+03  0.10100000352E+00 0. -1.
    10030    2    1    2    0    0  0.00000000000E+00  0.00000000000E+00 -0.46702211009E+03  0.99310392996E+03  0.87643925310E+03 0.  0.
        3    1    3    3  502    0 -0.56549417567E+01  0.37664315330E+03  0.20226088410E+02  0.37722824410E+03  0.10100000352E+00 0.  1.
       -3    1    3    3    0  502  0.56549417567E+01 -0.37664315330E+03 -0.48724819850E+03  0.61587568586E+03  0.10100000352E+00 0. -1.
</event>
<event>
 5   0  0.1041727E-02  0.9111493E+03  0.7818609E-02  0.9411751E-01
        2   -1    0    0  501    0  0.00000000000E+00  0.00000000000E+00  0.60133950476E+03  0.60133950477E+03  0.25500000920E-02 0.  1.
       -2   -1    0    0    0  501  0.00000000000E+00  0.00000000000E+00 -0.34514321204E+03  0.34514321205E+03  0.25500000920E-02 0. -1.
    10030    2    1    2    0    0  0.00000000000E+00  0.00000000000E+00  0.25619629272E+03  0.94648271681E+03  0.91114927033E+03 0.  0.
        4    1    3    3  502    0  0.24017697868E+02  0.42006412921E+03  0.30956041628E+03  0.52236001636E+03  0.12699999809E+01 0.  1.
       -4    1    3    3    0  502 -0.24017697868E+02 -0.42006412921E+03 -0.53364123556E+02  0.42412270046E+03  0.12699999809E+01 0. -1.
</event>
<event>
 5   0  0.1041727E-02  0.8999970E+03  0.7818609E-02  0.9425585E-01
        2   -1    0    0  501    0  0.00000000000E+00  0.00000000000E+00  0.14688117745E+04  0.14688117745E+04  0.25500000920E-02 0. -1.
       -2   -1    0    0    0  501  0.00000000000E+00  0.00000000000E+00 -0.13786562696E+03  0.13786562699E+03  0.25500000920E-02 0.  1.
    10030    2    1    2    0    0  0.00000000000E+00  0.00000000000E+00  0.13309461475E+04  0.16066774015E+04  0.89999701377E+03 0.  0.
        4    1    3    3  502    0 -0.68824587240E+02  0.39030043198E+03  0.10459592408E+04  0.11185274236E+04  0.12699999809E+01 0. -1.
       -4    1    3    3    0  502  0.68824587240E+02 -0.39030043198E+03  0.28498690674E+03  0.48814997790E+03  0.12699999809E+01 0.  1.
</event>
<event>
 5   0  0.6137243E-03  0.9185690E+03  0.7818609E-02  0.9402662E-01
        1   -1    0    0  501    0  0.00000000000E+00  0.00000000000E+00  0.54462808096E+03  0.54462808098E+03  0.50400001928E-02 0.  1.
       -1   -1    0    0    0  501  0.00000000000E+00  0.00000000000E+00 -0.38731429475E+03  0.38731429478E+03  0.50400001928E-02 0. -1.
    10030    2    1    2    0    0  0.00000000000E+00  0.00000000000E+00  0.15731378620E+03  0.93194237576E+03  0.91856897641E+03 0.  0.
        4    1    3    3  502    0 -0.10732702491E+03 -0.26378949357E+03 -0.28691762978E+03  0.40426145793E+03  0.12699999809E+01 0. -1.
       -4    1    3    3    0  502  0.10732702491E+03  0.26378949357E+03  0.44423141599E+03  0.52768091783E+03  0.12699999809E+01 0.  1.
</event>
<event>
 5   0  0.1003252E-02  0.8906280E+03  0.7818609E-02  0.9437373E-01
        2   -1    0    0  501    0  0.00000000000E+00  0.00000000000E+00  0.95438418641E+03  0.95438418642E+03  0.25500000920E-02 0. -1.
       -2   -1    0    0    0  501  0.00000000000E+00  0.00000000000E+00 -0.20778274421E+03  0.20778274422E+03  0.25500000920E-02 0.  1.
    10030    2    1    2    0    0  0.00000000000E+00  0.00000000000E+00  0.74660144220E+03  0.11621669306E+04  0.89062801504E+03 0.  0.
        2    1    3    3  502    0 -0.40054964662E+03 -0.41639079549E+02  0.12526710363E+03  0.42174124723E+03  0.25500000920E-02 0.  1.
       -2    1    3    3    0  502  0.40054964662E+03  0.41639079549E+02  0.62133433858E+03  0.74042568341E+03  0.25500000920E-02 0. -1.
</event>
<event>
 5   0  0.1041727E-02  0.8767985E+03  0.7818609E-02  0.9455058E-01
       -2   -1    0    0    0  501  0.00000000000E+00  0.00000000000E+00  0.36986604099E+03  0.36986604100E+03  0.25500000920E-02 0.  1.
        2   -1    0    0  501    0  0.00000000000E+00  0.00000000000E+00 -0.51963112919E+03  0.51963112919E+03  0.25500000920E-02 0. -1.
    10030    2    1    2    0    0  0.00000000000E+00  0.00000000000E+00 -0.14976508820E+03  0.88949717019E+03  0.87679851399E+03 0.  0.
        4    1    3    3  502    0  0.33907541433E+03  0.15710367091E+03 -0.30741522331E+03  0.48390022984E+03  0.12699999809E+01 0. -1.
       -4    1    3    3    0  502 -0.33907541433E+03 -0.15710367091E+03  0.15765013511E+03  0.40559694035E+03  0.12699999809E+01 0.  1.
</event>
<event>
 5   0  0.1033749E-02  0.8733652E+03  0.7818609E-02  0.9459503E-01
        2   -1    0    0  501    0  0.00000000000E+00  0.00000000000E+00  0.11623278798E+04  0.11623278798E+04  0.25500000920E-02 0. -1.
       -2   -1    0    0    0  501  0.00000000000E+00  0.00000000000E+00 -0.16406015076E+03  0.16406015078E+03  0.25500000920E-02 0.  1.
    10030    2    1    2    0    0  0.00000000000E+00  0.00000000000E+00  0.99826772901E+03  0.13263880306E+04  0.87336518641E+03 0.  0.
        5    1    3    3  502    0  0.64875529593E+02  0.42851614063E+03  0.57999256258E+03  0.72404998430E+03  0.46999998093E+01 0. -1.
       -5    1    3    3    0  502 -0.64875529593E+02 -0.42851614063E+03  0.41827516642E+03  0.60233804626E+03  0.46999998093E+01 0.  1.
</event>
<event>
 5   0  0.3996375E-03  0.8923140E+03  0.7818609E-02  0.9435241E-01
        4   -1    0    0  501    0  0.00000000000E+00  0.00000000000E+00  0.34654530341E+03  0.34654763051E+03  0.12699999809E+01 0.  1.
       -4   -1    0    0    0  501  0.00000000000E+00  0.00000000000E+00 -0.57439634609E+03  0.57439775008E+03  0.12699999809E+01 0. -1.
    10030    2    1    2    0    0  0.00000000000E+00  0.00000000000E+00 -0.22785104268E+03  0.92094538060E+03  0.89231401221E+03 0.  0.
        4    1    3    3  502    0  0.28680287430E+03  0.12563902255E+02 -0.46641102303E+03  0.54768110763E+03  0.12699999809E+01 0. -1.
       -4    1    3    3    0  502 -0.28680287430E+03 -0.12563902255E+02  0.23855998035E+03  0.37326427297E+03  0.12699999809E+01 0.  1.
</event>
<event>
 5   0  0.1033749E-02  0.8939121E+03  0.7818609E-02  0.9433224E-01
        2   -1    0    0  501    0  0.00000000000E+00  0.00000000000E+00  0.43716575569E+03  0.43716575569E+03  0.25500000920E-02 0. -1.
       -2   -1    0    0    0  501  0.00000000000E+00  0.00000000000E+00 -0.45696560957E+03  0.45696560957E+03  0.25500000920E-02 0.  1.
    10030    2    1    2    0    0  0.00000000000E+00  0.00000000000E+00 -0.19799853881E+02  0.89413136527E+03  0.89391211209E+03 0.  0.
        5    1    3    3  502    0  0.38024729207E+03 -0.18673260976E+03  0.13257993152E+03  0.44391057535E+03  0.46999998093E+01 0. -1.
       -5    1    3    3    0  502 -0.38024729207E+03  0.18673260976E+03 -0.15237978540E+03  0.45022078991E+03  0.46999998093E+01 0.  1.
</event>
<event>
 5   0  0.6211218E-03  0.8948571E+03  0.7818609E-02  0.9432033E-01
        1   -1    0    0  501    0  0.00000000000E+00  0.00000000000E+00  0.11903726076E+04  0.11903726076E+04  0.50400001928E-02 0.  1.
       -1   -1    0    0    0  501  0.00000000000E+00  0.00000000000E+00 -0.16817617735E+03  0.16817617742E+03  0.50400001928E-02 0. -1.
    10030    2    1    2    0    0  0.00000000000E+00  0.00000000000E+00  0.10221964303E+04  0.13585487851E+04  0.89485711670E+03 0.  0.
        5    1    3    3  502    0  0.38404465032E+03 -0.98467369523E+02  0.82585529253E+03  0.91610325318E+03  0.46999998093E+01 0.  1.
       -5    1    3    3    0  502 -0.38404465032E+03  0.98467369523E+02  0.19634113775E+03  0.44244553187E+03  0.46999998093E+01 0. -1.
</event>
<event>
 5   0  0.6092779E-03  0.8334189E+03  0.7818609E-02  0.9512866E-01
       -1   -1    0    0    0  501  0.00000000000E+00  0.00000000000E+00  0.54028392804E+03  0.54028392807E+03  0.50400001928E-02 0. -1.
        1   -1    0    0  501    0  0.00000000000E+00  0.00000000000E+00 -0.32139906469E+03  0.32139906473E+03  0.50400001928E-02 0.  1.
    10030    2    1    2    0    0  0.00000000000E+00  0.00000000000E+00  0.21888486336E+03  0.86168299280E+03  0.83341886028E+03 0.  0.
        2    1    3    3  502    0  0.24794784160E+03 -0.29846298110E+03  0.26654443961E+03  0.47074857571E+03  0.25500000920E-02 0.  1.
       -2    1    3    3    0  502 -0.24794784160E+03  0.29846298110E+03 -0.47659576250E+02  0.39093441708E+03  0.25500000920E-02 0. -1.
</event>
<event>
 5   0  0.1017079E-02  0.8838253E+03  0.7818609E-02  0.9446029E-01
        2   -1    0    0  501    0  0.00000000000E+00  0.00000000000E+00  0.12559854185E+04  0.12559854185E+04  0.25500000920E-02 0.  1.
       -2   -1    0    0    0  501  0.00000000000E+00  0.00000000000E+00 -0.15548493282E+03  0.15548493284E+03  0.25500000920E-02 0. -1.
    10030    2    1    2    0    0  0.00000000000E+00  0.00000000000E+00  0.11005004857E+04  0.14114703513E+04  0.88382534120E+03 0.  0.
        1    1    3    3  502    0  0.38776811160E+03  0.17014902819E+03  0.75207994220E+03  0.86309851097E+03  0.50400001928E-02 0.  1.
       -1    1    3    3    0  502 -0.38776811160E+03 -0.17014902819E+03  0.34842054348E+03  0.54837184037E+03  0.50400001928E-02 0. -1.
</event>
<event>
 5   0  0.6137243E-03  0.9032818E+03  0.7818609E-02  0.9421488E-01
       -1   -1    0    0    0  501  0.00000000000E+00  0.00000000000E+00  0.15043135001E+03  0.15043135009E+03  0.50400001928E-02 0.  1.
        1   -1    0    0  501    0  0.00000000000E+00  0.00000000000E+00 -0.13559641136E+04  0.13559641136E+04  0.50400001928E-02 0. -1.
    10030    2    1    2    0    0  0.00000000000E+00  0.00000000000E+00 -0.12055327635E+04  0.15063954637E+04  0.90328182144E+03 0.  0.
        4    1    3    3  502    0  0.13611565401E+03  0.31710318711E+03 -0.11685246793E+03  0.36433228611E+03  0.12699999809E+01 0.  1.
       -4    1    3    3    0  502 -0.13611565401E+03 -0.31710318711E+03 -0.10886802956E+04  0.11420631775E+04  0.12699999809E+01 0. -1.
</event>
<event>
 5   0  0.1028978E-02  0.9026184E+03  0.7818609E-02  0.9422314E-01
        2   -1    0    0  501    0  0.00000000000E+00  0.00000000000E+00  0.69035480868E+03  0.69035480869E+03  0.25500000920E-02 0. -1.
       -2   -1    0    0    0  501  0.00000000000E+00  0.00000000000E+00 -0.29503669776E+03  0.29503669777E+03  0.25500000920E-02 0.  1.
    10030    2    1    2    0    0  0.00000000000E+00  0.00000000000E+00  0.39531811092E+03  0.98539150646E+03  0.90261842003E+03 0.  0.
        3    1    3    3  502    0 -0.37313402515E+03 -0.12805327322E+03 -0.41654039458E+02  0.39668843027E+03  0.10100000352E+00 0.  1.
       -3    1    3    3    0  502  0.37313402515E+03  0.12805327322E+03  0.43697215038E+03  0.58870307619E+03  0.10100000352E+00 0. -1.
</event>
<event>
 5   0  0.6211218E-03  0.9240658E+03  0.7818609E-02  0.9395988E-01
        1   -1    0    0  501    0  0.00000000000E+00  0.00000000000E+00  0.24426372104E+03  0.24426372109E+03  0.50400001928E-02 0.  1.
       -1   -1    0    0    0  501  0.00000000000E+00  0.00000000000E+00 -0.87395053054E+03  0.87395053056E+03  0.50400001928E-02 0. -1.
    10030    2    1    2    0    0  0.00000000000E+00  0.00000000000E+00 -0.62968680950E+03  0.11182142516E+04  0.92406581721E+03 0.  0.
        5    1    3    3  502    0 -0.23980269056E+03  0.28708197334E+03 -0.64298187094E+03  0.74388787204E+03  0.46999998093E+01 0. -1.
       -5    1    3    3    0  502  0.23980269056E+03 -0.28708197334E+03  0.13295061439E+02  0.37432637961E+03  0.46999998093E+01 0.  1.
</event>
<event>
 5   0  0.6015709E-03  0.8998826E+03  0.7818609E-02  0.9425728E-01
       -1   -1    0    0    0  501  0.00000000000E+00  0.00000000000E+00  0.44969363813E+03  0.44969363816E+03  0.50400001928E-02 0.  1.
        1   -1    0    0  501    0  0.00000000000E+00  0.00000000000E+00 -0.45018907434E+03  0.45018907437E+03  0.50400001928E-02 0. -1.
    10030    2    1    2    0    0  0.00000000000E+00  0.00000000000E+00 -0.49543621281E+00  0.89988271252E+03  0.89988257614E+03 0.  0.
        3    1    3    3  502    0 -0.11720407114E+03 -0.19761217622E+03  0.38661121147E+03  0.44972836859E+03  0.10100000352E+00 0.  1.
       -3    1    3    3    0  502  0.11720407114E+03  0.19761217622E+03 -0.38710664768E+03  0.45015434393E+03  0.10100000352E+00 0. -1.
</event>
<event>
 5   0  0.3996375E-03  0.9061853E+03  0.7818609E-02  0.9417882E-01
        3   -1    0    0  501    0  0.00000000000E+00  0.00000000000E+00  0.34353508294E+03  0.34353509779E+03  0.10100000352E+00 0.  1.
       -3   -1    0    0    0  501  0.00000000000E+00  0.00000000000E+00 -0.59758945002E+03  0.59758945855E+03  0.10100000352E+00 0. -1.
    10030    2    1    2    0    0  0.00000000000E+00  0.00000000000E+00 -0.25405436707E+03  0.94112455634E+03  0.90618530617E+03 0.  0.
        2    1    3    3  502    0  0.87632445973E+02  0.39880384505E+03 -0.33098919121E+03  0.52562134386E+03  0.25500000920E-02 0. -1.
       -2    1    3    3    0  502 -0.87632445973E+02 -0.39880384505E+03  0.76934824139E+02  0.41550321249E+03  0.25500000920E-02 0.  1.
</event>
<event>
 5   0  0.1003252E-02  0.8918197E+03  0.7818609E-02  0.9435865E-01
        2   -1    0    0  501    0  0.00000000000E+00  0.00000000000E+00  0.19177337237E+04  0.19177337237E+04  0.25500000920E-02 0.  1.
       -2   -1    0    0    0  501  0.00000000000E+00  0.00000000000E+00 -0.10368258599E+03  0.10368258602E+03  0.25500000920E-02 0. -1.
    10030    2    1    2    0    0  0.00000000000E+00  0.00000000000E+00  0.18140511377E+04  0.20214163097E+04  0.89181969422E+03 0.  0.
        2    1    3    3  502    0  0.13752023875E+03  0.97898416489E+02 -0.28458971485E+02  0.17118945377E+03  0.25500000920E-02 0. -1.
       -2    1    3    3    0  502 -0.13752023875E+03 -0.97898416489E+02  0.18425101092E+04  0.18502268559E+04  0.25500000920E-02 0.  1.
</event>
<event>
 5   0  0.1033749E-02  0.8843346E+03  0.7818609E-02  0.9445379E-01
        2   -1    0    0  501    0  0.00000000000E+00  0.00000000000E+00  0.59403298806E+03  0.59403298806E+03  0.25500000920E-02 0. -1.
       -2   -1    0    0    0  501  0.00000000000E+00  0.00000000000E+00 -0.32912635907E+03  0.32912635908E+03  0.25500000920E-02 0.  1.
    10030    2    1    2    0    0  0.00000000000E+00  0.00000000000E+00  0.26490662899E+03  0.92315934714E+03  0.88433458495E+03 0.  0.
        5    1    3    3  502    0 -0.29004838091E+03  0.13126189537E+03  0.45273262140E+03  0.55348592117E+03  0.46999998093E+01 0. -1.
       -5    1    3    3    0  502  0.29004838091E+03 -0.13126189537E+03 -0.18782599242E+03  0.36967342598E+03  0.46999998093E+01 0.  1.
</event>
<event>
 5   0  0.6137243E-03  0.9005700E+03  0.7818609E-02  0.9424869E-01
       -1   -1    0    0    0  501  0.00000000000E+00  0.00000000000E+00  0.36087133993E+03  0.36087133997E+03  0.50400001928E-02 0.  1.
        1   -1    0    0  501    0  0.00000000000E+00  0.00000000000E+00 -0.56185281836E+03  0.56185281838E+03  0.50400001928E-02 0. -1.
    10030    2    1    2    0    0  0.00000000000E+00  0.00000000000E+00 -0.20098147842E+03  0.92272415835E+03  0.90056999602E+03 0.  0.
        4    1    3    3  502    0  0.32144302882E+03  0.15921578455E+03 -0.37936213193E+03  0.52210394259E+03  0.12699999809E+01 0. -1.
       -4    1    3    3    0  502 -0.32144302882E+03 -0.15921578455E+03  0.17838065351E+03  0.40062021576E+03  0.12699999809E+01 0.  1.
</event>
<event>
 5   0  0.1041727E-02  0.8968910E+03  0.7818609E-02  0.9429476E-01
        2   -1    0    0  501    0  0.00000000000E+00  0.00000000000E+00  0.28970569542E+03  0.28970569543E+03  0.25500000920E-02 0. -1.
       -2   -1    0    0    0  501  0.00000000000E+00  0.00000000000E+00 -0.69416440048E+03  0.69416440048E+03  0.25500000920E-02 0.  1.
    10030    2    1    2    0    0  0.00000000000E+00  0.00000000000E+00 -0.40445870506E+03  0.98387009592E+03  0.89689103103E+03 0.  0.
        4    1    3    3  502    0  0.45632760816E+02  0.23306949762E+03  0.21505239230E+03  0.32039488747E+03  0.12699999809E+01 0. -1.
       -4    1    3    3    0  502 -0.45632760816E+02 -0.23306949762E+03 -0.61951109736E+03  0.66347520845E+03  0.12699999809E+01 0.  1.
</event>
<event>
 5   0  0.6211218E-03  0.9038679E+03  0.7818609E-02  0.9420759E-01
        1   -1    0    0  501    0  0.00000000000E+00  0.00000000000E+00  0.95480969446E+03  0.95480969447E+03  0.50400001928E-02 0. -1.
       -1   -1    0    0    0  501  0.00000000000E+00  0.00000000000E+00 -0.21391100596E+03  0.21391100602E+03  0.50400001928E-02 0.  1.
    10030    2    1    2    0    0  0.00000000000E+00  0.00000000000E+00  0.74089868850E+03  0.11687207005E+04  0.90386791575E+03 0.  0.
        5    1    3    3  502    0 -0.87964945740E+02  0.19696755066E+02  0.94303517472E+03  0.94734535656E+03  0.46999998093E+01 0. -1.
       -5    1    3    3    0  502  0.87964945740E+02 -0.19696755066E+02 -0.20213648622E+03  0.22137534393E+03  0.46999998093E+01 0.  1.
</event>
<event>
 5   0  0.1003252E-02  0.9646177E+03  0.7818609E-02  0.9348226E-01
        2   -1    0    0  501    0  0.00000000000E+00  0.00000000000E+00  0.83232058270E+03  0.83232058271E+03  0.25500000920E-02 0. -1.
       -2   -1    0    0    0  501  0.00000000000E+00  0.00000000000E+00 -0.27948584433E+03  0.27948584434E+03  0.25500000920E-02 0.  1.
    10030    2    1    2    0    0  0.00000000000E+00  0.00000000000E+00  0.55283473837E+03  0.11118064271E+04  0.96461768763E+03 0.  0.
        2    1    3    3  502    0  0.13253295024E+03 -0.11297122689E+03  0.79481836234E+03  0.81367297492E+03  0.25500000920E-02 0. -1.
       -2    1    3    3    0  502 -0.13253295024E+03  0.11297122689E+03 -0.24198362397E+03  0.29813345213E+03  0.25500000920E-02 0.  1.
</event>
<event>
 5   0  0.1028978E-02  0.8856047E+03  0.7818609E-02  0.9443757E-01
        2   -1    0    0  501    0  0.00000000000E+00  0.00000000000E+00  0.11358369341E+04  0.11358369341E+04  0.25500000920E-02 0.  1.
       -2   -1    0    0    0  501  0.00000000000E+00  0.00000000000E+00 -0.17262505746E+03  0.17262505747E+03  0.25500000920E-02 0. -1.
    10030    2    1    2    0    0  0.00000000000E+00  0.00000000000E+00  0.96321187660E+03  0.13084619915E+04  0.88560468837E+03 0.  0.
        3    1    3    3  502    0 -0.38242505346E+03 -0.21020639370E+03  0.59254733101E+03  0.73589944908E+03  0.10100000352E+00 0. -1.
       -3    1    3    3    0  502  0.38242505346E+03  0.21020639370E+03  0.37066454559E+03  0.57256254246E+03  0.10100000352E+00 0.  1.
</event>
<event>
 5   0  0.6092779E-03  0.8992189E+03  0.7818609E-02  0.9426558E-01
        1   -1    0    0  501    0  0.00000000000E+00  0.00000000000E+00  0.12841150437E+04  0.12841150437E+04  0.50400001928E-02 0. -1.
       -1   -1    0    0    0  501  0.00000000000E+00  0.00000000000E+00 -0.15742255807E+03  0.15742255815E+03  0.50400001928E-02 0.  1.
    10030    2    1    2    0    0  0.00000000000E+00  0.00000000000E+00  0.11266924856E+04  0.14415376018E+04  0.89921893906E+03 0.  0.
        2    1    3    3  502    0  0.22515401006E+03 -0.10431133134E+03  0.11643985217E+04  0.11905457150E+04  0.25500000920E-02 0. -1.
       -2    1    3    3    0  502 -0.22515401006E+03  0.10431133134E+03 -0.37706036119E+02  0.25099188683E+03  0.25500000920E-02 0.  1.
</event>
<event>
 5   0  0.6211218E-03  0.9073097E+03  0.7818609E-02  0.9416490E-01
        1   -1    0    0  501    0  0.00000000000E+00  0.00000000000E+00  0.48252334935E+03  0.48252334937E+03  0.50400001928E-02 0.  1.
       -1   -1    0    0    0  501  0.00000000000E+00  0.00000000000E+00 -0.42651350073E+03  0.42651350076E+03  0.50400001928E-02 0. -1.
    10030    2    1    2    0    0  0.00000000000E+00  0.00000000000E+00  0.56009848620E+02  0.90903685013E+03  0.90730970002E+03 0.  0.
        5    1    3    3  502    0  0.61938267889E+01 -0.29526559560E+03  0.37298653171E+03  0.47577429341E+03  0.46999998093E+01 0.  1.
       -5    1    3    3    0  502 -0.61938267889E+01  0.29526559560E+03 -0.31697668309E+03  0.43326255672E+03  0.46999998093E+01 0. -1.
</event>
<event>
 5   0  0.1028978E-02  0.8933033E+03  0.7818609E-02  0.9433992E-01
        2   -1    0    0  501    0  0.00000000000E+00  0.00000000000E+00  0.15093967386E+04  0.15093967386E+04  0.25500000920E-02 0.  1.
       -2   -1    0    0    0  501  0.00000000000E+00  0.00000000000E+00 -0.13217048134E+03  0.13217048136E+03  0.25500000920E-02 0. -1.
    10030    2    1    2    0    0  0.00000000000E+00  0.00000000000E+00  0.13772262572E+04  0.16415672199E+04  0.89330329338E+03 0.  0.
        3    1    3    3  502    0 -0.20994665589E+03  0.35967317729E+03  0.39198816637E+03  0.57192405576E+03  0.10100000352E+00 0.  1.
       -3    1    3    3    0  502  0.20994665589E+03 -0.35967317729E+03  0.98523809084E+03  0.10696431642E+04  0.10100000352E+00 0. -1.
</event>
<event>
 5   0  0.1028978E-02  0.8968322E+03  0.7818609E-02  0.9429550E-01
        2   -1    0    0  501    0  0.00000000000E+00  0.00000000000E+00  0.14643711447E+04  0.14643711447E+04  0.25500000920E-02 0. -1.
       -2   -1    0    0    0  501  0.00000000000E+00  0.00000000000E+00 -0.13731287427E+03  0.13731287430E+03  0.25500000920E-02 0.  1.
    10030    2    1    2    0    0  0.00000000000E+00  0.00000000000E+00  0.13270582704E+04  0.16016840190E+04  0.89683222713E+03 0.  0.
        3    1    3    3  502    0  0.19780161544E+03  0.25422226070E+03  0.12206794843E+04  0.12624630096E+04  0.10100000352E+00 0. -1.
       -3    1    3    3    0  502 -0.19780161544E+03 -0.25422226070E+03  0.10637878611E+03  0.33922100943E+03  0.10100000352E+00 0.  1.
</event>
<event>
 5   0  0.1003252E-02  0.8985525E+03  0.7818609E-02  0.9427393E-01
        2   -1    0    0  501    0  0.00000000000E+00  0.00000000000E+00  0.15515156850E+04  0.15515156850E+04  0.25500000920E-02 0. -1.
       -2   -1    0    0    0  501  0.00000000000E+00  0.00000000000E+00 -0.13009805257E+03  0.13009805259E+03  0.25500000920E-02 0.  1.
    10030    2    1    2    0    0  0.00000000000E+00  0.00000000000E+00  0.14214176324E+04  0.16816137376E+04  0.89855254530E+03 0.  0.
        2    1    3    3  502    0  0.30293346460E+03  0.11710091212E+03  0.12974527495E+03  0.34973582026E+03  0.25500000920E-02 0.  1.
       -2    1    3    3    0  502 -0.30293346460E+03 -0.11710091212E+03  0.12916723574E+04  0.13318779173E+04  0.25500000920E-02 0. -1.
</event>
<event>
 5   0  0.6288003E-03  0.8953936E+03  0.7818609E-02  0.9431358E-01
        1   -1    0    0  501    0  0.00000000000E+00  0.00000000000E+00  0.51726047315E+03  0.51726047317E+03  0.50400001928E-02 0. -1.
       -1   -1    0    0    0  501  0.00000000000E+00  0.00000000000E+00 -0.38748839193E+03  0.38748839197E+03  0.50400001928E-02 0.  1.
    10030    2    1    2    0    0  0.00000000000E+00  0.00000000000E+00  0.12977208122E+03  0.90474886514E+03  0.89539360948E+03 0.  0.
        1    1    3    3  502    0  0.18748736787E+03  0.11040778923E+03  0.46024258986E+03  0.50908214915E+03  0.50400001928E-02 0. -1.
       -1    1    3    3    0  502 -0.18748736787E+03 -0.11040778923E+03 -0.33047050865E+03  0.39566671599E+03  0.50400001928E-02 0.  1.
</event>
<event>
 5   0  0.1041727E-02  0.9005041E+03  0.7818609E-02  0.9424951E-01
       -2   -1    0    0    0  501  0.00000000000E+00  0.00000000000E+00  0.58333740908E+03  0.58333740909E+03  0.25500000920E-02 0.  1.
        2   -1    0    0  501    0  0.00000000000E+00  0.00000000000E+00 -0.34752944888E+03  0.34752944889E+03  0.25500000920E-02 0. -1.
    10030    2    1    2    0    0  0.00000000000E+00  0.00000000000E+00  0.23580796020E+03  0.93086685798E+03  0.90050414391E+03 0.  0.
        4    1    3    3  502    0 -0.14617857784E+03  0.61981410909E+02 -0.31762787332E+03  0.35510414068E+03  0.12699999809E+01 0. -1.
       -4    1    3    3    0  502  0.14617857784E+03 -0.61981410909E+02  0.55343583352E+03  0.57576271731E+03  0.12699999809E+01 0.  1.
</event>
<event>
 5   0  0.1028978E-02  0.8853303E+03  0.7818609E-02  0.9444107E-01
        2   -1    0    0  501    0  0.00000000000E+00  0.00000000000E+00  0.18294944365E+04  0.18294944365E+04  0.25500000920E-02 0.  1.
       -2   -1    0    0    0  501  0.00000000000E+00  0.00000000000E+00 -0.10710741143E+03  0.10710741146E+03  0.25500000920E-02 0. -1.
    10030    2    1    2    0    0  0.00000000000E+00  0.00000000000E+00  0.17223870251E+04  0.19366018480E+04  0.88533025102E+03 0.  0.
        3    1    3    3  502    0 -0.17194946079E+03  0.39059073307E+03  0.11183884117E+04  0.11970465268E+04  0.10100000352E+00 0.  1.
       -3    1    3    3    0  502  0.17194946079E+03 -0.39059073307E+03  0.60399861343E+03  0.73955532116E+03  0.10100000352E+00 0. -1.
</event>
<event>
 5   0  0.6092779E-03  0.9016318E+03  0.7818609E-02  0.9423544E-01
       -1   -1    0    0    0  501  0.00000000000E+00  0.00000000000E+00  0.14676355937E+03  0.14676355945E+03  0.50400001928E-02 0.  1.
        1   -1    0    0  501    0  0.00000000000E+00  0.00000000000E+00 -0.13847780817E+04  0.13847780817E+04  0.50400001928E-02 0. -1.
    10030    2    1    2    0    0  0.00000000000E+00  0.00000000000E+00 -0.12380145224E+04  0.15315416412E+04  0.90163176581E+03 0.  0.
        2    1    3    3  502    0 -0.32417388610E+03 -0.31070956022E+03 -0.68707607395E+03  0.82079392703E+03  0.25500000920E-02 0.  1.
       -2    1    3    3    0  502  0.32417388610E+03  0.31070956022E+03 -0.55093844841E+03  0.71074771416E+03  0.25500000920E-02 0. -1.
</event>
<event>
 5   0  0.6288003E-03  0.8999354E+03  0.7818609E-02  0.9425662E-01
        1   -1    0    0  501    0  0.00000000000E+00  0.00000000000E+00  0.11171487215E+04  0.11171487215E+04  0.50400001928E-02 0.  1.
       -1   -1    0    0    0  501  0.00000000000E+00  0.00000000000E+00 -0.18123899234E+03  0.18123899241E+03  0.50400001928E-02 0. -1.
    10030    2    1    2    0    0  0.00000000000E+00  0.00000000000E+00  0.93590972915E+03  0.12983877139E+04  0.89993535019E+03 0.  0.
        1    1    3    3  502    0  0.28189821964E+03  0.90130751591E+02 -0.21053982950E+02  0.29670427843E+03  0.50400001928E-02 0.  1.
       -1    1    3    3    0  502 -0.28189821964E+03 -0.90130751591E+02  0.95696371210E+03  0.10016834355E+04  0.50400001928E-02 0. -1.
</event>
<event>
 5   0  0.1017079E-02  0.9285502E+03  0.7818609E-02  0.9390579E-01
       -2   -1    0    0    0  501  0.00000000000E+00  0.00000000000E+00  0.27281248863E+03  0.27281248864E+03  0.25500000920E-02 0.  1.
        2   -1    0    0  501    0  0.00000000000E+00  0.00000000000E+00 -0.79010822563E+03  0.79010822564E+03  0.25500000920E-02 0. -1.
    10030    2    1    2    0    0  0.00000000000E+00  0.00000000000E+00 -0.51729573700E+03  0.10629207143E+04  0.92855024922E+03 0.  0.
        1    1    3    3  502    0 -0.27372419060E+03 -0.18395212310E+03 -0.63272127891E+03  0.71351211127E+03  0.50400001928E-02 0. -1.
       -1    1    3    3    0  502  0.27372419060E+03  0.18395212310E+03  0.11542554191E+03  0.34940860302E+03  0.50400001928E-02 0.  1.
</event>
<event>
 5   0  0.6211218E-03  0.9052390E+03  0.7818609E-02  0.9419056E-01
       -1   -1    0    0    0  501  0.00000000000E+00  0.00000000000E+00  0.24803363640E+03  0.24803363646E+03  0.50400001928E-02 0.  1.
        1   -1    0    0  501    0  0.00000000000E+00  0.00000000000E+00 -0.82595424250E+03  0.82595424252E+03  0.50400001928E-02 0. -1.
    10030    2    1    2    0    0  0.00000000000E+00  0.00000000000E+00 -0.57792060610E+03  0.10739878790E+04  0.90523904977E+03 0.  0.
        5    1    3    3  502    0  0.73608332115E+02 -0.71384139988E+02 -0.81196345590E+03  0.81842569957E+03  0.46999998093E+01 0. -1.
       -5    1    3    3    0  502 -0.73608332115E+02  0.71384139988E+02  0.23404284980E+03  0.25556217940E+03  0.46999998093E+01 0.  1.
</event>
<event>
 5   0  0.6137243E-03  0.9015753E+03  0.7818609E-02  0.9423614E-01
       -1   -1    0    0    0  501  0.00000000000E+00  0.00000000000E+00  0.29929570248E+03  0.29929570253E+03  0.50400001928E-02 0.  1.
        1   -1    0    0  501    0  0.00000000000E+00  0.00000000000E+00 -0.67895894923E+03  0.67895894925E+03  0.50400001928E-02 0. -1.
    10030    2    1    2    0    0  0.00000000000E+00  0.00000000000E+00 -0.37966324675E+03  0.97825465178E+03  0.90157527849E+03 0.  0.
        4    1    3    3  502    0  0.75013422609E+00  0.13767330029E+03  0.27592352228E+03  0.30836650817E+03  0.12699999809E+01 0.  1.
       -4    1    3    3    0  502 -0.75013422609E+00 -0.13767330029E+03 -0.65558676903E+03  0.66988814361E+03  0.12699999809E+01 0. -1.
</event>
<event>
 5   0  0.1028978E-02  0.9161115E+03  0.7818609E-02  0.9405662E-01
        2   -1    0    0  501    0  0.00000000000E+00  0.00000000000E+00  0.11853717228E+04  0.11853717228E+04  0.25500000920E-02 0. -1.
       -2   -1    0    0    0  501  0.00000000000E+00  0.00000000000E+00 -0.17700361452E+03  0.17700361454E+03  0.25500000920E-02 0.  1.
    10030    2    1    2    0    0  0.00000000000E+00  0.00000000000E+00  0.10083681083E+04  0.13623753373E+04  0.91611152050E+03 0.  0.
        3    1    3    3  502    0  0.43375840485E+03 -0.14307691972E+03  0.45271758561E+03  0.64309453524E+03  0.10100000352E+00 0. -1.
       -3    1    3    3    0  502 -0.43375840485E+03  0.14307691972E+03  0.55565052264E+03  0.71928080208E+03  0.10100000352E+00 0.  1.
</event>
<event>
 5   0  0.6137243E-03  0.9080501E+03  0.7818609E-02  0.9415574E-01
        1   -1    0    0  501    0  0.00000000000E+00  0.00000000000E+00  0.87648461167E+03  0.87648461168E+03  0.50400001928E-02 0.  1.
       -1   -1    0    0    0  501  0.00000000000E+00  0.00000000000E+00 -0.23518809661E+03  0.23518809666E+03  0.50400001928E-02 0. -1.
    10030    2    1    2    0    0  0.00000000000E+00  0.00000000000E+00  0.64129651506E+03  0.11116727083E+04  0.90805010338E+03 0.  0.
        4    1    3    3  502    0  0.23734056853E+03  0.33174904064E+03  0.76568857610E+02  0.41503297977E+03  0.12699999809E+01 0. -1.
       -4    1    3    3    0  502 -0.23734056853E+03 -0.33174904064E+03  0.56472765745E+03  0.69663972858E+03  0.12699999809E+01 0.  1.
</event>
<event>
 5   0  0.6288003E-03  0.8859793E+03  0.7818609E-02  0.9443280E-01
        1   -1    0    0  501    0  0.00000000000E+00  0.00000000000E+00  0.10202943781E+04  0.10202943781E+04  0.50400001928E-02 0.  1.
       -1   -1    0    0    0  501  0.00000000000E+00  0.00000000000E+00 -0.19233647371E+03  0.19233647377E+03  0.50400001928E-02 0. -1.
    10030    2    1    2    0    0  0.00000000000E+00  0.00000000000E+00  0.82795790436E+03  0.12126308519E+04  0.88597928389E+03 0.  0.
        1    1    3    3  502    0 -0.87335246411E+02  0.19480789706E+03 -0.11728125365E+03  0.24358254146E+03  0.50400001928E-02 0. -1.
       -1    1    3    3    0  502  0.87335246411E+02 -0.19480789706E+03  0.94523915801E+03  0.96904831040E+03  0.50400001928E-02 0.  1.
</event>
<event>
 5   0  0.6092779E-03  0.8998355E+03  0.7818609E-02  0.9425787E-01
       -1   -1    0    0    0  501  0.00000000000E+00  0.00000000000E+00  0.18814030759E+03  0.18814030765E+03  0.50400001928E-02 0.  1.
        1   -1    0    0  501    0  0.00000000000E+00  0.00000000000E+00 -0.10759309677E+04  0.10759309677E+04  0.50400001928E-02 0. -1.
    10030    2    1    2    0    0  0.00000000000E+00  0.00000000000E+00 -0.88779066015E+03  0.12640712754E+04  0.89983550332E+03 0.  0.
        2    1    3    3  502    0  0.33470901142E+03  0.22839854205E+03 -0.16922585389E+03  0.43912800636E+03  0.25500000920E-02 0.  1.
       -2    1    3    3    0  502 -0.33470901142E+03 -0.22839854205E+03 -0.71856480625E+03  0.82494326903E+03  0.25500000920E-02 0. -1.
</event>
<event>
 5   0  0.1017079E-02  0.8983509E+03  0.7818609E-02  0.9427645E-01
        2   -1    0    0  501    0  0.00000000000E+00  0.00000000000E+00  0.19772384158E+04  0.19772384158E+04  0.25500000920E-02 0. -1.
       -2   -1    0    0    0  501  0.00000000000E+00  0.00000000000E+00 -0.10204059516E+03  0.10204059519E+03  0.25500000920E-02 0.  1.
    10030    2    1    2    0    0  0.00000000000E+00  0.00000000000E+00  0.18751978207E+04  0.20792790110E+04  0.89835089970E+03 0.  0.
        1    1    3    3  502    0 -0.35731764276E+03 -0.26402280412E+03  0.78451194624E+03  0.90157802366E+03  0.50400001928E-02 0.  1.
       -1    1    3    3    0  502  0.35731764276E+03  0.26402280412E+03  0.10906858744E+04  0.11777009874E+04  0.50400001928E-02 0. -1.
</event>
<event>
 5   0  0.3996375E-03  0.9082135E+03  0.7818609E-02  0.9415372E-01
        3   -1    0    0  501    0  0.00000000000E+00  0.00000000000E+00  0.13104345372E+04  0.13104345411E+04  0.10100000352E+00 0. -1.
       -3   -1    0    0    0  501  0.00000000000E+00  0.00000000000E+00 -0.15736223074E+03  0.15736226315E+03  0.10100000352E+00 0.  1.
    10030    2    1    2    0    0  0.00000000000E+00  0.00000000000E+00  0.11530723065E+04  0.14677968042E+04  0.90821347415E+03 0.  0.
        2    1    3    3  502    0  0.44293018981E+03  0.94164879154E+02  0.63155013572E+03  0.77711630497E+03  0.25500000920E-02 0. -1.
       -2    1    3    3    0  502 -0.44293018981E+03 -0.94164879154E+02  0.52152217073E+03  0.69068049927E+03  0.25500000920E-02 0.  1.
</event>
<event>
 5   0  0.1028978E-02  0.8985055E+03  0.7818609E-02  0.9427452E-01
       -2   -1    0    0    0  501  0.00000000000E+00  0.00000000000E+00  0.48705469011E+03  0.48705469011E+03  0.25500000920E-02 0. -1.
        2   -1    0    0  501    0  0.00000000000E+00  0.00000000000E+00 -0.41438471597E+03  0.41438471598E+03  0.25500000920E-02 0.  1.
    10030    2    1    2    0    0  0.00000000000E+00  0.00000000000E+00  0.72669974133E+02  0.90143940609E+03  0.89850546894E+03 0.  0.
        3    1    3    3  502    0  0.21942423396E+03  0.19995292383E+03  0.37463011785E+03  0.47799152879E+03  0.10100000352E+00 0. -1.
       -3    1    3    3    0  502 -0.21942423396E+03 -0.19995292383E+03 -0.30196014371E+03  0.42344787730E+03  0.10100000352E+00 0.  1.
</event>
<event>
 5   0  0.1003252E-02  0.8930585E+03  0.7818609E-02  0.9434300E-01
       -2   -1    0    0    0  501  0.00000000000E+00  0.00000000000E+00  0.29764000600E+03  0.29764000601E+03  0.25500000920E-02 0.  1.
        2   -1    0    0  501    0  0.00000000000E+00  0.00000000000E+00 -0.66989778070E+03  0.66989778070E+03  0.25500000920E-02 0. -1.
    10030    2    1    2    0    0  0.00000000000E+00  0.00000000000E+00 -0.37225777470E+03  0.96753778672E+03  0.89305851875E+03 0.  0.
        2    1    3    3  502    0  0.13089147395E+03 -0.29660158196E+03 -0.51879258631E+03  0.61176043022E+03  0.25500000920E-02 0. -1.
       -2    1    3    3    0  502 -0.13089147395E+03  0.29660158196E+03  0.14653481161E+03  0.35577735649E+03  0.25500000920E-02 0.  1.
</event>
<event>
 5   0  0.1041727E-02  0.8994820E+03  0.7818609E-02  0.9426229E-01
       -2   -1    0    0    0  501  0.00000000000E+00  0.00000000000E+00  0.26971071025E+03  0.26971071026E+03  0.25500000920E-02 0.  1.
        2   -1    0    0  501    0  0.00000000000E+00  0.00000000000E+00 -0.74994044019E+03  0.74994044020E+03  0.25500000920E-02 0. -1.
    10030    2    1    2    0    0  0.00000000000E+00  0.00000000000E+00 -0.48022972995E+03  0.10196511505E+04  0.89948200377E+03 0.  0.
        4    1    3    3  502    0  0.21360222437E+03 -0.24526561388E+02 -0.68790464163E+03  0.72072315860E+03  0.12699999809E+01 0. -1.
       -4    1    3    3    0  502 -0.21360222437E+03  0.24526561388E+02  0.20767491168E+03  0.29892799185E+03  0.12699999809E+01 0.  1.
</event>
<event>
 5   0  0.1028978E-02  0.8867962E+03  0.7818609E-02  0.9442239E-01
        2   -1    0    0  501    0  0.00000000000E+00  0.00000000000E+00  0.11352874874E+04  0.11352874874E+04  0.25500000920E-02 0. -1.
       -2   -1    0    0    0  501  0.00000000000E+00  0.00000000000E+00 -0.17317363821E+03  0.17317363823E+03  0.25500000920E-02 0.  1.
    10030    2    1    2    0    0  0.00000000000E+00  0.00000000000E+00  0.96211384920E+03  0.13084611256E+04  0.88679617641E+03 0.  0.
        3    1    3    3  502    0  0.11053814111E+03 -0.88585290609E+02  0.11010023106E+04  0.11100775344E+04  0.10100000352E+00 0. -1.
       -3    1    3    3    0  502 -0.11053814111E+03  0.88585290609E+02 -0.13888846139E+03  0.19838359121E+03  0.10100000352E+00 0.  1.
</event>
<event>
 5   0  0.6288003E-03  0.8962259E+03  0.7818609E-02  0.9430312E-01
       -1   -1    0    0    0  501  0.00000000000E+00  0.00000000000E+00  0.49423917556E+03  0.49423917559E+03  0.50400001928E-02 0. -1.
        1   -1    0    0  501    0  0.00000000000E+00  0.00000000000E+00 -0.40629162000E+03  0.40629162003E+03  0.50400001928E-02 0.  1.
    10030    2    1    2    0    0  0.00000000000E+00  0.00000000000E+00  0.87947555559E+02  0.90053079562E+03  0.89622594324E+03 0.  0.
        1    1    3    3  502    0  0.27441541693E+03  0.11377864478E+03  0.38107867626E+03  0.48318770533E+03  0.50400001928E-02 0. -1.
       -1    1    3    3    0  502 -0.27441541693E+03 -0.11377864478E+03 -0.29313112070E+03  0.41734309028E+03  0.50400001928E-02 0.  1.
</event>
<event>
 5   0  0.3996375E-03  0.8864824E+03  0.7818609E-02  0.9442639E-01
       -3   -1    0    0    0  501  0.00000000000E+00  0.00000000000E+00  0.49798135255E+03  0.49798136279E+03  0.10100000352E+00 0. -1.
        3   -1    0    0  501    0  0.00000000000E+00  0.00000000000E+00 -0.39451829017E+03  0.39451830310E+03  0.10100000352E+00 0.  1.
    10030    2    1    2    0    0  0.00000000000E+00  0.00000000000E+00  0.10346306238E+03  0.89249966589E+03  0.88648240159E+03 0.  0.
        2    1    3    3  502    0 -0.13046499424E+03  0.17311617200E+03  0.44097246286E+03  0.49137260479E+03  0.25500000920E-02 0.  1.
       -2    1    3    3    0  502  0.13046499424E+03 -0.17311617200E+03 -0.33750940048E+03  0.40112706110E+03  0.25500000920E-02 0. -1.
</event>
<event>
 5   0  0.3996375E-03  0.8775905E+03  0.7818609E-02  0.9454036E-01
       -3   -1    0    0    0  501  0.00000000000E+00  0.00000000000E+00  0.17415129478E+04  0.17415129507E+04  0.10100000352E+00 0. -1.
        3   -1    0    0  501    0  0.00000000000E+00  0.00000000000E+00 -0.11055975625E+03  0.11055980239E+03  0.10100000352E+00 0.  1.
    10030    2    1    2    0    0  0.00000000000E+00  0.00000000000E+00  0.16309531915E+04  0.18520727531E+04  0.87759054792E+03 0.  0.
        1    1    3    3  502    0  0.14808954733E+03 -0.40647221962E+03  0.97043150003E+03  0.10624911650E+04  0.50400001928E-02 0. -1.
       -1    1    3    3    0  502 -0.14808954733E+03  0.40647221962E+03  0.66052169151E+03  0.78958158814E+03  0.50400001928E-02 0.  1.
</event>
<event>
 5   0  0.1041727E-02  0.8998949E+03  0.7818609E-02  0.9425713E-01
        2   -1    0    0  501    0  0.00000000000E+00  0.00000000000E+00  0.64078818271E+03  0.64078818271E+03  0.25500000920E-02 0.  1.
       -2   -1    0    0    0  501  0.00000000000E+00  0.00000000000E+00 -0.31594326534E+03  0.31594326535E+03  0.25500000920E-02 0. -1.
    10030    2    1    2    0    0  0.00000000000E+00  0.00000000000E+00  0.32484491736E+03  0.95673144807E+03  0.89989490685E+03 0.  0.
        4    1    3    3  502    0  0.40725087451E+03  0.19039422086E+03  0.18225155329E+03  0.48509841858E+03  0.12699999809E+01 0. -1.
       -4    1    3    3    0  502 -0.40725087451E+03 -0.19039422086E+03  0.14259336408E+03  0.47163302949E+03  0.12699999809E+01 0.  1.
</event>
<event>
 5   0  0.1003252E-02  0.9068013E+03  0.7818609E-02  0.9417119E-01
        2   -1    0    0  501    0  0.00000000000E+00  0.00000000000E+00  0.10814056795E+04  0.10814056795E+04  0.25500000920E-02 0.  1.
       -2   -1    0    0    0  501  0.00000000000E+00  0.00000000000E+00 -0.19009716111E+03  0.19009716112E+03  0.25500000920E-02 0. -1.
    10030    2    1    2    0    0  0.00000000000E+00  0.00000000000E+00  0.89130851842E+03  0.12715028407E+04  0.90680130061E+03 0.  0.
        2    1    3    3  502    0  0.28982563462E+03  0.24313965303E+03  0.95230506346E+02  0.39010849607E+03  0.25500000920E-02 0.  1.
       -2    1    3    3    0  502 -0.28982563462E+03 -0.24313965303E+03  0.79607801207E+03  0.88139434459E+03  0.25500000920E-02 0. -1.
</event>
<event>
 5   0  0.6092779E-03  0.8965359E+03  0.7818609E-02  0.9429922E-01
        1   -1    0    0  501    0  0.00000000000E+00  0.00000000000E+00  0.50370011964E+03  0.50370011967E+03  0.50400001928E-02 0.  1.
       -1   -1    0    0    0  501  0.00000000000E+00  0.00000000000E+00 -0.39893608687E+03  0.39893608690E+03  0.50400001928E-02 0. -1.
    10030    2    1    2    0    0  0.00000000000E+00  0.00000000000E+00  0.10476403277E+03  0.90263620657E+03  0.89653589937E+03 0.  0.
        2    1    3    3  502    0 -0.25646695523E+03 -0.12507212761E+03 -0.29569546571E+03  0.41091865944E+03  0.25500000920E-02 0. -1.
       -2    1    3    3    0  502  0.25646695523E+03  0.12507212761E+03  0.40045949848E+03  0.49171754713E+03  0.25500000920E-02 0.  1.
</event>
<event>
 5   0  0.3996375E-03  0.8940968E+03  0.7818609E-02  0.9432991E-01
       -4   -1    0    0    0  501  0.00000000000E+00  0.00000000000E+00  0.90889594696E+03  0.90889683425E+03  0.12699999809E+01 0.  1.
        4   -1    0    0  501    0  0.00000000000E+00  0.00000000000E+00 -0.21988183557E+03  0.21988550320E+03  0.12699999809E+01 0. -1.
    10030    2    1    2    0    0  0.00000000000E+00  0.00000000000E+00  0.68901411139E+03  0.11287823374E+04  0.89409681782E+03 0.  0.
        1    1    3    3  502    0 -0.76783167821E+01 -0.21715587750E+03  0.83774339555E+03  0.86546497821E+03  0.50400001928E-02 0.  1.
       -1    1    3    3    0  502  0.76783167821E+01  0.21715587750E+03 -0.14872928416E+03  0.26331735924E+03  0.50400001928E-02 0. -1.
</event>
<event>
 5   0  0.1017079E-02  0.9030796E+03  0.7818609E-02  0.9421740E-01
        2   -1    0    0  501    0  0.00000000000E+00  0.00000000000E+00  0.13665534733E+04  0.13665534733E+04  0.25500000920E-02 0.  1.
       -2   -1    0    0    0  501  0.00000000000E+00  0.00000000000E+00 -0.14919884134E+03  0.14919884136E+03  0.25500000920E-02 0. -1.
    10030    2    1    2    0    0  0.00000000000E+00  0.00000000000E+00  0.12173546320E+04  0.15157523147E+04  0.90307960859E+03 0.  0.
        1    1    3    3  502    0  0.80551904124E+01 -0.25397387792E+03 -0.17806473485E+02  0.25472472844E+03  0.50400001928E-02 0. -1.
       -1    1    3    3    0  502 -0.80551904124E+01  0.25397387792E+03  0.12351611055E+04  0.12610275862E+04  0.50400001928E-02 0.  1.
</event>
<event>
 5   0  0.6137243E-03  0.9032367E+03  0.7818609E-02  0.9421544E-01
       -1   -1    0    0    0  501  0.00000000000E+00  0.00000000000E+00  0.23900076971E+03  0.23900076977E+03  0.50400001928E-02 0. -1.
        1   -1    0    0  501    0  0.00000000000E+00  0.00000000000E+00 -0.85338282799E+03  0.85338282801E+03  0.50400001928E-02 0.  1.
    10030    2    1    2    0    0  0.00000000000E+00  0.00000000000E+00 -0.61438205828E+03  0.10923835978E+04  0.90323674147E+03 0.  0.
        4    1    3    3  502    0 -0.18504642631E+02  0.21477773555E+03  0.17275682955E+03  0.27625790946E+03  0.12699999809E+01 0. -1.
       -4    1    3    3    0  502  0.18504642631E+02 -0.21477773555E+03 -0.78713888783E+03  0.81612568831E+03  0.12699999809E+01 0.  1.
</event>
<event>
 5   0  0.6211218E-03  0.8757793E+03  0.7818609E-02  0.9456375E-01
        1   -1    0    0  501    0  0.00000000000E+00  0.00000000000E+00  0.75026054104E+03  0.75026054106E+03  0.50400001928E-02 0. -1.
       -1   -1    0    0    0  501  0.00000000000E+00  0.00000000000E+00 -0.25557434712E+03  0.25557434717E+03  0.50400001928E-02 0.  1.
    10030    2    1    2    0    0  0.00000000000E+00  0.00000000000E+00  0.49468619391E+03  0.10058348882E+04  0.87577930549E+03 0.  0.
        5    1    3    3  502    0  0.94220401535E+01 -0.36229992787E+03  0.52954599623E+03  0.64170948621E+03  0.46999998093E+01 0. -1.
       -5    1    3    3    0  502 -0.94220401535E+01  0.36229992787E+03 -0.34859802312E+02  0.36412540202E+03  0.46999998093E+01 0.  1.
</event>
<event>
 5   0  0.6288003E-03  0.8521650E+03  0.7818609E-02  0.9487436E-01
        1   -1    0    0  501    0  0.00000000000E+00  0.00000000000E+00  0.17542209255E+04  0.17542209255E+04  0.50400001928E-02 0. -1.
       -1   -1    0    0    0  501  0.00000000000E+00  0.00000000000E+00 -0.10349111705E+03  0.10349111717E+03  0.50400001928E-02 0.  1.
    10030    2    1    2    0    0  0.00000000000E+00  0.00000000000E+00  0.16507298085E+04  0.18577120427E+04  0.85216496819E+03 0.  0.
        1    1    3    3  502    0  0.19004067125E+03 -0.15114836738E+03  0.15886264474E+04  0.16070766239E+04  0.50400001928E-02 0. -1.
       -1    1    3    3    0  502 -0.19004067125E+03  0.15114836738E+03  0.62103361128E+02  0.25063541885E+03  0.50400001928E-02 0.  1.
</event>
<event>
 5   0  0.6015709E-03  0.9013273E+03  0.7818609E-02  0.9423924E-01
        1   -1    0    0  501    0  0.00000000000E+00  0.00000000000E+00  0.92901632695E+03  0.92901632697E+03  0.50400001928E-02 0.  1.
       -1   -1    0    0    0  501  0.00000000000E+00  0.00000000000E+00 -0.21861589880E+03  0.21861589886E+03  0.50400001928E-02 0. -1.
    10030    2    1    2    0    0  0.00000000000E+00  0.00000000000E+00  0.71040042815E+03  0.11476322258E+04  0.90132733091E+03 0.  0.
        3    1    3    3  502    0  0.14032905943E+03  0.27635053296E+02  0.89935226405E+03  0.91065385639E+03  0.10100000352E+00 0.  1.
       -3    1    3    3    0  502 -0.14032905943E+03 -0.27635053296E+02 -0.18895183590E+03  0.23697836944E+03  0.10100000352E+00 0. -1.
</event>
<event>
 5   0  0.1028978E-02  0.8983157E+03  0.7818609E-02  0.9427689E-01
        2   -1    0    0  501    0  0.00000000000E+00  0.00000000000E+00  0.19334229997E+04  0.19334229997E+04  0.25500000920E-02 0.  1.
       -2   -1    0    0    0  501  0.00000000000E+00  0.00000000000E+00 -0.10434487544E+03  0.10434487547E+03  0.25500000920E-02 0. -1.
    10030    2    1    2    0    0  0.00000000000E+00  0.00000000000E+00  0.18290781242E+04  0.20377678751E+04  0.89831571756E+03 0.  0.
        3    1    3    3  502    0  0.35765817720E+03  0.19606497560E+03  0.48784515155E+03  0.63588815720E+03  0.10100000352E+00 0. -1.
       -3    1    3    3    0  502 -0.35765817720E+03 -0.19606497560E+03  0.13412329727E+04  0.14018797180E+04  0.10100000352E+00 0.  1.
</event>
<event>
 5   0  0.1017079E-02  0.8977795E+03  0.7818609E-02  0.9428361E-01
        2   -1    0    0  501    0  0.00000000000E+00  0.00000000000E+00  0.26330779686E+03  0.26330779687E+03  0.25500000920E-02 0.  1.
       -2   -1    0    0    0  501  0.00000000000E+00  0.00000000000E+00 -0.76527165981E+03  0.76527165982E+03  0.25500000920E-02 0. -1.
    10030    2    1    2    0    0  0.00000000000E+00  0.00000000000E+00 -0.50196386295E+03  0.10285794567E+04  0.89777947126E+03 0.  0.
        1    1    3    3  502    0  0.27875418326E+03  0.31094562632E+03 -0.43962475295E+03  0.60635055920E+03  0.50400001928E-02 0. -1.
       -1    1    3    3    0  502 -0.27875418326E+03 -0.31094562632E+03 -0.62339110004E+02  0.42222889749E+03  0.50400001928E-02 0.  1.
</event>
<event>
 5   0  0.3996375E-03  0.8933926E+03  0.7818609E-02  0.9433879E-01
        3   -1    0    0  501    0  0.00000000000E+00  0.00000000000E+00  0.21992754072E+03  0.21992756391E+03  0.10100000352E+00 0.  1.
       -3   -1    0    0    0  501  0.00000000000E+00  0.00000000000E+00 -0.90728767019E+03  0.90728767581E+03  0.10100000352E+00 0. -1.
    10030    2    1    2    0    0  0.00000000000E+00  0.00000000000E+00 -0.68736012947E+03  0.11272152397E+04  0.89339255038E+03 0.  0.
        4    1    3    3  502    0 -0.18678164261E+03 -0.31508421370E+03 -0.21086687594E+02  0.36689467839E+03  0.12699999809E+01 0.  1.
       -4    1    3    3    0  502  0.18678164261E+03  0.31508421370E+03 -0.66627344187E+03  0.76032056133E+03  0.12699999809E+01 0. -1.
</event>
<event>
 5   0  0.1041727E-02  0.8927836E+03  0.7818609E-02  0.9434647E-01
        2   -1    0    0  501    0  0.00000000000E+00  0.00000000000E+00  0.57145887958E+03  0.57145887958E+03  0.25500000920E-02 0. -1.
       -2   -1    0    0    0  501  0.00000000000E+00  0.00000000000E+00 -0.34869637268E+03  0.34869637269E+03  0.25500000920E-02 0.  1.
    10030    2    1    2    0    0  0.00000000000E+00  0.00000000000E+00  0.22276250690E+03  0.92015525227E+03  0.89278359853E+03 0.  0.
        4    1    3    3  502    0 -0.56668363862E+02  0.43850266129E+03  0.48114097297E+02  0.44476113441E+03  0.12699999809E+01 0.  1.
       -4    1    3    3    0  502  0.56668363862E+02 -0.43850266129E+03  0.17464840960E+03  0.47539411786E+03  0.12699999809E+01 0. -1.
</event>
<event>
 5   0  0.6092779E-03  0.9042969E+03  0.7818609E-02  0.9420226E-01
       -1   -1    0    0    0  501  0.00000000000E+00  0.00000000000E+00  0.48320024413E+03  0.48320024416E+03  0.50400001928E-02 0.  1.
        1   -1    0    0  501    0  0.00000000000E+00  0.00000000000E+00 -0.42309212225E+03  0.42309212228E+03  0.50400001928E-02 0. -1.
    10030    2    1    2    0    0  0.00000000000E+00  0.00000000000E+00  0.60108121882E+02  0.90629236644E+03  0.90429689104E+03 0.  0.
        2    1    3    3  502    0 -0.36310559509E+03  0.60251779697E+02  0.29324022116E+03  0.47060150601E+03  0.25500000920E-02 0.  1.
       -2    1    3    3    0  502  0.36310559509E+03 -0.60251779697E+02 -0.23313209928E+03  0.43569086043E+03  0.25500000920E-02 0. -1.
</event>
<event>
 5   0  0.1033749E-02  0.9009354E+03  0.7818609E-02  0.9424413E-01
       -2   -1    0    0    0  501  0.00000000000E+00  0.00000000000E+00  0.32532509591E+03  0.32532509592E+03  0.25500000920E-02 0. -1.
        2   -1    0    0  501    0  0.00000000000E+00  0.00000000000E+00 -0.62374885575E+03  0.62374885576E+03  0.25500000920E-02 0.  1.
    10030    2    1    2    0    0  0.00000000000E+00  0.00000000000E+00 -0.29842375984E+03  0.94907395168E+03  0.90093541684E+03 0.  0.
        5    1    3    3  502    0 -0.39953229990E+03 -0.64903270781E+02  0.58985710823E+02  0.40907199526E+03  0.46999998093E+01 0. -1.
       -5    1    3    3    0  502  0.39953229990E+03  0.64903270781E+02 -0.35740947066E+03  0.54000195642E+03  0.46999998093E+01 0.  1.
</event>
<event>
 5   0  0.1033749E-02  0.8998503E+03  0.7818609E-02  0.9425769E-01
        2   -1    0    0  501    0  0.00000000000E+00  0.00000000000E+00  0.44170537192E+03  0.44170537193E+03  0.25500000920E-02 0. -1.
       -2   -1    0    0    0  501  0.00000000000E+00  0.00000000000E+00 -0.45829787386E+03  0.45829787387E+03  0.25500000920E-02 0.  1.
    10030    2    1    2    0    0  0.00000000000E+00  0.00000000000E+00 -0.16592501935E+02  0.90000324580E+03  0.89985028273E+03 0.  0.
        5    1    3    3  502    0  0.80706358593E+01  0.14070731322E+03 -0.43562390772E+03  0.45787985557E+03  0.46999998093E+01 0.  1.
       -5    1    3    3    0  502 -0.80706358593E+01 -0.14070731322E+03  0.41903140579E+03  0.44212339023E+03  0.46999998093E+01 0. -1.
</event>
<event>
 5   0  0.1028978E-02  0.9024878E+03  0.7818609E-02  0.9422477E-01
       -2   -1    0    0    0  501  0.00000000000E+00  0.00000000000E+00  0.26683770040E+03  0.26683770042E+03  0.25500000920E-02 0.  1.
        2   -1    0    0  501    0  0.00000000000E+00  0.00000000000E+00 -0.76308951729E+03  0.76308951730E+03  0.25500000920E-02 0. -1.
    10030    2    1    2    0    0  0.00000000000E+00  0.00000000000E+00 -0.49625181689E+03  0.10299272177E+04  0.90248778830E+03 0.  0.
        3    1    3    3  502    0 -0.28376688297E+02 -0.22549551254E+03 -0.69300364643E+03  0.72931990702E+03  0.10100000352E+00 0. -1.
       -3    1    3    3    0  502  0.28376688297E+02  0.22549551254E+03  0.19675182954E+03  0.30060731069E+03  0.10100000352E+00 0.  1.
</event>
<event>
 5   0  0.1033749E-02  0.9116393E+03  0.7818609E-02  0.9411148E-01
        2   -1    0    0  501    0  0.00000000000E+00  0.00000000000E+00  0.99864657158E+03  0.99864657158E+03  0.25500000920E-02 0.  1.
       -2   -1    0    0    0  501  0.00000000000E+00  0.00000000000E+00 -0.20805313396E+03  0.20805313398E+03  0.25500000920E-02 0. -1.
    10030    2    1    2    0    0  0.00000000000E+00  0.00000000000E+00  0.79059343761E+03  0.12066997056E+04  0.91163929040E+03 0.  0.
        5    1    3    3  502    0  0.19651653422E+03 -0.38990690561E+03  0.56840439573E+03  0.71676480825E+03  0.46999998093E+01 0.  1.
       -5    1    3    3    0  502 -0.19651653422E+03  0.38990690561E+03  0.22218904188E+03  0.48993489730E+03  0.46999998093E+01 0. -1.
</event>
<event>
 5   0  0.1003252E-02  0.8923514E+03  0.7818609E-02  0.9435193E-01
       -2   -1    0    0    0  501  0.00000000000E+00  0.00000000000E+00  0.30826055717E+03  0.30826055718E+03  0.25500000920E-02 0. -1.
        2   -1    0    0  501    0  0.00000000000E+00  0.00000000000E+00 -0.64579373472E+03  0.64579373472E+03  0.25500000920E-02 0.  1.
    10030    2    1    2    0    0  0.00000000000E+00  0.00000000000E+00 -0.33753317754E+03  0.95405429190E+03  0.89235135791E+03 0.  0.
        2    1    3    3  502    0  0.17557442346E+03  0.34237933703E+03 -0.41026769414E+03  0.56246739413E+03  0.25500000920E-02 0.  1.
       -2    1    3    3    0  502 -0.17557442346E+03 -0.34237933703E+03  0.72734516601E+02  0.39158689777E+03  0.25500000920E-02 0. -1.
</event>
<event>
 5   0  0.1033749E-02  0.9076265E+03  0.7818609E-02  0.9416098E-01
       -2   -1    0    0    0  501  0.00000000000E+00  0.00000000000E+00  0.17533824988E+03  0.17533824990E+03  0.25500000920E-02 0.  1.
        2   -1    0    0  501    0  0.00000000000E+00  0.00000000000E+00 -0.11745666928E+04  0.11745666928E+04  0.25500000920E-02 0. -1.
    10030    2    1    2    0    0  0.00000000000E+00  0.00000000000E+00 -0.99922844296E+03  0.13499049427E+04  0.90762650536E+03 0.  0.
        5    1    3    3  502    0 -0.25553490952E+03  0.34254274281E+03 -0.27263409906E+03  0.50693694144E+03  0.46999998093E+01 0. -1.
       -5    1    3    3    0  502  0.25553490952E+03 -0.34254274281E+03 -0.72659434390E+03  0.84296800130E+03  0.46999998093E+01 0.  1.
</event>
<event>
 5   0  0.1003252E-02  0.9269705E+03  0.7818609E-02  0.9392481E-01
        2   -1    0    0  501    0  0.00000000000E+00  0.00000000000E+00  0.86262798485E+03  0.86262798485E+03  0.25500000920E-02 0. -1.
       -2   -1    0    0    0  501  0.00000000000E+00  0.00000000000E+00 -0.24902804190E+03  0.24902804191E+03  0.25500000920E-02 0.  1.
    10030    2    1    2    0    0  0.00000000000E+00  0.00000000000E+00  0.61359994295E+03  0.11116560268E+04  0.92697045899E+03 0.  0.
        2    1    3    3  502    0  0.15038201315E+03 -0.43730690787E+03  0.34408205373E+03  0.57640657635E+03  0.25500000920E-02 0. -1.
       -2    1    3    3    0  502 -0.15038201315E+03  0.43730690787E+03  0.26951788922E+03  0.53524945041E+03  0.25500000920E-02 0.  1.
</event>
<event>
 5   0  0.1041727E-02  0.8928641E+03  0.7818609E-02  0.9434546E-01
        2   -1    0    0  501    0  0.00000000000E+00  0.00000000000E+00  0.74876084509E+03  0.74876084509E+03  0.25500000920E-02 0. -1.
       -2   -1    0    0    0  501  0.00000000000E+00  0.00000000000E+00 -0.26617520298E+03  0.26617520299E+03  0.25500000920E-02 0.  1.
    10030    2    1    2    0    0  0.00000000000E+00  0.00000000000E+00  0.48258564210E+03  0.10149360481E+04  0.89286408805E+03 0.  0.
        4    1    3    3  502    0 -0.30951412663E+03  0.32634938911E+02  0.60510686971E+03  0.68045570796E+03  0.12699999809E+01 0. -1.
       -4    1    3    3    0  502  0.30951412663E+03 -0.32634938911E+02 -0.12252122761E+03  0.33448034013E+03  0.12699999809E+01 0.  1.
</event>
<event>
 5   0  0.1017079E-02  0.8685040E+03  0.7818609E-02  0.9465833E-01
       -2   -1    0    0    0  501  0.00000000000E+00  0.00000000000E+00  0.23400070872E+03  0.23400070874E+03  0.25500000920E-02 0.  1.
        2   -1    0    0  501    0  0.00000000000E+00  0.00000000000E+00 -0.80587269468E+03  0.80587269469E+03  0.25500000920E-02 0. -1.
    10030    2    1    2    0    0  0.00000000000E+00  0.00000000000E+00 -0.57187198596E+03  0.10398734034E+04  0.86850395901E+03 0.  0.
        1    1    3    3  502    0  0.17390203601E+02  0.36347851613E+03 -0.56966628810E+03  0.67597243338E+03  0.50400001928E-02 0. -1.
       -1    1    3    3    0  502 -0.17390203601E+02 -0.36347851613E+03 -0.22056978646E+01  0.36390097004E+03  0.50400001928E-02 0.  1.
</event>
<event>
 5   0  0.6288003E-03  0.8968275E+03  0.7818609E-02  0.9429556E-01
       -1   -1    0    0    0  501  0.00000000000E+00  0.00000000000E+00  0.34141220851E+03  0.34141220854E+03  0.50400001928E-02 0. -1.
        1   -1    0    0  501    0  0.00000000000E+00  0.00000000000E+00 -0.58895051429E+03  0.58895051432E+03  0.50400001928E-02 0.  1.
    10030    2    1    2    0    0  0.00000000000E+00  0.00000000000E+00 -0.24753830579E+03  0.93036272286E+03  0.89682751031E+03 0.  0.
        1    1    3    3  502    0 -0.28440175632E+03  0.23694753668E+03 -0.38630629087E+03  0.53503368542E+03  0.50400001928E-02 0.  1.
       -1    1    3    3    0  502  0.28440175632E+03 -0.23694753668E+03  0.13876798508E+03  0.39532903744E+03  0.50400001928E-02 0. -1.
</event>
<event>
 5   0  0.6211218E-03  0.9010421E+03  0.7818609E-02  0.9424280E-01
       -1   -1    0    0    0  501  0.00000000000E+00  0.00000000000E+00  0.36672683656E+03  0.36672683660E+03  0.50400001928E-02 0.  1.
        1   -1    0    0  501    0  0.00000000000E+00  0.00000000000E+00 -0.55346164069E+03  0.55346164072E+03  0.50400001928E-02 0. -1.
    10030    2    1    2    0    0  0.00000000000E+00  0.00000000000E+00 -0.18673480413E+03  0.92018847731E+03  0.90104214480E+03 0.  0.
        5    1    3    3  502    0  0.30396328160E+03 -0.19729539915E+03 -0.36668845487E+03  0.51555956399E+03  0.46999998093E+01 0. -1.
       -5    1    3    3    0  502 -0.30396328160E+03  0.19729539915E+03  0.17995365074E+03  0.40462891332E+03  0.46999998093E+01 0.  1.
</event>
<event>
 5   0  0.6092779E-03  0.9004845E+03  0.7818609E-02  0.9424976E-01
       -1   -1    0    0    0  501  0.00000000000E+00  0.00000000000E+00  0.74701245751E+03  0.74701245753E+03  0.50400001928E-02 0. -1.
        1   -1    0    0  501    0  0.00000000000E+00  0.00000000000E+00 -0.27137176764E+03  0.27137176769E+03  0.50400001928E-02 0.  1.
    10030    2    1    2    0    0  0.00000000000E+00  0.00000000000E+00  0.47564068987E+03  0.10183842252E+04  0.90048451642E+03 0.  0.
        2    1    3    3  502    0 -0.24979861403E+03  0.28905307680E+03 -0.31633027679E+02  0.38334276728E+03  0.25500000920E-02 0.  1.
       -2    1    3    3    0  502  0.24979861403E+03 -0.28905307680E+03  0.50727371755E+03  0.63504145794E+03  0.25500000920E-02 0. -1.
</event>
<event>
 5   0  0.6211218E-03  0.9073116E+03  0.7818609E-02  0.9416488E-01
        1   -1    0    0  501    0  0.00000000000E+00  0.00000000000E+00  0.10421351471E+04  0.10421351471E+04  0.50400001928E-02 0.  1.
       -1   -1    0    0    0  501  0.00000000000E+00  0.00000000000E+00 -0.19748260486E+03  0.19748260492E+03  0.50400001928E-02 0. -1.
    10030    2    1    2    0    0  0.00000000000E+00  0.00000000000E+00  0.84465254225E+03  0.12396177520E+04  0.90731155291E+03 0.  0.
        5    1    3    3  502    0  0.35401351634E+02 -0.31143875955E+03  0.87035357576E+03  0.92508637083E+03  0.46999998093E+01 0.  1.
       -5    1    3    3    0  502 -0.35401351634E+02  0.31143875955E+03 -0.25701033516E+02  0.31453138121E+03  0.46999998093E+01 0. -1.
</event>
<event>
 5   0  0.1017079E-02  0.8036277E+03  0.7818609E-02  0.9554781E-01
        2   -1    0    0  501    0  0.00000000000E+00  0.00000000000E+00  0.68599352303E+03  0.68599352304E+03  0.25500000920E-02 0.  1.
       -2   -1    0    0    0  501  0.00000000000E+00  0.00000000000E+00 -0.23535845901E+03  0.23535845903E+03  0.25500000920E-02 0. -1.
    10030    2    1    2    0    0  0.00000000000E+00  0.00000000000E+00  0.45063506402E+03  0.92135198207E+03  0.80362772098E+03 0.  0.
        1    1    3    3  502    0  0.20835883593E+03  0.21890902623E+03  0.52891003119E+03  0.60916367865E+03  0.50400001928E-02 0.  1.
       -1    1    3    3    0  502 -0.20835883593E+03 -0.21890902623E+03 -0.78274967167E+02  0.31218830341E+03  0.50400001928E-02 0. -1.
</event>
<event>
 5   0  0.1041727E-02  0.9269546E+03  0.7818609E-02  0.9392500E-01
        2   -1    0    0  501    0  0.00000000000E+00  0.00000000000E+00  0.11483470589E+04  0.11483470589E+04  0.25500000920E-02 0.  1.
       -2   -1    0    0    0  501  0.00000000000E+00  0.00000000000E+00 -0.18706123807E+03  0.18706123809E+03  0.25500000920E-02 0. -1.
    10030    2    1    2    0    0  0.00000000000E+00  0.00000000000E+00  0.96128582087E+03  0.13354082970E+04  0.92695463233E+03 0.  0.
        4    1    3    3  502    0  0.40231216134E+03 -0.22228088886E+03  0.39485835703E+03  0.60595264149E+03  0.12699999809E+01 0.  1.
       -4    1    3    3    0  502 -0.40231216134E+03  0.22228088886E+03  0.56642746384E+03  0.72945565554E+03  0.12699999809E+01 0. -1.
</event>
<event>
 5   0  0.6137243E-03  0.8921947E+03  0.7818609E-02  0.9435391E-01
       -1   -1    0    0    0  501  0.00000000000E+00  0.00000000000E+00  0.27489221518E+03  0.27489221522E+03  0.50400001928E-02 0.  1.
        1   -1    0    0  501    0  0.00000000000E+00  0.00000000000E+00 -0.72393048061E+03  0.72393048063E+03  0.50400001928E-02 0. -1.
    10030    2    1    2    0    0  0.00000000000E+00  0.00000000000E+00 -0.44903826543E+03  0.99882269585E+03  0.89219471750E+03 0.  0.
        4    1    3    3  502    0 -0.24200819849E+03 -0.12648421828E+03 -0.61943088366E+03  0.67695085356E+03  0.12699999809E+01 0. -1.
       -4    1    3    3    0  502  0.24200819849E+03  0.12648421828E+03  0.17039261823E+03  0.32187184229E+03  0.12699999809E+01 0.  1.
</event>
<event>
 5   0  0.6092779E-03  0.9024818E+03  0.7818609E-02  0.9422484E-01
        1   -1    0    0  501    0  0.00000000000E+00  0.00000000000E+00  0.10230517238E+04  0.10230517238E+04  0.50400001928E-02 0.  1.
       -1   -1    0    0    0  501  0.00000000000E+00  0.00000000000E+00 -0.19903035198E+03  0.19903035204E+03  0.50400001928E-02 0. -1.
    10030    2    1    2    0    0  0.00000000000E+00  0.00000000000E+00  0.82402137179E+03  0.12220820758E+04  0.90248178867E+03 0.  0.
        2    1    3    3  502    0  0.32557911299E+03 -0.22699835420E+02  0.83397376924E+03  0.89556087963E+03  0.25500000920E-02 0.  1.
       -2    1    3    3    0  502 -0.32557911299E+03  0.22699835420E+02 -0.99523974460E+01  0.32652119619E+03  0.25500000920E-02 0. -1.
</event>
<event>
 5   0  0.6092779E-03  0.9000571E+03  0.7818609E-02  0.9425510E-01
       -1   -1    0    0    0  501  0.00000000000E+00  0.00000000000E+00  0.46488718242E+03  0.46488718244E+03  0.50400001928E-02 0.  1.
        1   -1    0    0  501    0  0.00000000000E+00  0.00000000000E+00 -0.43564483611E+03  0.43564483614E+03  0.50400001928E-02 0. -1.
    10030    2    1    2    0    0  0.00000000000E+00  0.00000000000E+00  0.29242346305E+02  0.90053201859E+03  0.90005711023E+03 0.  0.
        2    1    3    3  502    0 -0.62633720844E+02 -0.43313158232E+03  0.11955620426E+03  0.45367349115E+03  0.25500000920E-02 0.  1.
       -2    1    3    3    0  502  0.62633720844E+02  0.43313158232E+03 -0.90313857957E+02  0.44685852743E+03  0.25500000920E-02 0. -1.
</event>
<event>
 5   0  0.1003252E-02  0.9321836E+03  0.7818609E-02  0.9386221E-01
        2   -1    0    0  501    0  0.00000000000E+00  0.00000000000E+00  0.70826359406E+03  0.70826359406E+03  0.25500000920E-02 0.  1.
       -2   -1    0    0    0  501  0.00000000000E+00  0.00000000000E+00 -0.30672418585E+03  0.30672418586E+03  0.25500000920E-02 0. -1.
    10030    2    1    2    0    0  0.00000000000E+00  0.00000000000E+00  0.40153940821E+03  0.10149877799E+04  0.93218361767E+03 0.  0.
        2    1    3    3  502    0 -0.29300114881E+03  0.25768494402E+03  0.47834694478E+03  0.61730624747E+03  0.25500000920E-02 0.  1.
       -2    1    3    3    0  502  0.29300114881E+03 -0.25768494402E+03 -0.76807536574E+02  0.39768153245E+03  0.25500000920E-02 0. -1.
</event>
<event>
 5   0  0.6288003E-03  0.8835974E+03  0.7818609E-02  0.9446321E-01
        1   -1    0    0  501    0  0.00000000000E+00  0.00000000000E+00  0.10734600196E+04  0.10734600196E+04  0.50400001928E-02 0. -1.
       -1   -1    0    0    0  501  0.00000000000E+00  0.00000000000E+00 -0.18182893136E+03  0.18182893143E+03  0.50400001928E-02 0.  1.
    10030    2    1    2    0    0  0.00000000000E+00  0.00000000000E+00  0.89163108824E+03  0.12552889510E+04  0.88359739310E+03 0.  0.
        1    1    3    3  502    0 -0.38264718161E+03 -0.19011144193E+03  0.60544116713E+03  0.74102647242E+03  0.50400001928E-02 0. -1.
       -1    1    3    3    0  502  0.38264718161E+03  0.19011144193E+03  0.28618992111E+03  0.51426247862E+03  0.50400001928E-02 0.  1.
</event>
<event>
 5   0  0.6092779E-03  0.8970905E+03  0.7818609E-02  0.9429226E-01
        1   -1    0    0  501    0  0.00000000000E+00  0.00000000000E+00  0.56150927453E+03  0.56150927455E+03  0.50400001928E-02 0.  1.
       -1   -1    0    0    0  501  0.00000000000E+00  0.00000000000E+00 -0.35830727190E+03  0.35830727194E+03  0.50400001928E-02 0. -1.
    10030    2    1    2    0    0  0.00000000000E+00  0.00000000000E+00  0.20320200263E+03  0.91981654649E+03  0.89709053351E+03 0.  0.
        2    1    3    3  502    0 -0.14755992842E+03  0.16980606656E+03  0.49948415011E+03  0.54780694495E+03  0.25500000920E-02 0.  1.
       -2    1    3    3    0  502  0.14755992842E+03 -0.16980606656E+03 -0.29628214748E+03  0.37200960154E+03  0.25500000920E-02 0. -1.
</event>
<event>
 5   0  0.6015709E-03  0.9300736E+03  0.7818609E-02  0.9388750E-01
       -1   -1    0    0    0  501  0.00000000000E+00  0.00000000000E+00  0.74606725909E+03  0.74606725911E+03  0.50400001928E-02 0.  1.
        1   -1    0    0  501    0  0.00000000000E+00  0.00000000000E+00 -0.28986559412E+03  0.28986559416E+03  0.50400001928E-02 0. -1.
    10030    2    1    2    0    0  0.00000000000E+00  0.00000000000E+00  0.45620166497E+03  0.10359328533E+04  0.93007360857E+03 0.  0.
        3    1    3    3  502    0  0.41840364662E+03 -0.68160134385E+02  0.44104644267E+03  0.61174291186E+03  0.10100000352E+00 0.  1.
       -3    1    3    3    0  502 -0.41840364662E+03  0.68160134385E+02  0.15155222300E+02  0.42418994140E+03  0.10100000352E+00 0. -1.
</event>
<event>
 5   0  0.6137243E-03  0.8929773E+03  0.7818609E-02  0.9434403E-01
        1   -1    0    0  501    0  0.00000000000E+00  0.00000000000E+00  0.91721788984E+03  0.91721788985E+03  0.50400001928E-02 0. -1.
       -1   -1    0    0    0  501  0.00000000000E+00  0.00000000000E+00 -0.21734431428E+03  0.21734431433E+03  0.50400001928E-02 0.  1.
    10030    2    1    2    0    0  0.00000000000E+00  0.00000000000E+00  0.69987357556E+03  0.11345622042E+04  0.89297725245E+03 0.  0.
        4    1    3    3  502    0  0.24600736086E+03  0.13022367957E+03  0.79348521840E+03  0.84089133248E+03  0.12699999809E+01 0. -1.
       -4    1    3    3    0  502 -0.24600736086E+03 -0.13022367957E+03 -0.93611642836E+02  0.29367087171E+03  0.12699999809E+01 0.  1.
</event>
<event>
 5   0  0.1041727E-02  0.9110737E+03  0.7818609E-02  0.9411844E-01
       -2   -1    0    0    0  501  0.00000000000E+00  0.00000000000E+00  0.24655599752E+03  0.24655599753E+03  0.25500000920E-02 0. -1.
        2   -1    0    0  501    0  0.00000000000E+00  0.00000000000E+00 -0.84164989692E+03  0.84164989692E+03  0.25500000920E-02 0.  1.
    10030    2    1    2    0    0  0.00000000000E+00  0.00000000000E+00 -0.59509389940E+03  0.10882058945E+04  0.91107371799E+03 0.  0.
        4    1    3    3  502    0 -0.50706752376E+02 -0.44734719551E+03 -0.38048425951E+03  0.58945786338E+03  0.12699999809E+01 0. -1.
       -4    1    3    3    0  502  0.50706752376E+02  0.44734719551E+03 -0.21460963989E+03  0.49874803107E+03  0.12699999809E+01 0.  1.
</event>
<event>
 5   0  0.1003252E-02  0.8979211E+03  0.7818609E-02  0.9428184E-01
        2   -1    0    0  501    0  0.00000000000E+00  0.00000000000E+00  0.12191203386E+04  0.12191203386E+04  0.25500000920E-02 0. -1.
       -2   -1    0    0    0  501  0.00000000000E+00  0.00000000000E+00 -0.16533691088E+03  0.16533691090E+03  0.25500000920E-02 0.  1.
    10030    2    1    2    0    0  0.00000000000E+00  0.00000000000E+00  0.10537834277E+04  0.13844572495E+04  0.89792113416E+03 0.  0.
        2    1    3    3  502    0  0.15084830903E+03 -0.38318901431E+03  0.80260469338E+03  0.90208831434E+03  0.25500000920E-02 0. -1.
       -2    1    3    3    0  502 -0.15084830903E+03  0.38318901431E+03  0.25117873433E+03  0.48236893516E+03  0.25500000920E-02 0.  1.
</event>
<event>
 5   0  0.1033749E-02  0.9074526E+03  0.7818609E-02  0.9416313E-01
       -2   -1    0    0    0  501  0.00000000000E+00  0.00000000000E+00  0.39475943877E+03  0.39475943878E+03  0.25500000920E-02 0.  1.
        2   -1    0    0  501    0  0.00000000000E+00  0.00000000000E+00 -0.52150129068E+03  0.52150129069E+03  0.25500000920E-02 0. -1.
    10030    2    1    2    0    0  0.00000000000E+00  0.00000000000E+00 -0.12674185191E+03  0.91626072946E+03  0.90745260335E+03 0.  0.
        5    1    3    3  502    0  0.41132121214E+03  0.25264222821E+02  0.12826605157E+03  0.43162216172E+03  0.46999998093E+01 0.  1.
       -5    1    3    3    0  502 -0.41132121214E+03 -0.25264222821E+02 -0.25500790348E+03  0.48463856774E+03  0.46999998093E+01 0. -1.
</event>
<event>
 5   0  0.1028978E-02  0.9010030E+03  0.7818609E-02  0.9424329E-01
       -2   -1    0    0    0  501  0.00000000000E+00  0.00000000000E+00  0.19749443945E+03  0.19749443947E+03  0.25500000920E-02 0. -1.
        2   -1    0    0  501    0  0.00000000000E+00  0.00000000000E+00 -0.10276319243E+04  0.10276319243E+04  0.25500000920E-02 0.  1.
    10030    2    1    2    0    0  0.00000000000E+00  0.00000000000E+00 -0.83013748484E+03  0.12251263638E+04  0.90100297638E+03 0.  0.
        3    1    3    3  502    0  0.15227361643E+03 -0.35264885513E+03 -0.95015863967E+02  0.39569747774E+03  0.10100000352E+00 0. -1.
       -3    1    3    3    0  502 -0.15227361643E+03  0.35264885513E+03 -0.73512162088E+03  0.82942888602E+03  0.10100000352E+00 0.  1.
</event>
<event>
 5   0  0.1017079E-02  0.9071575E+03  0.7818609E-02  0.9416678E-01
        2   -1    0    0  501    0  0.00000000000E+00  0.00000000000E+00  0.57960727042E+03  0.57960727042E+03  0.25500000920E-02 0.  1.
       -2   -1    0    0    0  501  0.00000000000E+00  0.00000000000E+00 -0.35495355626E+03  0.35495355627E+03  0.25500000920E-02 0. -1.
    10030    2    1    2    0    0  0.00000000000E+00  0.00000000000E+00  0.22465371416E+03  0.93456082669E+03  0.90715745464E+03 0.  0.
        1    1    3    3  502    0  0.70137617893E+02  0.25781000185E+03 -0.26528108081E+03  0.37650940806E+03  0.50400001928E-02 0.  1.
       -1    1    3    3    0  502 -0.70137617893E+02 -0.25781000185E+03  0.48993479496E+03  0.55805141863E+03  0.50400001928E-02 0. -1.
</event>
<event>
 5   0  0.6015709E-03  0.9147149E+03  0.7818609E-02  0.9407372E-01
        1   -1    0    0  501    0  0.00000000000E+00  0.00000000000E+00  0.36587883616E+03  0.36587883619E+03  0.50400001928E-02 0.  1.
       -1   -1    0    0    0  501  0.00000000000E+00  0.00000000000E+00 -0.57170790521E+03  0.57170790523E+03  0.50400001928E-02 0. -1.
    10030    2    1    2    0    0  0.00000000000E+00  0.00000000000E+00 -0.20582906905E+03  0.93758674142E+03  0.91471486924E+03 0.  0.
        3    1    3    3  502    0  0.33731582034E+03 -0.27566605184E+03  0.39859700422E+02  0.43745004367E+03  0.10100000352E+00 0. -1.
       -3    1    3    3    0  502 -0.33731582034E+03  0.27566605184E+03 -0.24568876947E+03  0.50013669775E+03  0.10100000352E+00 0.  1.
</event>
<event>
 5   0  0.6015709E-03  0.9090328E+03  0.7818609E-02  0.9414360E-01
        1   -1    0    0  501    0  0.00000000000E+00  0.00000000000E+00  0.20895394108E+04  0.20895394108E+04  0.50400001928E-02 0.  1.
       -1   -1    0    0    0  501  0.00000000000E+00  0.00000000000E+00 -0.98866360871E+02  0.98866360999E+02  0.50400001928E-02 0. -1.
    10030    2    1    2    0    0  0.00000000000E+00  0.00000000000E+00  0.19906730499E+04  0.21884057718E+04  0.90903279939E+03 0.  0.
        3    1    3    3  502    0  0.11977014646E+03 -0.23588786305E+03  0.10558414661E+03  0.28484380656E+03  0.10100000352E+00 0. -1.
       -3    1    3    3    0  502 -0.11977014646E+03  0.23588786305E+03  0.18850889033E+04  0.19035619653E+04  0.10100000352E+00 0.  1.
</event>
<event>
 5   0  0.1033749E-02  0.8982160E+03  0.7818609E-02  0.9427814E-01
        2   -1    0    0  501    0  0.00000000000E+00  0.00000000000E+00  0.16620503824E+04  0.16620503824E+04  0.25500000920E-02 0. -1.
       -2   -1    0    0    0  501  0.00000000000E+00  0.00000000000E+00 -0.12135491663E+03  0.12135491666E+03  0.25500000920E-02 0.  1.
    10030    2    1    2    0    0  0.00000000000E+00  0.00000000000E+00  0.15406954657E+04  0.17834052990E+04  0.89821597762E+03 0.  0.
        5    1    3    3  502    0 -0.18574305397E+03 -0.40579067754E+03  0.86980785566E+03  0.97762689808E+03  0.46999998093E+01 0.  1.
       -5    1    3    3    0  502  0.18574305397E+03  0.40579067754E+03  0.67088761007E+03  0.80577840094E+03  0.46999998093E+01 0. -1.
</event>
<event>
 5   0  0.6137243E-03  0.9079317E+03  0.7818609E-02  0.9415720E-01
        1   -1    0    0  501    0  0.00000000000E+00  0.00000000000E+00  0.37905302075E+03  0.37905302078E+03  0.50400001928E-02 0. -1.
       -1   -1    0    0    0  501  0.00000000000E+00  0.00000000000E+00 -0.54368379952E+03  0.54368379955E+03  0.50400001928E-02 0.  1.
    10030    2    1    2    0    0  0.00000000000E+00  0.00000000000E+00 -0.16463077878E+03  0.92273682033E+03  0.90793168590E+03 0.  0.
        4    1    3    3  502    0 -0.30191775770E+03  0.76884566382E+02  0.25324708963E+03  0.40149877991E+03  0.12699999809E+01 0. -1.
       -4    1    3    3    0  502  0.30191775770E+03 -0.76884566382E+02 -0.41787786841E+03  0.52123804041E+03  0.12699999809E+01 0.  1.
</event>
<event>
 5   0  0.1017079E-02  0.9129952E+03  0.7818609E-02  0.9409481E-01
       -2   -1    0    0    0  501  0.00000000000E+00  0.00000000000E+00  0.36079316490E+03  0.36079316490E+03  0.25500000920E-02 0.  1.
        2   -1    0    0  501    0  0.00000000000E+00  0.00000000000E+00 -0.57758873066E+03  0.57758873067E+03  0.25500000920E-02 0. -1.
    10030    2    1    2    0    0  0.00000000000E+00  0.00000000000E+00 -0.21679556576E+03  0.93838189557E+03  0.91299521609E+03 0.  0.
        1    1    3    3  502    0 -0.44260314152E+02 -0.40093528618E+03 -0.32807428832E+03  0.51994309092E+03  0.50400001928E-02 0. -1.
       -1    1    3    3    0  502  0.44260314152E+02  0.40093528618E+03  0.11127872256E+03  0.41843880465E+03  0.50400001928E-02 0.  1.
</event>
<event>
 5   0  0.1028978E-02  0.9010019E+03  0.7818609E-02  0.9424330E-01
       -2   -1    0    0    0  501  0.00000000000E+00  0.00000000000E+00  0.45305429115E+03  0.45305429116E+03  0.25500000920E-02 0. -1.
        2   -1    0    0  501    0  0.00000000000E+00  0.00000000000E+00 -0.44796201334E+03  0.44796201335E+03  0.25500000920E-02 0.  1.
    10030    2    1    2    0    0  0.00000000000E+00  0.00000000000E+00  0.50922778080E+01  0.90101630451E+03  0.90100191437E+03 0.  0.
        3    1    3    3  502    0 -0.46795644722E+02  0.11345720314E+03  0.43601440141E+03  0.45295798674E+03  0.10100000352E+00 0. -1.
       -3    1    3    3    0  502  0.46795644722E+02 -0.11345720314E+03 -0.43092212361E+03  0.44805831777E+03  0.10100000352E+00 0.  1.
</event>
<event>
 5   0  0.6288003E-03  0.8945790E+03  0.7818609E-02  0.9432383E-01
       -1   -1    0    0    0  501  0.00000000000E+00  0.00000000000E+00  0.38150782451E+03  0.38150782454E+03  0.50400001928E-02 0.  1.
        1   -1    0    0  501    0  0.00000000000E+00  0.00000000000E+00 -0.52441365950E+03  0.52441365952E+03  0.50400001928E-02 0. -1.
    10030    2    1    2    0    0  0.00000000000E+00  0.00000000000E+00 -0.14290583499E+03  0.90592148406E+03  0.89457903933E+03 0.  0.
        1    1    3    3  502    0 -0.40490198293E+03  0.70254621915E+02 -0.25028925348E+03  0.48117152671E+03  0.50400001928E-02 0.  1.
       -1    1    3    3    0  502  0.40490198293E+03 -0.70254621915E+02  0.10738341849E+03  0.42474995735E+03  0.50400001928E-02 0. -1.
</event>
<event>
 5   0  0.1028978E-02  0.8948485E+03  0.7818609E-02  0.9432044E-01
       -2   -1    0    0    0  501  0.00000000000E+00  0.00000000000E+00  0.29798942442E+03  0.29798942443E+03  0.25500000920E-02 0.  1.
        2   -1    0    0  501    0  0.00000000000E+00  0.00000000000E+00 -0.67179726328E+03  0.67179726329E+03  0.25500000920E-02 0. -1.
    10030    2    1    2    0    0  0.00000000000E+00  0.00000000000E+00 -0.37380783886E+03  0.96978668771E+03  0.89484854544E+03 0.  0.
        3    1    3    3  502    0 -0.28008992544E+02 -0.36652298468E+03  0.89535490398E+02  0.37833875853E+03  0.10100000352E+00 0.  1.
       -3    1    3    3    0  502  0.28008992544E+02  0.36652298468E+03 -0.46334332926E+03  0.59144792918E+03  0.10100000352E+00 0. -1.
</event>
<event>
 5   0  0.1017079E-02  0.9062928E+03  0.7818609E-02  0.9417749E-01
       -2   -1    0    0    0  501  0.00000000000E+00  0.00000000000E+00  0.56136677941E+03  0.56136677942E+03  0.25500000920E-02 0. -1.
        2   -1    0    0  501    0  0.00000000000E+00  0.00000000000E+00 -0.36578873493E+03  0.36578873494E+03  0.25500000920E-02 0.  1.
    10030    2    1    2    0    0  0.00000000000E+00  0.00000000000E+00  0.19557804448E+03  0.92715551435E+03  0.90629276523E+03 0.  0.
        1    1    3    3  502    0 -0.17617675741E+03  0.30927816167E+03  0.38469168307E+03  0.52409819899E+03  0.50400001928E-02 0. -1.
       -1    1    3    3    0  502  0.17617675741E+03 -0.30927816167E+03 -0.18911363859E+03  0.40305731536E+03  0.50400001928E-02 0.  1.
</event>
<event>
 5   0  0.6092779E-03  0.8847287E+03  0.7818609E-02  0.9444875E-01
        1   -1    0    0  501    0  0.00000000000E+00  0.00000000000E+00  0.94173839721E+03  0.94173839722E+03  0.50400001928E-02 0.  1.
       -1   -1    0    0    0  501  0.00000000000E+00  0.00000000000E+00 -0.20779254952E+03  0.20779254958E+03  0.50400001928E-02 0. -1.
    10030    2    1    2    0    0  0.00000000000E+00  0.00000000000E+00  0.73394584769E+03  0.11495309468E+04  0.88472871001E+03 0.  0.
        2    1    3    3  502    0  0.99519301808E+02 -0.62891938560E+02 -0.18706490320E+03  0.22102661691E+03  0.25500000920E-02 0. -1.
       -2    1    3    3    0  502 -0.99519301808E+02  0.62891938560E+02  0.92101075089E+03  0.92850432989E+03  0.25500000920E-02 0.  1.
</event>
<event>
 5   0  0.1041727E-02  0.8988493E+03  0.7818609E-02  0.9427021E-01
       -2   -1    0    0    0  501  0.00000000000E+00  0.00000000000E+00  0.22329683397E+03  0.22329683399E+03  0.25500000920E-02 0.  1.
        2   -1    0    0  501    0  0.00000000000E+00  0.00000000000E+00 -0.90454713371E+03  0.90454713372E+03  0.25500000920E-02 0. -1.
    10030    2    1    2    0    0  0.00000000000E+00  0.00000000000E+00 -0.68125029974E+03  0.11278439677E+04  0.89884928915E+03 0.  0.
        4    1    3    3  502    0  0.13648475920E+03  0.66205258206E+02  0.19020045524E+03  0.24328800172E+03  0.12699999809E+01 0.  1.
       -4    1    3    3    0  502 -0.13648475920E+03 -0.66205258206E+02 -0.87145075498E+03  0.88455596599E+03  0.12699999809E+01 0. -1.
</event>
<event>
 5   0  0.1003252E-02  0.8972563E+03  0.7818609E-02  0.9429018E-01
       -2   -1    0    0    0  501  0.00000000000E+00  0.00000000000E+00  0.19317450012E+03  0.19317450014E+03  0.25500000920E-02 0. -1.
        2   -1    0    0  501    0  0.00000000000E+00  0.00000000000E+00 -0.10418932066E+04  0.10418932066E+04  0.25500000920E-02 0.  1.
    10030    2    1    2    0    0  0.00000000000E+00  0.00000000000E+00 -0.84871870646E+03  0.12350677067E+04  0.89725626076E+03 0.  0.
        2    1    3    3  502    0  0.37883015754E+03 -0.67440425844E+02 -0.10684933628E+03  0.39934606543E+03  0.25500000920E-02 0. -1.
       -2    1    3    3    0  502 -0.37883015754E+03  0.67440425844E+02 -0.74186937018E+03  0.83572164129E+03  0.25500000920E-02 0.  1.
</event>
<event>
 5   0  0.6015709E-03  0.9015278E+03  0.7818609E-02  0.9423674E-01
        1   -1    0    0  501    0  0.00000000000E+00  0.00000000000E+00  0.47384655917E+03  0.47384655919E+03  0.50400001928E-02 0.  1.
       -1   -1    0    0    0  501  0.00000000000E+00  0.00000000000E+00 -0.42880566357E+03  0.42880566360E+03  0.50400001928E-02 0. -1.
    10030    2    1    2    0    0  0.00000000000E+00  0.00000000000E+00  0.45040895595E+02  0.90265222279E+03  0.90152778828E+03 0.  0.
        3    1    3    3  502    0 -0.34859350837E+03 -0.22633734028E+03 -0.15217367832E+03  0.44260915519E+03  0.10100000352E+00 0. -1.
       -3    1    3    3    0  502  0.34859350837E+03  0.22633734028E+03  0.19721457391E+03  0.46004306760E+03  0.10100000352E+00 0.  1.
</event>
<event>
 5   0  0.6137243E-03  0.8899548E+03  0.7818609E-02  0.9438226E-01
       -1   -1    0    0    0  501  0.00000000000E+00  0.00000000000E+00  0.78128707410E+03  0.78128707412E+03  0.50400001928E-02 0.  1.
        1   -1    0    0  501    0  0.00000000000E+00  0.00000000000E+00 -0.25343423328E+03  0.25343423333E+03  0.50400001928E-02 0. -1.
    10030    2    1    2    0    0  0.00000000000E+00  0.00000000000E+00  0.52785284082E+03  0.10347213074E+04  0.88995480926E+03 0.  0.
        4    1    3    3  502    0 -0.32427168337E+03  0.27605575300E+02  0.61675155649E+03  0.69735090719E+03  0.12699999809E+01 0.  1.
       -4    1    3    3    0  502  0.32427168337E+03 -0.27605575300E+02 -0.88898715664E+02  0.33737040026E+03  0.12699999809E+01 0. -1.
</event>
<event>
 5   0  0.6211218E-03  0.8967889E+03  0.7818609E-02  0.9429604E-01
        1   -1    0    0  501    0  0.00000000000E+00  0.00000000000E+00  0.13338864539E+04  0.13338864539E+04  0.50400001928E-02 0.  1.
       -1   -1    0    0    0  501  0.00000000000E+00  0.00000000000E+00 -0.15073066220E+03  0.15073066228E+03  0.50400001928E-02 0. -1.
    10030    2    1    2    0    0  0.00000000000E+00  0.00000000000E+00  0.11831557917E+04  0.14846171162E+04  0.89678891287E+03 0.  0.
        5    1    3    3  502    0 -0.41968816980E+03 -0.55284388921E+02  0.34691943230E+03  0.54732961371E+03  0.46999998093E+01 0. -1.
       -5    1    3    3    0  502  0.41968816980E+03  0.55284388921E+02  0.83623635939E+03  0.93728750248E+03  0.46999998093E+01 0.  1.
</event>
<event>
 5   0  0.6137243E-03  0.8982483E+03  0.7818609E-02  0.9427774E-01
       -1   -1    0    0    0  501  0.00000000000E+00  0.00000000000E+00  0.27423393981E+03  0.27423393986E+03  0.50400001928E-02 0. -1.
        1   -1    0    0  501    0  0.00000000000E+00  0.00000000000E+00 -0.73554907387E+03  0.73554907389E+03  0.50400001928E-02 0.  1.
    10030    2    1    2    0    0  0.00000000000E+00  0.00000000000E+00 -0.46131513406E+03  0.10097830137E+04  0.89824834090E+03 0.  0.
        4    1    3    3  502    0 -0.83041472628E+02  0.25616873968E+03  0.17340670706E+03  0.32029643819E+03  0.12699999809E+01 0. -1.
       -4    1    3    3    0  502  0.83041472628E+02 -0.25616873968E+03 -0.63472184113E+03  0.68948657555E+03  0.12699999809E+01 0.  1.
</event>
<event>
 5   0  0.6288003E-03  0.8958328E+03  0.7818609E-02  0.9430806E-01
        1   -1    0    0  501    0  0.00000000000E+00  0.00000000000E+00  0.52749446629E+03  0.52749446632E+03  0.50400001928E-02 0.  1.
       -1   -1    0    0    0  501  0.00000000000E+00  0.00000000000E+00 -0.38034352859E+03  0.38034352862E+03  0.50400001928E-02 0. -1.
    10030    2    1    2    0    0  0.00000000000E+00  0.00000000000E+00  0.14715093771E+03  0.90783799494E+03  0.89583281174E+03 0.  0.
        1    1    3    3  502    0  0.16045948497E+02 -0.37332196696E+03  0.32387189469E+03  0.49448940097E+03  0.50400001928E-02 0.  1.
       -1    1    3    3    0  502 -0.16045948497E+02  0.37332196696E+03 -0.17672095698E+03  0.41334859397E+03  0.50400001928E-02 0. -1.
</event>
<event>
 5   0  0.1033749E-02  0.9440979E+03  0.7818609E-02  0.9372076E-01
        2   -1    0    0  501    0  0.00000000000E+00  0.00000000000E+00  0.16772858508E+04  0.16772858508E+04  0.25500000920E-02 0. -1.
       -2   -1    0    0    0  501  0.00000000000E+00  0.00000000000E+00 -0.13285166414E+03  0.13285166416E+03  0.25500000920E-02 0.  1.
    10030    2    1    2    0    0  0.00000000000E+00  0.00000000000E+00  0.15444341867E+04  0.18101375150E+04  0.94409791131E+03 0.  0.
        5    1    3    3  502    0 -0.31563718196E+03 -0.23439765479E+03  0.27136329491E+03  0.47773341837E+03  0.46999998093E+01 0.  1.
       -5    1    3    3    0  502  0.31563718196E+03  0.23439765479E+03  0.12730708918E+04  0.13324040966E+04  0.46999998093E+01 0. -1.
</event>
<event>
 5   0  0.6137243E-03  0.7508380E+03  0.7818609E-02  0.9634037E-01
       -1   -1    0    0    0  501  0.00000000000E+00  0.00000000000E+00  0.18279179538E+03  0.18279179545E+03  0.50400001928E-02 0.  1.
        1   -1    0    0  501    0  0.00000000000E+00  0.00000000000E+00 -0.77103803192E+03  0.77103803193E+03  0.50400001928E-02 0. -1.
    10030    2    1    2    0    0  0.00000000000E+00  0.00000000000E+00 -0.58824623653E+03  0.95382982739E+03  0.75083800171E+03 0.  0.
        4    1    3    3  502    0  0.23622629503E+03 -0.18830217196E+03 -0.10981704579E+02  0.30229585039E+03  0.12699999809E+01 0.  1.
       -4    1    3    3    0  502 -0.23622629503E+03  0.18830217196E+03 -0.57726453195E+03  0.65153397700E+03  0.12699999809E+01 0. -1.
</event>
<event>
 5   0  0.3996375E-03  0.8882795E+03  0.7818609E-02  0.9440352E-01
        4   -1    0    0  501    0  0.00000000000E+00  0.00000000000E+00  0.30013226751E+03  0.30013495448E+03  0.12699999809E+01 0.  1.
       -4   -1    0    0    0  501  0.00000000000E+00  0.00000000000E+00 -0.65723767070E+03  0.65723889773E+03  0.12699999809E+01 0. -1.
    10030    2    1    2    0    0  0.00000000000E+00  0.00000000000E+00 -0.35710540319E+03  0.95737385221E+03  0.88827947399E+03 0.  0.
        4    1    3    3  502    0 -0.42118474215E+03 -0.13141221092E+03 -0.23343232947E+03  0.49915731141E+03  0.12699999809E+01 0. -1.
       -4    1    3    3    0  502  0.42118474215E+03  0.13141221092E+03 -0.12367307372E+03  0.45821654080E+03  0.12699999809E+01 0.  1.
</event>
<event>
 5   0  0.1028978E-02  0.8983719E+03  0.7818609E-02  0.9427619E-01
       -2   -1    0    0    0  501  0.00000000000E+00  0.00000000000E+00  0.35453311864E+03  0.35453311865E+03  0.25500000920E-02 0. -1.
        2   -1    0    0  501    0  0.00000000000E+00  0.00000000000E+00 -0.56910907275E+03  0.56910907276E+03  0.25500000920E-02 0.  1.
    10030    2    1    2    0    0  0.00000000000E+00  0.00000000000E+00 -0.21457595411E+03  0.92364219141E+03  0.89837189275E+03 0.  0.
        3    1    3    3  502    0 -0.75074901423E+02 -0.29754051318E+03 -0.44454156693E+03  0.54017017016E+03  0.10100000352E+00 0.  1.
       -3    1    3    3    0  502  0.75074901423E+02  0.29754051318E+03  0.22996561282E+03  0.38347202125E+03  0.10100000352E+00 0. -1.
</event>
<event>
 5   0  0.1028978E-02  0.8997218E+03  0.7818609E-02  0.9425929E-01
        2   -1    0    0  501    0  0.00000000000E+00  0.00000000000E+00  0.14594875402E+04  0.14594875402E+04  0.25500000920E-02 0. -1.
       -2   -1    0    0    0  501  0.00000000000E+00  0.00000000000E+00 -0.13866156399E+03  0.13866156401E+03  0.25500000920E-02 0.  1.
    10030    2    1    2    0    0  0.00000000000E+00  0.00000000000E+00  0.13208259762E+04  0.15981491042E+04  0.89972179026E+03 0.  0.
        3    1    3    3  502    0  0.20999665530E+03  0.10964573329E+03  0.13397151268E+04  0.13604989574E+04  0.10100000352E+00 0. -1.
       -3    1    3    3    0  502 -0.20999665530E+03 -0.10964573329E+03 -0.18889150545E+02  0.23765014680E+03  0.10100000352E+00 0.  1.
</event>
<event>
 5   0  0.6211218E-03  0.9223097E+03  0.7818609E-02  0.9398115E-01
        1   -1    0    0  501    0  0.00000000000E+00  0.00000000000E+00  0.24336062154E+04  0.24336062154E+04  0.50400001928E-02 0. -1.
       -1   -1    0    0    0  501  0.00000000000E+00  0.00000000000E+00 -0.87386285652E+02  0.87386285798E+02  0.50400001928E-02 0.  1.
    10030    2    1    2    0    0  0.00000000000E+00  0.00000000000E+00  0.23462199298E+04  0.25209925012E+04  0.92230972693E+03 0.  0.
        5    1    3    3  502    0 -0.33128132945E+03  0.30350955722E+03  0.88936343479E+03  0.99642098518E+03  0.46999998093E+01 0. -1.
       -5    1    3    3    0  502  0.33128132945E+03 -0.30350955722E+03  0.14568564950E+04  0.15245715160E+04  0.46999998093E+01 0.  1.
</event>
<event>
 5   0  0.1033749E-02  0.8992128E+03  0.7818609E-02  0.9426566E-01
       -2   -1    0    0    0  501  0.00000000000E+00  0.00000000000E+00  0.20838701518E+03  0.20838701520E+03  0.25500000920E-02 0. -1.
        2   -1    0    0  501    0  0.00000000000E+00  0.00000000000E+00 -0.97005050512E+03  0.97005050512E+03  0.25500000920E-02 0.  1.
    10030    2    1    2    0    0  0.00000000000E+00  0.00000000000E+00 -0.76166348994E+03  0.11784375203E+04  0.89921283209E+03 0.  0.
        5    1    3    3  502    0  0.38226074257E+03  0.22828007240E+03 -0.29910760880E+03  0.53639772409E+03  0.46999998093E+01 0. -1.
       -5    1    3    3    0  502 -0.38226074257E+03 -0.22828007240E+03 -0.46255588114E+03  0.64203979623E+03  0.46999998093E+01 0.  1.
</event>
<event>
 5   0  0.1028978E-02  0.8940589E+03  0.7818609E-02  0.9433039E-01
        2   -1    0    0  501    0  0.00000000000E+00  0.00000000000E+00  0.97695419338E+03  0.97695419338E+03  0.25500000920E-02 0. -1.
       -2   -1    0    0    0  501  0.00000000000E+00  0.00000000000E+00 -0.20454933454E+03  0.20454933455E+03  0.25500000920E-02 0.  1.
    10030    2    1    2    0    0  0.00000000000E+00  0.00000000000E+00  0.77240485884E+03  0.11815035279E+04  0.89405890218E+03 0.  0.
        3    1    3    3  502    0  0.12935393963E+03 -0.34425405416E+03  0.72206247232E+03  0.81031939360E+03  0.10100000352E+00 0.  1.
       -3    1    3    3    0  502 -0.12935393963E+03  0.34425405416E+03  0.50342386523E+02  0.37118413434E+03  0.10100000352E+00 0. -1.
</event>
<event>
 5   0  0.6015709E-03  0.8961719E+03  0.7818609E-02  0.9430379E-01
        1   -1    0    0  501    0  0.00000000000E+00  0.00000000000E+00  0.11431091270E+04  0.11431091270E+04  0.50400001928E-02 0. -1.
       -1   -1    0    0    0  501  0.00000000000E+00  0.00000000000E+00 -0.17564468225E+03  0.17564468232E+03  0.50400001928E-02 0.  1.
    10030    2    1    2    0    0  0.00000000000E+00  0.00000000000E+00  0.96746444476E+03  0.13187538093E+04  0.89617194655E+03 0.  0.
        3    1    3    3  502    0 -0.41315850068E+03 -0.10922684855E+03  0.28548020583E+03  0.51393521893E+03  0.10100000352E+00 0.  1.
       -3    1    3    3    0  502  0.41315850068E+03  0.10922684855E+03  0.68198423893E+03  0.80481859042E+03  0.10100000352E+00 0. -1.
</event>
<event>
 5   0  0.6015709E-03  0.9052874E+03  0.7818609E-02  0.9418996E-01
        1   -1    0    0  501    0  0.00000000000E+00  0.00000000000E+00  0.18521239550E+04  0.18521239550E+04  0.50400001928E-02 0.  1.
       -1   -1    0    0    0  501  0.00000000000E+00  0.00000000000E+00 -0.11062235447E+03  0.11062235458E+03  0.50400001928E-02 0. -1.
    10030    2    1    2    0    0  0.00000000000E+00  0.00000000000E+00  0.17415016005E+04  0.19627463096E+04  0.90528738594E+03 0.  0.
        3    1    3    3  502    0  0.14027522052E+03  0.11134644070E+03  0.17720387446E+04  0.17810661105E+04  0.10100000352E+00 0.  1.
       -3    1    3    3    0  502 -0.14027522052E+03 -0.11134644070E+03 -0.30537144142E+02  0.18168019903E+03  0.10100000352E+00 0. -1.
</event>
<event>
 5   0  0.6137243E-03  0.9047785E+03  0.7818609E-02  0.9419628E-01
       -1   -1    0    0    0  501  0.00000000000E+00  0.00000000000E+00  0.14871638597E+03  0.14871638606E+03  0.50400001928E-02 0.  1.
        1   -1    0    0  501    0  0.00000000000E+00  0.00000000000E+00 -0.13761498791E+04  0.13761498791E+04  0.50400001928E-02 0. -1.
    10030    2    1    2    0    0  0.00000000000E+00  0.00000000000E+00 -0.12274334932E+04  0.15248662652E+04  0.90477850693E+03 0.  0.
        4    1    3    3  502    0  0.44136523055E+03  0.89586700644E+02 -0.68572232350E+03  0.82039366253E+03  0.12699999809E+01 0. -1.
       -4    1    3    3    0  502 -0.44136523055E+03 -0.89586700644E+02 -0.54171116966E+03  0.70447260267E+03  0.12699999809E+01 0.  1.
</event>
<event>
 5   0  0.1017079E-02  0.8945847E+03  0.7818609E-02  0.9432376E-01
        2   -1    0    0  501    0  0.00000000000E+00  0.00000000000E+00  0.99038863656E+03  0.99038863656E+03  0.25500000920E-02 0. -1.
       -2   -1    0    0    0  501  0.00000000000E+00  0.00000000000E+00 -0.20201206194E+03  0.20201206195E+03  0.25500000920E-02 0.  1.
    10030    2    1    2    0    0  0.00000000000E+00  0.00000000000E+00  0.78837657462E+03  0.11924006985E+04  0.89458470947E+03 0.  0.
        1    1    3    3  502    0  0.38743424673E+03 -0.10531024049E+03  0.13138218834E+03  0.42244150095E+03  0.50400001928E-02 0.  1.
       -1    1    3    3    0  502 -0.38743424673E+03  0.10531024049E+03  0.65699438628E+03  0.76995919756E+03  0.50400001928E-02 0. -1.
</event>
<event>
 5   0  0.3996375E-03  0.9012182E+03  0.7818609E-02  0.9424060E-01
       -4   -1    0    0    0  501  0.00000000000E+00  0.00000000000E+00  0.49704344794E+03  0.49704507043E+03  0.12699999809E+01 0.  1.
        4   -1    0    0  501    0  0.00000000000E+00  0.00000000000E+00 -0.40850946370E+03  0.40851143782E+03  0.12699999809E+01 0. -1.
    10030    2    1    2    0    0  0.00000000000E+00  0.00000000000E+00  0.88533984238E+02  0.90555650825E+03  0.90121824398E+03 0.  0.
        2    1    3    3  502    0 -0.20475257172E+03  0.15052905859E+03 -0.32963441878E+03  0.41622285276E+03  0.25500000920E-02 0. -1.
       -2    1    3    3    0  502  0.20475257172E+03 -0.15052905859E+03  0.41816840302E+03  0.48933365549E+03  0.25500000920E-02 0.  1.
</event>
<event>
 5   0  0.1003252E-02  0.8289602E+03  0.7818609E-02  0.9519019E-01
       -2   -1    0    0    0  501  0.00000000000E+00  0.00000000000E+00  0.17503072355E+03  0.17503072357E+03  0.25500000920E-02 0. -1.
        2   -1    0    0  501    0  0.00000000000E+00  0.00000000000E+00 -0.98150619007E+03  0.98150619007E+03  0.25500000920E-02 0.  1.
    10030    2    1    2    0    0  0.00000000000E+00  0.00000000000E+00 -0.80647546652E+03  0.11565369136E+04  0.82896016461E+03 0.  0.
        2    1    3    3  502    0 -0.92257033320E+02  0.30247364100E+03 -0.29416392841E+02  0.31759563579E+03  0.25500000920E-02 0. -1.
       -2    1    3    3    0  502  0.92257033320E+02 -0.30247364100E+03 -0.77705907368E+03  0.83894127785E+03  0.25500000920E-02 0.  1.
</event>
<event>
 5   0  0.1028978E-02  0.8859113E+03  0.7818609E-02  0.9443366E-01
        2   -1    0    0  501    0  0.00000000000E+00  0.00000000000E+00  0.94354701087E+03  0.94354701087E+03  0.25500000920E-02 0. -1.
       -2   -1    0    0    0  501  0.00000000000E+00  0.00000000000E+00 -0.20794907669E+03  0.20794907671E+03  0.25500000920E-02 0.  1.
    10030    2    1    2    0    0  0.00000000000E+00  0.00000000000E+00  0.73559793417E+03  0.11514960876E+04  0.88591134937E+03 0.  0.
        3    1    3    3  502    0  0.76828372647E+02  0.30751155027E+03  0.76998543759E+03  0.83267252668E+03  0.10100000352E+00 0. -1.
       -3    1    3    3    0  502 -0.76828372647E+02 -0.30751155027E+03 -0.34387503416E+02  0.31882356090E+03  0.10100000352E+00 0.  1.
</event>
<event>
 5   0  0.6092779E-03  0.9058089E+03  0.7818609E-02  0.9418349E-01
       -1   -1    0    0    0  501  0.00000000000E+00  0.00000000000E+00  0.49329854619E+03  0.49329854621E+03  0.50400001928E-02 0.  1.
        1   -1    0    0  501    0  0.00000000000E+00  0.00000000000E+00 -0.41581802917E+03  0.41581802920E+03  0.50400001928E-02 0. -1.
    10030    2    1    2    0    0  0.00000000000E+00  0.00000000000E+00  0.77480517017E+02  0.90911657542E+03  0.90580887453E+03 0.  0.
        2    1    3    3  502    0 -0.11970610114E+03  0.43666924429E+03  0.49402125684E+02  0.45546695773E+03  0.25500000920E-02 0.  1.
       -2    1    3    3    0  502  0.11970610114E+03 -0.43666924429E+03  0.28078391333E+02  0.45364961768E+03  0.25500000920E-02 0. -1.
</event>
<event>
 5   0  0.6288003E-03  0.9019154E+03  0.7818609E-02  0.9423190E-01
        1   -1    0    0  501    0  0.00000000000E+00  0.00000000000E+00  0.18695189105E+03  0.18695189112E+03  0.50400001928E-02 0.  1.
       -1   -1    0    0    0  501  0.00000000000E+00  0.00000000000E+00 -0.10877817312E+04  0.10877817313E+04  0.50400001928E-02 0. -1.
    10030    2    1    2    0    0  0.00000000000E+00  0.00000000000E+00 -0.90082984019E+03  0.12747336224E+04  0.90191541012E+03 0.  0.
        1    1    3    3  502    0 -0.14943287392E+03  0.87520621102E+02  0.13808190769E+03  0.22148737251E+03  0.50400001928E-02 0.  1.
       -1    1    3    3    0  502  0.14943287392E+03 -0.87520621102E+02 -0.10389117479E+04  0.10532462499E+04  0.50400001928E-02 0. -1.
</event>
<event>
 5   0  0.1028978E-02  0.9082874E+03  0.7818609E-02  0.9415281E-01
        2   -1    0    0  501    0  0.00000000000E+00  0.00000000000E+00  0.10317708009E+04  0.10317708009E+04  0.25500000920E-02 0. -1.
       -2   -1    0    0    0  501  0.00000000000E+00  0.00000000000E+00 -0.19989567647E+03  0.19989567649E+03  0.25500000920E-02 0.  1.
    10030    2    1    2    0    0  0.00000000000E+00  0.00000000000E+00  0.83187512443E+03  0.12316664774E+04  0.90828744838E+03 0.  0.
        3    1    3    3  502    0 -0.44830037473E+03 -0.71570417124E+02  0.43259862906E+03  0.62708622586E+03  0.10100000352E+00 0.  1.
       -3    1    3    3    0  502  0.44830037473E+03  0.71570417124E+02  0.39927649537E+03  0.60458025153E+03  0.10100000352E+00 0. -1.
</event>
<event>
 5   0  0.1033749E-02  0.9118629E+03  0.7818609E-02  0.9410873E-01
        2   -1    0    0  501    0  0.00000000000E+00  0.00000000000E+00  0.49020833997E+03  0.49020833998E+03  0.25500000920E-02 0. -1.
       -2   -1    0    0    0  501  0.00000000000E+00  0.00000000000E+00 -0.42405127344E+03  0.42405127345E+03  0.25500000920E-02 0.  1.
    10030    2    1    2    0    0  0.00000000000E+00  0.00000000000E+00  0.66157066530E+02  0.91425961343E+03  0.91186286430E+03 0.  0.
        5    1    3    3  502    0 -0.29329505820E+03 -0.34506847972E+03  0.85724964975E+02  0.46093937397E+03  0.46999998093E+01 0.  1.
       -5    1    3    3    0  502  0.29329505820E+03  0.34506847972E+03 -0.19567898445E+02  0.45332023946E+03  0.46999998093E+01 0. -1.
</event>
<event>
 5   0  0.6015709E-03  0.8129695E+03  0.7818609E-02  0.9541432E-01
        1   -1    0    0  501    0  0.00000000000E+00  0.00000000000E+00  0.11380022671E+04  0.11380022671E+04  0.50400001928E-02 0. -1.
       -1   -1    0    0    0  501  0.00000000000E+00  0.00000000000E+00 -0.14519288798E+03  0.14519288807E+03  0.50400001928E-02 0.  1.
    10030    2    1    2    0    0  0.00000000000E+00  0.00000000000E+00  0.99280937912E+03  0.12831951552E+04  0.81296946006E+03 0.  0.
        3    1    3    3  502    0 -0.22827076478E+02 -0.35797786049E+03  0.79820879713E+03  0.87510371844E+03  0.10100000352E+00 0.  1.
       -3    1    3    3    0  502  0.22827076478E+02  0.35797786049E+03  0.19460058199E+03  0.40809143673E+03  0.10100000352E+00 0. -1.
</event>
<event>
 5   0  0.6092779E-03  0.9188527E+03  0.7818609E-02  0.9402317E-01
        1   -1    0    0  501    0  0.00000000000E+00  0.00000000000E+00  0.48731567126E+03  0.48731567129E+03  0.50400001928E-02 0. -1.
       -1   -1    0    0    0  501  0.00000000000E+00  0.00000000000E+00 -0.43313315418E+03  0.43313315421E+03  0.50400001928E-02 0.  1.
    10030    2    1    2    0    0  0.00000000000E+00  0.00000000000E+00  0.54182517078E+02  0.92044882550E+03  0.91885270594E+03 0.  0.
        2    1    3    3  502    0 -0.14190233404E+03  0.21125314917E+03 -0.35607600038E+03  0.43766914843E+03  0.25500000920E-02 0.  1.
       -2    1    3    3    0  502  0.14190233404E+03 -0.21125314917E+03  0.41025851745E+03  0.48277967707E+03  0.25500000920E-02 0. -1.
</event>
<event>
 5   0  0.6092779E-03  0.9340197E+03  0.7818609E-02  0.9384027E-01
       -1   -1    0    0    0  501  0.00000000000E+00  0.00000000000E+00  0.11323022971E+04  0.11323022971E+04  0.50400001928E-02 0. -1.
        1   -1    0    0  501    0  0.00000000000E+00  0.00000000000E+00 -0.19261482656E+03  0.19261482663E+03  0.50400001928E-02 0.  1.
    10030    2    1    2    0    0  0.00000000000E+00  0.00000000000E+00  0.93968747050E+03  0.13249171237E+04  0.93401972273E+03 0.  0.
        2    1    3    3  502    0  0.22930466020E+03 -0.21128386766E+03  0.96302206214E+03  0.10122415681E+04  0.25500000920E-02 0. -1.
       -2    1    3    3    0  502 -0.22930466020E+03  0.21128386766E+03 -0.23334591643E+02  0.31267555564E+03  0.25500000920E-02 0.  1.
</event>
<event>
 5   0  0.1041727E-02  0.9011998E+03  0.7818609E-02  0.9424083E-01
        2   -1    0    0  501    0  0.00000000000E+00  0.00000000000E+00  0.71210250436E+03  0.71210250437E+03  0.25500000920E-02 0.  1.
       -2   -1    0    0    0  501  0.00000000000E+00  0.00000000000E+00 -0.28512785040E+03  0.28512785041E+03  0.25500000920E-02 0. -1.
    10030    2    1    2    0    0  0.00000000000E+00  0.00000000000E+00  0.42697465396E+03  0.99723035478E+03  0.90119976996E+03 0.  0.
        4    1    3    3  502    0 -0.12036279995E+03 -0.41974185410E+03  0.33655045326E+03  0.55130594789E+03  0.12699999809E+01 0.  1.
       -4    1    3    3    0  502  0.12036279995E+03  0.41974185410E+03  0.90424200706E+02  0.44592440689E+03  0.12699999809E+01 0. -1.
</event>
<event>
 5   0  0.6211218E-03  0.9128633E+03  0.7818609E-02  0.9409643E-01
        1   -1    0    0  501    0  0.00000000000E+00  0.00000000000E+00  0.52126626831E+03  0.52126626834E+03  0.50400001928E-02 0.  1.
       -1   -1    0    0    0  501  0.00000000000E+00  0.00000000000E+00 -0.39966113673E+03  0.39966113676E+03  0.50400001928E-02 0. -1.
    10030    2    1    2    0    0  0.00000000000E+00  0.00000000000E+00  0.12160513158E+03  0.92092740510E+03  0.91286333996E+03 0.  0.
        5    1    3    3  502    0  0.31731234689E+03 -0.66544433209E+02 -0.26327105494E+03  0.41767095355E+03  0.46999998093E+01 0. -1.
       -5    1    3    3    0  502 -0.31731234689E+03  0.66544433209E+02  0.38487618652E+03  0.50325645155E+03  0.46999998093E+01 0.  1.
</event>
<event>
 5   0  0.1033749E-02  0.9082225E+03  0.7818609E-02  0.9415361E-01
        2   -1    0    0  501    0  0.00000000000E+00  0.00000000000E+00  0.56158784321E+03  0.56158784321E+03  0.25500000920E-02 0.  1.
       -2   -1    0    0    0  501  0.00000000000E+00  0.00000000000E+00 -0.36720349208E+03  0.36720349209E+03  0.25500000920E-02 0. -1.
    10030    2    1    2    0    0  0.00000000000E+00  0.00000000000E+00  0.19438435112E+03  0.92879133530E+03  0.90822247746E+03 0.  0.
        5    1    3    3  502    0  0.22303196840E+01  0.40050504841E+03 -0.12162965358E+03  0.41859900951E+03  0.46999998093E+01 0. -1.
       -5    1    3    3    0  502 -0.22303196840E+01 -0.40050504841E+03  0.31601400470E+03  0.51019232579E+03  0.46999998093E+01 0.  1.
</event>
<event>
 5   0  0.6092779E-03  0.8928235E+03  0.7818609E-02  0.9434597E-01
       -1   -1    0    0    0  501  0.00000000000E+00  0.00000000000E+00  0.31722104705E+03  0.31722104709E+03  0.50400001928E-02 0. -1.
        1   -1    0    0  501    0  0.00000000000E+00  0.00000000000E+00 -0.62821639315E+03  0.62821639317E+03  0.50400001928E-02 0.  1.
    10030    2    1    2    0    0  0.00000000000E+00  0.00000000000E+00 -0.31099534610E+03  0.94543744026E+03  0.89282352576E+03 0.  0.
        2    1    3    3  502    0 -0.25377664478E+03  0.70085072031E+00 -0.54440092134E+03  0.60064585222E+03  0.25500000920E-02 0.  1.
       -2    1    3    3    0  502  0.25377664478E+03 -0.70085072031E+00  0.23340557524E+03  0.34479158804E+03  0.25500000920E-02 0. -1.
</event>
<event>
 5   0  0.1017079E-02  0.9040137E+03  0.7818609E-02  0.9420578E-01
        2   -1    0    0  501    0  0.00000000000E+00  0.00000000000E+00  0.12219786369E+03  0.12219786371E+03  0.25500000920E-02 0. -1.
       -2   -1    0    0    0  501  0.00000000000E+00  0.00000000000E+00 -0.16719620084E+04  0.16719620084E+04  0.25500000920E-02 0.  1.
    10030    2    1    2    0    0  0.00000000000E+00  0.00000000000E+00 -0.15497641447E+04  0.17941598721E+04  0.90401368490E+03 0.  0.
        1    1    3    3  502    0  0.23599488253E+03 -0.37835420160E+03 -0.62816884764E+03  0.77035160000E+03  0.50400001928E-02 0.  1.
       -1    1    3    3    0  502 -0.23599488253E+03  0.37835420160E+03 -0.92159529708E+03  0.10238082721E+04  0.50400001928E-02 0. -1.
</event>
<event>
 5   0  0.6211218E-03  0.8920750E+03  0.7818609E-02  0.9435543E-01
        1   -1    0    0  501    0  0.00000000000E+00  0.00000000000E+00  0.18197040671E+03  0.18197040678E+03  0.50400001928E-02 0. -1.
       -1   -1    0    0    0  501  0.00000000000E+00  0.00000000000E+00 -0.10933065962E+04  0.10933065962E+04  0.50400001928E-02 0.  1.
    10030    2    1    2    0    0  0.00000000000E+00  0.00000000000E+00 -0.91133618948E+03  0.12752770030E+04  0.89207498793E+03 0.  0.
        5    1    3    3  502    0  0.11508097270E+03  0.30609722113E+03 -0.88924811949E+03  0.94748268959E+03  0.46999998093E+01 0.  1.
       -5    1    3    3    0  502 -0.11508097270E+03 -0.30609722113E+03 -0.22088069995E+02  0.32779431340E+03  0.46999998093E+01 0. -1.
</event>
<event>
 5   0  0.3996375E-03  0.9223706E+03  0.7818609E-02  0.9398041E-01
        4   -1    0    0  501    0  0.00000000000E+00  0.00000000000E+00  0.98452238891E+03  0.98452320804E+03  0.12699999809E+01 0.  1.
       -4   -1    0    0    0  501  0.00000000000E+00  0.00000000000E+00 -0.21603281334E+03  0.21603654631E+03  0.12699999809E+01 0. -1.
    10030    2    1    2    0    0  0.00000000000E+00  0.00000000000E+00  0.76848957557E+03  0.12005597543E+04  0.92237058496E+03 0.  0.
        3    1    3    3  502    0 -0.13804555903E+03  0.15640072341E+03 -0.15111441795E+03  0.25759142098E+03  0.10100000352E+00 0. -1.
       -3    1    3    3    0  502  0.13804555903E+03 -0.15640072341E+03  0.91960399351E+03  0.94296833337E+03  0.10100000352E+00 0.  1.
</event>
<event>
 5   0  0.1003252E-02  0.7484448E+03  0.7818609E-02  0.9637793E-01
        2   -1    0    0  501    0  0.00000000000E+00  0.00000000000E+00  0.71025117338E+03  0.71025117338E+03  0.25500000920E-02 0.  1.
       -2   -1    0    0    0  501  0.00000000000E+00  0.00000000000E+00 -0.19717307103E+03  0.19717307105E+03  0.25500000920E-02 0. -1.
    10030    2    1    2    0    0  0.00000000000E+00  0.00000000000E+00  0.51307810235E+03  0.90742424444E+03  0.74844480109E+03 0.  0.
        2    1    3    3  502    0  0.46352855048E+02  0.26997646633E+03  0.56566045691E+03  0.62849632622E+03  0.25500000920E-02 0. -1.
       -2    1    3    3    0  502 -0.46352855048E+02 -0.26997646633E+03 -0.52582354568E+02  0.27892791822E+03  0.25500000920E-02 0.  1.
</event>
<event>
 5   0  0.1003252E-02  0.8966916E+03  0.7818609E-02  0.9429727E-01
       -2   -1    0    0    0  501  0.00000000000E+00  0.00000000000E+00  0.15973233604E+03  0.15973233607E+03  0.25500000920E-02 0. -1.
        2   -1    0    0  501    0  0.00000000000E+00  0.00000000000E+00 -0.12584424260E+04  0.12584424260E+04  0.25500000920E-02 0.  1.
    10030    2    1    2    0    0  0.00000000000E+00  0.00000000000E+00 -0.10987100900E+04  0.14181747621E+04  0.89669158244E+03 0.  0.
        2    1    3    3  502    0 -0.24290246859E+02  0.40218219337E+03 -0.86037834530E+03  0.95004811974E+03  0.25500000920E-02 0. -1.
       -2    1    3    3    0  502  0.24290246859E+02 -0.40218219337E+03 -0.23833174469E+03  0.46812664236E+03  0.25500000920E-02 0.  1.
</event>
<event>
 5   0  0.1041727E-02  0.9071227E+03  0.7818609E-02  0.9416721E-01
        2   -1    0    0  501    0  0.00000000000E+00  0.00000000000E+00  0.10928421230E+04  0.10928421230E+04  0.25500000920E-02 0.  1.
       -2   -1    0    0    0  501  0.00000000000E+00  0.00000000000E+00 -0.18824120207E+03  0.18824120209E+03  0.25500000920E-02 0. -1.
    10030    2    1    2    0    0  0.00000000000E+00  0.00000000000E+00  0.90460092091E+03  0.12810833251E+04  0.90712273682E+03 0.  0.
        4    1    3    3  502    0  0.17357939261E+03  0.25800632373E+03 -0.13996825473E+02  0.31127896274E+03  0.12699999809E+01 0. -1.
       -4    1    3    3    0  502 -0.17357939261E+03 -0.25800632373E+03  0.91859774639E+03  0.96980436233E+03  0.12699999809E+01 0.  1.
</event>
<event>
 5   0  0.1003252E-02  0.8943313E+03  0.7818609E-02  0.9432695E-01
        2   -1    0    0  501    0  0.00000000000E+00  0.00000000000E+00  0.70725693169E+03  0.70725693169E+03  0.25500000920E-02 0.  1.
       -2   -1    0    0    0  501  0.00000000000E+00  0.00000000000E+00 -0.28272204314E+03  0.28272204315E+03  0.25500000920E-02 0. -1.
    10030    2    1    2    0    0  0.00000000000E+00  0.00000000000E+00  0.42453488855E+03  0.98997897484E+03  0.89433131390E+03 0.  0.
        2    1    3    3  502    0  0.25695469303E+03  0.33431801613E+03  0.37706113419E+03  0.56565833247E+03  0.25500000920E-02 0.  1.
       -2    1    3    3    0  502 -0.25695469303E+03 -0.33431801613E+03  0.47473754364E+02  0.42432064236E+03  0.25500000920E-02 0. -1.
</event>
<event>
 5   0  0.1003252E-02  0.9028480E+03  0.7818609E-02  0.9422028E-01
        2   -1    0    0  501    0  0.00000000000E+00  0.00000000000E+00  0.62425310144E+03  0.62425310145E+03  0.25500000920E-02 0. -1.
       -2   -1    0    0    0  501  0.00000000000E+00  0.00000000000E+00 -0.32644388536E+03  0.32644388537E+03  0.25500000920E-02 0.  1.
    10030    2    1    2    0    0  0.00000000000E+00  0.00000000000E+00  0.29780921608E+03  0.95069698682E+03  0.90284795595E+03 0.  0.
        2    1    3    3  502    0 -0.39891078172E+03 -0.12745897338E+03 -0.28574760757E+02  0.41975244922E+03  0.25500000920E-02 0.  1.
       -2    1    3    3    0  502  0.39891078172E+03  0.12745897338E+03  0.32638397683E+03  0.53094453760E+03  0.25500000920E-02 0. -1.
</event>
<event>
 5   0  0.1028978E-02  0.9242863E+03  0.7818609E-02  0.9395721E-01
        2   -1    0    0  501    0  0.00000000000E+00  0.00000000000E+00  0.77978973436E+03  0.77978973436E+03  0.25500000920E-02 0. -1.
       -2   -1    0    0    0  501  0.00000000000E+00  0.00000000000E+00 -0.27388956292E+03  0.27388956294E+03  0.25500000920E-02 0.  1.
    10030    2    1    2    0    0  0.00000000000E+00  0.00000000000E+00  0.50590017144E+03  0.10536792973E+04  0.92428625333E+03 0.  0.
        3    1    3    3  502    0  0.32018307669E+03 -0.32523903641E+03  0.17012490426E+03  0.48707301984E+03  0.10100000352E+00 0.  1.
       -3    1    3    3    0  502 -0.32018307669E+03  0.32523903641E+03  0.33577526718E+03  0.56660627746E+03  0.10100000352E+00 0. -1.
</event>
<event>
 5   0  0.6137243E-03  0.8953888E+03  0.7818609E-02  0.9431364E-01
       -1   -1    0    0    0  501  0.00000000000E+00  0.00000000000E+00  0.26119548422E+03  0.26119548427E+03  0.50400001928E-02 0.  1.
        1   -1    0    0  501    0  0.00000000000E+00  0.00000000000E+00 -0.76735728137E+03  0.76735728139E+03  0.50400001928E-02 0. -1.
    10030    2    1    2    0    0  0.00000000000E+00  0.00000000000E+00 -0.50616179715E+03  0.10285527657E+04  0.89538875739E+03 0.  0.
        4    1    3    3  502    0 -0.15861337697E+03  0.40937678161E+03 -0.15240479510E+03  0.46473259746E+03  0.12699999809E+01 0.  1.
       -4    1    3    3    0  502  0.15861337697E+03 -0.40937678161E+03 -0.35375700205E+03  0.56382016820E+03  0.12699999809E+01 0. -1.
</event>
<event>
 5   0  0.6288003E-03  0.8209797E+03  0.7818609E-02  0.9530137E-01
       -1   -1    0    0    0  501  0.00000000000E+00  0.00000000000E+00  0.56529741802E+03  0.56529741804E+03  0.50400001928E-02 0.  1.
        1   -1    0    0  501    0  0.00000000000E+00  0.00000000000E+00 -0.29807659432E+03  0.29807659436E+03  0.50400001928E-02 0. -1.
    10030    2    1    2    0    0  0.00000000000E+00  0.00000000000E+00  0.26722082370E+03  0.86337401240E+03  0.82097972976E+03 0.  0.
        1    1    3    3  502    0  0.22748425963E+03 -0.90745517165E+02  0.48004210167E+03  0.53891024917E+03  0.50400001928E-02 0.  1.
       -1    1    3    3    0  502 -0.22748425963E+03  0.90745517165E+02 -0.21282127797E+03  0.32446376323E+03  0.50400001928E-02 0. -1.
</event>
<event>
 5   0  0.6015709E-03  0.8955457E+03  0.7818609E-02  0.9431167E-01
        1   -1    0    0  501    0  0.00000000000E+00  0.00000000000E+00  0.59137607840E+03  0.59137607842E+03  0.50400001928E-02 0.  1.
       -1   -1    0    0    0  501  0.00000000000E+00  0.00000000000E+00 -0.33904065005E+03  0.33904065009E+03  0.50400001928E-02 0. -1.
    10030    2    1    2    0    0  0.00000000000E+00  0.00000000000E+00  0.25233542835E+03  0.93041672851E+03  0.89554571089E+03 0.  0.
        3    1    3    3  502    0  0.15524093810E+03  0.37783133781E+03  0.31673361200E+03  0.51689114895E+03  0.10100000352E+00 0.  1.
       -3    1    3    3    0  502 -0.15524093810E+03 -0.37783133781E+03 -0.64398183646E+02  0.41352557956E+03  0.10100000352E+00 0. -1.
</event>
<event>
 5   0  0.6092779E-03  0.9019425E+03  0.7818609E-02  0.9423156E-01
        1   -1    0    0  501    0  0.00000000000E+00  0.00000000000E+00  0.78488767932E+03  0.78488767933E+03  0.50400001928E-02 0.  1.
       -1   -1    0    0    0  501  0.00000000000E+00  0.00000000000E+00 -0.25911360792E+03  0.25911360797E+03  0.50400001928E-02 0. -1.
    10030    2    1    2    0    0  0.00000000000E+00  0.00000000000E+00  0.52577407140E+03  0.10440012873E+04  0.90194252241E+03 0.  0.
        2    1    3    3  502    0 -0.44817694631E+03 -0.40753609644E+02  0.29666643023E+03  0.53901243282E+03  0.25500000920E-02 0.  1.
       -2    1    3    3    0  502  0.44817694631E+03  0.40753609644E+02  0.22910764117E+03  0.50498885448E+03  0.25500000920E-02 0. -1.
</event>
<event>
 5   0  0.6288003E-03  0.8939289E+03  0.7818609E-02  0.9433203E-01
       -1   -1    0    0    0  501  0.00000000000E+00  0.00000000000E+00  0.10325254126E+04  0.10325254126E+04  0.50400001928E-02 0. -1.
        1   -1    0    0  501    0  0.00000000000E+00  0.00000000000E+00 -0.19348406643E+03  0.19348406650E+03  0.50400001928E-02 0.  1.
    10030    2    1    2    0    0  0.00000000000E+00  0.00000000000E+00  0.83904134615E+03  0.12260094791E+04  0.89392889107E+03 0.  0.
        1    1    3    3  502    0  0.43699280347E+03 -0.84395513325E+02  0.36310775930E+03  0.57439756079E+03  0.50400001928E-02 0.  1.
       -1    1    3    3    0  502 -0.43699280347E+03  0.84395513325E+02  0.47593358685E+03  0.65161191830E+03  0.50400001928E-02 0. -1.
</event>
<event>
 5   0  0.1041727E-02  0.8964152E+03  0.7818609E-02  0.9430074E-01
       -2   -1    0    0    0  501  0.00000000000E+00  0.00000000000E+00  0.33806271982E+03  0.33806271983E+03  0.25500000920E-02 0.  1.
        2   -1    0    0  501    0  0.00000000000E+00  0.00000000000E+00 -0.59423896379E+03  0.59423896379E+03  0.25500000920E-02 0. -1.
    10030    2    1    2    0    0  0.00000000000E+00  0.00000000000E+00 -0.25617624397E+03  0.93230168362E+03  0.89641517240E+03 0.  0.
        4    1    3    3  502    0  0.89029724189E+02 -0.39564286589E+02 -0.58309148785E+03  0.59117587964E+03  0.12699999809E+01 0. -1.
       -4    1    3    3    0  502 -0.89029724189E+02  0.39564286589E+02  0.32691524388E+03  0.34112580398E+03  0.12699999809E+01 0.  1.
</event>
<event>
 5   0  0.1041727E-02  0.9051569E+03  0.7818609E-02  0.9419158E-01
       -2   -1    0    0    0  501  0.00000000000E+00  0.00000000000E+00  0.34750994455E+03  0.34750994456E+03  0.25500000920E-02 0.  1.
        2   -1    0    0  501    0  0.00000000000E+00  0.00000000000E+00 -0.58941410112E+03  0.58941410112E+03  0.25500000920E-02 0. -1.
    10030    2    1    2    0    0  0.00000000000E+00  0.00000000000E+00 -0.24190415657E+03  0.93692404568E+03  0.90515691811E+03 0.  0.
        4    1    3    3  502    0 -0.52453301984E+02 -0.42811605917E+03 -0.26284304884E+03  0.50509681273E+03  0.12699999809E+01 0. -1.
       -4    1    3    3    0  502  0.52453301984E+02  0.42811605917E+03  0.20938892270E+02  0.43182723295E+03  0.12699999809E+01 0.  1.
</event>
<event>
 5   0  0.1003252E-02  0.8765574E+03  0.7818609E-02  0.9455370E-01
       -2   -1    0    0    0  501  0.00000000000E+00  0.00000000000E+00  0.24861938338E+03  0.24861938340E+03  0.25500000920E-02 0.  1.
        2   -1    0    0  501    0  0.00000000000E+00  0.00000000000E+00 -0.77261955811E+03  0.77261955811E+03  0.25500000920E-02 0. -1.
    10030    2    1    2    0    0  0.00000000000E+00  0.00000000000E+00 -0.52400017473E+03  0.10212389415E+04  0.87655735268E+03 0.  0.
        2    1    3    3  502    0  0.39489211570E+03 -0.15789650811E+03 -0.38539222186E+03  0.57393227387E+03  0.25500000920E-02 0. -1.
       -2    1    3    3    0  502 -0.39489211570E+03  0.15789650811E+03 -0.13860795287E+03  0.44730666764E+03  0.25500000920E-02 0.  1.
</event>
<event>
 5   0  0.3996375E-03  0.8952354E+03  0.7818609E-02  0.9431557E-01
        3   -1    0    0  501    0  0.00000000000E+00  0.00000000000E+00  0.39738653941E+03  0.39738655225E+03  0.10100000352E+00 0. -1.
       -3   -1    0    0    0  501  0.00000000000E+00  0.00000000000E+00 -0.50419821453E+03  0.50419822464E+03  0.10100000352E+00 0.  1.
    10030    2    1    2    0    0  0.00000000000E+00  0.00000000000E+00 -0.10681167511E+03  0.90158477689E+03  0.89523537462E+03 0.  0.
        2    1    3    3  502    0  0.33448693241E+03 -0.27011614934E+03  0.72046321479E+02  0.43592994223E+03  0.25500000920E-02 0.  1.
       -2    1    3    3    0  502 -0.33448693241E+03  0.27011614934E+03 -0.17885799659E+03  0.46565483466E+03  0.25500000920E-02 0. -1.
</event>
<event>
 5   0  0.6137243E-03  0.8937830E+03  0.7818609E-02  0.9433386E-01
        1   -1    0    0  501    0  0.00000000000E+00  0.00000000000E+00  0.57242835409E+03  0.57242835411E+03  0.50400001928E-02 0.  1.
       -1   -1    0    0    0  501  0.00000000000E+00  0.00000000000E+00 -0.34888561717E+03  0.34888561721E+03  0.50400001928E-02 0. -1.
    10030    2    1    2    0    0  0.00000000000E+00  0.00000000000E+00  0.22354273692E+03  0.92131397132E+03  0.89378301534E+03 0.  0.
        4    1    3    3  502    0 -0.44446614681E+03  0.46413616362E+02  0.10924069252E+03  0.46004295587E+03  0.12699999809E+01 0.  1.
       -4    1    3    3    0  502  0.44446614681E+03 -0.46413616362E+02  0.11430204439E+03  0.46127101545E+03  0.12699999809E+01 0. -1.
</event>
<event>
 5   0  0.6015709E-03  0.8966125E+03  0.7818609E-02  0.9429826E-01
        1   -1    0    0  501    0  0.00000000000E+00  0.00000000000E+00  0.79866502759E+03  0.79866502760E+03  0.50400001928E-02 0. -1.
       -1   -1    0    0    0  501  0.00000000000E+00  0.00000000000E+00 -0.25164301928E+03  0.25164301933E+03  0.50400001928E-02 0.  1.
    10030    2    1    2    0    0  0.00000000000E+00  0.00000000000E+00  0.54702200831E+03  0.10503080469E+04  0.89661246694E+03 0.  0.
        3    1    3    3  502    0  0.20203992245E+03 -0.30620526616E+03 -0.28334756262E+02  0.36794655034E+03  0.10100000352E+00 0.  1.
       -3    1    3    3    0  502 -0.20203992245E+03  0.30620526616E+03  0.57535676457E+03  0.68236149659E+03  0.10100000352E+00 0. -1.
</event>
<event>
 5   0  0.3996375E-03  0.9049808E+03  0.7818609E-02  0.9419376E-01
        3   -1    0    0  501    0  0.00000000000E+00  0.00000000000E+00  0.15826550066E+03  0.15826553289E+03  0.10100000352E+00 0. -1.
       -3   -1    0    0    0  501  0.00000000000E+00  0.00000000000E+00 -0.12936966269E+04  0.12936966308E+04  0.10100000352E+00 0.  1.
    10030    2    1    2    0    0  0.00000000000E+00  0.00000000000E+00 -0.11354311262E+04  0.14519621637E+04  0.90498081884E+03 0.  0.
        5    1    3    3  502    0 -0.14206324460E+03 -0.31967493187E+03 -0.10729834305E+03  0.36593585770E+03  0.46999998093E+01 0. -1.
       -5    1    3    3    0  502  0.14206324460E+03  0.31967493187E+03 -0.10281327831E+04  0.10860263060E+04  0.46999998093E+01 0.  1.
</event>
<event>
 5   0  0.6137243E-03  0.8989541E+03  0.7818609E-02  0.9426890E-01
       -1   -1    0    0    0  501  0.00000000000E+00  0.00000000000E+00  0.16827935714E+03  0.16827935722E+03  0.50400001928E-02 0.  1.
        1   -1    0    0  501    0  0.00000000000E+00  0.00000000000E+00 -0.12005608746E+04  0.12005608746E+04  0.50400001928E-02 0. -1.
    10030    2    1    2    0    0  0.00000000000E+00  0.00000000000E+00 -0.10322815174E+04  0.13688402318E+04  0.89895408614E+03 0.  0.
        4    1    3    3  502    0 -0.10756862896E+02 -0.34833746633E+03 -0.83914823485E+02  0.35846619233E+03  0.12699999809E+01 0.  1.
       -4    1    3    3    0  502  0.10756862896E+02  0.34833746633E+03 -0.94836669396E+03  0.10103740395E+04  0.12699999809E+01 0. -1.
</event>
<event>
 5   0  0.6092779E-03  0.9087010E+03  0.7818609E-02  0.9414770E-01
       -1   -1    0    0    0  501  0.00000000000E+00  0.00000000000E+00  0.35948043880E+03  0.35948043883E+03  0.50400001928E-02 0.  1.
        1   -1    0    0  501    0  0.00000000000E+00  0.00000000000E+00 -0.57425758738E+03  0.57425758740E+03  0.50400001928E-02 0. -1.
    10030    2    1    2    0    0  0.00000000000E+00  0.00000000000E+00 -0.21477714858E+03  0.93373802624E+03  0.90870098387E+03 0.  0.
        2    1    3    3  502    0 -0.10187689378E+03  0.33694684270E+03  0.18779330372E+03  0.39897167972E+03  0.25500000920E-02 0.  1.
       -2    1    3    3    0  502  0.10187689378E+03 -0.33694684270E+03 -0.40257045230E+03  0.53476634651E+03  0.25500000920E-02 0. -1.
</event>
<event>
 5   0  0.1017079E-02  0.9043912E+03  0.7818609E-02  0.9420109E-01
       -2   -1    0    0    0  501  0.00000000000E+00  0.00000000000E+00  0.79504002529E+03  0.79504002529E+03  0.25500000920E-02 0.  1.
        2   -1    0    0  501    0  0.00000000000E+00  0.00000000000E+00 -0.25719566580E+03  0.25719566581E+03  0.25500000920E-02 0. -1.
    10030    2    1    2    0    0  0.00000000000E+00  0.00000000000E+00  0.53784435949E+03  0.10522356911E+04  0.90439117344E+03 0.  0.
        1    1    3    3  502    0  0.33329421868E+03 -0.10124392457E+03  0.60440944263E+03  0.69760027439E+03  0.50400001928E-02 0.  1.
       -1    1    3    3    0  502 -0.33329421868E+03  0.10124392457E+03 -0.66565083140E+02  0.35463541671E+03  0.50400001928E-02 0. -1.
</event>
<event>
 5   0  0.1003252E-02  0.8922873E+03  0.7818609E-02  0.9435274E-01
        2   -1    0    0  501    0  0.00000000000E+00  0.00000000000E+00  0.57611997724E+03  0.57611997724E+03  0.25500000920E-02 0. -1.
       -2   -1    0    0    0  501  0.00000000000E+00  0.00000000000E+00 -0.34549079234E+03  0.34549079234E+03  0.25500000920E-02 0.  1.
    10030    2    1    2    0    0  0.00000000000E+00  0.00000000000E+00  0.23062918490E+03  0.92161076959E+03  0.89228727980E+03 0.  0.
        2    1    3    3  502    0  0.35021256606E+02 -0.43589293830E+03  0.20662230834E+03  0.48365475330E+03  0.25500000920E-02 0. -1.
       -2    1    3    3    0  502 -0.35021256606E+02  0.43589293830E+03  0.24006876567E+02  0.43795601629E+03  0.25500000920E-02 0.  1.
</event>
<event>
 5   0  0.1028978E-02  0.8987001E+03  0.7818609E-02  0.9427208E-01
       -2   -1    0    0    0  501  0.00000000000E+00  0.00000000000E+00  0.17909261827E+03  0.17909261829E+03  0.25500000920E-02 0. -1.
        2   -1    0    0  501    0  0.00000000000E+00  0.00000000000E+00 -0.11274359479E+04  0.11274359479E+04  0.25500000920E-02 0.  1.
    10030    2    1    2    0    0  0.00000000000E+00  0.00000000000E+00 -0.94834332964E+03  0.13065285662E+04  0.89870007424E+03 0.  0.
        3    1    3    3  502    0  0.52682488135E+02 -0.18455799644E+03  0.11650414841E+03  0.22452243853E+03  0.10100000352E+00 0. -1.
       -3    1    3    3    0  502 -0.52682488135E+02  0.18455799644E+03 -0.10648474781E+04  0.10820061277E+04  0.10100000352E+00 0.  1.
</event>
<event>
 5   0  0.1033749E-02  0.9015518E+03  0.7818609E-02  0.9423644E-01
        2   -1    0    0  501    0  0.00000000000E+00  0.00000000000E+00  0.86621635729E+03  0.86621635730E+03  0.25500000920E-02 0. -1.
       -2   -1    0    0    0  501  0.00000000000E+00  0.00000000000E+00 -0.23458218280E+03  0.23458218282E+03  0.25500000920E-02 0.  1.
    10030    2    1    2    0    0  0.00000000000E+00  0.00000000000E+00  0.63163417449E+03  0.11007985401E+04  0.90155182632E+03 0.  0.
        5    1    3    3  502    0 -0.88962232138E+02 -0.17126088571E+03 -0.18155632647E+03  0.26500822516E+03  0.46999998093E+01 0.  1.
       -5    1    3    3    0  502  0.88962232138E+02  0.17126088571E+03  0.81319050096E+03  0.83579031496E+03  0.46999998093E+01 0. -1.
</event>
<event>
 5   0  0.6211218E-03  0.9080965E+03  0.7818609E-02  0.9415517E-01
       -1   -1    0    0    0  501  0.00000000000E+00  0.00000000000E+00  0.34776028504E+03  0.34776028508E+03  0.50400001928E-02 0.  1.
        1   -1    0    0  501    0  0.00000000000E+00  0.00000000000E+00 -0.59282163917E+03  0.59282163919E+03  0.50400001928E-02 0. -1.
    10030    2    1    2    0    0  0.00000000000E+00  0.00000000000E+00 -0.24506135413E+03  0.94058192427E+03  0.90809651963E+03 0.  0.
        5    1    3    3  502    0  0.98835142369E+02  0.15827084777E+03  0.30618390101E+03  0.35859269075E+03  0.46999998093E+01 0.  1.
       -5    1    3    3    0  502 -0.98835142369E+02 -0.15827084777E+03 -0.55124525514E+03  0.58198923352E+03  0.46999998093E+01 0. -1.
</event>
<event>
 5   0  0.6092779E-03  0.9015185E+03  0.7818609E-02  0.9423685E-01
        1   -1    0    0  501    0  0.00000000000E+00  0.00000000000E+00  0.24162266265E+03  0.24162266270E+03  0.50400001928E-02 0. -1.
       -1   -1    0    0    0  501  0.00000000000E+00  0.00000000000E+00 -0.84091403474E+03  0.84091403476E+03  0.50400001928E-02 0.  1.
    10030    2    1    2    0    0  0.00000000000E+00  0.00000000000E+00 -0.59929137209E+03  0.10825366975E+04  0.90151847052E+03 0.  0.
        2    1    3    3  502    0 -0.35797379069E+03 -0.22395354283E+03 -0.48906463283E+03  0.64613051256E+03  0.25500000920E-02 0.  1.
       -2    1    3    3    0  502  0.35797379069E+03  0.22395354283E+03 -0.11022673926E+03  0.43640618490E+03  0.25500000920E-02 0. -1.
</event>
<event>
 5   0  0.6211218E-03  0.8872922E+03  0.7818609E-02  0.9441608E-01
       -1   -1    0    0    0  501  0.00000000000E+00  0.00000000000E+00  0.33921657173E+03  0.33921657177E+03  0.50400001928E-02 0. -1.
        1   -1    0    0  501    0  0.00000000000E+00  0.00000000000E+00 -0.58022472225E+03  0.58022472227E+03  0.50400001928E-02 0.  1.
    10030    2    1    2    0    0  0.00000000000E+00  0.00000000000E+00 -0.24100815052E+03  0.91944129404E+03  0.88729215288E+03 0.  0.
        5    1    3    3  502    0 -0.92570551011E+02 -0.34932087064E+03  0.14612283774E+03  0.38983118306E+03  0.46999998093E+01 0. -1.
       -5    1    3    3    0  502  0.92570551011E+02  0.34932087064E+03 -0.38713098825E+03  0.52961011098E+03  0.46999998093E+01 0.  1.
</event>
<event>
 5   0  0.1003252E-02  0.9028268E+03  0.7818609E-02  0.9422055E-01
        2   -1    0    0  501    0  0.00000000000E+00  0.00000000000E+00  0.76105425457E+03  0.76105425458E+03  0.25500000920E-02 0. -1.
       -2   -1    0    0    0  501  0.00000000000E+00  0.00000000000E+00 -0.26775234700E+03  0.26775234701E+03  0.25500000920E-02 0.  1.
    10030    2    1    2    0    0  0.00000000000E+00  0.00000000000E+00  0.49330190757E+03  0.10288066016E+04  0.90282681144E+03 0.  0.
        2    1    3    3  502    0  0.17130209525E+03  0.93465602552E+01  0.72245778834E+03  0.74254765636E+03  0.25500000920E-02 0. -1.
       -2    1    3    3    0  502 -0.17130209525E+03 -0.93465602552E+01 -0.22915588077E+03  0.28625894523E+03  0.25500000920E-02 0.  1.
</event>
<event>
 5   0  0.1017079E-02  0.9014444E+03  0.7818609E-02  0.9423778E-01
       -2   -1    0    0    0  501  0.00000000000E+00  0.00000000000E+00  0.11987922445E+03  0.11987922448E+03  0.25500000920E-02 0. -1.
        2   -1    0    0  501    0  0.00000000000E+00  0.00000000000E+00 -0.16946265606E+04  0.16946265606E+04  0.25500000920E-02 0.  1.
    10030    2    1    2    0    0  0.00000000000E+00  0.00000000000E+00 -0.15747473362E+04  0.18145057851E+04  0.90144443610E+03 0.  0.
        1    1    3    3  502    0  0.60442019488E+02  0.36932838455E+03 -0.28176696701E+03  0.46845417820E+03  0.50400001928E-02 0. -1.
       -1    1    3    3    0  502 -0.60442019488E+02 -0.36932838455E+03 -0.12929803692E+04  0.13460516069E+04  0.50400001928E-02 0.  1.
</event>
<event>
 5   0  0.1017079E-02  0.9096511E+03  0.7818609E-02  0.9413597E-01
        2   -1    0    0  501    0  0.00000000000E+00  0.00000000000E+00  0.13486681860E+04  0.13486681860E+04  0.25500000920E-02 0. -1.
       -2   -1    0    0    0  501  0.00000000000E+00  0.00000000000E+00 -0.15338560787E+03  0.15338560789E+03  0.25500000920E-02 0.  1.
    10030    2    1    2    0    0  0.00000000000E+00  0.00000000000E+00  0.11952825781E+04  0.15020537938E+04  0.90965111890E+03 0.  0.
        1    1    3    3  502    0 -0.20917734286E+03 -0.15149403840E+03  0.12158337925E+04  0.12429631594E+04  0.50400001928E-02 0. -1.
       -1    1    3    3    0  502  0.20917734286E+03  0.15149403840E+03 -0.20551214447E+02  0.25909063448E+03  0.50400001928E-02 0.  1.
</event>
<event>
 5   0  0.1028978E-02  0.9060742E+03  0.7818609E-02  0.9418020E-01
       -2   -1    0    0    0  501  0.00000000000E+00  0.00000000000E+00  0.18924813351E+03  0.18924813353E+03  0.25500000920E-02 0. -1.
        2   -1    0    0  501    0  0.00000000000E+00  0.00000000000E+00 -0.10845158062E+04  0.10845158062E+04  0.25500000920E-02 0.  1.
    10030    2    1    2    0    0  0.00000000000E+00  0.00000000000E+00 -0.89526767265E+03  0.12737639397E+04  0.90607415169E+03 0.  0.
        3    1    3    3  502    0 -0.14184787768E+03 -0.42115085960E+03 -0.32384538660E+03  0.54987699676E+03  0.10100000352E+00 0. -1.
       -3    1    3    3    0  502  0.14184787768E+03  0.42115085960E+03 -0.57142228605E+03  0.72388694292E+03  0.10100000352E+00 0.  1.
</event>
<event>
 5   0  0.6137243E-03  0.8893704E+03  0.7818609E-02  0.9438967E-01
       -1   -1    0    0    0  501  0.00000000000E+00  0.00000000000E+00  0.21014006392E+03  0.21014006398E+03  0.50400001928E-02 0.  1.
        1   -1    0    0  501    0  0.00000000000E+00  0.00000000000E+00 -0.94101494902E+03  0.94101494904E+03  0.50400001928E-02 0. -1.
    10030    2    1    2    0    0  0.00000000000E+00  0.00000000000E+00 -0.73087488511E+03  0.11511550130E+04  0.88937043256E+03 0.  0.
        4    1    3    3  502    0  0.63717767822E+01  0.26504329941E+03  0.96655337998E+02  0.28219216389E+03  0.12699999809E+01 0.  1.
       -4    1    3    3    0  502 -0.63717767822E+01 -0.26504329941E+03 -0.82753022310E+03  0.86896284912E+03  0.12699999809E+01 0. -1.
</event>
<event>
 5   0  0.1028978E-02  0.8941125E+03  0.7818609E-02  0.9432971E-01
        2   -1    0    0  501    0  0.00000000000E+00  0.00000000000E+00  0.55304996487E+03  0.55304996488E+03  0.25500000920E-02 0.  1.
       -2   -1    0    0    0  501  0.00000000000E+00  0.00000000000E+00 -0.36137652907E+03  0.36137652908E+03  0.25500000920E-02 0. -1.
    10030    2    1    2    0    0  0.00000000000E+00  0.00000000000E+00  0.19167343580E+03  0.91442649396E+03  0.89411246880E+03 0.  0.
        3    1    3    3  502    0  0.20858462161E+03  0.11991499842E+03  0.48118921335E+03  0.53798719359E+03  0.10100000352E+00 0.  1.
       -3    1    3    3    0  502 -0.20858462161E+03 -0.11991499842E+03 -0.28951577755E+03  0.37643930037E+03  0.10100000352E+00 0. -1.
</event>
<event>
 5   0  0.6092779E-03  0.9007632E+03  0.7818609E-02  0.9424628E-01
        1   -1    0    0  501    0  0.00000000000E+00  0.00000000000E+00  0.58253330003E+03  0.58253330005E+03  0.50400001928E-02 0.  1.
       -1   -1    0    0    0  501  0.00000000000E+00  0.00000000000E+00 -0.34820940522E+03  0.34820940525E+03  0.50400001928E-02 0. -1.
    10030    2    1    2    0    0  0.00000000000E+00  0.00000000000E+00  0.23432389482E+03  0.93074270531E+03  0.90076317409E+03 0.  0.
        2    1    3    3  502    0 -0.37750466031E+03  0.75758335438E+02 -0.12426924838E+03  0.40458860592E+03  0.25500000920E-02 0. -1.
       -2    1    3    3    0  502  0.37750466031E+03 -0.75758335438E+02  0.35859314320E+03  0.52615409938E+03  0.25500000920E-02 0.  1.
</event>
<event>
 5   0  0.1033749E-02  0.9036969E+03  0.7818609E-02  0.9420972E-01
        2   -1    0    0  501    0  0.00000000000E+00  0.00000000000E+00  0.14190482025E+04  0.14190482025E+04  0.25500000920E-02 0.  1.
       -2   -1    0    0    0  501  0.00000000000E+00  0.00000000000E+00 -0.14387601531E+03  0.14387601534E+03  0.25500000920E-02 0. -1.
    10030    2    1    2    0    0  0.00000000000E+00  0.00000000000E+00  0.12751721872E+04  0.15629242178E+04  0.90369685389E+03 0.  0.
        5    1    3    3  502    0 -0.21646093760E+02  0.22393284643E+03  0.13152469411E+04  0.13343579277E+04  0.46999998093E+01 0.  1.
       -5    1    3    3    0  502  0.21646093760E+02 -0.22393284643E+03 -0.40074753937E+02  0.22856629014E+03  0.46999998093E+01 0. -1.
</event>
<event>
 5   0  0.1028978E-02  0.9120513E+03  0.7818609E-02  0.9410641E-01
        2   -1    0    0  501    0  0.00000000000E+00  0.00000000000E+00  0.82310072976E+03  0.82310072976E+03  0.25500000920E-02 0. -1.
       -2   -1    0    0    0  501  0.00000000000E+00  0.00000000000E+00 -0.25265365836E+03  0.25265365837E+03  0.25500000920E-02 0.  1.
    10030    2    1    2    0    0  0.00000000000E+00  0.00000000000E+00  0.57044707140E+03  0.10757543881E+04  0.91205133755E+03 0.  0.
        3    1    3    3  502    0 -0.82450538433E+02 -0.17344044747E+03  0.77308117221E+03  0.79657654317E+03  0.10100000352E+00 0. -1.
       -3    1    3    3    0  502  0.82450538433E+02  0.17344044747E+03 -0.20263410081E+03  0.27917784496E+03  0.10100000352E+00 0.  1.
</event>
<event>
 5   0  0.6092779E-03  0.8893915E+03  0.7818609E-02  0.9438941E-01
        1   -1    0    0  501    0  0.00000000000E+00  0.00000000000E+00  0.78509620723E+03  0.78509620725E+03  0.50400001928E-02 0. -1.
       -1   -1    0    0    0  501  0.00000000000E+00  0.00000000000E+00 -0.25188545344E+03  0.25188545349E+03  0.50400001928E-02 0.  1.
    10030    2    1    2    0    0  0.00000000000E+00  0.00000000000E+00  0.53321075380E+03  0.10369816607E+04  0.88939150926E+03 0.  0.
        2    1    3    3  502    0  0.18904095271E+03  0.37330253239E+03  0.44212969377E+03  0.60874455119E+03  0.25500000920E-02 0. -1.
       -2    1    3    3    0  502 -0.18904095271E+03 -0.37330253239E+03  0.91081060027E+02  0.42823710954E+03  0.25500000920E-02 0.  1.
</event>
<event>
 5   0  0.6092779E-03  0.9016153E+03  0.7818609E-02  0.9423565E-01
        1   -1    0    0  501    0  0.00000000000E+00  0.00000000000E+00  0.17042027487E+04  0.17042027487E+04  0.50400001928E-02 0. -1.
       -1   -1    0    0    0  501  0.00000000000E+00  0.00000000000E+00 -0.11925078937E+03  0.11925078948E+03  0.50400001928E-02 0.  1.
    10030    2    1    2    0    0  0.00000000000E+00  0.00000000000E+00  0.15849519594E+04  0.18234535382E+04  0.90161526858E+03 0.  0.
        2    1    3    3  502    0 -0.23078727125E+03 -0.18326666861E+03  0.10253959168E+03  0.31203173599E+03  0.25500000920E-02 0.  1.
       -2    1    3    3    0  502  0.23078727125E+03  0.18326666861E+03  0.14824123677E+04  0.15114218022E+04  0.25500000920E-02 0. -1.
</event>
<event>
 5   0  0.6211218E-03  0.9034716E+03  0.7818609E-02  0.9421252E-01
        1   -1    0    0  501    0  0.00000000000E+00  0.00000000000E+00  0.62034955952E+03  0.62034955954E+03  0.50400001928E-02 0.  1.
       -1   -1    0    0    0  501  0.00000000000E+00  0.00000000000E+00 -0.32895202056E+03  0.32895202060E+03  0.50400001928E-02 0. -1.
    10030    2    1    2    0    0  0.00000000000E+00  0.00000000000E+00  0.29139753896E+03  0.94930158014E+03  0.90347161790E+03 0.  0.
        5    1    3    3  502    0 -0.36831020548E+03  0.25560779489E+03  0.87619165958E+02  0.45682267951E+03  0.46999998093E+01 0. -1.
       -5    1    3    3    0  502  0.36831020548E+03 -0.25560779489E+03  0.20377837300E+03  0.49247890064E+03  0.46999998093E+01 0.  1.
</event>
<event>
 5   0  0.1003252E-02  0.8842618E+03  0.7818609E-02  0.9445472E-01
       -2   -1    0    0    0  501  0.00000000000E+00  0.00000000000E+00  0.38225833942E+03  0.38225833943E+03  0.25500000920E-02 0. -1.
        2   -1    0    0  501    0  0.00000000000E+00  0.00000000000E+00 -0.51138116042E+03  0.51138116043E+03  0.25500000920E-02 0.  1.
    10030    2    1    2    0    0  0.00000000000E+00  0.00000000000E+00 -0.12912282101E+03  0.89363949985E+03  0.88426175581E+03 0.  0.
        2    1    3    3  502    0  0.19508455730E+03 -0.87170487616E+02 -0.45573615672E+03  0.50334096094E+03  0.25500000920E-02 0.  1.
       -2    1    3    3    0  502 -0.19508455730E+03  0.87170487616E+02  0.32661333571E+03  0.39029853892E+03  0.25500000920E-02 0. -1.
</event>
<event>
 5   0  0.1003252E-02  0.9265990E+03  0.7818609E-02  0.9392929E-01
       -2   -1    0    0    0  501  0.00000000000E+00  0.00000000000E+00  0.25791961665E+03  0.25791961666E+03  0.25500000920E-02 0.  1.
        2   -1    0    0  501    0  0.00000000000E+00  0.00000000000E+00 -0.83222224423E+03  0.83222224423E+03  0.25500000920E-02 0. -1.
    10030    2    1    2    0    0  0.00000000000E+00  0.00000000000E+00 -0.57430262758E+03  0.10901418609E+04  0.92659903347E+03 0.  0.
        2    1    3    3  502    0  0.28594334433E+03  0.26690086447E+03  0.49586381028E+01  0.39118314856E+03  0.25500000920E-02 0.  1.
       -2    1    3    3    0  502 -0.28594334433E+03 -0.26690086447E+03 -0.57926126568E+03  0.69895871233E+03  0.25500000920E-02 0. -1.
</event>
<event>
 5   0  0.6015709E-03  0.9048742E+03  0.7818609E-02  0.9419509E-01
       -1   -1    0    0    0  501  0.00000000000E+00  0.00000000000E+00  0.36763022919E+03  0.36763022922E+03  0.50400001928E-02 0.  1.
        1   -1    0    0  501    0  0.00000000000E+00  0.00000000000E+00 -0.55680762251E+03  0.55680762253E+03  0.50400001928E-02 0. -1.
    10030    2    1    2    0    0  0.00000000000E+00  0.00000000000E+00 -0.18917739332E+03  0.92443785176E+03  0.90487416563E+03 0.  0.
        3    1    3    3  502    0  0.23307095931E+03 -0.25557809826E+03 -0.39253961805E+03  0.52319174145E+03  0.10100000352E+00 0. -1.
       -3    1    3    3    0  502 -0.23307095931E+03  0.25557809826E+03  0.20336222473E+03  0.40124611030E+03  0.10100000352E+00 0.  1.
</event>
<event>
 5   0  0.1041727E-02  0.9052176E+03  0.7818609E-02  0.9419083E-01
        2   -1    0    0  501    0  0.00000000000E+00  0.00000000000E+00  0.10244341400E+04  0.10244341400E+04  0.25500000920E-02 0. -1.
       -2   -1    0    0    0  501  0.00000000000E+00  0.00000000000E+00 -0.19996868244E+03  0.19996868246E+03  0.25500000920E-02 0.  1.
    10030    2    1    2    0    0  0.00000000000E+00  0.00000000000E+00  0.82446545758E+03  0.12244028225E+04  0.90521764287E+03 0.  0.
        4    1    3    3  502    0 -0.14680269989E+02 -0.26976995383E+03  0.90340156331E+03  0.94293548867E+03  0.12699999809E+01 0. -1.
       -4    1    3    3    0  502  0.14680269989E+02  0.26976995383E+03 -0.78936105724E+02  0.28146733381E+03  0.12699999809E+01 0.  1.
</event>
<event>
 5   0  0.6288003E-03  0.8974817E+03  0.7818609E-02  0.9428735E-01
        1   -1    0    0  501    0  0.00000000000E+00  0.00000000000E+00  0.17112461676E+04  0.17112461676E+04  0.50400001928E-02 0.  1.
       -1   -1    0    0    0  501  0.00000000000E+00  0.00000000000E+00 -0.11767351582E+03  0.11767351593E+03  0.50400001928E-02 0. -1.
    10030    2    1    2    0    0  0.00000000000E+00  0.00000000000E+00  0.15935726518E+04  0.18289196836E+04  0.89748170586E+03 0.  0.
        1    1    3    3  502    0 -0.20036355062E+03  0.29678596734E+03  0.24566254613E+03  0.43425516626E+03  0.50400001928E-02 0. -1.
       -1    1    3    3    0  502  0.20036355062E+03 -0.29678596734E+03  0.13479101057E+04  0.13946645173E+04  0.50400001928E-02 0.  1.
</event>
<event>
 5   0  0.1003252E-02  0.9118327E+03  0.7818609E-02  0.9410910E-01
        2   -1    0    0  501    0  0.00000000000E+00  0.00000000000E+00  0.75571648700E+03  0.75571648701E+03  0.25500000920E-02 0. -1.
       -2   -1    0    0    0  501  0.00000000000E+00  0.00000000000E+00 -0.27504986953E+03  0.27504986954E+03  0.25500000920E-02 0.  1.
    10030    2    1    2    0    0  0.00000000000E+00  0.00000000000E+00  0.48066661748E+03  0.10307663565E+04  0.91183270649E+03 0.  0.
        2    1    3    3  502    0 -0.34304080880E+03 -0.19720583836E+03  0.49635239885E+03  0.63476991347E+03  0.25500000920E-02 0.  1.
       -2    1    3    3    0  502  0.34304080880E+03  0.19720583836E+03 -0.15685781377E+02  0.39599644308E+03  0.25500000920E-02 0. -1.
</event>
<event>
 5   0  0.6015709E-03  0.8934925E+03  0.7818609E-02  0.9433753E-01
       -1   -1    0    0    0  501  0.00000000000E+00  0.00000000000E+00  0.16936829920E+03  0.16936829928E+03  0.50400001928E-02 0. -1.
        1   -1    0    0  501    0  0.00000000000E+00  0.00000000000E+00 -0.11783918463E+04  0.11783918463E+04  0.50400001928E-02 0.  1.
    10030    2    1    2    0    0  0.00000000000E+00  0.00000000000E+00 -0.10090235471E+04  0.13477601456E+04  0.89349252457E+03 0.  0.
        3    1    3    3  502    0  0.65350472460E+02 -0.47716016687E+02  0.15822243820E+03  0.17771283761E+03  0.10100000352E+00 0. -1.
       -3    1    3    3    0  502 -0.65350472460E+02  0.47716016687E+02 -0.11672459853E+04  0.11700473080E+04  0.10100000352E+00 0.  1.
</event>
<event>
 5   0  0.1017079E-02  0.8995602E+03  0.7818609E-02  0.9426131E-01
       -2   -1    0    0    0  501  0.00000000000E+00  0.00000000000E+00  0.71834396364E+03  0.71834396365E+03  0.25500000920E-02 0.  1.
        2   -1    0    0  501    0  0.00000000000E+00  0.00000000000E+00 -0.28162295564E+03  0.28162295565E+03  0.25500000920E-02 0. -1.
    10030    2    1    2    0    0  0.00000000000E+00  0.00000000000E+00  0.43672100800E+03  0.99996691929E+03  0.89956022636E+03 0.  0.
        1    1    3    3  502    0 -0.17871270815E+03  0.39945793571E+03  0.10285239236E+03  0.44953697189E+03  0.50400001928E-02 0. -1.
       -1    1    3    3    0  502  0.17871270815E+03 -0.39945793571E+03  0.33386861565E+03  0.55042994740E+03  0.50400001928E-02 0.  1.
</event>
<event>
 5   0  0.3996375E-03  0.9089299E+03  0.7818609E-02  0.9414487E-01
       -4   -1    0    0    0  501  0.00000000000E+00  0.00000000000E+00  0.21154934044E+03  0.21155315252E+03  0.12699999809E+01 0. -1.
        4   -1    0    0  501    0  0.00000000000E+00  0.00000000000E+00 -0.97630016949E+03  0.97630099552E+03  0.12699999809E+01 0.  1.
    10030    2    1    2    0    0  0.00000000000E+00  0.00000000000E+00 -0.76475082904E+03  0.11878541480E+04  0.90892994586E+03 0.  0.
        2    1    3    3  502    0  0.34163684812E+03 -0.15322761887E+03 -0.45760431781E+02  0.37721142122E+03  0.25500000920E-02 0. -1.
       -2    1    3    3    0  502 -0.34163684812E+03  0.15322761887E+03 -0.71899039726E+03  0.81064272682E+03  0.25500000920E-02 0.  1.
</event>
<event>
 5   0  0.6288003E-03  0.9009566E+03  0.7818609E-02  0.9424386E-01
        1   -1    0    0  501    0  0.00000000000E+00  0.00000000000E+00  0.86176957185E+03  0.86176957187E+03  0.50400001928E-02 0. -1.
       -1   -1    0    0    0  501  0.00000000000E+00  0.00000000000E+00 -0.23548140298E+03  0.23548140303E+03  0.50400001928E-02 0.  1.
    10030    2    1    2    0    0  0.00000000000E+00  0.00000000000E+00  0.62628816888E+03  0.10972509749E+04  0.90095662017E+03 0.  0.
        1    1    3    3  502    0 -0.11601141321E+03 -0.15570400353E+03 -0.18190053231E+03  0.26606425613E+03  0.50400001928E-02 0.  1.
       -1    1    3    3    0  502  0.11601141321E+03  0.15570400353E+03  0.80818870118E+03  0.83118671877E+03  0.50400001928E-02 0. -1.
</event>
<event>
 5   0  0.6137243E-03  0.8961383E+03  0.7818609E-02  0.9430422E-01
        1   -1    0    0  501    0  0.00000000000E+00  0.00000000000E+00  0.46123291377E+03  0.46123291379E+03  0.50400001928E-02 0. -1.
       -1   -1    0    0    0  501  0.00000000000E+00  0.00000000000E+00 -0.43528112368E+03  0.43528112371E+03  0.50400001928E-02 0.  1.
    10030    2    1    2    0    0  0.00000000000E+00  0.00000000000E+00  0.25951790082E+02  0.89651403750E+03  0.89613833979E+03 0.  0.
        4    1    3    3  502    0 -0.13634254766E+03 -0.21859368832E+03  0.37972456370E+03  0.45887345538E+03  0.12699999809E+01 0. -1.
       -4    1    3    3    0  502  0.13634254766E+03  0.21859368832E+03 -0.35377277361E+03  0.43764058213E+03  0.12699999809E+01 0.  1.
</event>
<event>
 5   0  0.6137243E-03  0.9095174E+03  0.7818609E-02  0.9413762E-01
       -1   -1    0    0    0  501  0.00000000000E+00  0.00000000000E+00  0.11841138078E+03  0.11841138089E+03  0.50400001928E-02 0. -1.
        1   -1    0    0  501    0  0.00000000000E+00  0.00000000000E+00 -0.17464999023E+04  0.17464999024E+04  0.50400001928E-02 0.  1.
    10030    2    1    2    0    0  0.00000000000E+00  0.00000000000E+00 -0.16280885216E+04  0.18649112832E+04  0.90951737768E+03 0.  0.
        4    1    3    3  502    0 -0.59023552663E+02 -0.24862669973E+03 -0.15853611079E+04  0.16058239227E+04  0.12699999809E+01 0.  1.
       -4    1    3    3    0  502  0.59023552663E+02  0.24862669973E+03 -0.42727413689E+02  0.25908736050E+03  0.12699999809E+01 0. -1.
</event>
<event>
 5   0  0.1003252E-02  0.9044367E+03  0.7818609E-02  0.9420052E-01
        2   -1    0    0  501    0  0.00000000000E+00  0.00000000000E+00  0.72412987549E+03  0.72412987550E+03  0.25500000920E-02 0. -1.
       -2   -1    0    0    0  501  0.00000000000E+00  0.00000000000E+00 -0.28240991744E+03  0.28240991745E+03  0.25500000920E-02 0.  1.
    10030    2    1    2    0    0  0.00000000000E+00  0.00000000000E+00  0.44171995805E+03  0.10065397930E+04  0.90443674928E+03 0.  0.
        2    1    3    3  502    0 -0.26377514978E+03 -0.20868373231E+03  0.55726849948E+03  0.65090276562E+03  0.25500000920E-02 0. -1.
       -2    1    3    3    0  502  0.26377514978E+03  0.20868373231E+03 -0.11554854143E+03  0.35563702733E+03  0.25500000920E-02 0.  1.
</event>
<event>
 5   0  0.1003252E-02  0.9118632E+03  0.7818609E-02  0.9410872E-01
        2   -1    0    0  501    0  0.00000000000E+00  0.00000000000E+00  0.72608870691E+03  0.72608870692E+03  0.25500000920E-02 0.  1.
       -2   -1    0    0    0  501  0.00000000000E+00  0.00000000000E+00 -0.28629232734E+03  0.28629232735E+03  0.25500000920E-02 0. -1.
    10030    2    1    2    0    0  0.00000000000E+00  0.00000000000E+00  0.43979637958E+03  0.10123810343E+04  0.91186320413E+03 0.  0.
        2    1    3    3  502    0 -0.16272657294E+03 -0.74601129317E+02  0.68544008651E+03  0.70843022115E+03  0.25500000920E-02 0.  1.
       -2    1    3    3    0  502  0.16272657294E+03  0.74601129317E+02 -0.24564370693E+03  0.30395081312E+03  0.25500000920E-02 0. -1.
</event>
<event>
 5   0  0.1041727E-02  0.8646318E+03  0.7818609E-02  0.9470906E-01
       -2   -1    0    0    0  501  0.00000000000E+00  0.00000000000E+00  0.12824915337E+03  0.12824915339E+03  0.25500000920E-02 0.  1.
        2   -1    0    0  501    0  0.00000000000E+00  0.00000000000E+00 -0.14572964263E+04  0.14572964263E+04  0.25500000920E-02 0. -1.
    10030    2    1    2    0    0  0.00000000000E+00  0.00000000000E+00 -0.13290472730E+04  0.15855455797E+04  0.86463178961E+03 0.  0.
        4    1    3    3  502    0 -0.24518667577E+03 -0.17165227559E+03 -0.12365764288E+04  0.12722829429E+04  0.12699999809E+01 0. -1.
       -4    1    3    3    0  502  0.24518667577E+03  0.17165227559E+03 -0.92470844158E+02  0.31326263679E+03  0.12699999809E+01 0.  1.
</event>
<event>
 5   0  0.1033749E-02  0.9034536E+03  0.7818609E-02  0.9421275E-01
        2   -1    0    0  501    0  0.00000000000E+00  0.00000000000E+00  0.10798202333E+04  0.10798202333E+04  0.25500000920E-02 0.  1.
       -2   -1    0    0    0  501  0.00000000000E+00  0.00000000000E+00 -0.18897320924E+03  0.18897320925E+03  0.25500000920E-02 0. -1.
    10030    2    1    2    0    0  0.00000000000E+00  0.00000000000E+00  0.89084702406E+03  0.12687934426E+04  0.90345358463E+03 0.  0.
        5    1    3    3  502    0  0.42191669969E+03  0.88985197385E+02  0.25646797929E+03  0.50172699871E+03  0.46999998093E+01 0.  1.
       -5    1    3    3    0  502 -0.42191669969E+03 -0.88985197385E+02  0.63437904477E+03  0.76706644385E+03  0.46999998093E+01 0. -1.
</event>
<event>
 5   0  0.1003252E-02  0.9036185E+03  0.7818609E-02  0.9421069E-01
        2   -1    0    0  501    0  0.00000000000E+00  0.00000000000E+00  0.13556128928E+04  0.13556128928E+04  0.25500000920E-02 0.  1.
       -2   -1    0    0    0  501  0.00000000000E+00  0.00000000000E+00 -0.15058251356E+03  0.15058251359E+03  0.25500000920E-02 0. -1.
    10030    2    1    2    0    0  0.00000000000E+00  0.00000000000E+00  0.12050303792E+04  0.15061954063E+04  0.90361849655E+03 0.  0.
        2    1    3    3  502    0 -0.25830982836E+03 -0.17053900597E+03  0.53911524216E+02  0.31418779803E+03  0.25500000920E-02 0. -1.
       -2    1    3    3    0  502  0.25830982836E+03  0.17053900597E+03  0.11511188550E+04  0.11920076083E+04  0.25500000920E-02 0.  1.
</event>
<event>
 5   0  0.1017079E-02  0.8901722E+03  0.7818609E-02  0.9437951E-01
        2   -1    0    0  501    0  0.00000000000E+00  0.00000000000E+00  0.66456503079E+03  0.66456503080E+03  0.25500000920E-02 0.  1.
       -2   -1    0    0    0  501  0.00000000000E+00  0.00000000000E+00 -0.29809218202E+03  0.29809218203E+03  0.25500000920E-02 0. -1.
    10030    2    1    2    0    0  0.00000000000E+00  0.00000000000E+00  0.36647284878E+03  0.96265721283E+03  0.89017220835E+03 0.  0.
        1    1    3    3  502    0  0.32715976199E+03  0.28238444029E+03  0.68140983893E+02  0.43751305774E+03  0.50400001928E-02 0. -1.
       -1    1    3    3    0  502 -0.32715976199E+03 -0.28238444029E+03  0.29833186488E+03  0.52514415508E+03  0.50400001928E-02 0.  1.
</event>
<event>
 5   0  0.1041727E-02  0.8959231E+03  0.7818609E-02  0.9430692E-01
       -2   -1    0    0    0  501  0.00000000000E+00  0.00000000000E+00  0.43887719665E+03  0.43887719666E+03  0.25500000920E-02 0. -1.
        2   -1    0    0  501    0  0.00000000000E+00  0.00000000000E+00 -0.45723390082E+03  0.45723390082E+03  0.25500000920E-02 0.  1.
    10030    2    1    2    0    0  0.00000000000E+00  0.00000000000E+00 -0.18356704166E+02  0.89611109748E+03  0.89592306056E+03 0.  0.
        4    1    3    3  502    0  0.27206491723E+03  0.38539689068E+02 -0.36303685080E+03  0.45530428809E+03  0.12699999809E+01 0.  1.
       -4    1    3    3    0  502 -0.27206491723E+03 -0.38539689068E+02  0.34468014663E+03  0.44080680939E+03  0.12699999809E+01 0. -1.
</event>
<event>
 5   0  0.1041727E-02  0.8893771E+03  0.7818609E-02  0.9438959E-01
        2   -1    0    0  501    0  0.00000000000E+00  0.00000000000E+00  0.63059411824E+03  0.63059411825E+03  0.25500000920E-02 0.  1.
       -2   -1    0    0    0  501  0.00000000000E+00  0.00000000000E+00 -0.31358981987E+03  0.31358981988E+03  0.25500000920E-02 0. -1.
    10030    2    1    2    0    0  0.00000000000E+00  0.00000000000E+00  0.31700429838E+03  0.94418393812E+03  0.88937707628E+03 0.  0.
        4    1    3    3  502    0 -0.19888760906E+03  0.24262843173E+03 -0.17607185503E+03  0.35976068150E+03  0.12699999809E+01 0. -1.
       -4    1    3    3    0  502  0.19888760906E+03 -0.24262843173E+03  0.49307615340E+03  0.58442325662E+03  0.12699999809E+01 0.  1.
</event>
<event>
 5   0  0.1033749E-02  0.9024375E+03  0.7818609E-02  0.9422540E-01
       -2   -1    0    0    0  501  0.00000000000E+00  0.00000000000E+00  0.17623032994E+03  0.17623032996E+03  0.25500000920E-02 0.  1.
        2   -1    0    0  501    0  0.00000000000E+00  0.00000000000E+00 -0.11552968389E+04  0.11552968389E+04  0.25500000920E-02 0. -1.
    10030    2    1    2    0    0  0.00000000000E+00  0.00000000000E+00 -0.97906650896E+03  0.13315271689E+04  0.90243746179E+03 0.  0.
        5    1    3    3  502    0  0.43484834063E+03 -0.84675801393E+02 -0.61571197527E+03  0.75854228437E+03  0.46999998093E+01 0. -1.
       -5    1    3    3    0  502 -0.43484834063E+03  0.84675801393E+02 -0.36335453369E+03  0.57298488448E+03  0.46999998093E+01 0.  1.
</event>
<event>
 5   0  0.6092779E-03  0.9008184E+03  0.7818609E-02  0.9424559E-01
       -1   -1    0    0    0  501  0.00000000000E+00  0.00000000000E+00  0.20974252703E+03  0.20974252709E+03  0.50400001928E-02 0. -1.
        1   -1    0    0  501    0  0.00000000000E+00  0.00000000000E+00 -0.96722609460E+03  0.96722609461E+03  0.50400001928E-02 0.  1.
    10030    2    1    2    0    0  0.00000000000E+00  0.00000000000E+00 -0.75748356757E+03  0.11769686217E+04  0.90081839532E+03 0.  0.
        2    1    3    3  502    0 -0.41190144452E+03  0.18051305081E+03 -0.41129267242E+03  0.60943369115E+03  0.25500000920E-02 0. -1.
       -2    1    3    3    0  502  0.41190144452E+03 -0.18051305081E+03 -0.34619089515E+03  0.56753493056E+03  0.25500000920E-02 0.  1.
</event>
<event>
 5   0  0.1033749E-02  0.8834354E+03  0.7818609E-02  0.9446528E-01
        2   -1    0    0  501    0  0.00000000000E+00  0.00000000000E+00  0.63053597534E+03  0.63053597534E+03  0.25500000920E-02 0.  1.
       -2   -1    0    0    0  501  0.00000000000E+00  0.00000000000E+00 -0.30944231169E+03  0.30944231170E+03  0.25500000920E-02 0. -1.
    10030    2    1    2    0    0  0.00000000000E+00  0.00000000000E+00  0.32109366365E+03  0.93997828704E+03  0.88343536225E+03 0.  0.
        5    1    3    3  502    0 -0.64769032530E+02  0.33695202145E+03 -0.13539292668E+03  0.36889704109E+03  0.46999998093E+01 0. -1.
       -5    1    3    3    0  502  0.64769032530E+02 -0.33695202145E+03  0.45648659033E+03  0.57108124595E+03  0.46999998093E+01 0.  1.
</event>
<event>
 5   0  0.1028978E-02  0.8981878E+03  0.7818609E-02  0.9427850E-01
       -2   -1    0    0    0  501  0.00000000000E+00  0.00000000000E+00  0.33591127929E+03  0.33591127930E+03  0.25500000920E-02 0. -1.
        2   -1    0    0  501    0  0.00000000000E+00  0.00000000000E+00 -0.60041248416E+03  0.60041248417E+03  0.25500000920E-02 0.  1.
    10030    2    1    2    0    0  0.00000000000E+00  0.00000000000E+00 -0.26450120487E+03  0.93632376347E+03  0.89818778808E+03 0.  0.
        3    1    3    3  502    0 -0.35149237724E+01 -0.73173912338E+02 -0.59414166274E+03  0.59864104582E+03  0.10100000352E+00 0.  1.
       -3    1    3    3    0  502  0.35149237724E+01  0.73173912338E+02  0.32964045787E+03  0.33768271765E+03  0.10100000352E+00 0. -1.
</event>
<event>
 5   0  0.3996375E-03  0.8997280E+03  0.7818609E-02  0.9425922E-01
        4   -1    0    0  501    0  0.00000000000E+00  0.00000000000E+00  0.40688304166E+03  0.40688502367E+03  0.12699999809E+01 0. -1.
       -4   -1    0    0    0  501  0.00000000000E+00  0.00000000000E+00 -0.49738121594E+03  0.49738283733E+03  0.12699999809E+01 0.  1.
    10030    2    1    2    0    0  0.00000000000E+00  0.00000000000E+00 -0.90498174283E+02  0.90426786100E+03  0.89972798383E+03 0.  0.
        4    1    3    3  502    0  0.23433199095E+03 -0.37657160322E+03 -0.12085060940E+03  0.45970005115E+03  0.12699999809E+01 0.  1.
       -4    1    3    3    0  502 -0.23433199095E+03  0.37657160322E+03  0.30352435119E+02  0.44456780985E+03  0.12699999809E+01 0. -1.
</event>
<event>
 5   0  0.6288003E-03  0.9041408E+03  0.7818609E-02  0.9420420E-01
       -1   -1    0    0    0  501  0.00000000000E+00  0.00000000000E+00  0.42027097798E+03  0.42027097801E+03  0.50400001928E-02 0.  1.
        1   -1    0    0  501    0  0.00000000000E+00  0.00000000000E+00 -0.48627593969E+03  0.48627593972E+03  0.50400001928E-02 0. -1.
    10030    2    1    2    0    0  0.00000000000E+00  0.00000000000E+00 -0.66004961712E+02  0.90654691773E+03  0.90414084028E+03 0.  0.
        1    1    3    3  502    0 -0.44663230071E+03 -0.21010618475E+00 -0.10309709269E+03  0.45837699193E+03  0.50400001928E-02 0. -1.
       -1    1    3    3    0  502  0.44663230071E+03  0.21010618475E+00  0.37092130977E+02  0.44816992580E+03  0.50400001928E-02 0.  1.
</event>
<event>
 5   0  0.6211218E-03  0.8894533E+03  0.7818609E-02  0.9438862E-01
        1   -1    0    0  501    0  0.00000000000E+00  0.00000000000E+00  0.54398184417E+03  0.54398184419E+03  0.50400001928E-02 0.  1.
       -1   -1    0    0    0  501  0.00000000000E+00  0.00000000000E+00 -0.36358158154E+03  0.36358158157E+03  0.50400001928E-02 0. -1.
    10030    2    1    2    0    0  0.00000000000E+00  0.00000000000E+00  0.18040026263E+03  0.90756342576E+03  0.88945326860E+03 0.  0.
        5    1    3    3  502    0 -0.27875381337E+03  0.21775747151E+03 -0.18480123135E+03  0.39911851619E+03  0.46999998093E+01 0. -1.
       -5    1    3    3    0  502  0.27875381337E+03 -0.21775747151E+03  0.36520149398E+03  0.50844490957E+03  0.46999998093E+01 0.  1.
</event>
<event>
 5   0  0.6211218E-03  0.9015643E+03  0.7818609E-02  0.9423628E-01
        1   -1    0    0  501    0  0.00000000000E+00  0.00000000000E+00  0.83313115962E+03  0.83313115964E+03  0.50400001928E-02 0. -1.
       -1   -1    0    0    0  501  0.00000000000E+00  0.00000000000E+00 -0.24390463143E+03  0.24390463148E+03  0.50400001928E-02 0.  1.
    10030    2    1    2    0    0  0.00000000000E+00  0.00000000000E+00  0.58922652820E+03  0.10770357911E+04  0.90156430376E+03 0.  0.
        5    1    3    3  502    0  0.42101666146E+03  0.14924455202E+03  0.36682163762E+03  0.57802177239E+03  0.46999998093E+01 0. -1.
       -5    1    3    3    0  502 -0.42101666146E+03 -0.14924455202E+03  0.22240489058E+03  0.49901401873E+03  0.46999998093E+01 0.  1.
</event>
<event>
 5   0  0.3996375E-03  0.9077419E+03  0.7818609E-02  0.9415955E-01
       -3   -1    0    0    0  501  0.00000000000E+00  0.00000000000E+00  0.32901111423E+03  0.32901112973E+03  0.10100000352E+00 0. -1.
        3   -1    0    0  501    0  0.00000000000E+00  0.00000000000E+00 -0.62611503651E+03  0.62611504466E+03  0.10100000352E+00 0.  1.
    10030    2    1    2    0    0  0.00000000000E+00  0.00000000000E+00 -0.29710392228E+03  0.95512617439E+03  0.90774185117E+03 0.  0.
        5    1    3    3  502    0  0.31793314678E+02 -0.42517956364E+03  0.15092239908E+02  0.42665951519E+03  0.46999998093E+01 0. -1.
       -5    1    3    3    0  502 -0.31793314678E+02  0.42517956364E+03 -0.31219616219E+03  0.52846665920E+03  0.46999998093E+01 0.  1.
</event>
<event>
 5   0  0.1017079E-02  0.9134905E+03  0.7818609E-02  0.9408873E-01
        2   -1    0    0  501    0  0.00000000000E+00  0.00000000000E+00  0.15472949930E+04  0.15472949930E+04  0.25500000920E-02 0. -1.
       -2   -1    0    0    0  501  0.00000000000E+00  0.00000000000E+00 -0.13482641810E+03  0.13482641813E+03  0.25500000920E-02 0.  1.
    10030    2    1    2    0    0  0.00000000000E+00  0.00000000000E+00  0.14124685749E+04  0.16821214111E+04  0.91349054003E+03 0.  0.
        1    1    3    3  502    0  0.14967903182E+03  0.39333538744E+03  0.37941588127E+03  0.56663299460E+03  0.50400001928E-02 0.  1.
       -1    1    3    3    0  502 -0.14967903182E+03 -0.39333538744E+03  0.10330526936E+04  0.11154884165E+04  0.50400001928E-02 0. -1.
</event>
<event>
 5   0  0.1017079E-02  0.9052359E+03  0.7818609E-02  0.9419060E-01
       -2   -1    0    0    0  501  0.00000000000E+00  0.00000000000E+00  0.12726028545E+03  0.12726028547E+03  0.25500000920E-02 0. -1.
        2   -1    0    0  501    0  0.00000000000E+00  0.00000000000E+00 -0.16097952695E+04  0.16097952695E+04  0.25500000920E-02 0.  1.
    10030    2    1    2    0    0  0.00000000000E+00  0.00000000000E+00 -0.14825349840E+04  0.17370555549E+04  0.90523589308E+03 0.  0.
        1    1    3    3  502    0  0.26692678079E+03  0.25623099724E+03 -0.12415032288E+04  0.12954669033E+04  0.50400001928E-02 0.  1.
       -1    1    3    3    0  502 -0.26692678079E+03 -0.25623099724E+03 -0.24103175519E+03  0.44158865168E+03  0.50400001928E-02 0. -1.
</event>
<event>
 5   0  0.6137243E-03  0.8868962E+03  0.7818609E-02  0.9442112E-01
        1   -1    0    0  501    0  0.00000000000E+00  0.00000000000E+00  0.52932696332E+03  0.52932696334E+03  0.50400001928E-02 0.  1.
       -1   -1    0    0    0  501  0.00000000000E+00  0.00000000000E+00 -0.37150233556E+03  0.37150233559E+03  0.50400001928E-02 0. -1.
    10030    2    1    2    0    0  0.00000000000E+00  0.00000000000E+00  0.15782462776E+03  0.90082929893E+03  0.88689616793E+03 0.  0.
        4    1    3    3  502    0  0.89258629695E+02  0.43436680161E+03  0.80662449008E+02  0.45072127185E+03  0.12699999809E+01 0. -1.
       -4    1    3    3    0  502 -0.89258629695E+02 -0.43436680161E+03  0.77162178755E+02  0.45010802708E+03  0.12699999809E+01 0.  1.
</event>
<event>
 5   0  0.1003252E-02  0.9134174E+03  0.7818609E-02  0.9408963E-01
       -2   -1    0    0    0  501  0.00000000000E+00  0.00000000000E+00  0.15814906034E+03  0.15814906036E+03  0.25500000920E-02 0.  1.
        2   -1    0    0  501    0  0.00000000000E+00  0.00000000000E+00 -0.13189003256E+04  0.13189003256E+04  0.25500000920E-02 0. -1.
    10030    2    1    2    0    0  0.00000000000E+00  0.00000000000E+00 -0.11607512652E+04  0.14770493859E+04  0.91341742306E+03 0.  0.
        2    1    3    3  502    0  0.39210930305E+03  0.15659626149E+02 -0.20256516237E+03  0.44161926413E+03  0.25500000920E-02 0.  1.
       -2    1    3    3    0  502 -0.39210930305E+03 -0.15659626149E+02 -0.95818610284E+03  0.10354301218E+04  0.25500000920E-02 0. -1.
</event>
<event>
 5   0  0.3996375E-03  0.8963888E+03  0.7818609E-02  0.9430107E-01
        3   -1    0    0  501    0  0.00000000000E+00  0.00000000000E+00  0.58012369881E+03  0.58012370760E+03  0.10100000352E+00 0.  1.
       -3   -1    0    0    0  501  0.00000000000E+00  0.00000000000E+00 -0.34626790857E+03  0.34626792330E+03  0.10100000352E+00 0. -1.
    10030    2    1    2    0    0  0.00000000000E+00  0.00000000000E+00  0.23385579023E+03  0.92639163090E+03  0.89638882366E+03 0.  0.
        4    1    3    3  502    0  0.33744346307E+02 -0.36029966049E+03 -0.15635056104E+03  0.39421014332E+03  0.12699999809E+01 0. -1.
       -4    1    3    3    0  502 -0.33744346307E+02  0.36029966049E+03  0.39020635127E+03  0.53218148759E+03  0.12699999809E+01 0.  1.
</event>
<event>
 5   0  0.1033749E-02  0.9052450E+03  0.7818609E-02  0.9419049E-01
       -2   -1    0    0    0  501  0.00000000000E+00  0.00000000000E+00  0.14149405849E+03  0.14149405852E+03  0.25500000920E-02 0.  1.
        2   -1    0    0  501    0  0.00000000000E+00  0.00000000000E+00 -0.14478850985E+04  0.14478850985E+04  0.25500000920E-02 0. -1.
    10030    2    1    2    0    0  0.00000000000E+00  0.00000000000E+00 -0.13063910400E+04  0.15893791570E+04  0.90524502503E+03 0.  0.
        5    1    3    3  502    0 -0.42363428959E+02  0.44798032149E+03 -0.73856191963E+03  0.86485653590E+03  0.46999998093E+01 0. -1.
       -5    1    3    3    0  502  0.42363428959E+02 -0.44798032149E+03 -0.56782912035E+03  0.72452262109E+03  0.46999998093E+01 0.  1.
</event>
<event>
 5   0  0.1033749E-02  0.9035560E+03  0.7818609E-02  0.9421147E-01
        2   -1    0    0  501    0  0.00000000000E+00  0.00000000000E+00  0.42610274756E+03  0.42610274757E+03  0.25500000920E-02 0.  1.
       -2   -1    0    0    0  501  0.00000000000E+00  0.00000000000E+00 -0.47900030703E+03  0.47900030704E+03  0.25500000920E-02 0. -1.
    10030    2    1    2    0    0  0.00000000000E+00  0.00000000000E+00 -0.52897559466E+02  0.90510305461E+03  0.90355596820E+03 0.  0.
        5    1    3    3  502    0  0.35872236534E+03  0.20456469954E+03  0.15703910309E+03  0.44182781895E+03  0.46999998093E+01 0.  1.
       -5    1    3    3    0  502 -0.35872236534E+03 -0.20456469954E+03 -0.20993666256E+03  0.46327523566E+03  0.46999998093E+01 0. -1.
</event>
<event>
 5   0  0.6288003E-03  0.8997977E+03  0.7818609E-02  0.9425834E-01
        1   -1    0    0  501    0  0.00000000000E+00  0.00000000000E+00  0.79059154980E+03  0.79059154981E+03  0.50400001928E-02 0. -1.
       -1   -1    0    0    0  501  0.00000000000E+00  0.00000000000E+00 -0.25602217762E+03  0.25602217767E+03  0.50400001928E-02 0.  1.
    10030    2    1    2    0    0  0.00000000000E+00  0.00000000000E+00  0.53456937218E+03  0.10466137275E+04  0.89979768886E+03 0.  0.
        1    1    3    3  502    0  0.13750550309E+01  0.63546377708E+02  0.78534268862E+03  0.78791063674E+03  0.50400001928E-02 0. -1.
       -1    1    3    3    0  502 -0.13750550309E+01 -0.63546377708E+02 -0.25077331644E+03  0.25870309074E+03  0.50400001928E-02 0.  1.
</event>
<event>
 5   0  0.6137243E-03  0.9009377E+03  0.7818609E-02  0.9424410E-01
       -1   -1    0    0    0  501  0.00000000000E+00  0.00000000000E+00  0.48431651106E+03  0.48431651108E+03  0.50400001928E-02 0.  1.
        1   -1    0    0  501    0  0.00000000000E+00  0.00000000000E+00 -0.41898671251E+03  0.41898671254E+03  0.50400001928E-02 0. -1.
    10030    2    1    2    0    0  0.00000000000E+00  0.00000000000E+00  0.65329798545E+02  0.90330322363E+03  0.90093769554E+03 0.  0.
        4    1    3    3  502    0 -0.25854321442E+03  0.93817208651E+01  0.40239859376E+03  0.47839194346E+03  0.12699999809E+01 0.  1.
       -4    1    3    3    0  502  0.25854321442E+03 -0.93817208651E+01 -0.33706879521E+03  0.42491128017E+03  0.12699999809E+01 0. -1.
</event>
<event>
 5   0  0.1028978E-02  0.8740723E+03  0.7818609E-02  0.9458586E-01
        2   -1    0    0  501    0  0.00000000000E+00  0.00000000000E+00  0.39089017365E+03  0.39089017366E+03  0.25500000920E-02 0.  1.
       -2   -1    0    0    0  501  0.00000000000E+00  0.00000000000E+00 -0.48862981179E+03  0.48862981179E+03  0.25500000920E-02 0. -1.
    10030    2    1    2    0    0  0.00000000000E+00  0.00000000000E+00 -0.97739638134E+02  0.87951998545E+03  0.87407228989E+03 0.  0.
        3    1    3    3  502    0  0.21743229868E+03 -0.30653812335E+03  0.17558580910E+03  0.41481660061E+03  0.10100000352E+00 0.  1.
       -3    1    3    3    0  502 -0.21743229868E+03  0.30653812335E+03 -0.27332544724E+03  0.46470338485E+03  0.10100000352E+00 0. -1.
</event>
<event>
 5   0  0.1017079E-02  0.9111581E+03  0.7818609E-02  0.9411740E-01
        2   -1    0    0  501    0  0.00000000000E+00  0.00000000000E+00  0.14193754040E+04  0.14193754040E+04  0.25500000920E-02 0. -1.
       -2   -1    0    0    0  501  0.00000000000E+00  0.00000000000E+00 -0.14622789596E+03  0.14622789598E+03  0.25500000920E-02 0.  1.
    10030    2    1    2    0    0  0.00000000000E+00  0.00000000000E+00  0.12731475080E+04  0.15656032999E+04  0.91115811781E+03 0.  0.
        1    1    3    3  502    0 -0.96516412347E+02 -0.40062574097E+03  0.97035751311E+03  0.10542343693E+04  0.50400001928E-02 0.  1.
       -1    1    3    3    0  502  0.96516412347E+02  0.40062574097E+03  0.30278999490E+03  0.51136893063E+03  0.50400001928E-02 0. -1.
</event>
<event>
 5   0  0.1033749E-02  0.8854550E+03  0.7818609E-02  0.9443948E-01
        2   -1    0    0  501    0  0.00000000000E+00  0.00000000000E+00  0.49378404321E+03  0.49378404321E+03  0.25500000920E-02 0. -1.
       -2   -1    0    0    0  501  0.00000000000E+00  0.00000000000E+00 -0.39695010545E+03  0.39695010546E+03  0.25500000920E-02 0.  1.
    10030    2    1    2    0    0  0.00000000000E+00  0.00000000000E+00  0.96833937760E+02  0.89073414867E+03  0.88545497463E+03 0.  0.
        5    1    3    3  502    0  0.85163382943E+02 -0.42588106640E+03 -0.37873552142E+02  0.43598621591E+03  0.46999998093E+01 0.  1.
       -5    1    3    3    0  502 -0.85163382943E+02  0.42588106640E+03  0.13470748990E+03  0.45474793276E+03  0.46999998093E+01 0. -1.
</event>
<event>
 5   0  0.3996375E-03  0.8909419E+03  0.7818609E-02  0.9436976E-01
       -4   -1    0    0    0  501  0.00000000000E+00  0.00000000000E+00  0.31512767380E+03  0.31513023291E+03  0.12699999809E+01 0.  1.
        4   -1    0    0  501    0  0.00000000000E+00  0.00000000000E+00 -0.62972110105E+03  0.62972238170E+03  0.12699999809E+01 0. -1.
    10030    2    1    2    0    0  0.00000000000E+00  0.00000000000E+00 -0.31459342725E+03  0.94485261460E+03  0.89094188298E+03 0.  0.
        4    1    3    3  502    0 -0.19084830938E+02  0.91430839301E+02  0.30462673922E+03  0.31862657186E+03  0.12699999809E+01 0.  1.
       -4    1    3    3    0  502  0.19084830938E+02 -0.91430839301E+02 -0.61922016647E+03  0.62622604275E+03  0.12699999809E+01 0. -1.
</event>
<event>
 5   0  0.1028978E-02  0.8889488E+03  0.7818609E-02  0.9439502E-01
       -2   -1    0    0    0  501  0.00000000000E+00  0.00000000000E+00  0.34251487607E+03  0.34251487608E+03  0.25500000920E-02 0. -1.
        2   -1    0    0  501    0  0.00000000000E+00  0.00000000000E+00 -0.57678514452E+03  0.57678514453E+03  0.25500000920E-02 0.  1.
    10030    2    1    2    0    0  0.00000000000E+00  0.00000000000E+00 -0.23427026845E+03  0.91930002061E+03  0.88894880011E+03 0.  0.
        3    1    3    3  502    0  0.33404256570E+03  0.96109995372E+02  0.16933533561E+03  0.38664716861E+03  0.10100000352E+00 0. -1.
       -3    1    3    3    0  502 -0.33404256570E+03 -0.96109995372E+02 -0.40360560406E+03  0.53265285200E+03  0.10100000352E+00 0.  1.
</event>
<event>
 5   0  0.1041727E-02  0.8989491E+03  0.7818609E-02  0.9426896E-01
        2   -1    0    0  501    0  0.00000000000E+00  0.00000000000E+00  0.15002068945E+04  0.15002068945E+04  0.25500000920E-02 0. -1.
       -2   -1    0    0    0  501  0.00000000000E+00  0.00000000000E+00 -0.13466632746E+03  0.13466632748E+03  0.25500000920E-02 0.  1.
    10030    2    1    2    0    0  0.00000000000E+00  0.00000000000E+00  0.13655405671E+04  0.16348732220E+04  0.89894905959E+03 0.  0.
        4    1    3    3  502    0 -0.15230217827E+02  0.18411537883E+03  0.14279624442E+04  0.14398641558E+04  0.12699999809E+01 0. -1.
       -4    1    3    3    0  502  0.15230217827E+02 -0.18411537883E+03 -0.62421877124E+02  0.19500906620E+03  0.12699999809E+01 0.  1.
</event>
<event>
 5   0  0.3996375E-03  0.8909921E+03  0.7818609E-02  0.9436912E-01
        3   -1    0    0  501    0  0.00000000000E+00  0.00000000000E+00  0.66620403038E+03  0.66620403804E+03  0.10100000352E+00 0. -1.
       -3   -1    0    0    0  501  0.00000000000E+00  0.00000000000E+00 -0.29790679618E+03  0.29790681330E+03  0.10100000352E+00 0.  1.
    10030    2    1    2    0    0  0.00000000000E+00  0.00000000000E+00  0.36829723420E+03  0.96411085134E+03  0.89099207682E+03 0.  0.
        2    1    3    3  502    0 -0.67796322056E+02  0.10080088452E+03  0.64793608379E+03  0.65922555191E+03  0.25500000920E-02 0. -1.
       -2    1    3    3    0  502  0.67796322056E+02 -0.10080088452E+03 -0.27963884959E+03  0.30488529943E+03  0.25500000920E-02 0.  1.
</event>
<event>
 5   0  0.1028978E-02  0.8937526E+03  0.7818609E-02  0.9433425E-01
       -2   -1    0    0    0  501  0.00000000000E+00  0.00000000000E+00  0.31219639077E+03  0.31219639079E+03  0.25500000920E-02 0. -1.
        2   -1    0    0  501    0  0.00000000000E+00  0.00000000000E+00 -0.63965643682E+03  0.63965643682E+03  0.25500000920E-02 0.  1.
    10030    2    1    2    0    0  0.00000000000E+00  0.00000000000E+00 -0.32746004604E+03  0.95185282761E+03  0.89375260764E+03 0.  0.
        3    1    3    3  502    0  0.30017551693E+03  0.76718512709E+01 -0.51620427478E+03  0.59718595243E+03  0.10100000352E+00 0.  1.
       -3    1    3    3    0  502 -0.30017551693E+03 -0.76718512709E+01  0.18874422874E+03  0.35466687518E+03  0.10100000352E+00 0. -1.
</event>
<event>
 5   0  0.1041727E-02  0.8742179E+03  0.7818609E-02  0.9458397E-01
        2   -1    0    0  501    0  0.00000000000E+00  0.00000000000E+00  0.25565961502E+03  0.25565961504E+03  0.25500000920E-02 0. -1.
       -2   -1    0    0    0  501  0.00000000000E+00  0.00000000000E+00 -0.74733831239E+03  0.74733831240E+03  0.25500000920E-02 0.  1.
    10030    2    1    2    0    0  0.00000000000E+00  0.00000000000E+00 -0.49167869737E+03  0.10029979274E+04  0.87421787959E+03 0.  0.
        4    1    3    3  502    0 -0.39126897051E+03 -0.15257867764E+03 -0.10677835646E+03  0.43333000180E+03  0.12699999809E+01 0. -1.
       -4    1    3    3    0  502  0.39126897051E+03  0.15257867764E+03 -0.38490034091E+03  0.56966792563E+03  0.12699999809E+01 0.  1.
</event>
<event>
 5   0  0.1017079E-02  0.8968659E+03  0.7818609E-02  0.9429508E-01
        2   -1    0    0  501    0  0.00000000000E+00  0.00000000000E+00  0.60392541295E+03  0.60392541296E+03  0.25500000920E-02 0. -1.
       -2   -1    0    0    0  501  0.00000000000E+00  0.00000000000E+00 -0.33297507737E+03  0.33297507738E+03  0.25500000920E-02 0.  1.
    10030    2    1    2    0    0  0.00000000000E+00  0.00000000000E+00  0.27095033558E+03  0.93690049034E+03  0.89686590104E+03 0.  0.
        1    1    3    3  502    0  0.38920742214E+03 -0.63096618023E+02  0.35861859523E+03  0.53298301804E+03  0.50400001928E-02 0. -1.
       -1    1    3    3    0  502 -0.38920742214E+03  0.63096618023E+02 -0.87668259646E+02  0.40391747230E+03  0.50400001928E-02 0.  1.
</event>
<event>
 5   0  0.6137243E-03  0.8991337E+03  0.7818609E-02  0.9426665E-01
        1   -1    0    0  501    0  0.00000000000E+00  0.00000000000E+00  0.61599793295E+03  0.61599793297E+03  0.50400001928E-02 0. -1.
       -1   -1    0    0    0  501  0.00000000000E+00  0.00000000000E+00 -0.32810233410E+03  0.32810233414E+03  0.50400001928E-02 0.  1.
    10030    2    1    2    0    0  0.00000000000E+00  0.00000000000E+00  0.28789559885E+03  0.94410026711E+03  0.89913371560E+03 0.  0.
        4    1    3    3  502    0 -0.33549721887E+03 -0.55067873989E+01 -0.17021442748E+03  0.37624895057E+03  0.12699999809E+01 0.  1.
       -4    1    3    3    0  502  0.33549721887E+03  0.55067873989E+01  0.45811002633E+03  0.56785131655E+03  0.12699999809E+01 0. -1.
</event>
<event>
 5   0  0.1028978E-02  0.8999141E+03  0.7818609E-02  0.9425689E-01
        2   -1    0    0  501    0  0.00000000000E+00  0.00000000000E+00  0.64834009853E+03  0.64834009853E+03  0.25500000920E-02 0.  1.
       -2   -1    0    0    0  501  0.00000000000E+00  0.00000000000E+00 -0.31227647146E+03  0.31227647147E+03  0.25500000920E-02 0. -1.
    10030    2    1    2    0    0  0.00000000000E+00  0.00000000000E+00  0.33606362707E+03  0.96061657001E+03  0.89991412542E+03 0.  0.
        3    1    3    3  502    0  0.38009551417E+03  0.19259182540E+03  0.13722407476E+02  0.42632443722E+03  0.10100000352E+00 0. -1.
       -3    1    3    3    0  502 -0.38009551417E+03 -0.19259182540E+03  0.32234121959E+03  0.53429213278E+03  0.10100000352E+00 0.  1.
</event>
<event>
 5   0  0.1033749E-02  0.9141642E+03  0.7818609E-02  0.9408047E-01
       -2   -1    0    0    0  501  0.00000000000E+00  0.00000000000E+00  0.12044796722E+03  0.12044796725E+03  0.25500000920E-02 0. -1.
        2   -1    0    0  501    0  0.00000000000E+00  0.00000000000E+00 -0.17345583885E+04  0.17345583885E+04  0.25500000920E-02 0.  1.
    10030    2    1    2    0    0  0.00000000000E+00  0.00000000000E+00 -0.16141104213E+04  0.18550063558E+04  0.91416416895E+03 0.  0.
        5    1    3    3  502    0  0.44648199252E+03 -0.41733646332E+01 -0.60887606326E+03  0.75506008836E+03  0.46999998093E+01 0.  1.
       -5    1    3    3    0  502 -0.44648199252E+03  0.41733646332E+01 -0.10052343580E+04  0.10999462674E+04  0.46999998093E+01 0. -1.
</event>
<event>
 5   0  0.6015709E-03  0.9051488E+03  0.7818609E-02  0.9419168E-01
       -1   -1    0    0    0  501  0.00000000000E+00  0.00000000000E+00  0.41093426192E+03  0.41093426195E+03  0.50400001928E-02 0.  1.
        1   -1    0    0  501    0  0.00000000000E+00  0.00000000000E+00 -0.49843399562E+03  0.49843399564E+03  0.50400001928E-02 0. -1.
    10030    2    1    2    0    0  0.00000000000E+00  0.00000000000E+00 -0.87499733702E+02  0.90936825759E+03  0.90514884108E+03 0.  0.
        3    1    3    3  502    0 -0.13374328844E+02 -0.11758413973E+03 -0.48261416255E+03  0.49691180574E+03  0.10100000352E+00 0. -1.
       -3    1    3    3    0  502  0.13374328844E+02  0.11758413973E+03  0.39511442885E+03  0.41245645185E+03  0.10100000352E+00 0.  1.
</event>
<event>
 5   0  0.3996375E-03  0.8838747E+03  0.7818609E-02  0.9445966E-01
       -3   -1    0    0    0  501  0.00000000000E+00  0.00000000000E+00  0.56994682968E+03  0.56994683863E+03  0.10100000352E+00 0.  1.
        3   -1    0    0  501    0  0.00000000000E+00  0.00000000000E+00 -0.34267862174E+03  0.34267863663E+03  0.10100000352E+00 0. -1.
    10030    2    1    2    0    0  0.00000000000E+00  0.00000000000E+00  0.22726820794E+03  0.91262547525E+03  0.88387466291E+03 0.  0.
        3    1    3    3  502    0 -0.79354070068E+02  0.40457900044E+03  0.27795653582E+03  0.49723342812E+03  0.10100000352E+00 0.  1.
       -3    1    3    3    0  502  0.79354070068E+02 -0.40457900044E+03 -0.50688327882E+02  0.41539204713E+03  0.10100000352E+00 0. -1.
</event>
<event>
 5   0  0.6137243E-03  0.8996675E+03  0.7818609E-02  0.9425997E-01
        1   -1    0    0  501    0  0.00000000000E+00  0.00000000000E+00  0.12830976715E+04  0.12830976715E+04  0.50400001928E-02 0.  1.
       -1   -1    0    0    0  501  0.00000000000E+00  0.00000000000E+00 -0.15770459789E+03  0.15770459797E+03  0.50400001928E-02 0. -1.
    10030    2    1    2    0    0  0.00000000000E+00  0.00000000000E+00  0.11253930736E+04  0.14408022695E+04  0.89966749948E+03 0.  0.
        4    1    3    3  502    0 -0.19398647582E+03 -0.32366190743E+03  0.17054239276E+03  0.41409431746E+03  0.12699999809E+01 0. -1.
       -4    1    3    3    0  502  0.19398647582E+03  0.32366190743E+03  0.95485068086E+03  0.10267079520E+04  0.12699999809E+01 0.  1.
</event>
<event>
 5   0  0.1041727E-02  0.9010430E+03  0.7818609E-02  0.9424279E-01
       -2   -1    0    0    0  501  0.00000000000E+00  0.00000000000E+00  0.21179560926E+03  0.21179560927E+03  0.25500000920E-02 0. -1.
        2   -1    0    0  501    0  0.00000000000E+00  0.00000000000E+00 -0.95832781828E+03  0.95832781828E+03  0.25500000920E-02 0.  1.
    10030    2    1    2    0    0  0.00000000000E+00  0.00000000000E+00 -0.74653220902E+03  0.11701234276E+04  0.90104300486E+03 0.  0.
        4    1    3    3  502    0  0.26873879245E+03 -0.11576357960E+03  0.71591268782E+02  0.30124519514E+03  0.12699999809E+01 0. -1.
       -4    1    3    3    0  502 -0.26873879245E+03  0.11576357960E+03 -0.81812347780E+03  0.86887823241E+03  0.12699999809E+01 0.  1.
</event>
<event>
 5   0  0.6015709E-03  0.8954085E+03  0.7818609E-02  0.9431339E-01
       -1   -1    0    0    0  501  0.00000000000E+00  0.00000000000E+00  0.17856173078E+04  0.17856173078E+04  0.50400001928E-02 0.  1.
        1   -1    0    0  501    0  0.00000000000E+00  0.00000000000E+00 -0.11225199220E+03  0.11225199231E+03  0.50400001928E-02 0. -1.
    10030    2    1    2    0    0  0.00000000000E+00  0.00000000000E+00  0.16733653156E+04  0.18978693001E+04  0.89540851061E+03 0.  0.
        3    1    3    3  502    0  0.41164401270E+03 -0.16059120197E+03  0.98950789524E+03  0.10836817855E+04  0.10100000352E+00 0.  1.
       -3    1    3    3    0  502 -0.41164401270E+03  0.16059120197E+03  0.68385742037E+03  0.81418751460E+03  0.10100000352E+00 0. -1.
</event>
<event>
 5   0  0.1033749E-02  0.8982662E+03  0.7818609E-02  0.9427751E-01
        2   -1    0    0  501    0  0.00000000000E+00  0.00000000000E+00  0.80805476545E+03  0.80805476545E+03  0.25500000920E-02 0.  1.
       -2   -1    0    0    0  501  0.00000000000E+00  0.00000000000E+00 -0.24963724221E+03  0.24963724223E+03  0.25500000920E-02 0. -1.
    10030    2    1    2    0    0  0.00000000000E+00  0.00000000000E+00  0.55841752324E+03  0.10576920077E+04  0.89826624831E+03 0.  0.
        5    1    3    3  502    0 -0.10858962725E+03 -0.61247628343E+02  0.78724193323E+03  0.79706645304E+03  0.46999998093E+01 0.  1.
       -5    1    3    3    0  502  0.10858962725E+03  0.61247628343E+02 -0.22882441000E+03  0.26062555464E+03  0.46999998093E+01 0. -1.
</event>
<event>
 5   0  0.1003252E-02  0.8930064E+03  0.7818609E-02  0.9434366E-01
        2   -1    0    0  501    0  0.00000000000E+00  0.00000000000E+00  0.16834463493E+04  0.16834463493E+04  0.25500000920E-02 0.  1.
       -2   -1    0    0    0  501  0.00000000000E+00  0.00000000000E+00 -0.11842677420E+03  0.11842677423E+03  0.25500000920E-02 0. -1.
    10030    2    1    2    0    0  0.00000000000E+00  0.00000000000E+00  0.15650195751E+04  0.18018731235E+04  0.89300642935E+03 0.  0.
        2    1    3    3  502    0 -0.15786999541E+02  0.30697408000E+03  0.12904563268E+03  0.33336930043E+03  0.25500000920E-02 0. -1.
       -2    1    3    3    0  502  0.15786999541E+02 -0.30697408000E+03  0.14359739424E+04  0.14685038231E+04  0.25500000920E-02 0.  1.
</event>
<event>
 5   0  0.1033749E-02  0.8980461E+03  0.7818609E-02  0.9428027E-01
       -2   -1    0    0    0  501  0.00000000000E+00  0.00000000000E+00  0.11558088619E+03  0.11558088622E+03  0.25500000920E-02 0.  1.
        2   -1    0    0  501    0  0.00000000000E+00  0.00000000000E+00 -0.17444206913E+04  0.17444206913E+04  0.25500000920E-02 0. -1.
    10030    2    1    2    0    0  0.00000000000E+00  0.00000000000E+00 -0.16288398051E+04  0.18600015775E+04  0.89804607770E+03 0.  0.
        5    1    3    3  502    0  0.43665286140E+03 -0.77339360619E+02 -0.96017608784E+03  0.10576423345E+04  0.46999998093E+01 0. -1.
       -5    1    3    3    0  502 -0.43665286140E+03  0.77339360619E+02 -0.66866371726E+03  0.80235924301E+03  0.46999998093E+01 0.  1.
</event>
<event>
 5   0  0.6211218E-03  0.8929390E+03  0.7818609E-02  0.9434451E-01
        1   -1    0    0  501    0  0.00000000000E+00  0.00000000000E+00  0.48695212025E+03  0.48695212027E+03  0.50400001928E-02 0. -1.
       -1   -1    0    0    0  501  0.00000000000E+00  0.00000000000E+00 -0.40935239838E+03  0.40935239841E+03  0.50400001928E-02 0.  1.
    10030    2    1    2    0    0  0.00000000000E+00  0.00000000000E+00  0.77599721864E+02  0.89630451868E+03  0.89293900877E+03 0.  0.
        5    1    3    3  502    0  0.40319133697E+03  0.16173189284E+03 -0.64507767175E+02  0.43920815269E+03  0.46999998093E+01 0.  1.
       -5    1    3    3    0  502 -0.40319133697E+03 -0.16173189284E+03  0.14210748904E+03  0.45709636599E+03  0.46999998093E+01 0. -1.
</event>
<event>
 5   0  0.6137243E-03  0.8957382E+03  0.7818609E-02  0.9430925E-01
        1   -1    0    0  501    0  0.00000000000E+00  0.00000000000E+00  0.46399636418E+03  0.46399636421E+03  0.50400001928E-02 0. -1.
       -1   -1    0    0    0  501  0.00000000000E+00  0.00000000000E+00 -0.43230233820E+03  0.43230233823E+03  0.50400001928E-02 0.  1.
    10030    2    1    2    0    0  0.00000000000E+00  0.00000000000E+00  0.31694025982E+02  0.89629870243E+03  0.89573816079E+03 0.  0.
        4    1    3    3  502    0 -0.25648621140E+03  0.34685253959E+02  0.38158478185E+03  0.46108220755E+03  0.12699999809E+01 0. -1.
       -4    1    3    3    0  502  0.25648621140E+03 -0.34685253959E+02 -0.34989075586E+03  0.43521649489E+03  0.12699999809E+01 0.  1.
</event>
<event>
 5   0  0.1028978E-02  0.9032834E+03  0.7818609E-02  0.9421486E-01
       -2   -1    0    0    0  501  0.00000000000E+00  0.00000000000E+00  0.31904007222E+03  0.31904007223E+03  0.25500000920E-02 0.  1.
        2   -1    0    0  501    0  0.00000000000E+00  0.00000000000E+00 -0.63935619109E+03  0.63935619110E+03  0.25500000920E-02 0. -1.
    10030    2    1    2    0    0  0.00000000000E+00  0.00000000000E+00 -0.32031611887E+03  0.95839626332E+03  0.90328344474E+03 0.  0.
        3    1    3    3  502    0  0.20328994008E+03 -0.24183270944E+02  0.26698220084E+03  0.33643890396E+03  0.10100000352E+00 0.  1.
       -3    1    3    3    0  502 -0.20328994008E+03  0.24183270944E+02 -0.58729831971E+03  0.62195735936E+03  0.10100000352E+00 0. -1.
</event>
<event>
 5   0  0.6092779E-03  0.9060684E+03  0.7818609E-02  0.9418027E-01
        1   -1    0    0  501    0  0.00000000000E+00  0.00000000000E+00  0.21351653627E+03  0.21351653633E+03  0.50400001928E-02 0. -1.
       -1   -1    0    0    0  501  0.00000000000E+00  0.00000000000E+00 -0.96123694641E+03  0.96123694642E+03  0.50400001928E-02 0.  1.
    10030    2    1    2    0    0  0.00000000000E+00  0.00000000000E+00 -0.74772041013E+03  0.11747534828E+04  0.90606839339E+03 0.  0.
        2    1    3    3  502    0  0.55437482572E+02 -0.44936371928E+03 -0.39390072603E+03  0.60013235928E+03  0.25500000920E-02 0. -1.
       -2    1    3    3    0  502 -0.55437482572E+02  0.44936371928E+03 -0.35381968410E+03  0.57462112347E+03  0.25500000920E-02 0.  1.
</event>
<event>
 5   0  0.1041727E-02  0.9031775E+03  0.7818609E-02  0.9421618E-01
       -2   -1    0    0    0  501  0.00000000000E+00  0.00000000000E+00  0.24163608101E+03  0.24163608102E+03  0.25500000920E-02 0. -1.
        2   -1    0    0  501    0  0.00000000000E+00  0.00000000000E+00 -0.84396493490E+03  0.84396493490E+03  0.25500000920E-02 0.  1.
    10030    2    1    2    0    0  0.00000000000E+00  0.00000000000E+00 -0.60232885389E+03  0.10856010159E+04  0.90317745629E+03 0.  0.
        4    1    3    3  502    0 -0.25432574805E+03  0.26605654542E+03 -0.61566787876E+03  0.71729786094E+03  0.12699999809E+01 0.  1.
       -4    1    3    3    0  502  0.25432574805E+03 -0.26605654542E+03  0.13339024870E+02  0.36830315498E+03  0.12699999809E+01 0. -1.
</event>
<event>
 5   0  0.6137243E-03  0.9012450E+03  0.7818609E-02  0.9424026E-01
        1   -1    0    0  501    0  0.00000000000E+00  0.00000000000E+00  0.47424357573E+03  0.47424357576E+03  0.50400001928E-02 0.  1.
       -1   -1    0    0    0  501  0.00000000000E+00  0.00000000000E+00 -0.42817798023E+03  0.42817798026E+03  0.50400001928E-02 0. -1.
    10030    2    1    2    0    0  0.00000000000E+00  0.00000000000E+00  0.46065595502E+02  0.90242155602E+03  0.90124504197E+03 0.  0.
        4    1    3    3  502    0 -0.36177799326E+03 -0.23457515126E+03  0.15416262524E+03  0.45790451615E+03  0.12699999809E+01 0.  1.
       -4    1    3    3    0  502  0.36177799326E+03  0.23457515126E+03 -0.10809702974E+03  0.44451703986E+03  0.12699999809E+01 0. -1.
</event>
<event>
 5   0  0.6288003E-03  0.9022654E+03  0.7818609E-02  0.9422754E-01
       -1   -1    0    0    0  501  0.00000000000E+00  0.00000000000E+00  0.34517796773E+03  0.34517796777E+03  0.50400001928E-02 0.  1.
        1   -1    0    0  501    0  0.00000000000E+00  0.00000000000E+00 -0.58961094335E+03  0.58961094337E+03  0.50400001928E-02 0. -1.
    10030    2    1    2    0    0  0.00000000000E+00  0.00000000000E+00 -0.24443297562E+03  0.93478891114E+03  0.90226538714E+03 0.  0.
        1    1    3    3  502    0  0.36389855807E+03 -0.26269717939E+03 -0.74866344662E+02  0.45501311873E+03  0.50400001928E-02 0. -1.
       -1    1    3    3    0  502 -0.36389855807E+03  0.26269717939E+03 -0.16956663096E+03  0.47977579241E+03  0.50400001928E-02 0.  1.
</event>
<event>
 5   0  0.6211218E-03  0.8947880E+03  0.7818609E-02  0.9432120E-01
        1   -1    0    0  501    0  0.00000000000E+00  0.00000000000E+00  0.90137946579E+03  0.90137946580E+03  0.50400001928E-02 0.  1.
       -1   -1    0    0    0  501  0.00000000000E+00  0.00000000000E+00 -0.22206119142E+03  0.22206119147E+03  0.50400001928E-02 0. -1.
    10030    2    1    2    0    0  0.00000000000E+00  0.00000000000E+00  0.67931827437E+03  0.11234406573E+04  0.89478801541E+03 0.  0.
        5    1    3    3  502    0 -0.19605052020E+03  0.31183781527E+03  0.65842911703E+03  0.75447307550E+03  0.46999998093E+01 0.  1.
       -5    1    3    3    0  502  0.19605052020E+03 -0.31183781527E+03  0.20889157335E+02  0.36896758177E+03  0.46999998093E+01 0. -1.
</event>
<event>
 5   0  0.6015709E-03  0.8985739E+03  0.7818609E-02  0.9427366E-01
       -1   -1    0    0    0  501  0.00000000000E+00  0.00000000000E+00  0.35283405242E+03  0.35283405245E+03  0.50400001928E-02 0.  1.
        1   -1    0    0  501    0  0.00000000000E+00  0.00000000000E+00 -0.57210681906E+03  0.57210681908E+03  0.50400001928E-02 0. -1.
    10030    2    1    2    0    0  0.00000000000E+00  0.00000000000E+00 -0.21927276664E+03  0.92494087153E+03  0.89857390884E+03 0.  0.
        3    1    3    3  502    0 -0.28042796182E+03 -0.23444579865E+03  0.15928447228E+03  0.39871823081E+03  0.10100000352E+00 0.  1.
       -3    1    3    3    0  502  0.28042796182E+03  0.23444579865E+03 -0.37855723892E+03  0.52622264072E+03  0.10100000352E+00 0. -1.
</event>
<event>
 5   0  0.1003252E-02  0.8990948E+03  0.7818609E-02  0.9426714E-01
       -2   -1    0    0    0  501  0.00000000000E+00  0.00000000000E+00  0.17398956599E+03  0.17398956601E+03  0.25500000920E-02 0.  1.
        2   -1    0    0  501    0  0.00000000000E+00  0.00000000000E+00 -0.11615228012E+04  0.11615228012E+04  0.25500000920E-02 0. -1.
    10030    2    1    2    0    0  0.00000000000E+00  0.00000000000E+00 -0.98753323519E+03  0.13355123672E+04  0.89909476270E+03 0.  0.
        2    1    3    3  502    0  0.20507800364E+03  0.23352872236E+03 -0.11297988460E+02  0.31099886864E+03  0.25500000920E-02 0.  1.
       -2    1    3    3    0  502 -0.20507800364E+03 -0.23352872236E+03 -0.97623524673E+03  0.10245134986E+04  0.25500000920E-02 0. -1.
</event>
<event>
 5   0  0.6137243E-03  0.8994892E+03  0.7818609E-02  0.9426220E-01
       -1   -1    0    0    0  501  0.00000000000E+00  0.00000000000E+00  0.96148502172E+02  0.96148502304E+02  0.50400001928E-02 0.  1.
        1   -1    0    0  501    0  0.00000000000E+00  0.00000000000E+00 -0.21037272755E+04  0.21037272755E+04  0.50400001928E-02 0. -1.
    10030    2    1    2    0    0  0.00000000000E+00  0.00000000000E+00 -0.20075787733E+04  0.21998757778E+04  0.89948924767E+03 0.  0.
        4    1    3    3  502    0 -0.38909803644E+03  0.20102851257E+03 -0.12539071533E+04  0.13281921950E+04  0.12699999809E+01 0. -1.
       -4    1    3    3    0  502  0.38909803644E+03 -0.20102851257E+03 -0.75367162003E+03  0.87168358282E+03  0.12699999809E+01 0.  1.
</event>
<event>
 5   0  0.1033749E-02  0.9064155E+03  0.7818609E-02  0.9417597E-01
       -2   -1    0    0    0  501  0.00000000000E+00  0.00000000000E+00  0.45744984313E+03  0.45744984313E+03  0.25500000920E-02 0. -1.
        2   -1    0    0  501    0  0.00000000000E+00  0.00000000000E+00 -0.44900499117E+03  0.44900499118E+03  0.25500000920E-02 0.  1.
    10030    2    1    2    0    0  0.00000000000E+00  0.00000000000E+00  0.84448519587E+01  0.90645483431E+03  0.90641549585E+03 0.  0.
        5    1    3    3  502    0  0.34744796716E+03 -0.60883113004E+02  0.28874897293E+03  0.45587816651E+03  0.46999998093E+01 0. -1.
       -5    1    3    3    0  502 -0.34744796716E+03  0.60883113004E+02 -0.28030412098E+03  0.45057666780E+03  0.46999998093E+01 0.  1.
</event>
<event>
 5   0  0.3996375E-03  0.9050865E+03  0.7818609E-02  0.9419245E-01
        3   -1    0    0  501    0  0.00000000000E+00  0.00000000000E+00  0.97471731097E+03  0.97471731620E+03  0.10100000352E+00 0. -1.
       -3   -1    0    0    0  501  0.00000000000E+00  0.00000000000E+00 -0.21010747968E+03  0.21010750396E+03  0.10100000352E+00 0.  1.
    10030    2    1    2    0    0  0.00000000000E+00  0.00000000000E+00  0.76460983129E+03  0.11848248202E+04  0.90508654855E+03 0.  0.
        3    1    3    3  502    0  0.33667037292E+03 -0.20299501333E+03  0.67572868104E+03  0.78176926008E+03  0.10100000352E+00 0. -1.
       -3    1    3    3    0  502 -0.33667037292E+03  0.20299501333E+03  0.88881150251E+02  0.40305556008E+03  0.10100000352E+00 0.  1.
</event>
<event>
 5   0  0.1041727E-02  0.9116472E+03  0.7818609E-02  0.9411138E-01
       -2   -1    0    0    0  501  0.00000000000E+00  0.00000000000E+00  0.94554086711E+03  0.94554086712E+03  0.25500000920E-02 0.  1.
        2   -1    0    0  501    0  0.00000000000E+00  0.00000000000E+00 -0.21974211186E+03  0.21974211188E+03  0.25500000920E-02 0. -1.
    10030    2    1    2    0    0  0.00000000000E+00  0.00000000000E+00  0.72579875525E+03  0.11652829790E+04  0.91164718396E+03 0.  0.
        4    1    3    3  502    0  0.12780507629E+03 -0.24551049122E+03 -0.10002699878E+03  0.29430690140E+03  0.12699999809E+01 0. -1.
       -4    1    3    3    0  502 -0.12780507629E+03  0.24551049122E+03  0.82582575403E+03  0.87097607760E+03  0.12699999809E+01 0.  1.
</event>
<event>
 5   0  0.6288003E-03  0.9140027E+03  0.7818609E-02  0.9408245E-01
        1   -1    0    0  501    0  0.00000000000E+00  0.00000000000E+00  0.81927666060E+03  0.81927666062E+03  0.50400001928E-02 0. -1.
       -1   -1    0    0    0  501  0.00000000000E+00  0.00000000000E+00 -0.25492028879E+03  0.25492028884E+03  0.50400001928E-02 0.  1.
    10030    2    1    2    0    0  0.00000000000E+00  0.00000000000E+00  0.56435637181E+03  0.10741969495E+04  0.91400271980E+03 0.  0.
        1    1    3    3  502    0 -0.48634728181E+01 -0.28559991924E+03  0.70143598502E+03  0.75736609928E+03  0.50400001928E-02 0. -1.
       -1    1    3    3    0  502  0.48634728181E+01  0.28559991924E+03 -0.13707961321E+03  0.31683085017E+03  0.50400001928E-02 0.  1.
</event>
<event>
 5   0  0.1033749E-02  0.9133728E+03  0.7818609E-02  0.9409018E-01
       -2   -1    0    0    0  501  0.00000000000E+00  0.00000000000E+00  0.18876183942E+03  0.18876183944E+03  0.25500000920E-02 0. -1.
        2   -1    0    0  501    0  0.00000000000E+00  0.00000000000E+00 -0.11048973135E+04  0.11048973135E+04  0.25500000920E-02 0.  1.
    10030    2    1    2    0    0  0.00000000000E+00  0.00000000000E+00 -0.91613547406E+03  0.12936591529E+04  0.91337275912E+03 0.  0.
        5    1    3    3  502    0  0.74032238769E+02  0.44834030781E+03 -0.52220457623E+03  0.69224960341E+03  0.46999998093E+01 0.  1.
       -5    1    3    3    0  502 -0.74032238769E+02 -0.44834030781E+03 -0.39393089783E+03  0.60140954951E+03  0.46999998093E+01 0. -1.
</event>
<event>
 5   0  0.3996375E-03  0.8783219E+03  0.7818609E-02  0.9453093E-01
       -3   -1    0    0    0  501  0.00000000000E+00  0.00000000000E+00  0.60168588873E+03  0.60168589720E+03  0.10100000352E+00 0. -1.
        3   -1    0    0  501    0  0.00000000000E+00  0.00000000000E+00 -0.32053659990E+03  0.32053661581E+03  0.10100000352E+00 0.  1.
    10030    2    1    2    0    0  0.00000000000E+00  0.00000000000E+00  0.28114928882E+03  0.92222251301E+03  0.87832194605E+03 0.  0.
        1    1    3    3  502    0 -0.21571245743E+03  0.30163631089E+03  0.38759072698E+03  0.53641672234E+03  0.50400001928E-02 0. -1.
       -1    1    3    3    0  502  0.21571245743E+03 -0.30163631089E+03 -0.10644143815E+03  0.38580579068E+03  0.50400001928E-02 0.  1.
</event>
<event>
 5   0  0.1017079E-02  0.9030349E+03  0.7818609E-02  0.9421796E-01
       -2   -1    0    0    0  501  0.00000000000E+00  0.00000000000E+00  0.14770926197E+03  0.14770926200E+03  0.25500000920E-02 0.  1.
        2   -1    0    0  501    0  0.00000000000E+00  0.00000000000E+00 -0.13801978651E+04  0.13801978651E+04  0.25500000920E-02 0. -1.
    10030    2    1    2    0    0  0.00000000000E+00  0.00000000000E+00 -0.12324886031E+04  0.15279071271E+04  0.90303490086E+03 0.  0.
        1    1    3    3  502    0 -0.62237962708E+02 -0.15896243076E+03  0.91001584775E+02  0.19345259588E+03  0.50400001928E-02 0.  1.
       -1    1    3    3    0  502  0.62237962708E+02  0.15896243076E+03 -0.13234901879E+04  0.13344545312E+04  0.50400001928E-02 0. -1.
</event>
<event>
 5   0  0.1028978E-02  0.9638218E+03  0.7818609E-02  0.9349139E-01
       -2   -1    0    0    0  501  0.00000000000E+00  0.00000000000E+00  0.18805376397E+03  0.18805376399E+03  0.25500000920E-02 0.  1.
        2   -1    0    0  501    0  0.00000000000E+00  0.00000000000E+00 -0.12349560147E+04  0.12349560147E+04  0.25500000920E-02 0. -1.
    10030    2    1    2    0    0  0.00000000000E+00  0.00000000000E+00 -0.10469022507E+04  0.14230097787E+04  0.96382182359E+03 0.  0.
        3    1    3    3  502    0 -0.43609982175E+03 -0.40278002365E+02 -0.82032893734E+03  0.92991663478E+03  0.10100000352E+00 0. -1.
       -3    1    3    3    0  502  0.43609982175E+03  0.40278002365E+02 -0.22657331336E+03  0.49309314388E+03  0.10100000352E+00 0.  1.
</event>
<event>
 5   0  0.6288003E-03  0.8991838E+03  0.7818609E-02  0.9426602E-01
       -1   -1    0    0    0  501  0.00000000000E+00  0.00000000000E+00  0.14059427331E+03  0.14059427340E+03  0.50400001928E-02 0. -1.
        1   -1    0    0  501    0  0.00000000000E+00  0.00000000000E+00 -0.14377033303E+04  0.14377033303E+04  0.50400001928E-02 0.  1.
    10030    2    1    2    0    0  0.00000000000E+00  0.00000000000E+00 -0.12971090570E+04  0.15782976037E+04  0.89918375215E+03 0.  0.
        1    1    3    3  502    0 -0.48880875318E+02  0.29348518241E+03 -0.56926616543E+02  0.30292496095E+03  0.50400001928E-02 0. -1.
       -1    1    3    3    0  502  0.48880875318E+02 -0.29348518241E+03 -0.12401824405E+04  0.12753726428E+04  0.50400001928E-02 0.  1.
</event>
<event>
 5   0  0.3996375E-03  0.9036187E+03  0.7818609E-02  0.9421069E-01
        4   -1    0    0  501    0  0.00000000000E+00  0.00000000000E+00  0.98505686143E+03  0.98505768012E+03  0.12699999809E+01 0.  1.
       -4   -1    0    0    0  501  0.00000000000E+00  0.00000000000E+00 -0.20722549760E+03  0.20722938922E+03  0.12699999809E+01 0. -1.
    10030    2    1    2    0    0  0.00000000000E+00  0.00000000000E+00  0.77783136383E+03  0.11922870693E+04  0.90361873882E+03 0.  0.
        5    1    3    3  502    0 -0.23126884428E+03  0.27163364337E+03  0.23162700070E+02  0.35753141850E+03  0.46999998093E+01 0. -1.
       -5    1    3    3    0  502  0.23126884428E+03 -0.27163364337E+03  0.75466866376E+03  0.83475565084E+03  0.46999998093E+01 0.  1.
</event>
<event>
 5   0  0.1017079E-02  0.8904115E+03  0.7818609E-02  0.9437648E-01
        2   -1    0    0  501    0  0.00000000000E+00  0.00000000000E+00  0.53931212587E+03  0.53931212588E+03  0.25500000920E-02 0. -1.
       -2   -1    0    0    0  501  0.00000000000E+00  0.00000000000E+00 -0.36752030409E+03  0.36752030410E+03  0.25500000920E-02 0.  1.
    10030    2    1    2    0    0  0.00000000000E+00  0.00000000000E+00  0.17179182178E+03  0.90683242998E+03  0.89041149253E+03 0.  0.
        1    1    3    3  502    0  0.79489492419E+02 -0.37806356049E+03 -0.13944808799E+03  0.41072667852E+03  0.50400001928E-02 0.  1.
       -1    1    3    3    0  502 -0.79489492419E+02  0.37806356049E+03  0.31123990977E+03  0.49610575146E+03  0.50400001928E-02 0. -1.
</event>
<event>
 5   0  0.1028978E-02  0.8985471E+03  0.7818609E-02  0.9427399E-01
       -2   -1    0    0    0  501  0.00000000000E+00  0.00000000000E+00  0.22714167779E+03  0.22714167781E+03  0.25500000920E-02 0.  1.
        2   -1    0    0  501    0  0.00000000000E+00  0.00000000000E+00 -0.88863793635E+03  0.88863793636E+03  0.25500000920E-02 0. -1.
    10030    2    1    2    0    0  0.00000000000E+00  0.00000000000E+00 -0.66149625856E+03  0.11157796142E+04  0.89854707573E+03 0.  0.
        3    1    3    3  502    0  0.31343456100E+03 -0.14226007947E+03 -0.68928687905E+03  0.77045153389E+03  0.10100000352E+00 0. -1.
       -3    1    3    3    0  502 -0.31343456100E+03  0.14226007947E+03  0.27790620487E+02  0.34532808028E+03  0.10100000352E+00 0.  1.
</event>
<event>
 5   0  0.6211218E-03  0.9086625E+03  0.7818609E-02  0.9414817E-01
        1   -1    0    0  501    0  0.00000000000E+00  0.00000000000E+00  0.35231873469E+03  0.35231873472E+03  0.50400001928E-02 0. -1.
       -1   -1    0    0    0  501  0.00000000000E+00  0.00000000000E+00 -0.58588110223E+03  0.58588110225E+03  0.50400001928E-02 0.  1.
    10030    2    1    2    0    0  0.00000000000E+00  0.00000000000E+00 -0.23356236754E+03  0.93819983697E+03  0.90866250862E+03 0.  0.
        5    1    3    3  502    0  0.29108333345E+03  0.15800943219E+02 -0.47655539351E+03  0.55866475627E+03  0.46999998093E+01 0.  1.
       -5    1    3    3    0  502 -0.29108333345E+03 -0.15800943219E+02  0.24299302596E+03  0.37953508070E+03  0.46999998093E+01 0. -1.
</event>
<event>
 5   0  0.1028978E-02  0.8965290E+03  0.7818609E-02  0.9429931E-01
        2   -1    0    0  501    0  0.00000000000E+00  0.00000000000E+00  0.55851650542E+03  0.55851650543E+03  0.25500000920E-02 0. -1.
       -2   -1    0    0    0  501  0.00000000000E+00  0.00000000000E+00 -0.35977644115E+03  0.35977644116E+03  0.25500000920E-02 0.  1.
    10030    2    1    2    0    0  0.00000000000E+00  0.00000000000E+00  0.19874006427E+03  0.91829294659E+03  0.89652904170E+03 0.  0.
        3    1    3    3  502    0 -0.34966665049E+03 -0.27618172071E+03  0.14952777165E+03  0.47000178087E+03  0.10100000352E+00 0. -1.
       -3    1    3    3    0  502  0.34966665049E+03  0.27618172071E+03  0.49212292615E+02  0.44829116572E+03  0.10100000352E+00 0.  1.
</event>
<event>
 5   0  0.6092779E-03  0.9173366E+03  0.7818609E-02  0.9404166E-01
       -1   -1    0    0    0  501  0.00000000000E+00  0.00000000000E+00  0.10936495165E+04  0.10936495165E+04  0.50400001928E-02 0. -1.
        1   -1    0    0  501    0  0.00000000000E+00  0.00000000000E+00 -0.19236200102E+03  0.19236200109E+03  0.50400001928E-02 0.  1.
    10030    2    1    2    0    0  0.00000000000E+00  0.00000000000E+00  0.90128751547E+03  0.12860115176E+04  0.91733660008E+03 0.  0.
        2    1    3    3  502    0  0.71253668889E+02 -0.30847009828E+03 -0.14620783093E+02  0.31693004618E+03  0.25500000920E-02 0.  1.
       -2    1    3    3    0  502 -0.71253668889E+02  0.30847009828E+03  0.91590829857E+03  0.96908147142E+03  0.25500000920E-02 0. -1.
</event>
<event>
 5   0  0.6137243E-03  0.9071968E+03  0.7818609E-02  0.9416630E-01
        1   -1    0    0  501    0  0.00000000000E+00  0.00000000000E+00  0.16270087069E+03  0.16270087077E+03  0.50400001928E-02 0. -1.
       -1   -1    0    0    0  501  0.00000000000E+00  0.00000000000E+00 -0.12645999785E+04  0.12645999785E+04  0.50400001928E-02 0.  1.
    10030    2    1    2    0    0  0.00000000000E+00  0.00000000000E+00 -0.11018991078E+04  0.14273008493E+04  0.90719682019E+03 0.  0.
        4    1    3    3  502    0  0.11445481311E+03  0.43697281768E+03 -0.48598966700E+03  0.66350035190E+03  0.12699999809E+01 0. -1.
       -4    1    3    3    0  502 -0.11445481311E+03 -0.43697281768E+03 -0.61590944081E+03  0.76380049739E+03  0.12699999809E+01 0.  1.
</event>
<event>
 5   0  0.1028978E-02  0.9045030E+03  0.7818609E-02  0.9419970E-01
        2   -1    0    0  501    0  0.00000000000E+00  0.00000000000E+00  0.97307653921E+03  0.97307653921E+03  0.25500000920E-02 0.  1.
       -2   -1    0    0    0  501  0.00000000000E+00  0.00000000000E+00 -0.21019047019E+03  0.21019047020E+03  0.25500000920E-02 0. -1.
    10030    2    1    2    0    0  0.00000000000E+00  0.00000000000E+00  0.76288606902E+03  0.11832670094E+04  0.90450299130E+03 0.  0.
        3    1    3    3  502    0  0.29461904772E+03  0.26288723254E+03  0.92982673486E+02  0.40565486325E+03  0.10100000352E+00 0. -1.
       -3    1    3    3    0  502 -0.29461904772E+03 -0.26288723254E+03  0.66990339553E+03  0.77761214616E+03  0.10100000352E+00 0.  1.
</event>
<event>
 5   0  0.6015709E-03  0.9166456E+03  0.7818609E-02  0.9405010E-01
        1   -1    0    0  501    0  0.00000000000E+00  0.00000000000E+00  0.83472860954E+03  0.83472860955E+03  0.50400001928E-02 0. -1.
       -1   -1    0    0    0  501  0.00000000000E+00  0.00000000000E+00 -0.25165041319E+03  0.25165041324E+03  0.50400001928E-02 0.  1.
    10030    2    1    2    0    0  0.00000000000E+00  0.00000000000E+00  0.58307819634E+03  0.10863790228E+04  0.91664562297E+03 0.  0.
        3    1    3    3  502    0 -0.13968431073E+03  0.35684418455E+03  0.58951000615E+03  0.70311559239E+03  0.10100000352E+00 0. -1.
       -3    1    3    3    0  502  0.13968431073E+03 -0.35684418455E+03 -0.64318098035E+01  0.38326343040E+03  0.10100000352E+00 0.  1.
</event>
<event>
 5   0  0.6288003E-03  0.8974702E+03  0.7818609E-02  0.9428749E-01
       -1   -1    0    0    0  501  0.00000000000E+00  0.00000000000E+00  0.23139914869E+03  0.23139914875E+03  0.50400001928E-02 0. -1.
        1   -1    0    0  501    0  0.00000000000E+00  0.00000000000E+00 -0.87019845649E+03  0.87019845651E+03  0.50400001928E-02 0.  1.
    10030    2    1    2    0    0  0.00000000000E+00  0.00000000000E+00 -0.63879930780E+03  0.11015976053E+04  0.89747018238E+03 0.  0.
        1    1    3    3  502    0  0.30296555804E+03 -0.21770062793E+03 -0.13320667559E+02  0.37330836177E+03  0.50400001928E-02 0. -1.
       -1    1    3    3    0  502 -0.30296555804E+03  0.21770062793E+03 -0.62547864024E+03  0.72828924349E+03  0.50400001928E-02 0.  1.
</event>
<event>
 5   0  0.6137243E-03  0.8946382E+03  0.7818609E-02  0.9432309E-01
        1   -1    0    0  501    0  0.00000000000E+00  0.00000000000E+00  0.75912642220E+03  0.75912642222E+03  0.50400001928E-02 0.  1.
       -1   -1    0    0    0  501  0.00000000000E+00  0.00000000000E+00 -0.26358503096E+03  0.26358503101E+03  0.50400001928E-02 0. -1.
    10030    2    1    2    0    0  0.00000000000E+00  0.00000000000E+00  0.49554139124E+03  0.10227114532E+04  0.89463816492E+03 0.  0.
        4    1    3    3  502    0  0.44412735047E+03  0.66501545639E+01  0.30825459455E+03  0.54066240479E+03  0.12699999809E+01 0. -1.
       -4    1    3    3    0  502 -0.44412735047E+03 -0.66501545639E+01  0.18728679669E+03  0.48204904844E+03  0.12699999809E+01 0.  1.
</event>
<event>
 5   0  0.1003252E-02  0.8888944E+03  0.7818609E-02  0.9439571E-01
        2   -1    0    0  501    0  0.00000000000E+00  0.00000000000E+00  0.97918452744E+03  0.97918452744E+03  0.25500000920E-02 0.  1.
       -2   -1    0    0    0  501  0.00000000000E+00  0.00000000000E+00 -0.20173247125E+03  0.20173247126E+03  0.25500000920E-02 0. -1.
    10030    2    1    2    0    0  0.00000000000E+00  0.00000000000E+00  0.77745205619E+03  0.11809169987E+04  0.88889440214E+03 0.  0.
        2    1    3    3  502    0  0.85943253048E+02  0.39098111296E+02 -0.18825461320E+03  0.21060556604E+03  0.25500000920E-02 0. -1.
       -2    1    3    3    0  502 -0.85943253048E+02 -0.39098111296E+02  0.96570666939E+03  0.97031143266E+03  0.25500000920E-02 0.  1.
</event>
<event>
 5   0  0.1003252E-02  0.9037090E+03  0.7818609E-02  0.9420957E-01
       -2   -1    0    0    0  501  0.00000000000E+00  0.00000000000E+00  0.14142070899E+04  0.14142070899E+04  0.25500000920E-02 0.  1.
        2   -1    0    0  501    0  0.00000000000E+00  0.00000000000E+00 -0.14437242576E+03  0.14437242578E+03  0.25500000920E-02 0. -1.
    10030    2    1    2    0    0  0.00000000000E+00  0.00000000000E+00  0.12698346641E+04  0.15585795157E+04  0.90370904191E+03 0.  0.
        2    1    3    3  502    0  0.44064994453E+02 -0.10473531018E+03  0.13891648457E+04  0.13938042106E+04  0.25500000920E-02 0.  1.
       -2    1    3    3    0  502 -0.44064994453E+02  0.10473531018E+03 -0.11933018155E+03  0.16477530509E+03  0.25500000920E-02 0. -1.
</event>
<event>
 5   0  0.1003252E-02  0.8274718E+03  0.7818609E-02  0.9521082E-01
        2   -1    0    0  501    0  0.00000000000E+00  0.00000000000E+00  0.26151232354E+03  0.26151232356E+03  0.25500000920E-02 0.  1.
       -2   -1    0    0    0  501  0.00000000000E+00  0.00000000000E+00 -0.65456725294E+03  0.65456725294E+03  0.25500000920E-02 0. -1.
    10030    2    1    2    0    0  0.00000000000E+00  0.00000000000E+00 -0.39305492940E+03  0.91607957650E+03  0.82747182004E+03 0.  0.
        2    1    3    3  502    0 -0.19911273226E+03  0.11434010779E+03  0.18450496038E+03  0.29455325632E+03  0.25500000920E-02 0.  1.
       -2    1    3    3    0  502  0.19911273226E+03 -0.11434010779E+03 -0.57755988978E+03  0.62152632018E+03  0.25500000920E-02 0. -1.
</event>
<event>
 5   0  0.6092779E-03  0.8918924E+03  0.7818609E-02  0.9435774E-01
       -1   -1    0    0    0  501  0.00000000000E+00  0.00000000000E+00  0.27390591917E+03  0.27390591922E+03  0.50400001928E-02 0. -1.
        1   -1    0    0  501    0  0.00000000000E+00  0.00000000000E+00 -0.72604488831E+03  0.72604488833E+03  0.50400001928E-02 0.  1.
    10030    2    1    2    0    0  0.00000000000E+00  0.00000000000E+00 -0.45213896914E+03  0.99995080755E+03  0.89189235343E+03 0.  0.
        2    1    3    3  502    0  0.52220954631E+02 -0.21720004371E+03 -0.65879097978E+03  0.69563527953E+03  0.25500000920E-02 0.  1.
       -2    1    3    3    0  502 -0.52220954631E+02  0.21720004371E+03  0.20665201063E+03  0.30431552802E+03  0.25500000920E-02 0. -1.
</event>
<event>
 5   0  0.6137243E-03  0.8809690E+03  0.7818609E-02  0.9449689E-01
        1   -1    0    0  501    0  0.00000000000E+00  0.00000000000E+00  0.85678878339E+03  0.85678878341E+03  0.50400001928E-02 0.  1.
       -1   -1    0    0    0  501  0.00000000000E+00  0.00000000000E+00 -0.22645792777E+03  0.22645792782E+03  0.50400001928E-02 0. -1.
    10030    2    1    2    0    0  0.00000000000E+00  0.00000000000E+00  0.63033085563E+03  0.10832467112E+04  0.88096904022E+03 0.  0.
        4    1    3    3  502    0 -0.41799399562E+03 -0.87662617524E+02  0.18261113329E+03  0.46449128494E+03  0.12699999809E+01 0. -1.
       -4    1    3    3    0  502  0.41799399562E+03  0.87662617524E+02  0.44771972234E+03  0.61875542629E+03  0.12699999809E+01 0.  1.
</event>
<event>
 5   0  0.6015709E-03  0.8970632E+03  0.7818609E-02  0.9429260E-01
       -1   -1    0    0    0  501  0.00000000000E+00  0.00000000000E+00  0.65057622951E+03  0.65057622953E+03  0.50400001928E-02 0.  1.
        1   -1    0    0  501    0  0.00000000000E+00  0.00000000000E+00 -0.30923444430E+03  0.30923444434E+03  0.50400001928E-02 0. -1.
    10030    2    1    2    0    0  0.00000000000E+00  0.00000000000E+00  0.34134178521E+03  0.95981067387E+03  0.89706316129E+03 0.  0.
        3    1    3    3  502    0 -0.13577389663E+03  0.10261247418E+02  0.62792894637E+03  0.64252207440E+03  0.10100000352E+00 0.  1.
       -3    1    3    3    0  502  0.13577389663E+03 -0.10261247418E+02 -0.28658716116E+03  0.31728859946E+03  0.10100000352E+00 0. -1.
</event>
<event>
 5   0  0.1033749E-02  0.8913913E+03  0.7818609E-02  0.9436407E-01
        2   -1    0    0  501    0  0.00000000000E+00  0.00000000000E+00  0.54846313872E+03  0.54846313872E+03  0.25500000920E-02 0. -1.
       -2   -1    0    0    0  501  0.00000000000E+00  0.00000000000E+00 -0.36218405197E+03  0.36218405198E+03  0.25500000920E-02 0.  1.
    10030    2    1    2    0    0  0.00000000000E+00  0.00000000000E+00  0.18627908675E+03  0.91064719070E+03  0.89139127647E+03 0.  0.
        5    1    3    3  502    0  0.17994200269E+02 -0.26585227809E+03 -0.27181883014E+03  0.38066887373E+03  0.46999998093E+01 0.  1.
       -5    1    3    3    0  502 -0.17994200269E+02  0.26585227809E+03  0.45809791689E+03  0.52997831697E+03  0.46999998093E+01 0. -1.
</event>
<event>
 5   0  0.6137243E-03  0.8778018E+03  0.7818609E-02  0.9453764E-01
       -1   -1    0    0    0  501  0.00000000000E+00  0.00000000000E+00  0.17296846878E+03  0.17296846885E+03  0.50400001928E-02 0. -1.
        1   -1    0    0  501    0  0.00000000000E+00  0.00000000000E+00 -0.11136943272E+04  0.11136943272E+04  0.50400001928E-02 0.  1.
    10030    2    1    2    0    0  0.00000000000E+00  0.00000000000E+00 -0.94072585839E+03  0.12866627960E+04  0.87780180568E+03 0.  0.
        4    1    3    3  502    0  0.27540958294E+03 -0.30669562594E+03 -0.24942514562E+03  0.48179576744E+03  0.12699999809E+01 0.  1.
       -4    1    3    3    0  502 -0.27540958294E+03  0.30669562594E+03 -0.69130071277E+03  0.80486702860E+03  0.12699999809E+01 0. -1.
</event>
<event>
 5   0  0.1033749E-02  0.8931731E+03  0.7818609E-02  0.9434156E-01
        2   -1    0    0  501    0  0.00000000000E+00  0.00000000000E+00  0.90250782861E+03  0.90250782861E+03  0.25500000920E-02 0. -1.
       -2   -1    0    0    0  501  0.00000000000E+00  0.00000000000E+00 -0.22098370659E+03  0.22098370661E+03  0.25500000920E-02 0.  1.
    10030    2    1    2    0    0  0.00000000000E+00  0.00000000000E+00  0.68152412202E+03  0.11234915352E+04  0.89317305200E+03 0.  0.
        5    1    3    3  502    0  0.29254213450E+02 -0.16363957053E+03  0.86210703512E+03  0.87800019820E+03  0.46999998093E+01 0. -1.
       -5    1    3    3    0  502 -0.29254213450E+02  0.16363957053E+03 -0.18058291310E+03  0.24549133702E+03  0.46999998093E+01 0.  1.
</event>
<event>
 5   0  0.6137243E-03  0.9075012E+03  0.7818609E-02  0.9416253E-01
        1   -1    0    0  501    0  0.00000000000E+00  0.00000000000E+00  0.37965029141E+03  0.37965029145E+03  0.50400001928E-02 0. -1.
       -1   -1    0    0    0  501  0.00000000000E+00  0.00000000000E+00 -0.54231381619E+03  0.54231381622E+03  0.50400001928E-02 0.  1.
    10030    2    1    2    0    0  0.00000000000E+00  0.00000000000E+00 -0.16266352478E+03  0.92196410766E+03  0.90750118100E+03 0.  0.
        4    1    3    3  502    0 -0.37177432618E+03 -0.24420432095E+03  0.97411216533E+01  0.44491392688E+03  0.12699999809E+01 0. -1.
       -4    1    3    3    0  502  0.37177432618E+03  0.24420432095E+03 -0.17240464643E+03  0.47705018079E+03  0.12699999809E+01 0.  1.
</event>
<event>
 5   0  0.6211218E-03  0.8941854E+03  0.7818609E-02  0.9432879E-01
        1   -1    0    0  501    0  0.00000000000E+00  0.00000000000E+00  0.10325561310E+04  0.10325561310E+04  0.50400001928E-02 0.  1.
       -1   -1    0    0    0  501  0.00000000000E+00  0.00000000000E+00 -0.19358934297E+03  0.19358934304E+03  0.50400001928E-02 0. -1.
    10030    2    1    2    0    0  0.00000000000E+00  0.00000000000E+00  0.83896678801E+03  0.12261454740E+04  0.89418535669E+03 0.  0.
        5    1    3    3  502    0  0.35460156033E+02  0.43601738480E+03  0.54591461162E+03  0.69958090003E+03  0.46999998093E+01 0.  1.
       -5    1    3    3    0  502 -0.35460156033E+02 -0.43601738480E+03  0.29305217640E+03  0.52656457401E+03  0.46999998093E+01 0. -1.
</event>
<event>
 5   0  0.6015709E-03  0.8956822E+03  0.7818609E-02  0.9430995E-01
        1   -1    0    0  501    0  0.00000000000E+00  0.00000000000E+00  0.14432796226E+04  0.14432796226E+04  0.50400001928E-02 0.  1.
       -1   -1    0    0    0  501  0.00000000000E+00  0.00000000000E+00 -0.13896242480E+03  0.13896242489E+03  0.50400001928E-02 0. -1.
    10030    2    1    2    0    0  0.00000000000E+00  0.00000000000E+00  0.13043171978E+04  0.15822420475E+04  0.89568216705E+03 0.  0.
        3    1    3    3  502    0  0.46501757428E+02 -0.42615620038E+03  0.88105855224E+03  0.97981411668E+03  0.10100000352E+00 0.  1.
       -3    1    3    3    0  502 -0.46501757428E+02  0.42615620038E+03  0.42325864553E+03  0.60242793078E+03  0.10100000352E+00 0. -1.
</event>
<event>
 5   0  0.6288003E-03  0.9036665E+03  0.7818609E-02  0.9421010E-01
        1   -1    0    0  501    0  0.00000000000E+00  0.00000000000E+00  0.18409068367E+03  0.18409068374E+03  0.50400001928E-02 0.  1.
       -1   -1    0    0    0  501  0.00000000000E+00  0.00000000000E+00 -0.11089820877E+04  0.11089820877E+04  0.50400001928E-02 0. -1.
    10030    2    1    2    0    0  0.00000000000E+00  0.00000000000E+00 -0.92489140405E+03  0.12930727715E+04  0.90366646670E+03 0.  0.
        1    1    3    3  502    0 -0.36402537938E+03  0.13449950337E+03 -0.79356856979E+03  0.88337742116E+03  0.50400001928E-02 0.  1.
       -1    1    3    3    0  502  0.36402537938E+03 -0.13449950337E+03 -0.13132283427E+03  0.40969535031E+03  0.50400001928E-02 0. -1.
</event>
<event>
 5   0  0.1041727E-02  0.8988789E+03  0.7818609E-02  0.9426984E-01
        2   -1    0    0  501    0  0.00000000000E+00  0.00000000000E+00  0.25556160525E+04  0.25556160525E+04  0.25500000920E-02 0. -1.
       -2   -1    0    0    0  501  0.00000000000E+00  0.00000000000E+00 -0.79039975094E+02  0.79039975135E+02  0.25500000920E-02 0.  1.
    10030    2    1    2    0    0  0.00000000000E+00  0.00000000000E+00  0.24765760774E+04  0.26346560276E+04  0.89887892220E+03 0.  0.
        4    1    3    3  502    0  0.57391998668E+02 -0.40620261365E+03  0.70022090920E+03  0.81154503229E+03  0.12699999809E+01 0. -1.
       -4    1    3    3    0  502 -0.57391998668E+02  0.40620261365E+03  0.17763551682E+04  0.18231109953E+04  0.12699999809E+01 0.  1.
</event>
<event>
 5   0  0.1003252E-02  0.9227196E+03  0.7818609E-02  0.9397618E-01
       -2   -1    0    0    0  501  0.00000000000E+00  0.00000000000E+00  0.84105751873E+02  0.84105751912E+02  0.25500000920E-02 0.  1.
        2   -1    0    0  501    0  0.00000000000E+00  0.00000000000E+00 -0.25307766459E+04  0.25307766459E+04  0.25500000920E-02 0. -1.
    10030    2    1    2    0    0  0.00000000000E+00  0.00000000000E+00 -0.24466708940E+04  0.26148823978E+04  0.92271961652E+03 0.  0.
        2    1    3    3  502    0 -0.39920651725E+03 -0.54153103575E+02 -0.18605155292E+04  0.19036324320E+04  0.25500000920E-02 0.  1.
       -2    1    3    3    0  502  0.39920651725E+03  0.54153103575E+02 -0.58615536483E+03  0.71124996574E+03  0.25500000920E-02 0. -1.
</event>
<event>
 5   0  0.6015709E-03  0.8861432E+03  0.7818609E-02  0.9443071E-01
        1   -1    0    0  501    0  0.00000000000E+00  0.00000000000E+00  0.20482019235E+04  0.20482019235E+04  0.50400001928E-02 0. -1.
       -1   -1    0    0    0  501  0.00000000000E+00  0.00000000000E+00 -0.95846227712E+02  0.95846227845E+02  0.50400001928E-02 0.  1.
    10030    2    1    2    0    0  0.00000000000E+00  0.00000000000E+00  0.19523556958E+04  0.21440481514E+04  0.88614316701E+03 0.  0.
        3    1    3    3  502    0 -0.19895115416E+03  0.92099117840E+02  0.19077702860E+04  0.19203258274E+04  0.10100000352E+00 0. -1.
       -3    1    3    3    0  502  0.19895115416E+03 -0.92099117840E+02  0.44585409808E+02  0.22372232392E+03  0.10100000352E+00 0.  1.
</event>
<event>
 5   0  0.1028978E-02  0.9006211E+03  0.7818609E-02  0.9424805E-01
       -2   -1    0    0    0  501  0.00000000000E+00  0.00000000000E+00  0.77458229172E+03  0.77458229172E+03  0.25500000920E-02 0. -1.
        2   -1    0    0  501    0  0.00000000000E+00  0.00000000000E+00 -0.26179219992E+03  0.26179219993E+03  0.25500000920E-02 0.  1.
    10030    2    1    2    0    0  0.00000000000E+00  0.00000000000E+00  0.51279009180E+03  0.10363744917E+04  0.90062112384E+03 0.  0.
        3    1    3    3  502    0  0.42913785740E+03 -0.72432114411E+02  0.12331795480E+03  0.45234172926E+03  0.10100000352E+00 0.  1.
       -3    1    3    3    0  502 -0.42913785740E+03  0.72432114411E+02  0.38947213700E+03  0.58403276240E+03  0.10100000352E+00 0. -1.
</event>
<event>
 5   0  0.6288003E-03  0.8000757E+03  0.7818609E-02  0.9559908E-01
        1   -1    0    0  501    0  0.00000000000E+00  0.00000000000E+00  0.45672199608E+03  0.45672199610E+03  0.50400001928E-02 0. -1.
       -1   -1    0    0    0  501  0.00000000000E+00  0.00000000000E+00 -0.35038883376E+03  0.35038883380E+03  0.50400001928E-02 0.  1.
    10030    2    1    2    0    0  0.00000000000E+00  0.00000000000E+00  0.10633316231E+03  0.80711082991E+03  0.80007571538E+03 0.  0.
        1    1    3    3  502    0  0.31344562080E+03 -0.10230350624E+03 -0.17535593900E+03  0.37344861756E+03  0.50400001928E-02 0.  1.
       -1    1    3    3    0  502 -0.31344562080E+03  0.10230350624E+03  0.28168910131E+03  0.43366221234E+03  0.50400001928E-02 0. -1.
</event>
<event>
 5   0  0.6137243E-03  0.8984353E+03  0.7818609E-02  0.9427539E-01
        1   -1    0    0  501    0  0.00000000000E+00  0.00000000000E+00  0.30254778225E+03  0.30254778229E+03  0.50400001928E-02 0.  1.
       -1   -1    0    0    0  501  0.00000000000E+00  0.00000000000E+00 -0.66699055365E+03  0.66699055367E+03  0.50400001928E-02 0. -1.
    10030    2    1    2    0    0  0.00000000000E+00  0.00000000000E+00 -0.36444277140E+03  0.96953833596E+03  0.89843533505E+03 0.  0.
        4    1    3    3  502    0  0.92172587013E+02  0.42643227047E+03 -0.66724905813E+02  0.44135483803E+03  0.12699999809E+01 0. -1.
       -4    1    3    3    0  502 -0.92172587013E+02 -0.42643227047E+03 -0.29771786559E+03  0.52818349793E+03  0.12699999809E+01 0.  1.
</event>
<event>
 5   0  0.6211218E-03  0.9367353E+03  0.7818609E-02  0.9380791E-01
        1   -1    0    0  501    0  0.00000000000E+00  0.00000000000E+00  0.69191104331E+03  0.69191104333E+03  0.50400001928E-02 0.  1.
       -1   -1    0    0    0  501  0.00000000000E+00  0.00000000000E+00 -0.31704691789E+03  0.31704691793E+03  0.50400001928E-02 0. -1.
    10030    2    1    2    0    0  0.00000000000E+00  0.00000000000E+00  0.37486412542E+03  0.10089579613E+04  0.93673531750E+03 0.  0.
        5    1    3    3  502    0  0.27478702985E+03  0.37916599027E+02 -0.21902256872E+03  0.35346648478E+03  0.46999998093E+01 0. -1.
       -5    1    3    3    0  502 -0.27478702985E+03 -0.37916599027E+02  0.59388669414E+03  0.65549147648E+03  0.46999998093E+01 0.  1.
</event>
<event>
 5   0  0.1028978E-02  0.8920522E+03  0.7818609E-02  0.9435571E-01
       -2   -1    0    0    0  501  0.00000000000E+00  0.00000000000E+00  0.49178635435E+03  0.49178635436E+03  0.25500000920E-02 0.  1.
        2   -1    0    0  501    0  0.00000000000E+00  0.00000000000E+00 -0.40452376806E+03  0.40452376807E+03  0.25500000920E-02 0. -1.
    10030    2    1    2    0    0  0.00000000000E+00  0.00000000000E+00  0.87262586292E+02  0.89631012243E+03  0.89205217146E+03 0.  0.
        3    1    3    3  502    0 -0.30079525113E+03 -0.32904893112E+03  0.29844399433E+02  0.44681280258E+03  0.10100000352E+00 0.  1.
       -3    1    3    3    0  502  0.30079525113E+03  0.32904893112E+03  0.57418186859E+02  0.44949731985E+03  0.10100000352E+00 0. -1.
</event>
<event>
 5   0  0.6288003E-03  0.9018001E+03  0.7818609E-02  0.9423334E-01
        1   -1    0    0  501    0  0.00000000000E+00  0.00000000000E+00  0.39600997905E+03  0.39600997908E+03  0.50400001928E-02 0. -1.
       -1   -1    0    0    0  501  0.00000000000E+00  0.00000000000E+00 -0.51339834550E+03  0.51339834552E+03  0.50400001928E-02 0.  1.
    10030    2    1    2    0    0  0.00000000000E+00  0.00000000000E+00 -0.11738836644E+03  0.90940832460E+03  0.90180012879E+03 0.  0.
        1    1    3    3  502    0  0.24616684730E+03  0.10619234177E+03  0.30690540391E+03  0.40751178772E+03  0.50400001928E-02 0. -1.
       -1    1    3    3    0  502 -0.24616684730E+03 -0.10619234177E+03 -0.42429377035E+03  0.50189653689E+03  0.50400001928E-02 0.  1.
</event>
<event>
 5   0  0.1017079E-02  0.8970323E+03  0.7818609E-02  0.9429299E-01
        2   -1    0    0  501    0  0.00000000000E+00  0.00000000000E+00  0.15410956695E+04  0.15410956695E+04  0.25500000920E-02 0. -1.
       -2   -1    0    0    0  501  0.00000000000E+00  0.00000000000E+00 -0.13053488830E+03  0.13053488833E+03  0.25500000920E-02 0.  1.
    10030    2    1    2    0    0  0.00000000000E+00  0.00000000000E+00  0.14105607812E+04  0.16716305578E+04  0.89703233186E+03 0.  0.
        1    1    3    3  502    0  0.26750263747E+03 -0.13353112194E+02  0.34854162049E+02  0.27009401936E+03  0.50400001928E-02 0.  1.
       -1    1    3    3    0  502 -0.26750263747E+03  0.13353112194E+02  0.13757066191E+04  0.14015365384E+04  0.50400001928E-02 0. -1.
</event>
<event>
 5   0  0.6137243E-03  0.9116136E+03  0.7818609E-02  0.9411179E-01
        1   -1    0    0  501    0  0.00000000000E+00  0.00000000000E+00  0.61507053036E+03  0.61507053038E+03  0.50400001928E-02 0. -1.
       -1   -1    0    0    0  501  0.00000000000E+00  0.00000000000E+00 -0.33778217187E+03  0.33778217191E+03  0.50400001928E-02 0.  1.
    10030    2    1    2    0    0  0.00000000000E+00  0.00000000000E+00  0.27728835849E+03  0.95285270229E+03  0.91161364542E+03 0.  0.
        4    1    3    3  502    0 -0.88181899705E+02 -0.15270922033E+03  0.57796990871E+03  0.60427392934E+03  0.12699999809E+01 0. -1.
       -4    1    3    3    0  502  0.88181899705E+02  0.15270922033E+03 -0.30068155022E+03  0.34857877295E+03  0.12699999809E+01 0.  1.
</event>
<event>
 5   0  0.6211218E-03  0.8912123E+03  0.7818609E-02  0.9436634E-01
       -1   -1    0    0    0  501  0.00000000000E+00  0.00000000000E+00  0.30893255943E+03  0.30893255947E+03  0.50400001928E-02 0.  1.
        1   -1    0    0  501    0  0.00000000000E+00  0.00000000000E+00 -0.64274489832E+03  0.64274489834E+03  0.50400001928E-02 0. -1.
    10030    2    1    2    0    0  0.00000000000E+00  0.00000000000E+00 -0.33381233889E+03  0.95167745781E+03  0.89121226771E+03 0.  0.
        5    1    3    3  502    0 -0.90690823979E+02 -0.41785824057E+03 -0.30075972570E+03  0.52278947710E+03  0.46999998093E+01 0. -1.
       -5    1    3    3    0  502  0.90690823979E+02  0.41785824057E+03 -0.33052613189E+02  0.42888798071E+03  0.46999998093E+01 0.  1.
</event>
<event>
 5   0  0.6092779E-03  0.8908343E+03  0.7818609E-02  0.9437112E-01
        1   -1    0    0  501    0  0.00000000000E+00  0.00000000000E+00  0.98078690391E+03  0.98078690392E+03  0.50400001928E-02 0.  1.
       -1   -1    0    0    0  501  0.00000000000E+00  0.00000000000E+00 -0.20228291262E+03  0.20228291268E+03  0.50400001928E-02 0. -1.
    10030    2    1    2    0    0  0.00000000000E+00  0.00000000000E+00  0.77850399129E+03  0.11830698166E+04  0.89083428679E+03 0.  0.
        2    1    3    3  502    0  0.13657849879E+03 -0.14431658142E+03 -0.14016336544E+03  0.24315988777E+03  0.25500000920E-02 0. -1.
       -2    1    3    3    0  502 -0.13657849879E+03  0.14431658142E+03  0.91866735672E+03  0.93990992883E+03  0.25500000920E-02 0.  1.
</event>
<event>
 5   0  0.6092779E-03  0.8990040E+03  0.7818609E-02  0.9426827E-01
       -1   -1    0    0    0  501  0.00000000000E+00  0.00000000000E+00  0.64776462610E+03  0.64776462612E+03  0.50400001928E-02 0. -1.
        1   -1    0    0  501    0  0.00000000000E+00  0.00000000000E+00 -0.31192200747E+03  0.31192200751E+03  0.50400001928E-02 0.  1.
    10030    2    1    2    0    0  0.00000000000E+00  0.00000000000E+00  0.33584261863E+03  0.95968663363E+03  0.89900398791E+03 0.  0.
        2    1    3    3  502    0 -0.47249037829E+02 -0.20702402199E+03 -0.25500352508E+03  0.33184064710E+03  0.25500000920E-02 0.  1.
       -2    1    3    3    0  502  0.47249037829E+02  0.20702402199E+03  0.59084614371E+03  0.62784598653E+03  0.25500000920E-02 0. -1.
</event>
<event>
 5   0  0.6211218E-03  0.9013355E+03  0.7818609E-02  0.9423913E-01
        1   -1    0    0  501    0  0.00000000000E+00  0.00000000000E+00  0.16546502609E+03  0.16546502616E+03  0.50400001928E-02 0.  1.
       -1   -1    0    0    0  501  0.00000000000E+00  0.00000000000E+00 -0.12274584104E+04  0.12274584104E+04  0.50400001928E-02 0. -1.
    10030    2    1    2    0    0  0.00000000000E+00  0.00000000000E+00 -0.10619933843E+04  0.13929234365E+04  0.90133553786E+03 0.  0.
        5    1    3    3  502    0 -0.16634994538E+03 -0.24115999745E+03 -0.10601665983E+04  0.10999117032E+04  0.46999998093E+01 0. -1.
       -5    1    3    3    0  502  0.16634994538E+03  0.24115999745E+03 -0.18267859328E+01  0.29301173329E+03  0.46999998093E+01 0.  1.
</event>
<event>
 5   0  0.1003252E-02  0.8895400E+03  0.7818609E-02  0.9438752E-01
        2   -1    0    0  501    0  0.00000000000E+00  0.00000000000E+00  0.11337937631E+04  0.11337937631E+04  0.25500000920E-02 0.  1.
       -2   -1    0    0    0  501  0.00000000000E+00  0.00000000000E+00 -0.17447648543E+03  0.17447648545E+03  0.25500000920E-02 0. -1.
    10030    2    1    2    0    0  0.00000000000E+00  0.00000000000E+00  0.95931727766E+03  0.13082702485E+04  0.88953999574E+03 0.  0.
        2    1    3    3  502    0  0.23298063606E+03  0.31335156111E+03  0.79286188128E+03  0.88379813330E+03  0.25500000920E-02 0.  1.
       -2    1    3    3    0  502 -0.23298063606E+03 -0.31335156111E+03  0.16645539638E+03  0.42447211525E+03  0.25500000920E-02 0. -1.
</event>
<event>
 5   0  0.6137243E-03  0.8861519E+03  0.7818609E-02  0.9443060E-01
        1   -1    0    0  501    0  0.00000000000E+00  0.00000000000E+00  0.74415528985E+03  0.74415528986E+03  0.50400001928E-02 0.  1.
       -1   -1    0    0    0  501  0.00000000000E+00  0.00000000000E+00 -0.26381092870E+03  0.26381092875E+03  0.50400001928E-02 0. -1.
    10030    2    1    2    0    0  0.00000000000E+00  0.00000000000E+00  0.48034436114E+03  0.10079662186E+04  0.88615190153E+03 0.  0.
        4    1    3    3  502    0  0.55860434828E+02 -0.38405086650E+03 -0.29878784145E+01  0.38810565128E+03  0.12699999809E+01 0. -1.
       -4    1    3    3    0  502 -0.55860434828E+02  0.38405086650E+03  0.48333223956E+03  0.61986056733E+03  0.12699999809E+01 0.  1.
</event>
<event>
 5   0  0.6288003E-03  0.9234297E+03  0.7818609E-02  0.9396758E-01
        1   -1    0    0  501    0  0.00000000000E+00  0.00000000000E+00  0.42494458533E+03  0.42494458536E+03  0.50400001928E-02 0.  1.
       -1   -1    0    0    0  501  0.00000000000E+00  0.00000000000E+00 -0.50166682184E+03  0.50166682186E+03  0.50400001928E-02 0. -1.
    10030    2    1    2    0    0  0.00000000000E+00  0.00000000000E+00 -0.76722236510E+02  0.92661140722E+03  0.92342969327E+03 0.  0.
        1    1    3    3  502    0  0.64933211014E+02  0.44895357193E+03 -0.12470973765E+03  0.47045525859E+03  0.50400001928E-02 0.  1.
       -1    1    3    3    0  502 -0.64933211014E+02 -0.44895357193E+03  0.47987501137E+02  0.45615614863E+03  0.50400001928E-02 0. -1.
</event>
<event>
 5   0  0.6288003E-03  0.8924107E+03  0.7818609E-02  0.9435118E-01
        1   -1    0    0  501    0  0.00000000000E+00  0.00000000000E+00  0.88646713284E+03  0.88646713286E+03  0.50400001928E-02 0. -1.
       -1   -1    0    0    0  501  0.00000000000E+00  0.00000000000E+00 -0.22459851441E+03  0.22459851447E+03  0.50400001928E-02 0.  1.
    10030    2    1    2    0    0  0.00000000000E+00  0.00000000000E+00  0.66186861843E+03  0.11110656473E+04  0.89241067038E+03 0.  0.
        1    1    3    3  502    0  0.21013940105E+03 -0.30292487667E+03  0.17998697001E+02  0.36911516075E+03  0.50400001928E-02 0.  1.
       -1    1    3    3    0  502 -0.21013940105E+03  0.30292487667E+03  0.64386992143E+03  0.74195048657E+03  0.50400001928E-02 0. -1.
</event>
<event>
 5   0  0.3996375E-03  0.9193164E+03  0.7818609E-02  0.9401752E-01
       -3   -1    0    0    0  501  0.00000000000E+00  0.00000000000E+00  0.36636101196E+03  0.36636102588E+03  0.10100000352E+00 0. -1.
        3   -1    0    0  501    0  0.00000000000E+00  0.00000000000E+00 -0.57671429785E+03  0.57671430670E+03  0.10100000352E+00 0.  1.
    10030    2    1    2    0    0  0.00000000000E+00  0.00000000000E+00 -0.21035328589E+03  0.94307533258E+03  0.91931636450E+03 0.  0.
        3    1    3    3  502    0  0.70803505100E+02 -0.20506851804E+03  0.31053637657E+03  0.37881273051E+03  0.10100000352E+00 0. -1.
       -3    1    3    3    0  502 -0.70803505100E+02  0.20506851804E+03 -0.52088966246E+03  0.56426260206E+03  0.10100000352E+00 0.  1.
</event>
<event>
 5   0  0.1041727E-02  0.9200452E+03  0.7818609E-02  0.9400865E-01
       -2   -1    0    0    0  501  0.00000000000E+00  0.00000000000E+00  0.95046409980E+03  0.95046409981E+03  0.25500000920E-02 0. -1.
        2   -1    0    0  501    0  0.00000000000E+00  0.00000000000E+00 -0.22264995284E+03  0.22264995286E+03  0.25500000920E-02 0.  1.
    10030    2    1    2    0    0  0.00000000000E+00  0.00000000000E+00  0.72781414696E+03  0.11731140527E+04  0.92004518805E+03 0.  0.
        4    1    3    3  502    0 -0.27228363081E+03 -0.15436105241E+03  0.79376250373E+03  0.85324453432E+03  0.12699999809E+01 0. -1.
       -4    1    3    3    0  502  0.27228363081E+03  0.15436105241E+03 -0.65948356773E+02  0.31986951835E+03  0.12699999809E+01 0.  1.
</event>
<event>
 5   0  0.6015709E-03  0.8807604E+03  0.7818609E-02  0.9449957E-01
       -1   -1    0    0    0  501  0.00000000000E+00  0.00000000000E+00  0.25067132293E+03  0.25067132298E+03  0.50400001928E-02 0. -1.
        1   -1    0    0  501    0  0.00000000000E+00  0.00000000000E+00 -0.77366144557E+03  0.77366144559E+03  0.50400001928E-02 0.  1.
    10030    2    1    2    0    0  0.00000000000E+00  0.00000000000E+00 -0.52299012264E+03  0.10243327686E+04  0.88076043984E+03 0.  0.
        3    1    3    3  502    0  0.20510180420E+02 -0.31760481446E+03 -0.61548054388E+03  0.69289955676E+03  0.10100000352E+00 0.  1.
       -3    1    3    3    0  502 -0.20510180420E+02  0.31760481446E+03  0.92490421238E+02  0.33143321181E+03  0.10100000352E+00 0. -1.
</event>
<event>
 5   0  0.1041727E-02  0.9062861E+03  0.7818609E-02  0.9417757E-01
       -2   -1    0    0    0  501  0.00000000000E+00  0.00000000000E+00  0.26191030445E+03  0.26191030446E+03  0.25500000920E-02 0. -1.
        2   -1    0    0  501    0  0.00000000000E+00  0.00000000000E+00 -0.78400367647E+03  0.78400367648E+03  0.25500000920E-02 0.  1.
    10030    2    1    2    0    0  0.00000000000E+00  0.00000000000E+00 -0.52209337203E+03  0.10459139809E+04  0.90628613937E+03 0.  0.
        4    1    3    3  502    0 -0.35050282743E+03  0.14875934928E+03 -0.54457007153E+03  0.66448457600E+03  0.12699999809E+01 0.  1.
       -4    1    3    3    0  502  0.35050282743E+03 -0.14875934928E+03  0.22476699503E+02  0.38142940494E+03  0.12699999809E+01 0. -1.
</event>
<event>
 5   0  0.1028978E-02  0.8905155E+03  0.7818609E-02  0.9437516E-01
        2   -1    0    0  501    0  0.00000000000E+00  0.00000000000E+00  0.18800278304E+03  0.18800278306E+03  0.25500000920E-02 0.  1.
       -2   -1    0    0    0  501  0.00000000000E+00  0.00000000000E+00 -0.10545294073E+04  0.10545294073E+04  0.25500000920E-02 0. -1.
    10030    2    1    2    0    0  0.00000000000E+00  0.00000000000E+00 -0.86652662425E+03  0.12425321904E+04  0.89051549876E+03 0.  0.
        3    1    3    3  502    0  0.28165613053E+03 -0.31964521936E+03 -0.25267515269E+03  0.49532614015E+03  0.10100000352E+00 0.  1.
       -3    1    3    3    0  502 -0.28165613053E+03  0.31964521936E+03 -0.61385147156E+03  0.74720605021E+03  0.10100000352E+00 0. -1.
</event>
<event>
 5   0  0.1017079E-02  0.8991877E+03  0.7818609E-02  0.9426597E-01
        2   -1    0    0  501    0  0.00000000000E+00  0.00000000000E+00  0.18520847071E+04  0.18520847072E+04  0.25500000920E-02 0. -1.
       -2   -1    0    0    0  501  0.00000000000E+00  0.00000000000E+00 -0.10913897421E+03  0.10913897424E+03  0.25500000920E-02 0.  1.
    10030    2    1    2    0    0  0.00000000000E+00  0.00000000000E+00  0.17429457329E+04  0.19612236814E+04  0.89918768923E+03 0.  0.
        1    1    3    3  502    0 -0.17599245574E+03 -0.81407214974E+02  0.17561907313E+04  0.17668634253E+04  0.50400001928E-02 0. -1.
       -1    1    3    3    0  502  0.17599245574E+03  0.81407214974E+02 -0.13244998342E+02  0.19436025605E+03  0.50400001928E-02 0.  1.
</event>
<event>
 5   0  0.1041727E-02  0.9028163E+03  0.7818609E-02  0.9422068E-01
        2   -1    0    0  501    0  0.00000000000E+00  0.00000000000E+00  0.58508604107E+03  0.58508604108E+03  0.25500000920E-02 0. -1.
       -2   -1    0    0    0  501  0.00000000000E+00  0.00000000000E+00 -0.34827241192E+03  0.34827241193E+03  0.25500000920E-02 0.  1.
    10030    2    1    2    0    0  0.00000000000E+00  0.00000000000E+00  0.23681362915E+03  0.93335845301E+03  0.90281631955E+03 0.  0.
        4    1    3    3  502    0 -0.21758809423E+03  0.99228782997E+02  0.51421216265E+03  0.56710377466E+03  0.12699999809E+01 0. -1.
       -4    1    3    3    0  502  0.21758809423E+03 -0.99228782997E+02 -0.27739853349E+03  0.36625467834E+03  0.12699999809E+01 0.  1.
</event>
<event>
 5   0  0.6015709E-03  0.8748350E+03  0.7818609E-02  0.9457597E-01
        1   -1    0    0  501    0  0.00000000000E+00  0.00000000000E+00  0.13131945056E+04  0.13131945056E+04  0.50400001928E-02 0. -1.
       -1   -1    0    0    0  501  0.00000000000E+00  0.00000000000E+00 -0.14570124628E+03  0.14570124637E+03  0.50400001928E-02 0.  1.
    10030    2    1    2    0    0  0.00000000000E+00  0.00000000000E+00  0.11674932593E+04  0.14588957520E+04  0.87483501563E+03 0.  0.
        3    1    3    3  502    0 -0.10055465531E+03  0.26543528396E+03  0.11387596556E+04  0.11736015900E+04  0.10100000352E+00 0. -1.
       -3    1    3    3    0  502  0.10055465531E+03 -0.26543528396E+03  0.28733603753E+02  0.28529416198E+03  0.10100000352E+00 0.  1.
</event>
<event>
 5   0  0.1028978E-02  0.8962114E+03  0.7818609E-02  0.9430330E-01
       -2   -1    0    0    0  501  0.00000000000E+00  0.00000000000E+00  0.37672547878E+03  0.37672547879E+03  0.25500000920E-02 0. -1.
        2   -1    0    0  501    0  0.00000000000E+00  0.00000000000E+00 -0.53301075413E+03  0.53301075414E+03  0.25500000920E-02 0.  1.
    10030    2    1    2    0    0  0.00000000000E+00  0.00000000000E+00 -0.15628527536E+03  0.90973623293E+03  0.89621142941E+03 0.  0.
        3    1    3    3  502    0 -0.28233200697E+03  0.28733062642E+03  0.12110624617E+03  0.42063878103E+03  0.10100000352E+00 0. -1.
       -3    1    3    3    0  502  0.28233200697E+03 -0.28733062642E+03 -0.27739152153E+03  0.48909745190E+03  0.10100000352E+00 0.  1.
</event>
<event>
 5   0  0.6288003E-03  0.9039440E+03  0.7818609E-02  0.9420665E-01
        1   -1    0    0  501    0  0.00000000000E+00  0.00000000000E+00  0.33841002082E+03  0.33841002085E+03  0.50400001928E-02 0.  1.
       -1   -1    0    0    0  501  0.00000000000E+00  0.00000000000E+00 -0.60364249574E+03  0.60364249576E+03  0.50400001928E-02 0. -1.
    10030    2    1    2    0    0  0.00000000000E+00  0.00000000000E+00 -0.26523247492E+03  0.94205251661E+03  0.90394395750E+03 0.  0.
        1    1    3    3  502    0  0.35240835433E+03 -0.26879311419E+03 -0.22487685893E+03  0.49700200014E+03  0.50400001928E-02 0. -1.
       -1    1    3    3    0  502 -0.35240835433E+03  0.26879311419E+03 -0.40355615994E+02  0.44505051647E+03  0.50400001928E-02 0.  1.
</event>
<event>
 5   0  0.1041727E-02  0.9083205E+03  0.7818609E-02  0.9415240E-01
        2   -1    0    0  501    0  0.00000000000E+00  0.00000000000E+00  0.81259689644E+03  0.81259689644E+03  0.25500000920E-02 0.  1.
       -2   -1    0    0    0  501  0.00000000000E+00  0.00000000000E+00 -0.25383007510E+03  0.25383007511E+03  0.25500000920E-02 0. -1.
    10030    2    1    2    0    0  0.00000000000E+00  0.00000000000E+00  0.55876682134E+03  0.10664269715E+04  0.90832049686E+03 0.  0.
        4    1    3    3  502    0 -0.16952174992E+03 -0.35796102272E+03  0.18470953206E+02  0.39650536755E+03  0.12699999809E+01 0. -1.
       -4    1    3    3    0  502  0.16952174992E+03  0.35796102272E+03  0.54029586813E+03  0.66992160400E+03  0.12699999809E+01 0.  1.
</event>
<event>
 5   0  0.1003252E-02  0.9044061E+03  0.7818609E-02  0.9420090E-01
       -2   -1    0    0    0  501  0.00000000000E+00  0.00000000000E+00  0.27140235149E+03  0.27140235150E+03  0.25500000920E-02 0.  1.
        2   -1    0    0  501    0  0.00000000000E+00  0.00000000000E+00 -0.75344813708E+03  0.75344813709E+03  0.25500000920E-02 0. -1.
    10030    2    1    2    0    0  0.00000000000E+00  0.00000000000E+00 -0.48204578560E+03  0.10248504886E+04  0.90440609493E+03 0.  0.
        2    1    3    3  502    0  0.28401771672E+03  0.89110697547E+02 -0.62677011288E+03  0.69386421887E+03  0.25500000920E-02 0. -1.
       -2    1    3    3    0  502 -0.28401771672E+03 -0.89110697547E+02  0.14472432728E+03  0.33098626972E+03  0.25500000920E-02 0.  1.
</event>
<event>
 5   0  0.1017079E-02  0.8711852E+03  0.7818609E-02  0.9462336E-01
        2   -1    0    0  501    0  0.00000000000E+00  0.00000000000E+00  0.13556680848E+03  0.13556680850E+03  0.25500000920E-02 0. -1.
       -2   -1    0    0    0  501  0.00000000000E+00  0.00000000000E+00 -0.13996119545E+04  0.13996119545E+04  0.25500000920E-02 0.  1.
    10030    2    1    2    0    0  0.00000000000E+00  0.00000000000E+00 -0.12640451460E+04  0.15351787630E+04  0.87118522899E+03 0.  0.
        1    1    3    3  502    0  0.11733150306E+02  0.29625588236E+03 -0.69683188982E+02  0.30456684242E+03  0.50400001928E-02 0. -1.
       -1    1    3    3    0  502 -0.11733150306E+02 -0.29625588236E+03 -0.11943619570E+04  0.12306119206E+04  0.50400001928E-02 0.  1.
</event>
<event>
 5   0  0.1028978E-02  0.8761973E+03  0.7818609E-02  0.9455835E-01
       -2   -1    0    0    0  501  0.00000000000E+00  0.00000000000E+00  0.90850952775E+02  0.90850952811E+02  0.25500000920E-02 0. -1.
        2   -1    0    0  501    0  0.00000000000E+00  0.00000000000E+00 -0.21125858791E+04  0.21125858791E+04  0.25500000920E-02 0.  1.
    10030    2    1    2    0    0  0.00000000000E+00  0.00000000000E+00 -0.20217349263E+04  0.22034368319E+04  0.87619732932E+03 0.  0.
        3    1    3    3  502    0  0.21931230348E+03 -0.13608967494E+03 -0.12065174267E+03  0.28491251164E+03  0.10100000352E+00 0. -1.
       -3    1    3    3    0  502 -0.21931230348E+03  0.13608967494E+03 -0.19010831837E+04  0.19185243203E+04  0.10100000352E+00 0.  1.
</event>
<event>
 5   0  0.3996375E-03  0.9001488E+03  0.7818609E-02  0.9425395E-01
       -3   -1    0    0    0  501  0.00000000000E+00  0.00000000000E+00  0.26002714555E+03  0.26002716517E+03  0.10100000352E+00 0.  1.
        3   -1    0    0  501    0  0.00000000000E+00  0.00000000000E+00 -0.77902228036E+03  0.77902228691E+03  0.10100000352E+00 0. -1.
    10030    2    1    2    0    0  0.00000000000E+00  0.00000000000E+00 -0.51899513481E+03  0.10390494521E+04  0.90014877321E+03 0.  0.
        5    1    3    3  502    0 -0.39279581929E+02  0.16455206394E+03  0.22189837523E+03  0.27907211654E+03  0.46999998093E+01 0.  1.
       -5    1    3    3    0  502  0.39279581929E+02 -0.16455206394E+03 -0.74089351004E+03  0.75997733553E+03  0.46999998093E+01 0. -1.
</event>
<event>
 5   0  0.1003252E-02  0.8964708E+03  0.7818609E-02  0.9430004E-01
        2   -1    0    0  501    0  0.00000000000E+00  0.00000000000E+00  0.55528091037E+03  0.55528091038E+03  0.25500000920E-02 0.  1.
       -2   -1    0    0    0  501  0.00000000000E+00  0.00000000000E+00 -0.36182582252E+03  0.36182582253E+03  0.25500000920E-02 0. -1.
    10030    2    1    2    0    0  0.00000000000E+00  0.00000000000E+00  0.19345508785E+03  0.91710673290E+03  0.89647079625E+03 0.  0.
        2    1    3    3  502    0 -0.36751101036E+03  0.58864620230E+02  0.35224811205E+03  0.51245304048E+03  0.25500000920E-02 0.  1.
       -2    1    3    3    0  502  0.36751101036E+03 -0.58864620230E+02 -0.15879302420E+03  0.40465369242E+03  0.25500000920E-02 0. -1.
</event>
<event>
 5   0  0.6092779E-03  0.8964580E+03  0.7818609E-02  0.9430020E-01
       -1   -1    0    0    0  501  0.00000000000E+00  0.00000000000E+00  0.26008661202E+03  0.26008661207E+03  0.50400001928E-02 0. -1.
        1   -1    0    0  501    0  0.00000000000E+00  0.00000000000E+00 -0.77247052007E+03  0.77247052008E+03  0.50400001928E-02 0.  1.
    10030    2    1    2    0    0  0.00000000000E+00  0.00000000000E+00 -0.51238390805E+03  0.10325571321E+04  0.89645800901E+03 0.  0.
        2    1    3    3  502    0  0.11162842152E+03 -0.11907727228E+03  0.22464089873E+03  0.27767577254E+03  0.25500000920E-02 0. -1.
       -2    1    3    3    0  502 -0.11162842152E+03  0.11907727228E+03 -0.73702480678E+03  0.75488135961E+03  0.25500000920E-02 0.  1.
</event>
<event>
 5   0  0.6092779E-03  0.8617889E+03  0.7818609E-02  0.9474649E-01
       -1   -1    0    0    0  501  0.00000000000E+00  0.00000000000E+00  0.50071790858E+03  0.50071790860E+03  0.50400001928E-02 0.  1.
        1   -1    0    0  501    0  0.00000000000E+00  0.00000000000E+00 -0.37080767145E+03  0.37080767149E+03  0.50400001928E-02 0. -1.
    10030    2    1    2    0    0  0.00000000000E+00  0.00000000000E+00  0.12991023712E+03  0.87152558009E+03  0.86178893416E+03 0.  0.
        2    1    3    3  502    0 -0.15424261777E+03  0.70713849189E+02  0.46550938876E+03  0.49546970102E+03  0.25500000920E-02 0.  1.
       -2    1    3    3    0  502  0.15424261777E+03 -0.70713849189E+02 -0.33559915163E+03  0.37605587907E+03  0.25500000920E-02 0. -1.
</event>
<event>
 5   0  0.6137243E-03  0.8900549E+03  0.7818609E-02  0.9438099E-01
       -1   -1    0    0    0  501  0.00000000000E+00  0.00000000000E+00  0.21525023369E+03  0.21525023375E+03  0.50400001928E-02 0.  1.
        1   -1    0    0  501    0  0.00000000000E+00  0.00000000000E+00 -0.92008929046E+03  0.92008929047E+03  0.50400001928E-02 0. -1.
    10030    2    1    2    0    0  0.00000000000E+00  0.00000000000E+00 -0.70483905677E+03  0.11353395242E+04  0.89005490803E+03 0.  0.
        4    1    3    3  502    0 -0.17372890977E+03 -0.33004563812E+03 -0.66208954377E+03  0.75991843918E+03  0.12699999809E+01 0. -1.
       -4    1    3    3    0  502  0.17372890977E+03  0.33004563812E+03 -0.42749513002E+02  0.37542108504E+03  0.12699999809E+01 0.  1.
</event>
<event>
 5   0  0.6211218E-03  0.9033684E+03  0.7818609E-02  0.9421381E-01
       -1   -1    0    0    0  501  0.00000000000E+00  0.00000000000E+00  0.35688637754E+03  0.35688637758E+03  0.50400001928E-02 0. -1.
        1   -1    0    0  501    0  0.00000000000E+00  0.00000000000E+00 -0.57166262557E+03  0.57166262559E+03  0.50400001928E-02 0.  1.
    10030    2    1    2    0    0  0.00000000000E+00  0.00000000000E+00 -0.21477624803E+03  0.92854900317E+03  0.90336837147E+03 0.  0.
        5    1    3    3  502    0  0.26519418884E+03 -0.35137785080E+03 -0.35669224327E+01  0.44026033748E+03  0.46999998093E+01 0. -1.
       -5    1    3    3    0  502 -0.26519418884E+03  0.35137785080E+03 -0.21120932560E+03  0.48828866569E+03  0.46999998093E+01 0.  1.
</event>
<event>
 5   0  0.6211218E-03  0.8867387E+03  0.7818609E-02  0.9442312E-01
        1   -1    0    0  501    0  0.00000000000E+00  0.00000000000E+00  0.30294845390E+03  0.30294845394E+03  0.50400001928E-02 0.  1.
       -1   -1    0    0    0  501  0.00000000000E+00  0.00000000000E+00 -0.64887731818E+03  0.64887731819E+03  0.50400001928E-02 0. -1.
    10030    2    1    2    0    0  0.00000000000E+00  0.00000000000E+00 -0.34592886428E+03  0.95182577214E+03  0.88673869960E+03 0.  0.
        5    1    3    3  502    0  0.34132631763E+03 -0.27889247325E+03 -0.22410184076E+03  0.49449812110E+03  0.46999998093E+01 0.  1.
       -5    1    3    3    0  502 -0.34132631763E+03  0.27889247325E+03 -0.12182702352E+03  0.45732765104E+03  0.46999998093E+01 0. -1.
</event>
<event>
 5   0  0.1028978E-02  0.8932658E+03  0.7818609E-02  0.9434039E-01
       -2   -1    0    0    0  501  0.00000000000E+00  0.00000000000E+00  0.23223254867E+03  0.23223254868E+03  0.25500000920E-02 0. -1.
        2   -1    0    0  501    0  0.00000000000E+00  0.00000000000E+00 -0.85897062444E+03  0.85897062444E+03  0.25500000920E-02 0.  1.
    10030    2    1    2    0    0  0.00000000000E+00  0.00000000000E+00 -0.62673807577E+03  0.10912031731E+04  0.89326577759E+03 0.  0.
        3    1    3    3  502    0  0.12392248785E+03  0.28968822879E+03  0.73326666824E+02  0.32350094770E+03  0.10100000352E+00 0. -1.
       -3    1    3    3    0  502 -0.12392248785E+03 -0.28968822879E+03 -0.70006474259E+03  0.76770222542E+03  0.10100000352E+00 0.  1.
</event>
<event>
 5   0  0.1028978E-02  0.8937465E+03  0.7818609E-02  0.9433432E-01
       -2   -1    0    0    0  501  0.00000000000E+00  0.00000000000E+00  0.13245669707E+03  0.13245669710E+03  0.25500000920E-02 0. -1.
        2   -1    0    0  501    0  0.00000000000E+00  0.00000000000E+00 -0.15076302440E+04  0.15076302440E+04  0.25500000920E-02 0.  1.
    10030    2    1    2    0    0  0.00000000000E+00  0.00000000000E+00 -0.13751735469E+04  0.16400869411E+04  0.89374654695E+03 0.  0.
        3    1    3    3  502    0  0.28913780638E+03 -0.26990420776E+03 -0.30596839544E+03  0.50006561734E+03  0.10100000352E+00 0. -1.
       -3    1    3    3    0  502 -0.28913780638E+03  0.26990420776E+03 -0.10692051515E+04  0.11400213238E+04  0.10100000352E+00 0.  1.
</event>
<event>
 5   0  0.6211218E-03  0.9009248E+03  0.7818609E-02  0.9424426E-01
        1   -1    0    0  501    0  0.00000000000E+00  0.00000000000E+00  0.72085811530E+03  0.72085811531E+03  0.50400001928E-02 0. -1.
       -1   -1    0    0    0  501  0.00000000000E+00  0.00000000000E+00 -0.28149280402E+03  0.28149280407E+03  0.50400001928E-02 0.  1.
    10030    2    1    2    0    0  0.00000000000E+00  0.00000000000E+00  0.43936531127E+03  0.10023509194E+04  0.90092479644E+03 0.  0.
        5    1    3    3  502    0 -0.27799244073E+03 -0.34971469868E+03  0.28373204826E+03  0.52925053877E+03  0.46999998093E+01 0. -1.
       -5    1    3    3    0  502  0.27799244073E+03  0.34971469868E+03  0.15563326301E+03  0.47310038061E+03  0.46999998093E+01 0.  1.
</event>
<event>
 5   0  0.1017079E-02  0.8733385E+03  0.7818609E-02  0.9459537E-01
        2   -1    0    0  501    0  0.00000000000E+00  0.00000000000E+00  0.10346398735E+04  0.10346398735E+04  0.25500000920E-02 0. -1.
       -2   -1    0    0    0  501  0.00000000000E+00  0.00000000000E+00 -0.18429604166E+03  0.18429604167E+03  0.25500000920E-02 0.  1.
    10030    2    1    2    0    0  0.00000000000E+00  0.00000000000E+00  0.85034383181E+03  0.12189359151E+04  0.87333849848E+03 0.  0.
        1    1    3    3  502    0  0.16926002697E+03  0.10387996377E+03 -0.11761784317E+03  0.23081152628E+03  0.50400001928E-02 0.  1.
       -1    1    3    3    0  502 -0.16926002697E+03 -0.10387996377E+03  0.96796167499E+03  0.98812438887E+03  0.50400001928E-02 0. -1.
</event>
<event>
 5   0  0.6092779E-03  0.9031687E+03  0.7818609E-02  0.9421629E-01
        1   -1    0    0  501    0  0.00000000000E+00  0.00000000000E+00  0.25969159297E+03  0.25969159302E+03  0.50400001928E-02 0.  1.
       -1   -1    0    0    0  501  0.00000000000E+00  0.00000000000E+00 -0.78527158860E+03  0.78527158861E+03  0.50400001928E-02 0. -1.
    10030    2    1    2    0    0  0.00000000000E+00  0.00000000000E+00 -0.52557999563E+03  0.10449631816E+04  0.90316871024E+03 0.  0.
        2    1    3    3  502    0  0.96211133475E+02  0.23185291997E+03  0.17153254212E+03  0.30403251753E+03  0.25500000920E-02 0.  1.
       -2    1    3    3    0  502 -0.96211133475E+02 -0.23185291997E+03 -0.69711253775E+03  0.74093066410E+03  0.25500000920E-02 0. -1.
</event>
<event>
 5   0  0.1028978E-02  0.9051087E+03  0.7818609E-02  0.9419218E-01
       -2   -1    0    0    0  501  0.00000000000E+00  0.00000000000E+00  0.30129920285E+03  0.30129920286E+03  0.25500000920E-02 0.  1.
        2   -1    0    0  501    0  0.00000000000E+00  0.00000000000E+00 -0.67974109321E+03  0.67974109322E+03  0.25500000920E-02 0. -1.
    10030    2    1    2    0    0  0.00000000000E+00  0.00000000000E+00 -0.37844189036E+03  0.98104029608E+03  0.90510872173E+03 0.  0.
        3    1    3    3  502    0  0.14897092880E+03 -0.20573470685E+03 -0.59519079098E+03  0.64712533183E+03  0.10100000352E+00 0. -1.
       -3    1    3    3    0  502 -0.14897092880E+03  0.20573470685E+03  0.21674890062E+03  0.33391496425E+03  0.10100000352E+00 0.  1.
</event>
<event>
 5   0  0.1041727E-02  0.8978569E+03  0.7818609E-02  0.9428264E-01
       -2   -1    0    0    0  501  0.00000000000E+00  0.00000000000E+00  0.18561619737E+03  0.18561619739E+03  0.25500000920E-02 0.  1.
        2   -1    0    0  501    0  0.00000000000E+00  0.00000000000E+00 -0.10857713570E+04  0.10857713570E+04  0.25500000920E-02 0. -1.
    10030    2    1    2    0    0  0.00000000000E+00  0.00000000000E+00 -0.90015515966E+03  0.12713875544E+04  0.89785689398E+03 0.  0.
        4    1    3    3  502    0  0.30963716111E+03  0.14997897844E+03 -0.41716398399E+02  0.34656995875E+03  0.12699999809E+01 0.  1.
       -4    1    3    3    0  502 -0.30963716111E+03 -0.14997897844E+03 -0.85843876126E+03  0.92481759567E+03  0.12699999809E+01 0. -1.
</event>
<event>
 5   0  0.1033749E-02  0.9027570E+03  0.7818609E-02  0.9422142E-01
        2   -1    0    0  501    0  0.00000000000E+00  0.00000000000E+00  0.10332708968E+04  0.10332708968E+04  0.25500000920E-02 0.  1.
       -2   -1    0    0    0  501  0.00000000000E+00  0.00000000000E+00 -0.19718211565E+03  0.19718211567E+03  0.25500000920E-02 0. -1.
    10030    2    1    2    0    0  0.00000000000E+00  0.00000000000E+00  0.83608878113E+03  0.12304530124E+04  0.90275698054E+03 0.  0.
        5    1    3    3  502    0  0.90438019287E+02  0.79852226207E+02 -0.17476437227E+03  0.21241489867E+03  0.46999998093E+01 0. -1.
       -5    1    3    3    0  502 -0.90438019287E+02 -0.79852226207E+02  0.10108531534E+04  0.10180381138E+04  0.46999998093E+01 0.  1.
</event>
<event>
 5   0  0.6288003E-03  0.9169114E+03  0.7818609E-02  0.9404685E-01
       -1   -1    0    0    0  501  0.00000000000E+00  0.00000000000E+00  0.14006198955E+03  0.14006198964E+03  0.50400001928E-02 0. -1.
        1   -1    0    0  501    0  0.00000000000E+00  0.00000000000E+00 -0.15006328236E+04  0.15006328236E+04  0.50400001928E-02 0.  1.
    10030    2    1    2    0    0  0.00000000000E+00  0.00000000000E+00 -0.13605708340E+04  0.16406948132E+04  0.91691137834E+03 0.  0.
        1    1    3    3  502    0 -0.18711973588E+03  0.41307278477E+03 -0.55973573245E+03  0.72037976879E+03  0.50400001928E-02 0.  1.
       -1    1    3    3    0  502  0.18711973588E+03 -0.41307278477E+03 -0.80083510157E+03  0.92031504443E+03  0.50400001928E-02 0. -1.
</event>
<event>
 5   0  0.6015709E-03  0.8975012E+03  0.7818609E-02  0.9428710E-01
       -1   -1    0    0    0  501  0.00000000000E+00  0.00000000000E+00  0.83420496283E+02  0.83420496435E+02  0.50400001928E-02 0. -1.
        1   -1    0    0  501    0  0.00000000000E+00  0.00000000000E+00 -0.24140003996E+04  0.24140003996E+04  0.50400001928E-02 0.  1.
    10030    2    1    2    0    0  0.00000000000E+00  0.00000000000E+00 -0.23305799033E+04  0.24974208960E+04  0.89750122352E+03 0.  0.
        3    1    3    3  502    0  0.38961601901E+03  0.43639358954E+01 -0.54583316566E+03  0.67063666851E+03  0.10100000352E+00 0. -1.
       -3    1    3    3    0  502 -0.38961601901E+03 -0.43639358954E+01 -0.17847467376E+04  0.18267842275E+04  0.10100000352E+00 0.  1.
</event>
<event>
 5   0  0.6137243E-03  0.9004178E+03  0.7818609E-02  0.9425059E-01
       -1   -1    0    0    0  501  0.00000000000E+00  0.00000000000E+00  0.23697102298E+03  0.23697102304E+03  0.50400001928E-02 0.  1.
        1   -1    0    0  501    0  0.00000000000E+00  0.00000000000E+00 -0.85532852602E+03  0.85532852603E+03  0.50400001928E-02 0. -1.
    10030    2    1    2    0    0  0.00000000000E+00  0.00000000000E+00 -0.61835750303E+03  0.10922995491E+04  0.90041784930E+03 0.  0.
        4    1    3    3  502    0 -0.15710320329E+03 -0.18606802412E+02  0.20213922516E+03  0.25668951834E+03  0.12699999809E+01 0.  1.
       -4    1    3    3    0  502  0.15710320329E+03  0.18606802412E+02 -0.82049672819E+03  0.83561003073E+03  0.12699999809E+01 0. -1.
</event>
<event>
 5   0  0.6211218E-03  0.8936107E+03  0.7818609E-02  0.9433604E-01
        1   -1    0    0  501    0  0.00000000000E+00  0.00000000000E+00  0.78279821301E+03  0.78279821302E+03  0.50400001928E-02 0. -1.
       -1   -1    0    0    0  501  0.00000000000E+00  0.00000000000E+00 -0.25502742631E+03  0.25502742636E+03  0.50400001928E-02 0.  1.
    10030    2    1    2    0    0  0.00000000000E+00  0.00000000000E+00  0.52777078670E+03  0.10378256394E+04  0.89361068395E+03 0.  0.
        5    1    3    3  502    0  0.39805181129E+03 -0.15957903833E+02  0.28972509784E+02  0.39945136811E+03  0.46999998093E+01 0.  1.
       -5    1    3    3    0  502 -0.39805181129E+03  0.15957903833E+02  0.49879827691E+03  0.63837427127E+03  0.46999998093E+01 0. -1.
</event>
<event>
 5   0  0.1028978E-02  0.8987681E+03  0.7818609E-02  0.9427123E-01
        2   -1    0    0  501    0  0.00000000000E+00  0.00000000000E+00  0.16991089985E+04  0.16991089985E+04  0.25500000920E-02 0. -1.
       -2   -1    0    0    0  501  0.00000000000E+00  0.00000000000E+00 -0.11885406668E+03  0.11885406671E+03  0.25500000920E-02 0.  1.
    10030    2    1    2    0    0  0.00000000000E+00  0.00000000000E+00  0.15802549318E+04  0.18179630652E+04  0.89876807740E+03 0.  0.
        3    1    3    3  502    0  0.23411334984E+03 -0.38161741114E+02  0.18090109622E+02  0.23789207916E+03  0.10100000352E+00 0.  1.
       -3    1    3    3    0  502 -0.23411334984E+03  0.38161741114E+02  0.15621648222E+04  0.15800709861E+04  0.10100000352E+00 0. -1.
</event>
<event>
 5   0  0.6092779E-03  0.9009847E+03  0.7818609E-02  0.9424351E-01
        1   -1    0    0  501    0  0.00000000000E+00  0.00000000000E+00  0.32183596227E+03  0.32183596231E+03  0.50400001928E-02 0. -1.
       -1   -1    0    0    0  501  0.00000000000E+00  0.00000000000E+00 -0.63058011436E+03  0.63058011438E+03  0.50400001928E-02 0.  1.
    10030    2    1    2    0    0  0.00000000000E+00  0.00000000000E+00 -0.30874415209E+03  0.95241607669E+03  0.90098470114E+03 0.  0.
        2    1    3    3  502    0 -0.32350583436E+03 -0.23600246025E+03  0.63782334110E+02  0.40548905319E+03  0.25500000920E-02 0. -1.
       -2    1    3    3    0  502  0.32350583436E+03  0.23600246025E+03 -0.37252648620E+03  0.54692702350E+03  0.25500000920E-02 0.  1.
</event>
<event>
 5   0  0.6137243E-03  0.9004235E+03  0.7818609E-02  0.9425052E-01
       -1   -1    0    0    0  501  0.00000000000E+00  0.00000000000E+00  0.20286957629E+03  0.20286957636E+03  0.50400001928E-02 0. -1.
        1   -1    0    0  501    0  0.00000000000E+00  0.00000000000E+00 -0.99911779282E+03  0.99911779283E+03  0.50400001928E-02 0.  1.
    10030    2    1    2    0    0  0.00000000000E+00  0.00000000000E+00 -0.79624821652E+03  0.12019873692E+04  0.90042346336E+03 0.  0.
        4    1    3    3  502    0  0.11020922528E+03 -0.40139670001E+03 -0.16914226277E+03  0.44930624530E+03  0.12699999809E+01 0. -1.
       -4    1    3    3    0  502 -0.11020922528E+03  0.40139670001E+03 -0.62710595375E+03  0.75268112388E+03  0.12699999809E+01 0.  1.
</event>
<event>
 5   0  0.6015709E-03  0.7504558E+03  0.7818609E-02  0.9634636E-01
        1   -1    0    0  501    0  0.00000000000E+00  0.00000000000E+00  0.47053653221E+03  0.47053653223E+03  0.50400001928E-02 0.  1.
       -1   -1    0    0    0  501  0.00000000000E+00  0.00000000000E+00 -0.29922432518E+03  0.29922432522E+03  0.50400001928E-02 0. -1.
    10030    2    1    2    0    0  0.00000000000E+00  0.00000000000E+00  0.17131220703E+03  0.76976085746E+03  0.75045579843E+03 0.  0.
        3    1    3    3  502    0  0.20291722419E+03 -0.27061614108E+03  0.25227704569E+03  0.42196233678E+03  0.10100000352E+00 0.  1.
       -3    1    3    3    0  502 -0.20291722419E+03  0.27061614108E+03 -0.80964838659E+02  0.34779852067E+03  0.10100000352E+00 0. -1.
</event>
<event>
 5   0  0.6137243E-03  0.9020058E+03  0.7818609E-02  0.9423078E-01
       -1   -1    0    0    0  501  0.00000000000E+00  0.00000000000E+00  0.12153686671E+03  0.12153686682E+03  0.50400001928E-02 0. -1.
        1   -1    0    0  501    0  0.00000000000E+00  0.00000000000E+00 -0.16735959333E+04  0.16735959333E+04  0.50400001928E-02 0.  1.
    10030    2    1    2    0    0  0.00000000000E+00  0.00000000000E+00 -0.15520590666E+04  0.17951328001E+04  0.90200577821E+03 0.  0.
        4    1    3    3  502    0  0.41778390126E+03  0.89230385207E+02 -0.48833971755E+03  0.64883182909E+03  0.12699999809E+01 0. -1.
       -4    1    3    3    0  502 -0.41778390126E+03 -0.89230385207E+02 -0.10637193490E+04  0.11463009710E+04  0.12699999809E+01 0.  1.
</event>
<event>
 5   0  0.1003252E-02  0.8933158E+03  0.7818609E-02  0.9433976E-01
        2   -1    0    0  501    0  0.00000000000E+00  0.00000000000E+00  0.16555624301E+03  0.16555624303E+03  0.25500000920E-02 0.  1.
       -2   -1    0    0    0  501  0.00000000000E+00  0.00000000000E+00 -0.12050482639E+04  0.12050482639E+04  0.25500000920E-02 0. -1.
    10030    2    1    2    0    0  0.00000000000E+00  0.00000000000E+00 -0.10394920209E+04  0.13706045069E+04  0.89331576328E+03 0.  0.
        2    1    3    3  502    0 -0.68246470616E+02  0.25432274044E+03 -0.10732940461E+04  0.11051234078E+04  0.25500000920E-02 0. -1.
       -2    1    3    3    0  502  0.68246470616E+02 -0.25432274044E+03  0.33802025259E+02  0.26548109909E+03  0.25500000920E-02 0.  1.
</event>
<event>
 5   0  0.1033749E-02  0.9027902E+03  0.7818609E-02  0.9422100E-01
        2   -1    0    0  501    0  0.00000000000E+00  0.00000000000E+00  0.11922150491E+04  0.11922150491E+04  0.25500000920E-02 0.  1.
       -2   -1    0    0    0  501  0.00000000000E+00  0.00000000000E+00 -0.17090671248E+03  0.17090671250E+03  0.25500000920E-02 0. -1.
    10030    2    1    2    0    0  0.00000000000E+00  0.00000000000E+00  0.10213083366E+04  0.13631217616E+04  0.90279024059E+03 0.  0.
        5    1    3    3  502    0  0.32443416288E+03 -0.13979916771E+03  0.86444841893E+02  0.36372535521E+03  0.46999998093E+01 0. -1.
       -5    1    3    3    0  502 -0.32443416288E+03  0.13979916771E+03  0.93486349473E+03  0.99939640640E+03  0.46999998093E+01 0.  1.
</event>
<event>
 5   0  0.1028978E-02  0.9051547E+03  0.7818609E-02  0.9419161E-01
       -2   -1    0    0    0  501  0.00000000000E+00  0.00000000000E+00  0.24983030946E+03  0.24983030948E+03  0.25500000920E-02 0. -1.
        2   -1    0    0  501    0  0.00000000000E+00  0.00000000000E+00 -0.81986144934E+03  0.81986144935E+03  0.25500000920E-02 0.  1.
    10030    2    1    2    0    0  0.00000000000E+00  0.00000000000E+00 -0.57003113988E+03  0.10696917588E+04  0.90515465997E+03 0.  0.
        3    1    3    3  502    0  0.16255603445E+03 -0.40350376076E+03 -0.13747553450E+03  0.45622284255E+03  0.10100000352E+00 0. -1.
       -3    1    3    3    0  502 -0.16255603445E+03  0.40350376076E+03 -0.43255560538E+03  0.61346891627E+03  0.10100000352E+00 0.  1.
</event>
<event>
 5   0  0.1033749E-02  0.8954489E+03  0.7818609E-02  0.9431289E-01
       -2   -1    0    0    0  501  0.00000000000E+00  0.00000000000E+00  0.70243192208E+03  0.70243192208E+03  0.25500000920E-02 0. -1.
        2   -1    0    0  501    0  0.00000000000E+00  0.00000000000E+00 -0.28537593736E+03  0.28537593737E+03  0.25500000920E-02 0.  1.
    10030    2    1    2    0    0  0.00000000000E+00  0.00000000000E+00  0.41705598471E+03  0.98780785945E+03  0.89544886667E+03 0.  0.
        5    1    3    3  502    0  0.14852698486E+03  0.25985893812E+03 -0.15875084210E+03  0.33883750208E+03  0.46999998093E+01 0.  1.
       -5    1    3    3    0  502 -0.14852698486E+03 -0.25985893812E+03  0.57580682681E+03  0.64897035737E+03  0.46999998093E+01 0. -1.
</event>
<event>
 5   0  0.6137243E-03  0.8973689E+03  0.7818609E-02  0.9428876E-01
       -1   -1    0    0    0  501  0.00000000000E+00  0.00000000000E+00  0.20603688929E+03  0.20603688935E+03  0.50400001928E-02 0.  1.
        1   -1    0    0  501    0  0.00000000000E+00  0.00000000000E+00 -0.97709560367E+03  0.97709560368E+03  0.50400001928E-02 0. -1.
    10030    2    1    2    0    0  0.00000000000E+00  0.00000000000E+00 -0.77105871438E+03  0.11831324930E+04  0.89736890688E+03 0.  0.
        4    1    3    3  502    0  0.40570212767E+03  0.88652732408E+02 -0.16153859456E+03  0.44558933312E+03  0.12699999809E+01 0.  1.
       -4    1    3    3    0  502 -0.40570212767E+03 -0.88652732408E+02 -0.60952011983E+03  0.73754315991E+03  0.12699999809E+01 0. -1.
</event>
<event>
 5   0  0.6015709E-03  0.8962390E+03  0.7818609E-02  0.9430295E-01
       -1   -1    0    0    0  501  0.00000000000E+00  0.00000000000E+00  0.19990947858E+03  0.19990947864E+03  0.50400001928E-02 0.  1.
        1   -1    0    0  501    0  0.00000000000E+00  0.00000000000E+00 -0.10045101649E+04  0.10045101650E+04  0.50400001928E-02 0. -1.
    10030    2    1    2    0    0  0.00000000000E+00  0.00000000000E+00 -0.80460068637E+03  0.12044196436E+04  0.89623903808E+03 0.  0.
        3    1    3    3  502    0 -0.25015735039E+03  0.20626537758E+03 -0.81800071556E+03  0.87991436333E+03  0.10100000352E+00 0. -1.
       -3    1    3    3    0  502  0.25015735039E+03 -0.20626537758E+03  0.13400029189E+02  0.32450528027E+03  0.10100000352E+00 0.  1.
</event>
<event>
 5   0  0.6015709E-03  0.9028057E+03  0.7818609E-02  0.9422081E-01
       -1   -1    0    0    0  501  0.00000000000E+00  0.00000000000E+00  0.61028552684E+03  0.61028552686E+03  0.50400001928E-02 0. -1.
        1   -1    0    0  501    0  0.00000000000E+00  0.00000000000E+00 -0.33388395544E+03  0.33388395548E+03  0.50400001928E-02 0.  1.
    10030    2    1    2    0    0  0.00000000000E+00  0.00000000000E+00  0.27640157140E+03  0.94416948234E+03  0.90280572811E+03 0.  0.
        3    1    3    3  502    0 -0.51995911105E+02 -0.22163832454E+03 -0.26944975053E+03  0.35274679295E+03  0.10100000352E+00 0.  1.
       -3    1    3    3    0  502  0.51995911105E+02  0.22163832454E+03  0.54585132192E+03  0.59142268939E+03  0.10100000352E+00 0. -1.
</event>
<event>
 5   0  0.6211218E-03  0.9010194E+03  0.7818609E-02  0.9424308E-01
       -1   -1    0    0    0  501  0.00000000000E+00  0.00000000000E+00  0.26891604068E+03  0.26891604073E+03  0.50400001928E-02 0.  1.
        1   -1    0    0  501    0  0.00000000000E+00  0.00000000000E+00 -0.75472991442E+03  0.75472991444E+03  0.50400001928E-02 0. -1.
    10030    2    1    2    0    0  0.00000000000E+00  0.00000000000E+00 -0.48581387374E+03  0.10236459552E+04  0.90101937915E+03 0.  0.
        5    1    3    3  502    0 -0.17111966132E+03  0.29787463615E+03 -0.57398857122E+03  0.66895157316E+03  0.46999998093E+01 0. -1.
       -5    1    3    3    0  502  0.17111966132E+03 -0.29787463615E+03  0.88174697484E+02  0.35469438200E+03  0.46999998093E+01 0.  1.
</event>
<event>
 5   0  0.1003252E-02  0.9009262E+03  0.7818609E-02  0.9424424E-01
       -2   -1    0    0    0  501  0.00000000000E+00  0.00000000000E+00  0.12124091529E+03  0.12124091532E+03  0.25500000920E-02 0.  1.
        2   -1    0    0  501    0  0.00000000000E+00  0.00000000000E+00 -0.16736676152E+04  0.16736676152E+04  0.25500000920E-02 0. -1.
    10030    2    1    2    0    0  0.00000000000E+00  0.00000000000E+00 -0.15524266999E+04  0.17949085305E+04  0.90092617586E+03 0.  0.
        2    1    3    3  502    0  0.14166542547E+03 -0.42569198239E+03 -0.85675316488E+03  0.96711361390E+03  0.25500000920E-02 0.  1.
       -2    1    3    3    0  502 -0.14166542547E+03  0.42569198239E+03 -0.69567353504E+03  0.82779491663E+03  0.25500000920E-02 0. -1.
</event>
<event>
 5   0  0.1028978E-02  0.8840438E+03  0.7818609E-02  0.9445750E-01
       -2   -1    0    0    0  501  0.00000000000E+00  0.00000000000E+00  0.25597197829E+03  0.25597197831E+03  0.25500000920E-02 0.  1.
        2   -1    0    0  501    0  0.00000000000E+00  0.00000000000E+00 -0.76329983347E+03  0.76329983348E+03  0.25500000920E-02 0. -1.
    10030    2    1    2    0    0  0.00000000000E+00  0.00000000000E+00 -0.50732785518E+03  0.10192718118E+04  0.88404381885E+03 0.  0.
        3    1    3    3  502    0 -0.59934946613E+02 -0.15521781777E+03 -0.72581494159E+03  0.74464226875E+03  0.10100000352E+00 0. -1.
       -3    1    3    3    0  502  0.59934946613E+02  0.15521781777E+03  0.21848708641E+03  0.27462954303E+03  0.10100000352E+00 0.  1.
</event>
<event>
 5   0  0.1028978E-02  0.8924762E+03  0.7818609E-02  0.9435036E-01
        2   -1    0    0  501    0  0.00000000000E+00  0.00000000000E+00  0.59266520557E+03  0.59266520557E+03  0.25500000920E-02 0.  1.
       -2   -1    0    0    0  501  0.00000000000E+00  0.00000000000E+00 -0.33598809352E+03  0.33598809353E+03  0.25500000920E-02 0. -1.
    10030    2    1    2    0    0  0.00000000000E+00  0.00000000000E+00  0.25667711205E+03  0.92865329911E+03  0.89247622383E+03 0.  0.
        3    1    3    3  502    0  0.15377323558E+03  0.11749994368E+02  0.56405366375E+03  0.58475705736E+03  0.10100000352E+00 0.  1.
       -3    1    3    3    0  502 -0.15377323558E+03 -0.11749994368E+02 -0.30737655170E+03  0.34389624174E+03  0.10100000352E+00 0. -1.
</event>
<event>
 5   0  0.6092779E-03  0.8982381E+03  0.7818609E-02  0.9427787E-01
        1   -1    0    0  501    0  0.00000000000E+00  0.00000000000E+00  0.81425903969E+03  0.81425903970E+03  0.50400001928E-02 0. -1.
       -1   -1    0    0    0  501  0.00000000000E+00  0.00000000000E+00 -0.24771961185E+03  0.24771961190E+03  0.50400001928E-02 0.  1.
    10030    2    1    2    0    0  0.00000000000E+00  0.00000000000E+00  0.56653942784E+03  0.10619786516E+04  0.89823812721E+03 0.  0.
        2    1    3    3  502    0 -0.10119230011E+01  0.57922329467E+02  0.80982320645E+03  0.81189263204E+03  0.25500000920E-02 0. -1.
       -2    1    3    3    0  502  0.10119230011E+01 -0.57922329467E+02 -0.24328377861E+03  0.25008601957E+03  0.25500000920E-02 0.  1.
</event>
<event>
 5   0  0.1041727E-02  0.9012506E+03  0.7818609E-02  0.9424019E-01
        2   -1    0    0  501    0  0.00000000000E+00  0.00000000000E+00  0.80445486455E+03  0.80445486456E+03  0.25500000920E-02 0.  1.
       -2   -1    0    0    0  501  0.00000000000E+00  0.00000000000E+00 -0.25242333679E+03  0.25242333681E+03  0.25500000920E-02 0. -1.
    10030    2    1    2    0    0  0.00000000000E+00  0.00000000000E+00  0.55203152776E+03  0.10568782014E+04  0.90125064487E+03 0.  0.
        4    1    3    3  502    0 -0.58661807896E+02 -0.23998754402E+03  0.71795625981E+03  0.75927467552E+03  0.12699999809E+01 0.  1.
       -4    1    3    3    0  502  0.58661807896E+02  0.23998754402E+03 -0.16592473205E+03  0.29760352584E+03  0.12699999809E+01 0. -1.
</event>
<event>
 5   0  0.1028978E-02  0.8217882E+03  0.7818609E-02  0.9529004E-01
       -2   -1    0    0    0  501  0.00000000000E+00  0.00000000000E+00  0.22399452953E+03  0.22399452955E+03  0.25500000920E-02 0. -1.
        2   -1    0    0  501    0  0.00000000000E+00  0.00000000000E+00 -0.75374147302E+03  0.75374147302E+03  0.25500000920E-02 0.  1.
    10030    2    1    2    0    0  0.00000000000E+00  0.00000000000E+00 -0.52974694349E+03  0.97773600257E+03  0.82178821274E+03 0.  0.
        3    1    3    3  502    0  0.10523376998E+03 -0.16529972701E+03  0.16482134984E+03  0.25605513793E+03  0.10100000352E+00 0. -1.
       -3    1    3    3    0  502 -0.10523376998E+03  0.16529972701E+03 -0.69456829333E+03  0.72168086464E+03  0.10100000352E+00 0.  1.
</event>
<event>
 5   0  0.1028978E-02  0.8956838E+03  0.7818609E-02  0.9430993E-01
       -2   -1    0    0    0  501  0.00000000000E+00  0.00000000000E+00  0.20800776372E+03  0.20800776374E+03  0.25500000920E-02 0.  1.
        2   -1    0    0  501    0  0.00000000000E+00  0.00000000000E+00 -0.96420613363E+03  0.96420613363E+03  0.25500000920E-02 0. -1.
    10030    2    1    2    0    0  0.00000000000E+00  0.00000000000E+00 -0.75619836990E+03  0.11722138974E+04  0.89568378714E+03 0.  0.
        3    1    3    3  502    0  0.14799893030E+03  0.18516577918E+03 -0.87537128562E+03  0.90689853183E+03  0.10100000352E+00 0. -1.
       -3    1    3    3    0  502 -0.14799893030E+03 -0.18516577918E+03  0.11917291571E+03  0.26531536554E+03  0.10100000352E+00 0.  1.
</event>
<event>
 5   0  0.3996375E-03  0.8912694E+03  0.7818609E-02  0.9436561E-01
        3   -1    0    0  501    0  0.00000000000E+00  0.00000000000E+00  0.55542701068E+03  0.55542701986E+03  0.10100000352E+00 0. -1.
       -3   -1    0    0    0  501  0.00000000000E+00  0.00000000000E+00 -0.35754522172E+03  0.35754523598E+03  0.10100000352E+00 0.  1.
    10030    2    1    2    0    0  0.00000000000E+00  0.00000000000E+00  0.19788178896E+03  0.91297225585E+03  0.89126939673E+03 0.  0.
        5    1    3    3  502    0  0.55266662139E+02 -0.10826055562E+03  0.53809160697E+03  0.55166966505E+03  0.46999998093E+01 0. -1.
       -5    1    3    3    0  502 -0.55266662139E+02  0.10826055562E+03 -0.34020981801E+03  0.36130259079E+03  0.46999998093E+01 0.  1.
</event>
<event>
 5   0  0.1028978E-02  0.9297372E+03  0.7818609E-02  0.9389153E-01
       -2   -1    0    0    0  501  0.00000000000E+00  0.00000000000E+00  0.23148720948E+03  0.23148720950E+03  0.25500000920E-02 0.  1.
        2   -1    0    0  501    0  0.00000000000E+00  0.00000000000E+00 -0.93354104855E+03  0.93354104855E+03  0.25500000920E-02 0. -1.
    10030    2    1    2    0    0  0.00000000000E+00  0.00000000000E+00 -0.70205383906E+03  0.11650282580E+04  0.92973719357E+03 0.  0.
        3    1    3    3  502    0  0.28411604484E+03  0.28341411107E+03 -0.64505159247E+03  0.75969536819E+03  0.10100000352E+00 0. -1.
       -3    1    3    3    0  502 -0.28411604484E+03 -0.28341411107E+03 -0.57002246589E+02  0.40533288986E+03  0.10100000352E+00 0.  1.
</event>
<event>
 5   0  0.1033749E-02  0.8955446E+03  0.7818609E-02  0.9431168E-01
        2   -1    0    0  501    0  0.00000000000E+00  0.00000000000E+00  0.20970839853E+04  0.20970839853E+04  0.25500000920E-02 0. -1.
       -2   -1    0    0    0  501  0.00000000000E+00  0.00000000000E+00 -0.95608976321E+02  0.95608976355E+02  0.25500000920E-02 0.  1.
    10030    2    1    2    0    0  0.00000000000E+00  0.00000000000E+00  0.20014750090E+04  0.21926929616E+04  0.89554464574E+03 0.  0.
        5    1    3    3  502    0 -0.17044187363E+03  0.28159922108E+03  0.25756484382E+03  0.41798360299E+03  0.46999998093E+01 0.  1.
       -5    1    3    3    0  502  0.17044187363E+03 -0.28159922108E+03  0.17439101651E+04  0.17747093586E+04  0.46999998093E+01 0. -1.
</event>
<event>
 5   0  0.6015709E-03  0.9063067E+03  0.7818609E-02  0.9417732E-01
        1   -1    0    0  501    0  0.00000000000E+00  0.00000000000E+00  0.15013165710E+04  0.15013165711E+04  0.50400001928E-02 0.  1.
       -1   -1    0    0    0  501  0.00000000000E+00  0.00000000000E+00 -0.13677858480E+03  0.13677858489E+03  0.50400001928E-02 0. -1.
    10030    2    1    2    0    0  0.00000000000E+00  0.00000000000E+00  0.13645379862E+04  0.16380951559E+04  0.90630669423E+03 0.  0.
        3    1    3    3  502    0  0.90624593379E+02  0.90797350648E+02 -0.10327323574E+03  0.16468863722E+03  0.10100000352E+00 0. -1.
       -3    1    3    3    0  502 -0.90624593379E+02 -0.90797350648E+02  0.14678112220E+04  0.14734065187E+04  0.10100000352E+00 0.  1.
</event>
<event>
 5   0  0.3996375E-03  0.9026322E+03  0.7818609E-02  0.9422297E-01
       -3   -1    0    0    0  501  0.00000000000E+00  0.00000000000E+00  0.23602715567E+03  0.23602717728E+03  0.10100000352E+00 0.  1.
        3   -1    0    0  501    0  0.00000000000E+00  0.00000000000E+00 -0.86297786122E+03  0.86297786713E+03  0.10100000352E+00 0. -1.
    10030    2    1    2    0    0  0.00000000000E+00  0.00000000000E+00 -0.62695070555E+03  0.10990050444E+04  0.90263220663E+03 0.  0.
        3    1    3    3  502    0  0.38852031337E+03  0.93666994631E+02 -0.58181243094E+02  0.40386458997E+03  0.10100000352E+00 0.  1.
       -3    1    3    3    0  502 -0.38852031337E+03 -0.93666994631E+02 -0.56876946246E+03  0.69514045444E+03  0.10100000352E+00 0. -1.
</event>
<event>
 5   0  0.6092779E-03  0.8941917E+03  0.7818609E-02  0.9432871E-01
        1   -1    0    0  501    0  0.00000000000E+00  0.00000000000E+00  0.28760169974E+03  0.28760169979E+03  0.50400001928E-02 0.  1.
       -1   -1    0    0    0  501  0.00000000000E+00  0.00000000000E+00 -0.69504011177E+03  0.69504011178E+03  0.50400001928E-02 0. -1.
    10030    2    1    2    0    0  0.00000000000E+00  0.00000000000E+00 -0.40743841202E+03  0.98264181157E+03  0.89419174133E+03 0.  0.
        2    1    3    3  502    0  0.44178478931E+03 -0.50222631109E+02 -0.25524659930E+03  0.51268600449E+03  0.25500000920E-02 0.  1.
       -2    1    3    3    0  502 -0.44178478931E+03  0.50222631109E+02 -0.15219181272E+03  0.46995580708E+03  0.25500000920E-02 0. -1.
</event>
<event>
 5   0  0.6137243E-03  0.9048049E+03  0.7818609E-02  0.9419595E-01
       -1   -1    0    0    0  501  0.00000000000E+00  0.00000000000E+00  0.46797441392E+03  0.46797441395E+03  0.50400001928E-02 0.  1.
        1   -1    0    0  501    0  0.00000000000E+00  0.00000000000E+00 -0.43734867292E+03  0.43734867295E+03  0.50400001928E-02 0. -1.
    10030    2    1    2    0    0  0.00000000000E+00  0.00000000000E+00  0.30625740994E+02  0.90532308690E+03  0.90480492685E+03 0.  0.
        4    1    3    3  502    0  0.24111011404E+02 -0.34761950955E+03 -0.27337568948E+03  0.44289563646E+03  0.12699999809E+01 0. -1.
       -4    1    3    3    0  502 -0.24111011404E+02  0.34761950955E+03  0.30400143047E+03  0.46242745044E+03  0.12699999809E+01 0.  1.
</event>
<event>
 5   0  0.1028978E-02  0.9722286E+03  0.7818609E-02  0.9339540E-01
       -2   -1    0    0    0  501  0.00000000000E+00  0.00000000000E+00  0.21802825769E+03  0.21802825771E+03  0.25500000920E-02 0.  1.
        2   -1    0    0  501    0  0.00000000000E+00  0.00000000000E+00 -0.10838370258E+04  0.10838370259E+04  0.25500000920E-02 0. -1.
    10030    2    1    2    0    0  0.00000000000E+00  0.00000000000E+00 -0.86580876815E+03  0.13018652836E+04  0.97222857062E+03 0.  0.
        3    1    3    3  502    0  0.41057325379E+02 -0.16514299895E+03 -0.10426501896E+04  0.10564456172E+04  0.10100000352E+00 0. -1.
       -3    1    3    3    0  502 -0.41057325379E+02  0.16514299895E+03  0.17684142147E+03  0.24541966632E+03  0.10100000352E+00 0.  1.
</event>
<event>
 5   0  0.1028978E-02  0.8833053E+03  0.7818609E-02  0.9446695E-01
        2   -1    0    0  501    0  0.00000000000E+00  0.00000000000E+00  0.46288709145E+03  0.46288709146E+03  0.25500000920E-02 0.  1.
       -2   -1    0    0    0  501  0.00000000000E+00  0.00000000000E+00 -0.42139227223E+03  0.42139227224E+03  0.25500000920E-02 0. -1.
    10030    2    1    2    0    0  0.00000000000E+00  0.00000000000E+00  0.41494819223E+02  0.88427936369E+03  0.88330525473E+03 0.  0.
        3    1    3    3  502    0 -0.19341426294E+02  0.23913565421E+03 -0.35046750379E+03  0.42472041780E+03  0.10100000352E+00 0. -1.
       -3    1    3    3    0  502  0.19341426294E+02 -0.23913565421E+03  0.39196232301E+03  0.45955894589E+03  0.10100000352E+00 0.  1.
</event>
<event>
 5   0  0.1017079E-02  0.9276082E+03  0.7818609E-02  0.9391713E-01
        2   -1    0    0  501    0  0.00000000000E+00  0.00000000000E+00  0.12848951747E+04  0.12848951747E+04  0.25500000920E-02 0. -1.
       -2   -1    0    0    0  501  0.00000000000E+00  0.00000000000E+00 -0.16741772055E+03  0.16741772057E+03  0.25500000920E-02 0.  1.
    10030    2    1    2    0    0  0.00000000000E+00  0.00000000000E+00  0.11174774542E+04  0.14523128953E+04  0.92760815286E+03 0.  0.
        1    1    3    3  502    0  0.10914695327E+03  0.42907439159E+02 -0.14381956236E+03  0.18557524697E+03  0.50400001928E-02 0.  1.
       -1    1    3    3    0  502 -0.10914695327E+03 -0.42907439159E+02  0.12612970165E+04  0.12667376483E+04  0.50400001928E-02 0. -1.
</event>
<event>
 5   0  0.6288003E-03  0.9370842E+03  0.7818609E-02  0.9380376E-01
       -1   -1    0    0    0  501  0.00000000000E+00  0.00000000000E+00  0.48972696223E+03  0.48972696226E+03  0.50400001928E-02 0. -1.
        1   -1    0    0  501    0  0.00000000000E+00  0.00000000000E+00 -0.44827367108E+03  0.44827367111E+03  0.50400001928E-02 0.  1.
    10030    2    1    2    0    0  0.00000000000E+00  0.00000000000E+00  0.41453291153E+02  0.93800063337E+03  0.93708420798E+03 0.  0.
        1    1    3    3  502    0 -0.46521163068E+03  0.18636325724E+02  0.73337814800E+02  0.47132537494E+03  0.50400001928E-02 0. -1.
       -1    1    3    3    0  502  0.46521163068E+03 -0.18636325724E+02 -0.31884523647E+02  0.46667525843E+03  0.50400001928E-02 0.  1.
</event>
<event>
 5   0  0.1003252E-02  0.9073149E+03  0.7818609E-02  0.9416483E-01
        2   -1    0    0  501    0  0.00000000000E+00  0.00000000000E+00  0.43413162659E+03  0.43413162659E+03  0.25500000920E-02 0. -1.
       -2   -1    0    0    0  501  0.00000000000E+00  0.00000000000E+00 -0.47406146575E+03  0.47406146576E+03  0.25500000920E-02 0.  1.
    10030    2    1    2    0    0  0.00000000000E+00  0.00000000000E+00 -0.39929839164E+02  0.90819309235E+03  0.90731488522E+03 0.  0.
        2    1    3    3  502    0 -0.34168102292E+03  0.26942990633E+03  0.10848184615E+03  0.44844922432E+03  0.25500000920E-02 0.  1.
       -2    1    3    3    0  502  0.34168102292E+03 -0.26942990633E+03 -0.14841168531E+03  0.45974386803E+03  0.25500000920E-02 0. -1.
</event>
<event>
 5   0  0.1028978E-02  0.8977693E+03  0.7818609E-02  0.9428374E-01
        2   -1    0    0  501    0  0.00000000000E+00  0.00000000000E+00  0.84906014569E+03  0.84906014570E+03  0.25500000920E-02 0. -1.
       -2   -1    0    0    0  501  0.00000000000E+00  0.00000000000E+00 -0.23731819757E+03  0.23731819759E+03  0.25500000920E-02 0.  1.
    10030    2    1    2    0    0  0.00000000000E+00  0.00000000000E+00  0.61174194812E+03  0.10863783433E+04  0.89776928755E+03 0.  0.
        3    1    3    3  502    0  0.65338785568E+02  0.44409800397E+03  0.30310646828E+03  0.54163247258E+03  0.10100000352E+00 0.  1.
       -3    1    3    3    0  502 -0.65338785568E+02 -0.44409800397E+03  0.30863547984E+03  0.54474587071E+03  0.10100000352E+00 0. -1.
</event>
<event>
 5   0  0.6288003E-03  0.8531094E+03  0.7818609E-02  0.9486173E-01
       -1   -1    0    0    0  501  0.00000000000E+00  0.00000000000E+00  0.19746234525E+03  0.19746234532E+03  0.50400001928E-02 0.  1.
        1   -1    0    0  501    0  0.00000000000E+00  0.00000000000E+00 -0.92143592694E+03  0.92143592696E+03  0.50400001928E-02 0. -1.
    10030    2    1    2    0    0  0.00000000000E+00  0.00000000000E+00 -0.72397358169E+03  0.11188982723E+04  0.85310936973E+03 0.  0.
        1    1    3    3  502    0 -0.26549920900E+03  0.14071749211E+03 -0.75905970765E+03  0.81637177950E+03  0.50400001928E-02 0. -1.
       -1    1    3    3    0  502  0.26549920900E+03 -0.14071749211E+03  0.35086125962E+02  0.30252649277E+03  0.50400001928E-02 0.  1.
</event>
<event>
 5   0  0.1041727E-02  0.8996816E+03  0.7818609E-02  0.9425980E-01
       -2   -1    0    0    0  501  0.00000000000E+00  0.00000000000E+00  0.49275990680E+03  0.49275990681E+03  0.25500000920E-02 0.  1.
        2   -1    0    0  501    0  0.00000000000E+00  0.00000000000E+00 -0.41065988221E+03  0.41065988222E+03  0.25500000920E-02 0. -1.
    10030    2    1    2    0    0  0.00000000000E+00  0.00000000000E+00  0.82100024584E+02  0.90341978903E+03  0.89968155542E+03 0.  0.
        4    1    3    3  502    0  0.35626189464E+03  0.17945079456E+03  0.24983214789E+03  0.47068337581E+03  0.12699999809E+01 0.  1.
       -4    1    3    3    0  502 -0.35626189464E+03 -0.17945079456E+03 -0.16773212331E+03  0.43273641322E+03  0.12699999809E+01 0. -1.
</event>
<event>
 5   0  0.6211218E-03  0.8963768E+03  0.7818609E-02  0.9430122E-01
        1   -1    0    0  501    0  0.00000000000E+00  0.00000000000E+00  0.21086071027E+04  0.21086071027E+04  0.50400001928E-02 0.  1.
       -1   -1    0    0    0  501  0.00000000000E+00  0.00000000000E+00 -0.95263291313E+02  0.95263291447E+02  0.50400001928E-02 0. -1.
    10030    2    1    2    0    0  0.00000000000E+00  0.00000000000E+00  0.20133438113E+04  0.22038703941E+04  0.89637682442E+03 0.  0.
        5    1    3    3  502    0  0.23851051198E+03  0.26975092357E+03  0.16627101212E+04  0.17012583173E+04  0.46999998093E+01 0.  1.
       -5    1    3    3    0  502 -0.23851051198E+03 -0.26975092357E+03  0.35063369017E+03  0.50261207682E+03  0.46999998093E+01 0. -1.
</event>
<event>
 5   0  0.1033749E-02  0.8444100E+03  0.7818609E-02  0.9497871E-01
       -2   -1    0    0    0  501  0.00000000000E+00  0.00000000000E+00  0.23511683842E+03  0.23511683844E+03  0.25500000920E-02 0. -1.
        2   -1    0    0  501    0  0.00000000000E+00  0.00000000000E+00 -0.75816366730E+03  0.75816366730E+03  0.25500000920E-02 0.  1.
    10030    2    1    2    0    0  0.00000000000E+00  0.00000000000E+00 -0.52304682888E+03  0.99328050574E+03  0.84440995842E+03 0.  0.
        5    1    3    3  502    0  0.13145097730E+01 -0.21027230064E+03 -0.69215056246E+03  0.72340214228E+03  0.46999998093E+01 0.  1.
       -5    1    3    3    0  502 -0.13145097730E+01  0.21027230064E+03  0.16910373358E+03  0.26987836346E+03  0.46999998093E+01 0. -1.
</event>
<event>
 5   0  0.1041727E-02  0.9223185E+03  0.7818609E-02  0.9398104E-01
        2   -1    0    0  501    0  0.00000000000E+00  0.00000000000E+00  0.14525199521E+04  0.14525199521E+04  0.25500000920E-02 0. -1.
       -2   -1    0    0    0  501  0.00000000000E+00  0.00000000000E+00 -0.14641304393E+03  0.14641304395E+03  0.25500000920E-02 0.  1.
    10030    2    1    2    0    0  0.00000000000E+00  0.00000000000E+00  0.13061069082E+04  0.15989329961E+04  0.92231852975E+03 0.  0.
        4    1    3    3  502    0  0.88293543446E+02 -0.28796866372E+03  0.47670016614E+02  0.30495203637E+03  0.12699999809E+01 0.  1.
       -4    1    3    3    0  502 -0.88293543446E+02  0.28796866372E+03  0.12584368916E+04  0.12939809597E+04  0.12699999809E+01 0. -1.
</event>
<event>
 5   0  0.1028978E-02  0.8852415E+03  0.7818609E-02  0.9444221E-01
        2   -1    0    0  501    0  0.00000000000E+00  0.00000000000E+00  0.17022920070E+03  0.17022920072E+03  0.25500000920E-02 0. -1.
       -2   -1    0    0    0  501  0.00000000000E+00  0.00000000000E+00 -0.11508784436E+04  0.11508784436E+04  0.25500000920E-02 0.  1.
    10030    2    1    2    0    0  0.00000000000E+00  0.00000000000E+00 -0.98064924287E+03  0.13211076443E+04  0.88524147569E+03 0.  0.
        3    1    3    3  502    0  0.39191097167E+03  0.12257279933E+03 -0.24376811820E+03  0.47753660227E+03  0.10100000352E+00 0.  1.
       -3    1    3    3    0  502 -0.39191097167E+03 -0.12257279933E+03 -0.73688112467E+03  0.84357104203E+03  0.10100000352E+00 0. -1.
</event>
<event>
 5   0  0.1028978E-02  0.9077634E+03  0.7818609E-02  0.9415929E-01
        2   -1    0    0  501    0  0.00000000000E+00  0.00000000000E+00  0.49447385041E+03  0.49447385041E+03  0.25500000920E-02 0. -1.
       -2   -1    0    0    0  501  0.00000000000E+00  0.00000000000E+00 -0.41662181050E+03  0.41662181051E+03  0.25500000920E-02 0.  1.
    10030    2    1    2    0    0  0.00000000000E+00  0.00000000000E+00  0.77852039903E+02  0.91109566093E+03  0.90776338505E+03 0.  0.
        3    1    3    3  502    0 -0.17170803191E+02  0.39421068534E+03  0.26405205647E+03  0.47478458235E+03  0.10100000352E+00 0. -1.
       -3    1    3    3    0  502  0.17170803191E+02 -0.39421068534E+03 -0.18620001656E+03  0.43631107857E+03  0.10100000352E+00 0.  1.
</event>
<event>
 5   0  0.1041727E-02  0.9060697E+03  0.7818609E-02  0.9418026E-01
        2   -1    0    0  501    0  0.00000000000E+00  0.00000000000E+00  0.83490747925E+03  0.83490747925E+03  0.25500000920E-02 0.  1.
       -2   -1    0    0    0  501  0.00000000000E+00  0.00000000000E+00 -0.24582431550E+03  0.24582431551E+03  0.25500000920E-02 0. -1.
    10030    2    1    2    0    0  0.00000000000E+00  0.00000000000E+00  0.58908316375E+03  0.10807317948E+04  0.90606966531E+03 0.  0.
        4    1    3    3  502    0  0.96038640267E+02 -0.12905482466E+03  0.79969069356E+03  0.81571158289E+03  0.12699999809E+01 0.  1.
       -4    1    3    3    0  502 -0.96038640267E+02  0.12905482466E+03 -0.21060752981E+03  0.26502021188E+03  0.12699999809E+01 0. -1.
</event>
<event>
 5   0  0.1028978E-02  0.9000526E+03  0.7818609E-02  0.9425516E-01
       -2   -1    0    0    0  501  0.00000000000E+00  0.00000000000E+00  0.22815543437E+03  0.22815543438E+03  0.25500000920E-02 0. -1.
        2   -1    0    0  501    0  0.00000000000E+00  0.00000000000E+00 -0.88765662592E+03  0.88765662592E+03  0.25500000920E-02 0.  1.
    10030    2    1    2    0    0  0.00000000000E+00  0.00000000000E+00 -0.65950119155E+03  0.11158120603E+04  0.90005262750E+03 0.  0.
        3    1    3    3  502    0  0.26887488484E+03  0.12137516812E+03 -0.75106901885E+03  0.80692646283E+03  0.10100000352E+00 0.  1.
       -3    1    3    3    0  502 -0.26887488484E+03 -0.12137516812E+03  0.91567827299E+02  0.30888559748E+03  0.10100000352E+00 0. -1.
</event>
<event>
 5   0  0.3996375E-03  0.8147428E+03  0.7818609E-02  0.9538919E-01
       -3   -1    0    0    0  501  0.00000000000E+00  0.00000000000E+00  0.63521129564E+03  0.63521130367E+03  0.10100000352E+00 0. -1.
        3   -1    0    0  501    0  0.00000000000E+00  0.00000000000E+00 -0.26125390702E+03  0.26125392654E+03  0.10100000352E+00 0.  1.
    10030    2    1    2    0    0  0.00000000000E+00  0.00000000000E+00  0.37395738862E+03  0.89646523021E+03  0.81474276951E+03 0.  0.
        3    1    3    3  502    0  0.15722548585E+00 -0.84994172086E+02  0.62534673814E+03  0.63109633742E+03  0.10100000352E+00 0. -1.
       -3    1    3    3    0  502 -0.15722548585E+00  0.84994172086E+02 -0.25138934951E+03  0.26536889279E+03  0.10100000352E+00 0.  1.
</event>
<event>
 5   0  0.6211218E-03  0.8944048E+03  0.7818609E-02  0.9432603E-01
       -1   -1    0    0    0  501  0.00000000000E+00  0.00000000000E+00  0.39135529228E+03  0.39135529231E+03  0.50400001928E-02 0.  1.
        1   -1    0    0  501    0  0.00000000000E+00  0.00000000000E+00 -0.51101900806E+03  0.51101900808E+03  0.50400001928E-02 0. -1.
    10030    2    1    2    0    0  0.00000000000E+00  0.00000000000E+00 -0.11966371578E+03  0.90237430039E+03  0.89440481502E+03 0.  0.
        5    1    3    3  502    0 -0.18326175602E+03 -0.22515517413E+03  0.28332847722E+03  0.40568071147E+03  0.46999998093E+01 0.  1.
       -5    1    3    3    0  502  0.18326175602E+03  0.22515517413E+03 -0.40299219300E+03  0.49669358892E+03  0.46999998093E+01 0. -1.
</event>
<event>
 5   0  0.1017079E-02  0.9054114E+03  0.7818609E-02  0.9418842E-01
       -2   -1    0    0    0  501  0.00000000000E+00  0.00000000000E+00  0.56867928110E+03  0.56867928110E+03  0.25500000920E-02 0.  1.
        2   -1    0    0  501    0  0.00000000000E+00  0.00000000000E+00 -0.36038319570E+03  0.36038319571E+03  0.25500000920E-02 0. -1.
    10030    2    1    2    0    0  0.00000000000E+00  0.00000000000E+00  0.20829608539E+03  0.92906247682E+03  0.90541141292E+03 0.  0.
        1    1    3    3  502    0 -0.62888323075E+01  0.22294020729E+03 -0.30009784733E+03  0.37389918886E+03  0.50400001928E-02 0. -1.
       -1    1    3    3    0  502  0.62888323075E+01 -0.22294020729E+03  0.50839393272E+03  0.55516328795E+03  0.50400001928E-02 0.  1.
</event>
<event>
 5   0  0.6288003E-03  0.9100913E+03  0.7818609E-02  0.9413054E-01
        1   -1    0    0  501    0  0.00000000000E+00  0.00000000000E+00  0.60289915706E+03  0.60289915708E+03  0.50400001928E-02 0. -1.
       -1   -1    0    0    0  501  0.00000000000E+00  0.00000000000E+00 -0.34345136229E+03  0.34345136233E+03  0.50400001928E-02 0.  1.
    10030    2    1    2    0    0  0.00000000000E+00  0.00000000000E+00  0.25944779477E+03  0.94635051940E+03  0.91009128518E+03 0.  0.
        1    1    3    3  502    0 -0.20777024672E+03  0.30314525158E+03 -0.14929677892E+03  0.39668003127E+03  0.50400001928E-02 0.  1.
       -1    1    3    3    0  502  0.20777024672E+03 -0.30314525158E+03  0.40874457369E+03  0.54967048814E+03  0.50400001928E-02 0. -1.
</event>
<event>
 5   0  0.1041727E-02  0.8983566E+03  0.7818609E-02  0.9427638E-01
        2   -1    0    0  501    0  0.00000000000E+00  0.00000000000E+00  0.16934453055E+04  0.16934453055E+04  0.25500000920E-02 0.  1.
       -2   -1    0    0    0  501  0.00000000000E+00  0.00000000000E+00 -0.11914240517E+03  0.11914240520E+03  0.25500000920E-02 0. -1.
    10030    2    1    2    0    0  0.00000000000E+00  0.00000000000E+00  0.15743029004E+04  0.18125877107E+04  0.89835660348E+03 0.  0.
        4    1    3    3  502    0  0.38663098504E+03  0.22759579651E+03  0.74312327596E+03  0.86805367424E+03  0.12699999809E+01 0. -1.
       -4    1    3    3    0  502 -0.38663098504E+03 -0.22759579651E+03  0.83117962440E+03  0.94453403650E+03  0.12699999809E+01 0.  1.
</event>
<event>
 5   0  0.1041727E-02  0.9087597E+03  0.7818609E-02  0.9414697E-01
        2   -1    0    0  501    0  0.00000000000E+00  0.00000000000E+00  0.68198801751E+03  0.68198801751E+03  0.25500000920E-02 0.  1.
       -2   -1    0    0    0  501  0.00000000000E+00  0.00000000000E+00 -0.30273410798E+03  0.30273410800E+03  0.25500000920E-02 0. -1.
    10030    2    1    2    0    0  0.00000000000E+00  0.00000000000E+00  0.37925390953E+03  0.98472212551E+03  0.90875966932E+03 0.  0.
        4    1    3    3  502    0 -0.18763994429E+03  0.60244653089E+02 -0.25401151065E+03  0.32149903167E+03  0.12699999809E+01 0. -1.
       -4    1    3    3    0  502  0.18763994429E+03 -0.60244653089E+02  0.63326542018E+03  0.66322309384E+03  0.12699999809E+01 0.  1.
</event>
<event>
 5   0  0.3996375E-03  0.8946795E+03  0.7818609E-02  0.9432257E-01
        3   -1    0    0  501    0  0.00000000000E+00  0.00000000000E+00  0.71850049249E+03  0.71850049959E+03  0.10100000352E+00 0. -1.
       -3   -1    0    0    0  501  0.00000000000E+00  0.00000000000E+00 -0.27851452049E+03  0.27851453881E+03  0.10100000352E+00 0.  1.
    10030    2    1    2    0    0  0.00000000000E+00  0.00000000000E+00  0.43998597199E+03  0.99701503839E+03  0.89467945725E+03 0.  0.
        4    1    3    3  502    0  0.51983033055E+02 -0.28906838193E+03  0.59600161667E+03  0.66444134815E+03  0.12699999809E+01 0. -1.
       -4    1    3    3    0  502 -0.51983033055E+02  0.28906838193E+03 -0.15601564468E+03  0.33257369024E+03  0.12699999809E+01 0.  1.
</event>
<event>
 5   0  0.1041727E-02  0.9019966E+03  0.7818609E-02  0.9423089E-01
        2   -1    0    0  501    0  0.00000000000E+00  0.00000000000E+00  0.96280039822E+03  0.96280039822E+03  0.25500000920E-02 0. -1.
       -2   -1    0    0    0  501  0.00000000000E+00  0.00000000000E+00 -0.21125820734E+03  0.21125820736E+03  0.25500000920E-02 0.  1.
    10030    2    1    2    0    0  0.00000000000E+00  0.00000000000E+00  0.75154219088E+03  0.11740586056E+04  0.90199664338E+03 0.  0.
        4    1    3    3  502    0 -0.44151481792E+03 -0.23826191020E+02  0.49142407767E+03  0.66106146374E+03  0.12699999809E+01 0.  1.
       -4    1    3    3    0  502  0.44151481792E+03  0.23826191020E+02  0.26011811321E+03  0.51299714184E+03  0.12699999809E+01 0. -1.
</event>
<event>
 5   0  0.1017079E-02  0.8947526E+03  0.7818609E-02  0.9432165E-01
        2   -1    0    0  501    0  0.00000000000E+00  0.00000000000E+00  0.24868926697E+04  0.24868926697E+04  0.25500000920E-02 0. -1.
       -2   -1    0    0    0  501  0.00000000000E+00  0.00000000000E+00 -0.80480178798E+02  0.80480178838E+02  0.25500000920E-02 0.  1.
    10030    2    1    2    0    0  0.00000000000E+00  0.00000000000E+00  0.24064124909E+04  0.25673728485E+04  0.89475262896E+03 0.  0.
        1    1    3    3  502    0 -0.22037537797E+03 -0.37031392222E+03  0.15481018829E+04  0.16069589752E+04  0.50400001928E-02 0.  1.
       -1    1    3    3    0  502  0.22037537797E+03  0.37031392222E+03  0.85831060795E+03  0.96041387326E+03  0.50400001928E-02 0. -1.
</event>
<event>
 5   0  0.6137243E-03  0.8920755E+03  0.7818609E-02  0.9435542E-01
        1   -1    0    0  501    0  0.00000000000E+00  0.00000000000E+00  0.38263276586E+03  0.38263276589E+03  0.50400001928E-02 0. -1.
       -1   -1    0    0    0  501  0.00000000000E+00  0.00000000000E+00 -0.51994936751E+03  0.51994936753E+03  0.50400001928E-02 0.  1.
    10030    2    1    2    0    0  0.00000000000E+00  0.00000000000E+00 -0.13731660165E+03  0.90258213342E+03  0.89207547802E+03 0.  0.
        4    1    3    3  502    0  0.13098769901E+03  0.40813990535E+03 -0.19344824889E+03  0.47027629914E+03  0.12699999809E+01 0. -1.
       -4    1    3    3    0  502 -0.13098769901E+03 -0.40813990535E+03  0.56131647242E+02  0.43230583428E+03  0.12699999809E+01 0.  1.
</event>
<event>
 5   0  0.3996375E-03  0.8926500E+03  0.7818609E-02  0.9434816E-01
        3   -1    0    0  501    0  0.00000000000E+00  0.00000000000E+00  0.65023093147E+03  0.65023093931E+03  0.10100000352E+00 0.  1.
       -3   -1    0    0    0  501  0.00000000000E+00  0.00000000000E+00 -0.30636192848E+03  0.30636194513E+03  0.10100000352E+00 0. -1.
    10030    2    1    2    0    0  0.00000000000E+00  0.00000000000E+00  0.34386900299E+03  0.95659288444E+03  0.89265001839E+03 0.  0.
        1    1    3    3  502    0  0.13065216854E+03  0.80715853581E+02  0.62102526250E+03  0.63973229936E+03  0.50400001928E-02 0.  1.
       -1    1    3    3    0  502 -0.13065216854E+03 -0.80715853581E+02 -0.27715625951E+03  0.31686058507E+03  0.50400001928E-02 0. -1.
</event>
<event>
 5   0  0.6211218E-03  0.9045684E+03  0.7818609E-02  0.9419889E-01
        1   -1    0    0  501    0  0.00000000000E+00  0.00000000000E+00  0.84424190991E+03  0.84424190992E+03  0.50400001928E-02 0.  1.
       -1   -1    0    0    0  501  0.00000000000E+00  0.00000000000E+00 -0.24230139743E+03  0.24230139748E+03  0.50400001928E-02 0. -1.
    10030    2    1    2    0    0  0.00000000000E+00  0.00000000000E+00  0.60194051248E+03  0.10865433074E+04  0.90456839339E+03 0.  0.
        5    1    3    3  502    0  0.17919108443E+03 -0.69440912613E+01 -0.19774267772E+03  0.26698674449E+03  0.46999998093E+01 0. -1.
       -5    1    3    3    0  502 -0.17919108443E+03  0.69440912613E+01  0.79968319020E+03  0.81955656292E+03  0.46999998093E+01 0.  1.
</event>
<event>
 5   0  0.1041727E-02  0.8151816E+03  0.7818609E-02  0.9538299E-01
       -2   -1    0    0    0  501  0.00000000000E+00  0.00000000000E+00  0.33220986081E+03  0.33220986082E+03  0.25500000920E-02 0. -1.
        2   -1    0    0  501    0  0.00000000000E+00  0.00000000000E+00 -0.50007620616E+03  0.50007620617E+03  0.25500000920E-02 0.  1.
    10030    2    1    2    0    0  0.00000000000E+00  0.00000000000E+00 -0.16786634535E+03  0.83228606699E+03  0.81518156714E+03 0.  0.
        4    1    3    3  502    0 -0.13992779762E+03  0.35543147209E+03  0.61237872017E+02  0.38686303748E+03  0.12699999809E+01 0. -1.
       -4    1    3    3    0  502  0.13992779762E+03 -0.35543147209E+03 -0.22910421736E+03  0.44542302951E+03  0.12699999809E+01 0.  1.
</event>
<event>
 5   0  0.1017079E-02  0.8960467E+03  0.7818609E-02  0.9430537E-01
        2   -1    0    0  501    0  0.00000000000E+00  0.00000000000E+00  0.12770343259E+04  0.12770343259E+04  0.25500000920E-02 0.  1.
       -2   -1    0    0    0  501  0.00000000000E+00  0.00000000000E+00 -0.15718052716E+03  0.15718052718E+03  0.25500000920E-02 0. -1.
    10030    2    1    2    0    0  0.00000000000E+00  0.00000000000E+00  0.11198537988E+04  0.14342148531E+04  0.89604671432E+03 0.  0.
        1    1    3    3  502    0  0.12579145877E+03 -0.87942769419E+02  0.12336409439E+04  0.12431522031E+04  0.50400001928E-02 0.  1.
       -1    1    3    3    0  502 -0.12579145877E+03  0.87942769419E+02 -0.11378714510E+03  0.19106264995E+03  0.50400001928E-02 0. -1.
</event>
<event>
 5   0  0.1003252E-02  0.8938748E+03  0.7818609E-02  0.9433271E-01
        2   -1    0    0  501    0  0.00000000000E+00  0.00000000000E+00  0.31289756862E+03  0.31289756863E+03  0.25500000920E-02 0. -1.
       -2   -1    0    0    0  501  0.00000000000E+00  0.00000000000E+00 -0.63839758495E+03  0.63839758495E+03  0.25500000920E-02 0.  1.
    10030    2    1    2    0    0  0.00000000000E+00  0.00000000000E+00 -0.32550001633E+03  0.95129515358E+03  0.89387482826E+03 0.  0.
        2    1    3    3  502    0  0.43489294998E+03 -0.28120957318E+02 -0.26826735466E+03  0.51175193187E+03  0.25500000920E-02 0.  1.
       -2    1    3    3    0  502 -0.43489294998E+03  0.28120957318E+02 -0.57232661667E+02  0.43954322171E+03  0.25500000920E-02 0. -1.
</event>
<event>
 5   0  0.1033749E-02  0.9070343E+03  0.7818609E-02  0.9416831E-01
       -2   -1    0    0    0  501  0.00000000000E+00  0.00000000000E+00  0.13195658037E+03  0.13195658039E+03  0.25500000920E-02 0.  1.
        2   -1    0    0  501    0  0.00000000000E+00  0.00000000000E+00 -0.15586780594E+04  0.15586780594E+04  0.25500000920E-02 0. -1.
    10030    2    1    2    0    0  0.00000000000E+00  0.00000000000E+00 -0.14267214790E+04  0.16906346398E+04  0.90703434695E+03 0.  0.
        5    1    3    3  502    0  0.29960011327E+03 -0.33693012133E+03 -0.62255151028E+03  0.76868368493E+03  0.46999998093E+01 0.  1.
       -5    1    3    3    0  502 -0.29960011327E+03  0.33693012133E+03 -0.80416996875E+03  0.92195095486E+03  0.46999998093E+01 0. -1.
</event>
<event>
 5   0  0.1003252E-02  0.9010394E+03  0.7818609E-02  0.9424283E-01
        2   -1    0    0  501    0  0.00000000000E+00  0.00000000000E+00  0.95016032104E+03  0.95016032105E+03  0.25500000920E-02 0.  1.
       -2   -1    0    0    0  501  0.00000000000E+00  0.00000000000E+00 -0.21361449391E+03  0.21361449392E+03  0.25500000920E-02 0. -1.
    10030    2    1    2    0    0  0.00000000000E+00  0.00000000000E+00  0.73654582713E+03  0.11637748150E+04  0.90103943559E+03 0.  0.
        2    1    3    3  502    0  0.11590945641E+03 -0.23571288751E+03  0.84102440003E+03  0.88108887683E+03  0.25500000920E-02 0.  1.
       -2    1    3    3    0  502 -0.11590945641E+03  0.23571288751E+03 -0.10447857289E+03  0.28268593814E+03  0.25500000920E-02 0. -1.
</event>
<event>
 5   0  0.6015709E-03  0.9041423E+03  0.7818609E-02  0.9420418E-01
        1   -1    0    0  501    0  0.00000000000E+00  0.00000000000E+00  0.39423138801E+03  0.39423138804E+03  0.50400001928E-02 0.  1.
       -1   -1    0    0    0  501  0.00000000000E+00  0.00000000000E+00 -0.51839690705E+03  0.51839690707E+03  0.50400001928E-02 0. -1.
    10030    2    1    2    0    0  0.00000000000E+00  0.00000000000E+00 -0.12416551904E+03  0.91262829511E+03  0.90414231674E+03 0.  0.
        3    1    3    3  502    0 -0.14945998879E+03 -0.19326572461E+03  0.32185336100E+03  0.40407861208E+03  0.10100000352E+00 0.  1.
       -3    1    3    3    0  502  0.14945998879E+03  0.19326572461E+03 -0.44601888004E+03  0.50854968303E+03  0.10100000352E+00 0. -1.
</event>
<event>
 5   0  0.1017079E-02  0.9215494E+03  0.7818609E-02  0.9399037E-01
       -2   -1    0    0    0  501  0.00000000000E+00  0.00000000000E+00  0.38694643886E+03  0.38694643887E+03  0.25500000920E-02 0.  1.
        2   -1    0    0  501    0  0.00000000000E+00  0.00000000000E+00 -0.54868918788E+03  0.54868918789E+03  0.25500000920E-02 0. -1.
    10030    2    1    2    0    0  0.00000000000E+00  0.00000000000E+00 -0.16174274902E+03  0.93563562676E+03  0.92154940682E+03 0.  0.
        1    1    3    3  502    0  0.36707161930E+03  0.30623829179E+02 -0.36193114588E+03  0.51640444129E+03  0.50400001928E-02 0. -1.
       -1    1    3    3    0  502 -0.36707161930E+03 -0.30623829179E+02  0.20018839685E+03  0.41923118547E+03  0.50400001928E-02 0.  1.
</event>
<event>
 5   0  0.6092779E-03  0.8934351E+03  0.7818609E-02  0.9433825E-01
        1   -1    0    0  501    0  0.00000000000E+00  0.00000000000E+00  0.22680259015E+03  0.22680259021E+03  0.50400001928E-02 0. -1.
       -1   -1    0    0    0  501  0.00000000000E+00  0.00000000000E+00 -0.87986909468E+03  0.87986909469E+03  0.50400001928E-02 0.  1.
    10030    2    1    2    0    0  0.00000000000E+00  0.00000000000E+00 -0.65306650453E+03  0.11066716849E+04  0.89343514528E+03 0.  0.
        2    1    3    3  502    0  0.81639978342E+02 -0.28166753506E+03  0.90872771094E+02  0.30701717688E+03  0.25500000920E-02 0. -1.
       -2    1    3    3    0  502 -0.81639978342E+02  0.28166753506E+03 -0.74393927562E+03  0.79965450802E+03  0.25500000920E-02 0.  1.
</event>
<event>
 5   0  0.6137243E-03  0.8527601E+03  0.7818609E-02  0.9486640E-01
        1   -1    0    0  501    0  0.00000000000E+00  0.00000000000E+00  0.59824483938E+03  0.59824483940E+03  0.50400001928E-02 0. -1.
       -1   -1    0    0    0  501  0.00000000000E+00  0.00000000000E+00 -0.30388889774E+03  0.30388889779E+03  0.50400001928E-02 0.  1.
    10030    2    1    2    0    0  0.00000000000E+00  0.00000000000E+00  0.29435594163E+03  0.90213373718E+03  0.85276014177E+03 0.  0.
        4    1    3    3  502    0  0.30156692091E+03  0.30137783345E+03  0.15268978171E+03  0.45286530958E+03  0.12699999809E+01 0. -1.
       -4    1    3    3    0  502 -0.30156692091E+03 -0.30137783345E+03  0.14166615992E+03  0.44926842761E+03  0.12699999809E+01 0.  1.
</event>
<event>
 5   0  0.1028978E-02  0.8536104E+03  0.7818609E-02  0.9485504E-01
       -2   -1    0    0    0  501  0.00000000000E+00  0.00000000000E+00  0.29024520210E+03  0.29024520211E+03  0.25500000920E-02 0. -1.
        2   -1    0    0  501    0  0.00000000000E+00  0.00000000000E+00 -0.62761645322E+03  0.62761645323E+03  0.25500000920E-02 0.  1.
    10030    2    1    2    0    0  0.00000000000E+00  0.00000000000E+00 -0.33737125113E+03  0.91786165533E+03  0.85361036618E+03 0.  0.
        3    1    3    3  502    0  0.10766493379E+03  0.13753735159E+02  0.27515707829E+03  0.29579102612E+03  0.10100000352E+00 0. -1.
       -3    1    3    3    0  502 -0.10766493379E+03 -0.13753735159E+02 -0.61252832941E+03  0.62207062922E+03  0.10100000352E+00 0.  1.
</event>
<event>
 5   0  0.1033749E-02  0.8965516E+03  0.7818609E-02  0.9429902E-01
        2   -1    0    0  501    0  0.00000000000E+00  0.00000000000E+00  0.11517465239E+04  0.11517465239E+04  0.25500000920E-02 0.  1.
       -2   -1    0    0    0  501  0.00000000000E+00  0.00000000000E+00 -0.17447518990E+03  0.17447518992E+03  0.25500000920E-02 0. -1.
    10030    2    1    2    0    0  0.00000000000E+00  0.00000000000E+00  0.97727133404E+03  0.13262217139E+04  0.89655160141E+03 0.  0.
        5    1    3    3  502    0 -0.16210208490E+03 -0.36746131922E+03  0.19417921311E+03  0.44613065783E+03  0.46999998093E+01 0. -1.
       -5    1    3    3    0  502  0.16210208490E+03  0.36746131922E+03  0.78309212093E+03  0.88009105604E+03  0.46999998093E+01 0.  1.
</event>
<event>
 5   0  0.3996375E-03  0.7313501E+03  0.7818609E-02  0.9665072E-01
       -3   -1    0    0    0  501  0.00000000000E+00  0.00000000000E+00  0.19287121405E+03  0.19287124050E+03  0.10100000352E+00 0.  1.
        3   -1    0    0  501    0  0.00000000000E+00  0.00000000000E+00 -0.69330311619E+03  0.69330312354E+03  0.10100000352E+00 0. -1.
    10030    2    1    2    0    0  0.00000000000E+00  0.00000000000E+00 -0.50043190213E+03  0.88617436404E+03  0.73135006311E+03 0.  0.
        5    1    3    3  502    0 -0.34606321863E+03 -0.99702863464E+02 -0.17362247981E+03  0.39983405028E+03  0.46999998093E+01 0.  1.
       -5    1    3    3    0  502  0.34606321863E+03  0.99702863464E+02 -0.32680942232E+03  0.48634031376E+03  0.46999998093E+01 0. -1.
</event>
<event>
 5   0  0.3996375E-03  0.9165471E+03  0.7818609E-02  0.9405130E-01
        3   -1    0    0  501    0  0.00000000000E+00  0.00000000000E+00  0.15484605405E+03  0.15484608699E+03  0.10100000352E+00 0. -1.
       -3   -1    0    0    0  501  0.00000000000E+00  0.00000000000E+00 -0.13562800744E+04  0.13562800782E+04  0.10100000352E+00 0.  1.
    10030    2    1    2    0    0  0.00000000000E+00  0.00000000000E+00 -0.12014340204E+04  0.15111261652E+04  0.91654709741E+03 0.  0.
        4    1    3    3  502    0  0.31137794573E+03 -0.23791472288E+03 -0.99245073335E+03  0.10670143914E+04  0.12699999809E+01 0.  1.
       -4    1    3    3    0  502 -0.31137794573E+03  0.23791472288E+03 -0.20898328703E+03  0.44411177378E+03  0.12699999809E+01 0. -1.
</event>
<event>
 5   0  0.1033749E-02  0.9382013E+03  0.7818609E-02  0.9379049E-01
       -2   -1    0    0    0  501  0.00000000000E+00  0.00000000000E+00  0.43084409253E+03  0.43084409254E+03  0.25500000920E-02 0.  1.
        2   -1    0    0  501    0  0.00000000000E+00  0.00000000000E+00 -0.51075422222E+03  0.51075422223E+03  0.25500000920E-02 0. -1.
    10030    2    1    2    0    0  0.00000000000E+00  0.00000000000E+00 -0.79910129688E+02  0.94159831477E+03  0.93820134169E+03 0.  0.
        5    1    3    3  502    0  0.30896675631E+03 -0.30961829609E+03  0.13009692115E+03  0.45636744480E+03  0.46999998093E+01 0.  1.
       -5    1    3    3    0  502 -0.30896675631E+03  0.30961829609E+03 -0.21000705084E+03  0.48523086998E+03  0.46999998093E+01 0. -1.
</event>
<event>
 5   0  0.1017079E-02  0.8986854E+03  0.7818609E-02  0.9427226E-01
        2   -1    0    0  501    0  0.00000000000E+00  0.00000000000E+00  0.10056208076E+04  0.10056208076E+04  0.25500000920E-02 0. -1.
       -2   -1    0    0    0  501  0.00000000000E+00  0.00000000000E+00 -0.20078033530E+03  0.20078033532E+03  0.25500000920E-02 0.  1.
    10030    2    1    2    0    0  0.00000000000E+00  0.00000000000E+00  0.80484047229E+03  0.12064011429E+04  0.89868544653E+03 0.  0.
        1    1    3    3  502    0  0.34430614278E+02 -0.76235118880E+02 -0.19023605582E+03  0.20781486354E+03  0.50400001928E-02 0.  1.
       -1    1    3    3    0  502 -0.34430614278E+02  0.76235118880E+02  0.99507652811E+03  0.99858627938E+03  0.50400001928E-02 0. -1.
</event>
<event>
 5   0  0.6137243E-03  0.9015257E+03  0.7818609E-02  0.9423676E-01
       -1   -1    0    0    0  501  0.00000000000E+00  0.00000000000E+00  0.93193549673E+03  0.93193549674E+03  0.50400001928E-02 0.  1.
        1   -1    0    0  501    0  0.00000000000E+00  0.00000000000E+00 -0.21802702839E+03  0.21802702845E+03  0.50400001928E-02 0. -1.
    10030    2    1    2    0    0  0.00000000000E+00  0.00000000000E+00  0.71390846834E+03  0.11499625252E+04  0.90152565587E+03 0.  0.
        4    1    3    3  502    0  0.23288652040E+03  0.15794160361E+03  0.80613706876E+03  0.85383854918E+03  0.12699999809E+01 0.  1.
       -4    1    3    3    0  502 -0.23288652040E+03 -0.15794160361E+03 -0.92228600425E+02  0.29612397601E+03  0.12699999809E+01 0. -1.
</event>
<event>
 5   0  0.6211218E-03  0.8945509E+03  0.7818609E-02  0.9432419E-01
       -1   -1    0    0    0  501  0.00000000000E+00  0.00000000000E+00  0.22725244324E+03  0.22725244330E+03  0.50400001928E-02 0. -1.
        1   -1    0    0  501    0  0.00000000000E+00  0.00000000000E+00 -0.88032206456E+03  0.88032206457E+03  0.50400001928E-02 0.  1.
    10030    2    1    2    0    0  0.00000000000E+00  0.00000000000E+00 -0.65306962132E+03  0.11075745079E+04  0.89455092655E+03 0.  0.
        5    1    3    3  502    0 -0.12693139423E+03  0.84634209275E+02 -0.84707984474E+03  0.86072114043E+03  0.46999998093E+01 0.  1.
       -5    1    3    3    0  502  0.12693139423E+03 -0.84634209275E+02  0.19401022343E+03  0.24685336743E+03  0.46999998093E+01 0. -1.
</event>
<event>
 5   0  0.1033749E-02  0.8991371E+03  0.7818609E-02  0.9426661E-01
        2   -1    0    0  501    0  0.00000000000E+00  0.00000000000E+00  0.76253647233E+03  0.76253647233E+03  0.25500000920E-02 0.  1.
       -2   -1    0    0    0  501  0.00000000000E+00  0.00000000000E+00 -0.26505210528E+03  0.26505210529E+03  0.25500000920E-02 0. -1.
    10030    2    1    2    0    0  0.00000000000E+00  0.00000000000E+00  0.49748436704E+03  0.10275885776E+04  0.89913713604E+03 0.  0.
        5    1    3    3  502    0 -0.15098018644E+03 -0.39552390478E+02 -0.23306602075E+03  0.28053746331E+03  0.46999998093E+01 0. -1.
       -5    1    3    3    0  502  0.15098018644E+03  0.39552390478E+02  0.73055038780E+03  0.74705111432E+03  0.46999998093E+01 0.  1.
</event>
<event>
 5   0  0.1003252E-02  0.9145188E+03  0.7818609E-02  0.9407612E-01
        2   -1    0    0  501    0  0.00000000000E+00  0.00000000000E+00  0.15942025372E+04  0.15942025372E+04  0.25500000920E-02 0.  1.
       -2   -1    0    0    0  501  0.00000000000E+00  0.00000000000E+00 -0.13115406772E+03  0.13115406774E+03  0.25500000920E-02 0. -1.
    10030    2    1    2    0    0  0.00000000000E+00  0.00000000000E+00  0.14630484695E+04  0.17253566049E+04  0.91451877518E+03 0.  0.
        2    1    3    3  502    0  0.16897677156E+03  0.11137005331E+03 -0.42061541605E+02  0.20670174501E+03  0.25500000920E-02 0. -1.
       -2    1    3    3    0  502 -0.16897677156E+03 -0.11137005331E+03  0.15051100111E+04  0.15186548599E+04  0.25500000920E-02 0.  1.
</event>
<event>
 5   0  0.1028978E-02  0.9056606E+03  0.7818609E-02  0.9418533E-01
       -2   -1    0    0    0  501  0.00000000000E+00  0.00000000000E+00  0.24481443962E+03  0.24481443963E+03  0.25500000920E-02 0. -1.
        2   -1    0    0  501    0  0.00000000000E+00  0.00000000000E+00 -0.83759477864E+03  0.83759477865E+03  0.25500000920E-02 0.  1.
    10030    2    1    2    0    0  0.00000000000E+00  0.00000000000E+00 -0.59278033903E+03  0.10824092183E+04  0.90566063482E+03 0.  0.
        3    1    3    3  502    0  0.75827688328E+02  0.15951192029E+03 -0.79473226168E+03  0.81412116358E+03  0.10100000352E+00 0.  1.
       -3    1    3    3    0  502 -0.75827688328E+02 -0.15951192029E+03  0.20195192265E+03  0.26828805470E+03  0.10100000352E+00 0. -1.
</event>
<event>
 5   0  0.6288003E-03  0.9058492E+03  0.7818609E-02  0.9418299E-01
       -1   -1    0    0    0  501  0.00000000000E+00  0.00000000000E+00  0.18123144165E+03  0.18123144172E+03  0.50400001928E-02 0. -1.
        1   -1    0    0  501    0  0.00000000000E+00  0.00000000000E+00 -0.11319267121E+04  0.11319267121E+04  0.50400001928E-02 0.  1.
    10030    2    1    2    0    0  0.00000000000E+00  0.00000000000E+00 -0.95069527045E+03  0.13131581538E+04  0.90584923676E+03 0.  0.
        1    1    3    3  502    0 -0.16707854755E+03  0.27804072555E+03 -0.93357895384E+03  0.98832765275E+03  0.50400001928E-02 0.  1.
       -1    1    3    3    0  502  0.16707854755E+03 -0.27804072555E+03 -0.17116316612E+02  0.32483050109E+03  0.50400001928E-02 0. -1.
</event>
<event>
 5   0  0.1028978E-02  0.8821133E+03  0.7818609E-02  0.9448221E-01
       -2   -1    0    0    0  501  0.00000000000E+00  0.00000000000E+00  0.57153435678E+03  0.57153435678E+03  0.25500000920E-02 0. -1.
        2   -1    0    0  501    0  0.00000000000E+00  0.00000000000E+00 -0.34036615289E+03  0.34036615290E+03  0.25500000920E-02 0.  1.
    10030    2    1    2    0    0  0.00000000000E+00  0.00000000000E+00  0.23116820388E+03  0.91190050968E+03  0.88211325864E+03 0.  0.
        3    1    3    3  502    0 -0.68126074991E+02  0.24016604818E+00 -0.33489415721E+03  0.34175331236E+03  0.10100000352E+00 0.  1.
       -3    1    3    3    0  502  0.68126074991E+02 -0.24016604818E+00  0.56606236109E+03  0.57014719733E+03  0.10100000352E+00 0. -1.
</event>
<event>
 5   0  0.1033749E-02  0.9140147E+03  0.7818609E-02  0.9408230E-01
        2   -1    0    0  501    0  0.00000000000E+00  0.00000000000E+00  0.73454878701E+03  0.73454878701E+03  0.25500000920E-02 0. -1.
       -2   -1    0    0    0  501  0.00000000000E+00  0.00000000000E+00 -0.28433201187E+03  0.28433201189E+03  0.25500000920E-02 0.  1.
    10030    2    1    2    0    0  0.00000000000E+00  0.00000000000E+00  0.45021677513E+03  0.10188807989E+04  0.91401473607E+03 0.  0.
        5    1    3    3  502    0 -0.14412418507E+03 -0.39779375456E+03  0.32604941226E+02  0.42437816164E+03  0.46999998093E+01 0.  1.
       -5    1    3    3    0  502  0.14412418507E+03  0.39779375456E+03  0.41761183391E+03  0.59450263726E+03  0.46999998093E+01 0. -1.
</event>
<event>
 5   0  0.6288003E-03  0.9133344E+03  0.7818609E-02  0.9409065E-01
        1   -1    0    0  501    0  0.00000000000E+00  0.00000000000E+00  0.36496640465E+03  0.36496640468E+03  0.50400001928E-02 0.  1.
       -1   -1    0    0    0  501  0.00000000000E+00  0.00000000000E+00 -0.57140861342E+03  0.57140861344E+03  0.50400001928E-02 0. -1.
    10030    2    1    2    0    0  0.00000000000E+00  0.00000000000E+00 -0.20644220877E+03  0.93637501813E+03  0.91333443437E+03 0.  0.
        1    1    3    3  502    0  0.11726532664E+03  0.42543618918E+03 -0.22364856495E+03  0.49473810095E+03  0.50400001928E-02 0. -1.
       -1    1    3    3    0  502 -0.11726532664E+03 -0.42543618918E+03  0.17206356179E+02  0.44163691718E+03  0.50400001928E-02 0.  1.
</event>
<event>
 5   0  0.6092779E-03  0.8923593E+03  0.7818609E-02  0.9435183E-01
        1   -1    0    0  501    0  0.00000000000E+00  0.00000000000E+00  0.56276793036E+03  0.56276793039E+03  0.50400001928E-02 0. -1.
       -1   -1    0    0    0  501  0.00000000000E+00  0.00000000000E+00 -0.35374492267E+03  0.35374492271E+03  0.50400001928E-02 0.  1.
    10030    2    1    2    0    0  0.00000000000E+00  0.00000000000E+00  0.20902300769E+03  0.91651285309E+03  0.89235934025E+03 0.  0.
        2    1    3    3  502    0 -0.17653031131E+03 -0.26849225124E+03 -0.21342382211E+03  0.38574702544E+03  0.25500000920E-02 0.  1.
       -2    1    3    3    0  502  0.17653031131E+03  0.26849225124E+03  0.42244682981E+03  0.53076582765E+03  0.25500000920E-02 0. -1.
</event>
<event>
 5   0  0.1041727E-02  0.9040767E+03  0.7818609E-02  0.9420500E-01
       -2   -1    0    0    0  501  0.00000000000E+00  0.00000000000E+00  0.71449677753E+03  0.71449677753E+03  0.25500000920E-02 0. -1.
        2   -1    0    0  501    0  0.00000000000E+00  0.00000000000E+00 -0.28598966112E+03  0.28598966113E+03  0.25500000920E-02 0.  1.
    10030    2    1    2    0    0  0.00000000000E+00  0.00000000000E+00  0.42850711641E+03  0.10004864387E+04  0.90407674738E+03 0.  0.
        4    1    3    3  502    0 -0.17254535012E+03 -0.33235759247E+03 -0.65932908688E+02  0.38023969870E+03  0.12699999809E+01 0. -1.
       -4    1    3    3    0  502  0.17254535012E+03  0.33235759247E+03  0.49444002510E+03  0.62024673996E+03  0.12699999809E+01 0.  1.
</event>
<event>
 5   0  0.1041727E-02  0.9018177E+03  0.7818609E-02  0.9423312E-01
       -2   -1    0    0    0  501  0.00000000000E+00  0.00000000000E+00  0.28051623781E+03  0.28051623783E+03  0.25500000920E-02 0.  1.
        2   -1    0    0  501    0  0.00000000000E+00  0.00000000000E+00 -0.72480221095E+03  0.72480221095E+03  0.25500000920E-02 0. -1.
    10030    2    1    2    0    0  0.00000000000E+00  0.00000000000E+00 -0.44428597313E+03  0.10053184488E+04  0.90181769639E+03 0.  0.
        4    1    3    3  502    0 -0.37243162114E+03  0.66574930880E+02 -0.49561299337E+03  0.62351534539E+03  0.12699999809E+01 0. -1.
       -4    1    3    3    0  502  0.37243162114E+03 -0.66574930880E+02  0.51327020233E+02  0.38180310338E+03  0.12699999809E+01 0.  1.
</event>
<event>
 5   0  0.1003252E-02  0.9178802E+03  0.7818609E-02  0.9403502E-01
        2   -1    0    0  501    0  0.00000000000E+00  0.00000000000E+00  0.12741119281E+04  0.12741119281E+04  0.25500000920E-02 0. -1.
       -2   -1    0    0    0  501  0.00000000000E+00  0.00000000000E+00 -0.16531200247E+03  0.16531200249E+03  0.25500000920E-02 0.  1.
    10030    2    1    2    0    0  0.00000000000E+00  0.00000000000E+00  0.11087999256E+04  0.14394239306E+04  0.91788015386E+03 0.  0.
        2    1    3    3  502    0 -0.15227819217E+03  0.42965067955E+03  0.47086248010E+03  0.65536236498E+03  0.25500000920E-02 0.  1.
       -2    1    3    3    0  502  0.15227819217E+03 -0.42965067955E+03  0.63793744549E+03  0.78406156558E+03  0.25500000920E-02 0. -1.
</event>
<event>
 5   0  0.1017079E-02  0.9124627E+03  0.7818609E-02  0.9410135E-01
       -2   -1    0    0    0  501  0.00000000000E+00  0.00000000000E+00  0.41959706762E+03  0.41959706763E+03  0.25500000920E-02 0.  1.
        2   -1    0    0  501    0  0.00000000000E+00  0.00000000000E+00 -0.49606405929E+03  0.49606405930E+03  0.25500000920E-02 0. -1.
    10030    2    1    2    0    0  0.00000000000E+00  0.00000000000E+00 -0.76466991668E+02  0.91566112693E+03  0.91246265598E+03 0.  0.
        1    1    3    3  502    0 -0.18179157964E+03 -0.22544268581E+03  0.31552802163E+03  0.42828788855E+03  0.50400001928E-02 0.  1.
       -1    1    3    3    0  502  0.18179157964E+03  0.22544268581E+03 -0.39199501330E+03  0.48737323838E+03  0.50400001928E-02 0. -1.
</event>
<event>
 5   0  0.1041727E-02  0.8998924E+03  0.7818609E-02  0.9425716E-01
       -2   -1    0    0    0  501  0.00000000000E+00  0.00000000000E+00  0.26602039262E+03  0.26602039263E+03  0.25500000920E-02 0. -1.
        2   -1    0    0  501    0  0.00000000000E+00  0.00000000000E+00 -0.76103790728E+03  0.76103790729E+03  0.25500000920E-02 0.  1.
    10030    2    1    2    0    0  0.00000000000E+00  0.00000000000E+00 -0.49501751466E+03  0.10270582999E+04  0.89989244447E+03 0.  0.
        4    1    3    3  502    0  0.76766584816E+02  0.12220362570E+03 -0.73390487441E+03  0.74796043496E+03  0.12699999809E+01 0.  1.
       -4    1    3    3    0  502 -0.76766584816E+02 -0.12220362570E+03  0.23888735975E+03  0.27909786496E+03  0.12699999809E+01 0. -1.
</event>
<event>
 5   0  0.1028978E-02  0.9821887E+03  0.7818609E-02  0.9328299E-01
        2   -1    0    0  501    0  0.00000000000E+00  0.00000000000E+00  0.12761603075E+04  0.12761603075E+04  0.25500000920E-02 0. -1.
       -2   -1    0    0    0  501  0.00000000000E+00  0.00000000000E+00 -0.18898381579E+03  0.18898381581E+03  0.25500000920E-02 0.  1.
    10030    2    1    2    0    0  0.00000000000E+00  0.00000000000E+00  0.10871764918E+04  0.14651441234E+04  0.98218866721E+03 0.  0.
        3    1    3    3  502    0 -0.16359400834E+03 -0.20595969332E+03  0.11622290929E+04  0.11916202707E+04  0.10100000352E+00 0. -1.
       -3    1    3    3    0  502  0.16359400834E+03  0.20595969332E+03 -0.75052601180E+02  0.27352385268E+03  0.10100000352E+00 0.  1.
</event>
<event>
 5   0  0.6288003E-03  0.8994463E+03  0.7818609E-02  0.9426274E-01
       -1   -1    0    0    0  501  0.00000000000E+00  0.00000000000E+00  0.26355030208E+03  0.26355030213E+03  0.50400001928E-02 0.  1.
        1   -1    0    0  501    0  0.00000000000E+00  0.00000000000E+00 -0.76740909193E+03  0.76740909195E+03  0.50400001928E-02 0. -1.
    10030    2    1    2    0    0  0.00000000000E+00  0.00000000000E+00 -0.50385878985E+03  0.10309593941E+04  0.89944626972E+03 0.  0.
        1    1    3    3  502    0  0.32737350154E+03 -0.13857034896E+03  0.63802041052E+02  0.36117288324E+03  0.50400001928E-02 0.  1.
       -1    1    3    3    0  502 -0.32737350154E+03  0.13857034896E+03 -0.56766083090E+03  0.66978651083E+03  0.50400001928E-02 0. -1.
</event>
<event>
 5   0  0.6015709E-03  0.8428422E+03  0.7818609E-02  0.9499995E-01
        1   -1    0    0  501    0  0.00000000000E+00  0.00000000000E+00  0.80230333964E+03  0.80230333966E+03  0.50400001928E-02 0. -1.
       -1   -1    0    0    0  501  0.00000000000E+00  0.00000000000E+00 -0.22135733202E+03  0.22135733207E+03  0.50400001928E-02 0.  1.
    10030    2    1    2    0    0  0.00000000000E+00  0.00000000000E+00  0.58094600762E+03  0.10236606717E+04  0.84284216024E+03 0.  0.
        3    1    3    3  502    0 -0.62349262149E+02  0.12265157871E+03  0.77425551618E+03  0.78638569086E+03  0.10100000352E+00 0. -1.
       -3    1    3    3    0  502  0.62349262149E+02 -0.12265157871E+03 -0.19330950855E+03  0.23727498087E+03  0.10100000352E+00 0.  1.
</event>
<event>
 5   0  0.6137243E-03  0.8971064E+03  0.7818609E-02  0.9429206E-01
       -1   -1    0    0    0  501  0.00000000000E+00  0.00000000000E+00  0.33884639511E+03  0.33884639515E+03  0.50400001928E-02 0. -1.
        1   -1    0    0  501    0  0.00000000000E+00  0.00000000000E+00 -0.59377925392E+03  0.59377925394E+03  0.50400001928E-02 0.  1.
    10030    2    1    2    0    0  0.00000000000E+00  0.00000000000E+00 -0.25493285881E+03  0.93262564909E+03  0.89710636986E+03 0.  0.
        4    1    3    3  502    0 -0.39273531770E+03 -0.20477461627E+03 -0.20115792004E+03  0.48645636488E+03  0.12699999809E+01 0.  1.
       -4    1    3    3    0  502  0.39273531770E+03  0.20477461627E+03 -0.53774938765E+02  0.44616928421E+03  0.12699999809E+01 0. -1.
</event>
<event>
 5   0  0.6288003E-03  0.9013338E+03  0.7818609E-02  0.9423916E-01
        1   -1    0    0  501    0  0.00000000000E+00  0.00000000000E+00  0.12618106054E+04  0.12618106054E+04  0.50400001928E-02 0.  1.
       -1   -1    0    0    0  501  0.00000000000E+00  0.00000000000E+00 -0.16095968803E+03  0.16095968811E+03  0.50400001928E-02 0. -1.
    10030    2    1    2    0    0  0.00000000000E+00  0.00000000000E+00  0.11008509173E+04  0.14227702935E+04  0.90133377048E+03 0.  0.
        1    1    3    3  502    0 -0.14434595577E+02  0.61077381788E+02 -0.15402784095E+03  0.16632311905E+03  0.50400001928E-02 0. -1.
       -1    1    3    3    0  502  0.14434595577E+02 -0.61077381788E+02  0.12548787583E+04  0.12564471744E+04  0.50400001928E-02 0.  1.
</event>
<event>
 5   0  0.1017079E-02  0.9035492E+03  0.7818609E-02  0.9421156E-01
       -2   -1    0    0    0  501  0.00000000000E+00  0.00000000000E+00  0.96836123680E+02  0.96836123714E+02  0.25500000920E-02 0.  1.
        2   -1    0    0  501    0  0.00000000000E+00  0.00000000000E+00 -0.21076876944E+04  0.21076876944E+04  0.25500000920E-02 0. -1.
    10030    2    1    2    0    0  0.00000000000E+00  0.00000000000E+00 -0.20108515708E+04  0.22045238182E+04  0.90354923783E+03 0.  0.
        1    1    3    3  502    0 -0.93890772824E+02  0.21355419510E+03 -0.19493650221E+04  0.19632740158E+04  0.50400001928E-02 0. -1.
       -1    1    3    3    0  502  0.93890772824E+02 -0.21355419510E+03 -0.61486548644E+02  0.24124980240E+03  0.50400001928E-02 0.  1.
</event>
<event>
 5   0  0.1041727E-02  0.8965867E+03  0.7818609E-02  0.9429858E-01
       -2   -1    0    0    0  501  0.00000000000E+00  0.00000000000E+00  0.83566469452E+03  0.83566469452E+03  0.25500000920E-02 0.  1.
        2   -1    0    0  501    0  0.00000000000E+00  0.00000000000E+00 -0.24048753793E+03  0.24048753794E+03  0.25500000920E-02 0. -1.
    10030    2    1    2    0    0  0.00000000000E+00  0.00000000000E+00  0.59517715659E+03  0.10761522325E+04  0.89658673852E+03 0.  0.
        4    1    3    3  502    0  0.13446190673E+03 -0.26246518164E+03 -0.10766680215E+03  0.31394542379E+03  0.12699999809E+01 0. -1.
       -4    1    3    3    0  502 -0.13446190673E+03  0.26246518164E+03  0.70284395874E+03  0.76220680866E+03  0.12699999809E+01 0.  1.
</event>
<event>
 5   0  0.1003252E-02  0.8896116E+03  0.7818609E-02  0.9438661E-01
        2   -1    0    0  501    0  0.00000000000E+00  0.00000000000E+00  0.95119675470E+03  0.95119675470E+03  0.25500000920E-02 0. -1.
       -2   -1    0    0    0  501  0.00000000000E+00  0.00000000000E+00 -0.20800344840E+03  0.20800344842E+03  0.25500000920E-02 0.  1.
    10030    2    1    2    0    0  0.00000000000E+00  0.00000000000E+00  0.74319330630E+03  0.11592002031E+04  0.88961161211E+03 0.  0.
        2    1    3    3  502    0 -0.13409630869E+03 -0.16484375924E+03  0.88077877227E+03  0.90604996035E+03  0.25500000920E-02 0. -1.
       -2    1    3    3    0  502  0.13409630869E+03  0.16484375924E+03 -0.13758546597E+03  0.25315024277E+03  0.25500000920E-02 0.  1.
</event>
<event>
 5   0  0.6211218E-03  0.9074759E+03  0.7818609E-02  0.9416284E-01
       -1   -1    0    0    0  501  0.00000000000E+00  0.00000000000E+00  0.40678024185E+03  0.40678024188E+03  0.50400001928E-02 0. -1.
        1   -1    0    0  501    0  0.00000000000E+00  0.00000000000E+00 -0.50611633316E+03  0.50611633319E+03  0.50400001928E-02 0.  1.
    10030    2    1    2    0    0  0.00000000000E+00  0.00000000000E+00 -0.99336091310E+02  0.91289657507E+03  0.90747589375E+03 0.  0.
        5    1    3    3  502    0 -0.17055404655E+01  0.44905973773E+03  0.15514661923E+02  0.44935548472E+03  0.46999998093E+01 0.  1.
       -5    1    3    3    0  502  0.17055404655E+01 -0.44905973773E+03 -0.11485075323E+03  0.46354109034E+03  0.46999998093E+01 0. -1.
</event>
<event>
 5   0  0.6015709E-03  0.9169374E+03  0.7818609E-02  0.9404653E-01
       -1   -1    0    0    0  501  0.00000000000E+00  0.00000000000E+00  0.28476617825E+03  0.28476617830E+03  0.50400001928E-02 0. -1.
        1   -1    0    0  501    0  0.00000000000E+00  0.00000000000E+00 -0.73812677193E+03  0.73812677195E+03  0.50400001928E-02 0.  1.
    10030    2    1    2    0    0  0.00000000000E+00  0.00000000000E+00 -0.45336059368E+03  0.10228929502E+04  0.91693738050E+03 0.  0.
        3    1    3    3  502    0 -0.16221363228E+03 -0.42093205107E+03 -0.13539230495E+03  0.47098634859E+03  0.10100000352E+00 0. -1.
       -3    1    3    3    0  502  0.16221363228E+03  0.42093205107E+03 -0.31796828873E+03  0.55190660166E+03  0.10100000352E+00 0.  1.
</event>
<event>
 5   0  0.1017079E-02  0.8995034E+03  0.7818609E-02  0.9426202E-01
       -2   -1    0    0    0  501  0.00000000000E+00  0.00000000000E+00  0.83099410948E+03  0.83099410948E+03  0.25500000920E-02 0. -1.
        2   -1    0    0  501    0  0.00000000000E+00  0.00000000000E+00 -0.24341521602E+03  0.24341521603E+03  0.25500000920E-02 0.  1.
    10030    2    1    2    0    0  0.00000000000E+00  0.00000000000E+00  0.58757889346E+03  0.10744093255E+04  0.89950344230E+03 0.  0.
        1    1    3    3  502    0  0.38435057739E+03 -0.21343502068E+03  0.40708410508E+03  0.59916386993E+03  0.50400001928E-02 0.  1.
       -1    1    3    3    0  502 -0.38435057739E+03  0.21343502068E+03  0.18049478838E+03  0.47524545559E+03  0.50400001928E-02 0. -1.
</event>
<event>
 5   0  0.6137243E-03  0.8914143E+03  0.7818609E-02  0.9436378E-01
       -1   -1    0    0    0  501  0.00000000000E+00  0.00000000000E+00  0.36800399043E+03  0.36800399047E+03  0.50400001928E-02 0. -1.
        1   -1    0    0  501    0  0.00000000000E+00  0.00000000000E+00 -0.53981710719E+03  0.53981710722E+03  0.50400001928E-02 0.  1.
    10030    2    1    2    0    0  0.00000000000E+00  0.00000000000E+00 -0.17181311676E+03  0.90782109768E+03  0.89141426862E+03 0.  0.
        4    1    3    3  502    0 -0.51399859420E+02  0.18690487619E+03  0.32282541630E+03  0.37655443246E+03  0.12699999809E+01 0. -1.
       -4    1    3    3    0  502  0.51399859420E+02 -0.18690487619E+03 -0.49463853306E+03  0.53126666523E+03  0.12699999809E+01 0.  1.
</event>
<event>
 5   0  0.6015709E-03  0.8915825E+03  0.7818609E-02  0.9436165E-01
       -1   -1    0    0    0  501  0.00000000000E+00  0.00000000000E+00  0.28674601802E+03  0.28674601806E+03  0.50400001928E-02 0.  1.
        1   -1    0    0  501    0  0.00000000000E+00  0.00000000000E+00 -0.69305173717E+03  0.69305173719E+03  0.50400001928E-02 0. -1.
    10030    2    1    2    0    0  0.00000000000E+00  0.00000000000E+00 -0.40630571915E+03  0.97979775526E+03  0.89158247167E+03 0.  0.
        3    1    3    3  502    0  0.17737191623E+03  0.15465080353E+03  0.21292731298E+03  0.31735739871E+03  0.10100000352E+00 0.  1.
       -3    1    3    3    0  502 -0.17737191623E+03 -0.15465080353E+03 -0.61923303213E+03  0.66244035655E+03  0.10100000352E+00 0. -1.
</event>
<event>
 5   0  0.6288003E-03  0.9100174E+03  0.7818609E-02  0.9413145E-01
       -1   -1    0    0    0  501  0.00000000000E+00  0.00000000000E+00  0.57277458896E+03  0.57277458898E+03  0.50400001928E-02 0.  1.
        1   -1    0    0  501    0  0.00000000000E+00  0.00000000000E+00 -0.36145617390E+03  0.36145617394E+03  0.50400001928E-02 0. -1.
    10030    2    1    2    0    0  0.00000000000E+00  0.00000000000E+00  0.21131841505E+03  0.93423076292E+03  0.91001738766E+03 0.  0.
        1    1    3    3  502    0 -0.18273099654E+03  0.10492861336E+03 -0.30834794988E+03  0.37346899365E+03  0.50400001928E-02 0. -1.
       -1    1    3    3    0  502  0.18273099654E+03 -0.10492861336E+03  0.51966636494E+03  0.56076176927E+03  0.50400001928E-02 0.  1.
</event>
<event>
 5   0  0.3996375E-03  0.8869131E+03  0.7818609E-02  0.9442090E-01
       -3   -1    0    0    0  501  0.00000000000E+00  0.00000000000E+00  0.47740810043E+03  0.47740811111E+03  0.10100000352E+00 0.  1.
        3   -1    0    0  501    0  0.00000000000E+00  0.00000000000E+00 -0.41191944631E+03  0.41191945869E+03  0.10100000352E+00 0. -1.
    10030    2    1    2    0    0  0.00000000000E+00  0.00000000000E+00  0.65488654119E+02  0.88932756980E+03  0.88691305244E+03 0.  0.
        5    1    3    3  502    0  0.16080986125E+03  0.29868072221E+03  0.31911175504E+03  0.46575142244E+03  0.46999998093E+01 0.  1.
       -5    1    3    3    0  502 -0.16080986125E+03 -0.29868072221E+03 -0.25362310092E+03  0.42357614737E+03  0.46999998093E+01 0. -1.
</event>
<event>
 5   0  0.6211218E-03  0.9418661E+03  0.7818609E-02  0.9374709E-01
       -1   -1    0    0    0  501  0.00000000000E+00  0.00000000000E+00  0.30505282214E+03  0.30505282218E+03  0.50400001928E-02 0.  1.
        1   -1    0    0  501    0  0.00000000000E+00  0.00000000000E+00 -0.72701491129E+03  0.72701491130E+03  0.50400001928E-02 0. -1.
    10030    2    1    2    0    0  0.00000000000E+00  0.00000000000E+00 -0.42196208915E+03  0.10320677335E+04  0.94186612733E+03 0.  0.
        5    1    3    3  502    0 -0.22286775081E+02  0.39964350609E+03  0.60858533049E+02  0.40489194033E+03  0.46999998093E+01 0.  1.
       -5    1    3    3    0  502  0.22286775081E+02 -0.39964350609E+03 -0.48282062220E+03  0.62717579315E+03  0.46999998093E+01 0. -1.
</event>
<event>
 5   0  0.6015709E-03  0.9034333E+03  0.7818609E-02  0.9421300E-01
       -1   -1    0    0    0  501  0.00000000000E+00  0.00000000000E+00  0.47557521589E+03  0.47557521592E+03  0.50400001928E-02 0.  1.
        1   -1    0    0  501    0  0.00000000000E+00  0.00000000000E+00 -0.42905500643E+03  0.42905500646E+03  0.50400001928E-02 0. -1.
    10030    2    1    2    0    0  0.00000000000E+00  0.00000000000E+00  0.46520209455E+02  0.90463022238E+03  0.90343328993E+03 0.  0.
        3    1    3    3  502    0  0.22742791474E+03  0.50031955828E+02 -0.36432022858E+03  0.43238396381E+03  0.10100000352E+00 0. -1.
       -3    1    3    3    0  502 -0.22742791474E+03 -0.50031955828E+02  0.41084043804E+03  0.47224625857E+03  0.10100000352E+00 0.  1.
</event>
<event>
 5   0  0.1041727E-02  0.9025574E+03  0.7818609E-02  0.9422390E-01
        2   -1    0    0  501    0  0.00000000000E+00  0.00000000000E+00  0.33718009184E+03  0.33718009185E+03  0.25500000920E-02 0.  1.
       -2   -1    0    0    0  501  0.00000000000E+00  0.00000000000E+00 -0.60398722022E+03  0.60398722022E+03  0.25500000920E-02 0. -1.
    10030    2    1    2    0    0  0.00000000000E+00  0.00000000000E+00 -0.26680712837E+03  0.94116731208E+03  0.90255740292E+03 0.  0.
        4    1    3    3  502    0  0.22695452458E+03 -0.27648782576E+03 -0.42030404599E+03  0.55191573451E+03  0.12699999809E+01 0. -1.
       -4    1    3    3    0  502 -0.22695452458E+03  0.27648782576E+03  0.15349691762E+03  0.38925157757E+03  0.12699999809E+01 0.  1.
</event>
<event>
 5   0  0.1017079E-02  0.9088302E+03  0.7818609E-02  0.9414610E-01
       -2   -1    0    0    0  501  0.00000000000E+00  0.00000000000E+00  0.92396940768E+02  0.92396940804E+02  0.25500000920E-02 0. -1.
        2   -1    0    0  501    0  0.00000000000E+00  0.00000000000E+00 -0.22348478520E+04  0.22348478520E+04  0.25500000920E-02 0.  1.
    10030    2    1    2    0    0  0.00000000000E+00  0.00000000000E+00 -0.21424509112E+04  0.23272447928E+04  0.90883024740E+03 0.  0.
        1    1    3    3  502    0  0.13740574140E+03  0.25367661497E+03 -0.17219990322E+03  0.33598358509E+03  0.50400001928E-02 0. -1.
       -1    1    3    3    0  502 -0.13740574140E+03 -0.25367661497E+03 -0.19702510080E+04  0.19912612077E+04  0.50400001928E-02 0.  1.
</event>
<event>
 5   0  0.6137243E-03  0.9013595E+03  0.7818609E-02  0.9423884E-01
        1   -1    0    0  501    0  0.00000000000E+00  0.00000000000E+00  0.53212888932E+03  0.53212888935E+03  0.50400001928E-02 0.  1.
       -1   -1    0    0    0  501  0.00000000000E+00  0.00000000000E+00 -0.38169741717E+03  0.38169741721E+03  0.50400001928E-02 0. -1.
    10030    2    1    2    0    0  0.00000000000E+00  0.00000000000E+00  0.15043147215E+03  0.91382630655E+03  0.90135946810E+03 0.  0.
        4    1    3    3  502    0  0.28689043115E+03  0.27459636747E+03  0.29123868787E+03  0.49247423356E+03  0.12699999809E+01 0.  1.
       -4    1    3    3    0  502 -0.28689043115E+03 -0.27459636747E+03 -0.14080721572E+03  0.42135207299E+03  0.12699999809E+01 0. -1.
</event>
<event>
 5   0  0.1033749E-02  0.8934793E+03  0.7818609E-02  0.9433769E-01
        2   -1    0    0  501    0  0.00000000000E+00  0.00000000000E+00  0.85699178773E+03  0.85699178773E+03  0.25500000920E-02 0. -1.
       -2   -1    0    0    0  501  0.00000000000E+00  0.00000000000E+00 -0.23288010151E+03  0.23288010152E+03  0.25500000920E-02 0.  1.
    10030    2    1    2    0    0  0.00000000000E+00  0.00000000000E+00  0.62411168622E+03  0.10898718893E+04  0.89347934397E+03 0.  0.
        5    1    3    3  502    0  0.22798198361E+03  0.36202568930E+03  0.15529357789E+03  0.45516652985E+03  0.46999998093E+01 0.  1.
       -5    1    3    3    0  502 -0.22798198361E+03 -0.36202568930E+03  0.46881810833E+03  0.63470535940E+03  0.46999998093E+01 0. -1.
</event>
<event>
 5   0  0.6137243E-03  0.9048304E+03  0.7818609E-02  0.9419563E-01
        1   -1    0    0  501    0  0.00000000000E+00  0.00000000000E+00  0.37864403417E+03  0.37864403421E+03  0.50400001928E-02 0.  1.
       -1   -1    0    0    0  501  0.00000000000E+00  0.00000000000E+00 -0.54055919546E+03  0.54055919549E+03  0.50400001928E-02 0. -1.
    10030    2    1    2    0    0  0.00000000000E+00  0.00000000000E+00 -0.16191516129E+03  0.91920322970E+03  0.90483040291E+03 0.  0.
        4    1    3    3  502    0 -0.34100612875E+03  0.19591062066E+03  0.14622780187E+03  0.41958352455E+03  0.12699999809E+01 0.  1.
       -4    1    3    3    0  502  0.34100612875E+03 -0.19591062066E+03 -0.30814296316E+03  0.49961970515E+03  0.12699999809E+01 0. -1.
</event>
<event>
 5   0  0.6288003E-03  0.9032876E+03  0.7818609E-02  0.9421481E-01
        1   -1    0    0  501    0  0.00000000000E+00  0.00000000000E+00  0.11088828762E+04  0.11088828762E+04  0.50400001928E-02 0.  1.
       -1   -1    0    0    0  501  0.00000000000E+00  0.00000000000E+00 -0.18395281108E+03  0.18395281115E+03  0.50400001928E-02 0. -1.
    10030    2    1    2    0    0  0.00000000000E+00  0.00000000000E+00  0.92493006511E+03  0.12928356874E+04  0.90328760047E+03 0.  0.
        1    1    3    3  502    0 -0.55649794596E+02  0.20395384710E+03  0.10336922368E+04  0.10550894331E+04  0.50400001928E-02 0.  1.
       -1    1    3    3    0  502  0.55649794596E+02 -0.20395384710E+03 -0.10876217171E+03  0.23774625424E+03  0.50400001928E-02 0. -1.
</event>
<event>
 5   0  0.6288003E-03  0.9000373E+03  0.7818609E-02  0.9425535E-01
        1   -1    0    0  501    0  0.00000000000E+00  0.00000000000E+00  0.40998440667E+03  0.40998440670E+03  0.50400001928E-02 0. -1.
       -1   -1    0    0    0  501  0.00000000000E+00  0.00000000000E+00 -0.49396213141E+03  0.49396213144E+03  0.50400001928E-02 0.  1.
    10030    2    1    2    0    0  0.00000000000E+00  0.00000000000E+00 -0.83977724745E+02  0.90394653814E+03  0.90003726899E+03 0.  0.
        1    1    3    3  502    0  0.39364137731E+03 -0.18789281239E+03 -0.15319253645E+03  0.46230422465E+03  0.50400001928E-02 0.  1.
       -1    1    3    3    0  502 -0.39364137731E+03  0.18789281239E+03  0.69214811700E+02  0.44164231349E+03  0.50400001928E-02 0. -1.
</event>
<event>
 5   0  0.6015709E-03  0.9056478E+03  0.7818609E-02  0.9418549E-01
       -1   -1    0    0    0  501  0.00000000000E+00  0.00000000000E+00  0.12234219659E+04  0.12234219659E+04  0.50400001928E-02 0. -1.
        1   -1    0    0  501    0  0.00000000000E+00  0.00000000000E+00 -0.16760322174E+03  0.16760322182E+03  0.50400001928E-02 0.  1.
    10030    2    1    2    0    0  0.00000000000E+00  0.00000000000E+00  0.10558187441E+04  0.13910251877E+04  0.90564775292E+03 0.  0.
        3    1    3    3  502    0 -0.20531733974E+03 -0.22598747585E+03  0.10415306470E+04  0.10853624501E+04  0.10100000352E+00 0. -1.
       -3    1    3    3    0  502  0.20531733974E+03  0.22598747585E+03  0.14288097127E+02  0.30566273760E+03  0.10100000352E+00 0.  1.
</event>
<event>
 5   0  0.1033749E-02  0.9096068E+03  0.7818609E-02  0.9413652E-01
       -2   -1    0    0    0  501  0.00000000000E+00  0.00000000000E+00  0.24744032103E+03  0.24744032104E+03  0.25500000920E-02 0. -1.
        2   -1    0    0  501    0  0.00000000000E+00  0.00000000000E+00 -0.83594348814E+03  0.83594348815E+03  0.25500000920E-02 0.  1.
    10030    2    1    2    0    0  0.00000000000E+00  0.00000000000E+00 -0.58850316712E+03  0.10833838092E+04  0.90960678335E+03 0.  0.
        5    1    3    3  502    0 -0.33157132549E+03 -0.51326909764E+02  0.71401652233E+02  0.34306600166E+03  0.46999998093E+01 0. -1.
       -5    1    3    3    0  502  0.33157132549E+03  0.51326909764E+02 -0.65990481935E+03  0.74031780753E+03  0.46999998093E+01 0.  1.
</event>
<event>
 5   0  0.1017079E-02  0.7882580E+03  0.7818609E-02  0.9577170E-01
       -2   -1    0    0    0  501  0.00000000000E+00  0.00000000000E+00  0.25343139870E+03  0.25343139872E+03  0.25500000920E-02 0. -1.
        2   -1    0    0  501    0  0.00000000000E+00  0.00000000000E+00 -0.61293771629E+03  0.61293771629E+03  0.25500000920E-02 0.  1.
    10030    2    1    2    0    0  0.00000000000E+00  0.00000000000E+00 -0.35950631758E+03  0.86636911501E+03  0.78825798509E+03 0.  0.
        1    1    3    3  502    0 -0.79738600175E+02 -0.15337269653E+03 -0.56904984493E+03  0.59472611716E+03  0.50400001928E-02 0.  1.
       -1    1    3    3    0  502  0.79738600175E+02  0.15337269653E+03  0.20954352735E+03  0.27164299784E+03  0.50400001928E-02 0. -1.
</event>
<event>
 5   0  0.6137243E-03  0.8929984E+03  0.7818609E-02  0.9434376E-01
        1   -1    0    0  501    0  0.00000000000E+00  0.00000000000E+00  0.44888579176E+03  0.44888579178E+03  0.50400001928E-02 0. -1.
       -1   -1    0    0    0  501  0.00000000000E+00  0.00000000000E+00 -0.44412530307E+03  0.44412530310E+03  0.50400001928E-02 0.  1.
    10030    2    1    2    0    0  0.00000000000E+00  0.00000000000E+00  0.47604886838E+01  0.89301109489E+03  0.89299840612E+03 0.  0.
        4    1    3    3  502    0 -0.26872564642E+03 -0.16309270753E+03  0.31947656810E+03  0.44819593345E+03  0.12699999809E+01 0. -1.
       -4    1    3    3    0  502  0.26872564642E+03  0.16309270753E+03 -0.31471607942E+03  0.44481516143E+03  0.12699999809E+01 0.  1.
</event>
<event>
 5   0  0.6015709E-03  0.9546572E+03  0.7818609E-02  0.9359724E-01
        1   -1    0    0  501    0  0.00000000000E+00  0.00000000000E+00  0.14841740068E+03  0.14841740077E+03  0.50400001928E-02 0.  1.
       -1   -1    0    0    0  501  0.00000000000E+00  0.00000000000E+00 -0.15351474160E+04  0.15351474160E+04  0.50400001928E-02 0. -1.
    10030    2    1    2    0    0  0.00000000000E+00  0.00000000000E+00 -0.13867300153E+04  0.16835648168E+04  0.95465719339E+03 0.  0.
        3    1    3    3  502    0  0.24402123308E+03 -0.38533683263E+03 -0.44514103238E+03  0.63732361143E+03  0.10100000352E+00 0.  1.
       -3    1    3    3    0  502 -0.24402123308E+03  0.38533683263E+03 -0.94158898293E+03  0.10462412053E+04  0.10100000352E+00 0. -1.
</event>
<event>
 5   0  0.1033749E-02  0.8962067E+03  0.7818609E-02  0.9430336E-01
       -2   -1    0    0    0  501  0.00000000000E+00  0.00000000000E+00  0.10308890125E+04  0.10308890125E+04  0.25500000920E-02 0.  1.
        2   -1    0    0  501    0  0.00000000000E+00  0.00000000000E+00 -0.19478003625E+03  0.19478003627E+03  0.25500000920E-02 0. -1.
    10030    2    1    2    0    0  0.00000000000E+00  0.00000000000E+00  0.83610897627E+03  0.12256690488E+04  0.89620667090E+03 0.  0.
        5    1    3    3  502    0 -0.13266300737E+03 -0.42776274114E+03  0.39900217895E+03  0.59983769891E+03  0.46999998093E+01 0.  1.
       -5    1    3    3    0  502  0.13266300737E+03  0.42776274114E+03  0.43710679732E+03  0.62583134988E+03  0.46999998093E+01 0. -1.
</event>
<event>
 5   0  0.6015709E-03  0.8918742E+03  0.7818609E-02  0.9435796E-01
       -1   -1    0    0    0  501  0.00000000000E+00  0.00000000000E+00  0.10622706507E+03  0.10622706519E+03  0.50400001928E-02 0.  1.
        1   -1    0    0  501    0  0.00000000000E+00  0.00000000000E+00 -0.18720268303E+04  0.18720268303E+04  0.50400001928E-02 0. -1.
    10030    2    1    2    0    0  0.00000000000E+00  0.00000000000E+00 -0.17657997652E+04  0.19782538954E+04  0.89187424232E+03 0.  0.
        3    1    3    3  502    0  0.20360478170E+03 -0.30082544346E+03 -0.14566474325E+04  0.15012570091E+04  0.10100000352E+00 0. -1.
       -3    1    3    3    0  502 -0.20360478170E+03  0.30082544346E+03 -0.30915233266E+03  0.47699688632E+03  0.10100000352E+00 0.  1.
</event>
<event>
 5   0  0.6015709E-03  0.9096846E+03  0.7818609E-02  0.9413556E-01
       -1   -1    0    0    0  501  0.00000000000E+00  0.00000000000E+00  0.12353991842E+03  0.12353991853E+03  0.50400001928E-02 0.  1.
        1   -1    0    0  501    0  0.00000000000E+00  0.00000000000E+00 -0.16746126300E+04  0.16746126300E+04  0.50400001928E-02 0. -1.
    10030    2    1    2    0    0  0.00000000000E+00  0.00000000000E+00 -0.15510727116E+04  0.17981525486E+04  0.90968457787E+03 0.  0.
        3    1    3    3  502    0 -0.17684001925E+03 -0.41797199632E+03 -0.83511654380E+03  0.95046969128E+03  0.10100000352E+00 0. -1.
       -3    1    3    3    0  502  0.17684001925E+03  0.41797199632E+03 -0.71595616781E+03  0.84768285729E+03  0.10100000352E+00 0.  1.
</event>
<event>
 5   0  0.1041727E-02  0.8980027E+03  0.7818609E-02  0.9428082E-01
       -2   -1    0    0    0  501  0.00000000000E+00  0.00000000000E+00  0.23035696101E+03  0.23035696103E+03  0.25500000920E-02 0. -1.
        2   -1    0    0  501    0  0.00000000000E+00  0.00000000000E+00 -0.87517308016E+03  0.87517308017E+03  0.25500000920E-02 0.  1.
    10030    2    1    2    0    0  0.00000000000E+00  0.00000000000E+00 -0.64481611915E+03  0.11055300412E+04  0.89800269736E+03 0.  0.
        4    1    3    3  502    0 -0.28722017888E+03 -0.33727667078E+03 -0.41245192852E+03  0.60528438775E+03  0.12699999809E+01 0.  1.
       -4    1    3    3    0  502  0.28722017888E+03  0.33727667078E+03 -0.23236419063E+03  0.50024565345E+03  0.12699999809E+01 0. -1.
</event>
<event>
 5   0  0.1003252E-02  0.8947558E+03  0.7818609E-02  0.9432161E-01
        2   -1    0    0  501    0  0.00000000000E+00  0.00000000000E+00  0.24650673020E+04  0.24650673020E+04  0.25500000920E-02 0.  1.
       -2   -1    0    0    0  501  0.00000000000E+00  0.00000000000E+00 -0.81193322528E+02  0.81193322568E+02  0.25500000920E-02 0. -1.
    10030    2    1    2    0    0  0.00000000000E+00  0.00000000000E+00  0.23838739795E+04  0.25462606246E+04  0.89475584281E+03 0.  0.
        2    1    3    3  502    0 -0.79100516369E+02  0.29115592570E+02 -0.58393033793E+02  0.10253953297E+03  0.25500000920E-02 0. -1.
       -2    1    3    3    0  502  0.79100516369E+02 -0.29115592570E+02  0.24422670133E+04  0.24437210916E+04  0.25500000920E-02 0.  1.
</event>
<event>
 5   0  0.6092779E-03  0.9167215E+03  0.7818609E-02  0.9404917E-01
        1   -1    0    0  501    0  0.00000000000E+00  0.00000000000E+00  0.11065872033E+04  0.11065872033E+04  0.50400001928E-02 0. -1.
       -1   -1    0    0    0  501  0.00000000000E+00  0.00000000000E+00 -0.18985813423E+03  0.18985813430E+03  0.50400001928E-02 0.  1.
    10030    2    1    2    0    0  0.00000000000E+00  0.00000000000E+00  0.91672906903E+03  0.12964453376E+04  0.91672151023E+03 0.  0.
        2    1    3    3  502    0  0.97660868073E+02  0.34455982552E+02  0.10898253264E+04  0.10947347176E+04  0.25500000920E-02 0. -1.
       -2    1    3    3    0  502 -0.97660868073E+02 -0.34455982552E+02 -0.17309625736E+03  0.20171061996E+03  0.25500000920E-02 0.  1.
</event>
<event>
 5   0  0.1003252E-02  0.8981047E+03  0.7818609E-02  0.9427954E-01
        2   -1    0    0  501    0  0.00000000000E+00  0.00000000000E+00  0.87808185117E+03  0.87808185117E+03  0.25500000920E-02 0. -1.
       -2   -1    0    0    0  501  0.00000000000E+00  0.00000000000E+00 -0.22964604987E+03  0.22964604989E+03  0.25500000920E-02 0.  1.
    10030    2    1    2    0    0  0.00000000000E+00  0.00000000000E+00  0.64843580129E+03  0.11077279011E+04  0.89810473464E+03 0.  0.
        2    1    3    3  502    0 -0.67604931072E+02 -0.20520557682E+03 -0.16132488494E+03  0.26963952598E+03  0.25500000920E-02 0.  1.
       -2    1    3    3    0  502  0.67604931072E+02  0.20520557682E+03  0.80976068624E+03  0.83808837508E+03  0.25500000920E-02 0. -1.
</event>
<event>
 5   0  0.6092779E-03  0.8977177E+03  0.7818609E-02  0.9428439E-01
        1   -1    0    0  501    0  0.00000000000E+00  0.00000000000E+00  0.15774068586E+03  0.15774068594E+03  0.50400001928E-02 0.  1.
       -1   -1    0    0    0  501  0.00000000000E+00  0.00000000000E+00 -0.12772499081E+04  0.12772499081E+04  0.50400001928E-02 0. -1.
    10030    2    1    2    0    0  0.00000000000E+00  0.00000000000E+00 -0.11195092222E+04  0.14349905940E+04  0.89771772084E+03 0.  0.
        2    1    3    3  502    0  0.18951965798E+03 -0.34942763917E+03 -0.22652880170E+03  0.45752887754E+03  0.25500000920E-02 0.  1.
       -2    1    3    3    0  502 -0.18951965798E+03  0.34942763917E+03 -0.89298042049E+03  0.97746171647E+03  0.25500000920E-02 0. -1.
</event>
<event>
 5   0  0.3996375E-03  0.9035138E+03  0.7818609E-02  0.9421200E-01
        3   -1    0    0  501    0  0.00000000000E+00  0.00000000000E+00  0.56703406490E+03  0.56703407389E+03  0.10100000352E+00 0. -1.
       -3   -1    0    0    0  501  0.00000000000E+00  0.00000000000E+00 -0.35991536684E+03  0.35991538101E+03  0.10100000352E+00 0.  1.
    10030    2    1    2    0    0  0.00000000000E+00  0.00000000000E+00  0.20711869806E+03  0.92694945490E+03  0.90351377237E+03 0.  0.
        4    1    3    3  502    0  0.41077545724E+03  0.71364297479E+02 -0.74887089135E+02  0.42360244126E+03  0.12699999809E+01 0.  1.
       -4    1    3    3    0  502 -0.41077545724E+03 -0.71364297479E+02  0.28200578720E+03  0.50334701364E+03  0.12699999809E+01 0. -1.
</event>
<event>
 5   0  0.6288003E-03  0.9155712E+03  0.7818609E-02  0.9406323E-01
        1   -1    0    0  501    0  0.00000000000E+00  0.00000000000E+00  0.89861936389E+03  0.89861936390E+03  0.50400001928E-02 0.  1.
       -1   -1    0    0    0  501  0.00000000000E+00  0.00000000000E+00 -0.23321069287E+03  0.23321069292E+03  0.50400001928E-02 0. -1.
    10030    2    1    2    0    0  0.00000000000E+00  0.00000000000E+00  0.66540867102E+03  0.11318300568E+04  0.91557117586E+03 0.  0.
        1    1    3    3  502    0  0.31948309952E+03 -0.67220224602E+02 -0.63998025549E+02  0.33269168426E+03  0.50400001928E-02 0. -1.
       -1    1    3    3    0  502 -0.31948309952E+03  0.67220224602E+02  0.72940669657E+03  0.79913837256E+03  0.50400001928E-02 0.  1.
</event>
<event>
 5   0  0.1003252E-02  0.9157141E+03  0.7818609E-02  0.9406148E-01
       -2   -1    0    0    0  501  0.00000000000E+00  0.00000000000E+00  0.18131905947E+03  0.18131905949E+03  0.25500000920E-02 0.  1.
        2   -1    0    0  501    0  0.00000000000E+00  0.00000000000E+00 -0.11561558242E+04  0.11561558242E+04  0.25500000920E-02 0. -1.
    10030    2    1    2    0    0  0.00000000000E+00  0.00000000000E+00 -0.97483676474E+03  0.13374748837E+04  0.91571411841E+03 0.  0.
        2    1    3    3  502    0  0.17805644150E+03  0.35411250744E+03 -0.82218578210E+03  0.91273721551E+03  0.25500000920E-02 0.  1.
       -2    1    3    3    0  502 -0.17805644150E+03 -0.35411250744E+03 -0.15265098264E+03  0.42473766820E+03  0.25500000920E-02 0. -1.
</event>
<event>
 5   0  0.1041727E-02  0.8962881E+03  0.7818609E-02  0.9430233E-01
        2   -1    0    0  501    0  0.00000000000E+00  0.00000000000E+00  0.59550454840E+03  0.59550454841E+03  0.25500000920E-02 0. -1.
       -2   -1    0    0    0  501  0.00000000000E+00  0.00000000000E+00 -0.33724863704E+03  0.33724863705E+03  0.25500000920E-02 0.  1.
    10030    2    1    2    0    0  0.00000000000E+00  0.00000000000E+00  0.25825591137E+03  0.93275318545E+03  0.89628811730E+03 0.  0.
        4    1    3    3  502    0  0.43432577784E+03 -0.66985162144E+02  0.37775109332E+02  0.44108328582E+03  0.12699999809E+01 0.  1.
       -4    1    3    3    0  502 -0.43432577784E+03  0.66985162144E+02  0.22048080203E+03  0.49166989964E+03  0.12699999809E+01 0. -1.
</event>
<event>
 5   0  0.1017079E-02  0.8883890E+03  0.7818609E-02  0.9440213E-01
       -2   -1    0    0    0  501  0.00000000000E+00  0.00000000000E+00  0.17033691177E+03  0.17033691179E+03  0.25500000920E-02 0.  1.
        2   -1    0    0  501    0  0.00000000000E+00  0.00000000000E+00 -0.11583441321E+04  0.11583441321E+04  0.25500000920E-02 0. -1.
    10030    2    1    2    0    0  0.00000000000E+00  0.00000000000E+00 -0.98800722033E+03  0.13286810439E+04  0.88838901894E+03 0.  0.
        1    1    3    3  502    0  0.31188760419E+03  0.10504889185E+03 -0.47822046674E+02  0.33255991265E+03  0.50400001928E-02 0.  1.
       -1    1    3    3    0  502 -0.31188760419E+03 -0.10504889185E+03 -0.94018517365E+03  0.99612113124E+03  0.50400001928E-02 0. -1.
</event>
<event>
 5   0  0.1017079E-02  0.8954908E+03  0.7818609E-02  0.9431236E-01
        2   -1    0    0  501    0  0.00000000000E+00  0.00000000000E+00  0.71100897353E+03  0.71100897354E+03  0.25500000920E-02 0.  1.
       -2   -1    0    0    0  501  0.00000000000E+00  0.00000000000E+00 -0.28195980753E+03  0.28195980754E+03  0.25500000920E-02 0. -1.
    10030    2    1    2    0    0  0.00000000000E+00  0.00000000000E+00  0.42904916601E+03  0.99296878108E+03  0.89549082259E+03 0.  0.
        1    1    3    3  502    0 -0.42631702214E+03 -0.41121982746E+02  0.69783073613E+02  0.43394342745E+03  0.50400001928E-02 0. -1.
       -1    1    3    3    0  502  0.42631702214E+03  0.41121982746E+02  0.35926609239E+03  0.55902535363E+03  0.50400001928E-02 0.  1.
</event>
<event>
 5   0  0.6092779E-03  0.9240296E+03  0.7818609E-02  0.9396032E-01
       -1   -1    0    0    0  501  0.00000000000E+00  0.00000000000E+00  0.55200115881E+03  0.55200115883E+03  0.50400001928E-02 0. -1.
        1   -1    0    0  501    0  0.00000000000E+00  0.00000000000E+00 -0.38669786421E+03  0.38669786424E+03  0.50400001928E-02 0.  1.
    10030    2    1    2    0    0  0.00000000000E+00  0.00000000000E+00  0.16530329460E+03  0.93869902307E+03  0.92402958649E+03 0.  0.
        2    1    3    3  502    0 -0.36382128804E+03  0.10882052775E+03 -0.18467967818E+03  0.42227292174E+03  0.25500000920E-02 0.  1.
       -2    1    3    3    0  502  0.36382128804E+03 -0.10882052775E+03  0.34998297278E+03  0.51642610133E+03  0.25500000920E-02 0. -1.
</event>
<event>
 5   0  0.3996375E-03  0.8985101E+03  0.7818609E-02  0.9427446E-01
       -4   -1    0    0    0  501  0.00000000000E+00  0.00000000000E+00  0.33021055512E+03  0.33021299734E+03  0.12699999809E+01 0.  1.
        4   -1    0    0  501    0  0.00000000000E+00  0.00000000000E+00 -0.61121100940E+03  0.61121232883E+03  0.12699999809E+01 0. -1.
    10030    2    1    2    0    0  0.00000000000E+00  0.00000000000E+00 -0.28100045428E+03  0.94142532617E+03  0.89851009424E+03 0.  0.
        4    1    3    3  502    0 -0.87839799661E+02  0.39801951191E+03  0.57449627144E+02  0.41162778675E+03  0.12699999809E+01 0.  1.
       -4    1    3    3    0  502  0.87839799661E+02 -0.39801951191E+03 -0.33845008142E+03  0.52979753942E+03  0.12699999809E+01 0. -1.
</event>
<event>
 5   0  0.1017079E-02  0.8997151E+03  0.7818609E-02  0.9425938E-01
        2   -1    0    0  501    0  0.00000000000E+00  0.00000000000E+00  0.58523396433E+03  0.58523396434E+03  0.25500000920E-02 0.  1.
       -2   -1    0    0    0  501  0.00000000000E+00  0.00000000000E+00 -0.34579641398E+03  0.34579641399E+03  0.25500000920E-02 0. -1.
    10030    2    1    2    0    0  0.00000000000E+00  0.00000000000E+00  0.23943755035E+03  0.93103037833E+03  0.89971507981E+03 0.  0.
        1    1    3    3  502    0 -0.93259102896E+02  0.41652389669E+03  0.26672818791E+03  0.50332230532E+03  0.50400001928E-02 0.  1.
       -1    1    3    3    0  502  0.93259102896E+02 -0.41652389669E+03 -0.27290637559E+02  0.42770807300E+03  0.50400001928E-02 0. -1.
</event>
<event>
 5   0  0.1033749E-02  0.9108394E+03  0.7818609E-02  0.9412132E-01
       -2   -1    0    0    0  501  0.00000000000E+00  0.00000000000E+00  0.22466604089E+03  0.22466604090E+03  0.25500000920E-02 0.  1.
        2   -1    0    0  501    0  0.00000000000E+00  0.00000000000E+00 -0.92317968168E+03  0.92317968168E+03  0.25500000920E-02 0. -1.
    10030    2    1    2    0    0  0.00000000000E+00  0.00000000000E+00 -0.69851364079E+03  0.11478457226E+04  0.91083944605E+03 0.  0.
        5    1    3    3  502    0  0.36400296692E+02 -0.11266250382E+03 -0.90341418377E+03  0.91115152351E+03  0.46999998093E+01 0. -1.
       -5    1    3    3    0  502 -0.36400296692E+02  0.11266250382E+03  0.20490054297E+03  0.23669419907E+03  0.46999998093E+01 0.  1.
</event>
<event>
 5   0  0.1041727E-02  0.9037360E+03  0.7818609E-02  0.9420923E-01
        2   -1    0    0  501    0  0.00000000000E+00  0.00000000000E+00  0.43128123113E+03  0.43128123114E+03  0.25500000920E-02 0. -1.
       -2   -1    0    0    0  501  0.00000000000E+00  0.00000000000E+00 -0.47343741239E+03  0.47343741240E+03  0.25500000920E-02 0.  1.
    10030    2    1    2    0    0  0.00000000000E+00  0.00000000000E+00 -0.42156181260E+02  0.90471864354E+03  0.90373595721E+03 0.  0.
        4    1    3    3  502    0 -0.34036297176E+03  0.22837900559E+03 -0.21149304989E+03  0.46123187855E+03  0.12699999809E+01 0.  1.
       -4    1    3    3    0  502  0.34036297176E+03 -0.22837900559E+03  0.16933686863E+03  0.44348676499E+03  0.12699999809E+01 0. -1.
</event>
<event>
 5   0  0.6288003E-03  0.9028802E+03  0.7818609E-02  0.9421988E-01
       -1   -1    0    0    0  501  0.00000000000E+00  0.00000000000E+00  0.16681020244E+03  0.16681020252E+03  0.50400001928E-02 0. -1.
        1   -1    0    0  501    0  0.00000000000E+00  0.00000000000E+00 -0.12217368568E+04  0.12217368568E+04  0.50400001928E-02 0.  1.
    10030    2    1    2    0    0  0.00000000000E+00  0.00000000000E+00 -0.10549266544E+04  0.13885470594E+04  0.90288021904E+03 0.  0.
        1    1    3    3  502    0 -0.24902450711E+03  0.33758817311E+03 -0.78397239720E+03  0.88915223632E+03  0.50400001928E-02 0.  1.
       -1    1    3    3    0  502  0.24902450711E+03 -0.33758817311E+03 -0.27095425719E+03  0.49939482304E+03  0.50400001928E-02 0. -1.
</event>
<event>
 5   0  0.1028978E-02  0.8930901E+03  0.7818609E-02  0.9434261E-01
        2   -1    0    0  501    0  0.00000000000E+00  0.00000000000E+00  0.44594009245E+03  0.44594009245E+03  0.25500000920E-02 0. -1.
       -2   -1    0    0    0  501  0.00000000000E+00  0.00000000000E+00 -0.44715085155E+03  0.44715085156E+03  0.25500000920E-02 0.  1.
    10030    2    1    2    0    0  0.00000000000E+00  0.00000000000E+00 -0.12107591076E+01  0.89309094401E+03  0.89309012330E+03 0.  0.
        3    1    3    3  502    0 -0.15735801188E+03  0.30882297086E+03  0.28094294017E+03  0.44616377830E+03  0.10100000352E+00 0. -1.
       -3    1    3    3    0  502  0.15735801188E+03 -0.30882297086E+03 -0.28215369928E+03  0.44692716571E+03  0.10100000352E+00 0.  1.
</event>
<event>
 5   0  0.1017079E-02  0.8983348E+03  0.7818609E-02  0.9427665E-01
       -2   -1    0    0    0  501  0.00000000000E+00  0.00000000000E+00  0.13587409918E+03  0.13587409921E+03  0.25500000920E-02 0.  1.
        2   -1    0    0  501    0  0.00000000000E+00  0.00000000000E+00 -0.14848405363E+04  0.14848405363E+04  0.25500000920E-02 0. -1.
    10030    2    1    2    0    0  0.00000000000E+00  0.00000000000E+00 -0.13489664371E+04  0.16207146355E+04  0.89833483808E+03 0.  0.
        1    1    3    3  502    0 -0.23842979212E+03  0.14952253825E+03 -0.42919461415E+02  0.28468901525E+03  0.50400001928E-02 0.  1.
       -1    1    3    3    0  502  0.23842979212E+03 -0.14952253825E+03 -0.13060469757E+04  0.13360256203E+04  0.50400001928E-02 0. -1.
</event>
<event>
 5   0  0.6137243E-03  0.8992345E+03  0.7818609E-02  0.9426539E-01
        1   -1    0    0  501    0  0.00000000000E+00  0.00000000000E+00  0.36621845518E+03  0.36621845522E+03  0.50400001928E-02 0.  1.
       -1   -1    0    0    0  501  0.00000000000E+00  0.00000000000E+00 -0.55200844867E+03  0.55200844869E+03  0.50400001928E-02 0. -1.
    10030    2    1    2    0    0  0.00000000000E+00  0.00000000000E+00 -0.18578999349E+03  0.91822690391E+03  0.89923452190E+03 0.  0.
        4    1    3    3  502    0 -0.11168839649E+03 -0.31013952751E+03 -0.40511962463E+03  0.52228761004E+03  0.12699999809E+01 0. -1.
       -4    1    3    3    0  502  0.11168839649E+03  0.31013952751E+03  0.21932963114E+03  0.39593929387E+03  0.12699999809E+01 0.  1.
</event>
<event>
 5   0  0.1028978E-02  0.9001650E+03  0.7818609E-02  0.9425375E-01
        2   -1    0    0  501    0  0.00000000000E+00  0.00000000000E+00  0.17309731639E+04  0.17309731639E+04  0.25500000920E-02 0. -1.
       -2   -1    0    0    0  501  0.00000000000E+00  0.00000000000E+00 -0.11702911426E+03  0.11702911429E+03  0.25500000920E-02 0.  1.
    10030    2    1    2    0    0  0.00000000000E+00  0.00000000000E+00  0.16139440496E+04  0.18480022781E+04  0.90016499866E+03 0.  0.
        3    1    3    3  502    0  0.16834518156E+02 -0.12647616556E+03  0.16930675471E+04  0.16978684728E+04  0.10100000352E+00 0. -1.
       -3    1    3    3    0  502 -0.16834518156E+02  0.12647616556E+03 -0.79123497535E+02  0.15013380538E+03  0.10100000352E+00 0.  1.
</event>
<event>
 5   0  0.1017079E-02  0.9007586E+03  0.7818609E-02  0.9424634E-01
        2   -1    0    0  501    0  0.00000000000E+00  0.00000000000E+00  0.31924378250E+04  0.31924378250E+04  0.25500000920E-02 0.  1.
       -2   -1    0    0    0  501  0.00000000000E+00  0.00000000000E+00 -0.63538125318E+02  0.63538125369E+02  0.25500000920E-02 0. -1.
    10030    2    1    2    0    0  0.00000000000E+00  0.00000000000E+00  0.31288996997E+04  0.32559759504E+04  0.90075860180E+03 0.  0.
        1    1    3    3  502    0  0.37948374386E+03 -0.65961919180E+02  0.72072314681E+03  0.81719076170E+03  0.50400001928E-02 0. -1.
       -1    1    3    3    0  502 -0.37948374386E+03  0.65961919180E+02  0.24081765529E+04  0.24387851887E+04  0.50400001928E-02 0.  1.
</event>
<event>
 5   0  0.6092779E-03  0.8915466E+03  0.7818609E-02  0.9436211E-01
       -1   -1    0    0    0  501  0.00000000000E+00  0.00000000000E+00  0.22992518833E+03  0.22992518839E+03  0.50400001928E-02 0.  1.
        1   -1    0    0  501    0  0.00000000000E+00  0.00000000000E+00 -0.86425430047E+03  0.86425430049E+03  0.50400001928E-02 0. -1.
    10030    2    1    2    0    0  0.00000000000E+00  0.00000000000E+00 -0.63432911214E+03  0.10941794889E+04  0.89154659517E+03 0.  0.
        2    1    3    3  502    0  0.41181721019E+03 -0.16067626595E+03 -0.38770453834E+03  0.58798391653E+03  0.25500000920E-02 0. -1.
       -2    1    3    3    0  502 -0.41181721019E+03  0.16067626595E+03 -0.24662457380E+03  0.50619557234E+03  0.25500000920E-02 0.  1.
</event>
<event>
 5   0  0.1033749E-02  0.8868789E+03  0.7818609E-02  0.9442134E-01
        2   -1    0    0  501    0  0.00000000000E+00  0.00000000000E+00  0.10047411296E+04  0.10047411296E+04  0.25500000920E-02 0.  1.
       -2   -1    0    0    0  501  0.00000000000E+00  0.00000000000E+00 -0.19571064730E+03  0.19571064732E+03  0.25500000920E-02 0. -1.
    10030    2    1    2    0    0  0.00000000000E+00  0.00000000000E+00  0.80903048232E+03  0.12004517770E+04  0.88687887981E+03 0.  0.
        5    1    3    3  502    0  0.13875951671E+03  0.20953269791E+02  0.97385669206E+03  0.98392692293E+03  0.46999998093E+01 0.  1.
       -5    1    3    3    0  502 -0.13875951671E+03 -0.20953269791E+02 -0.16482620974E+03  0.21652485402E+03  0.46999998093E+01 0. -1.
</event>
<event>
 5   0  0.6288003E-03  0.9003935E+03  0.7818609E-02  0.9425090E-01
       -1   -1    0    0    0  501  0.00000000000E+00  0.00000000000E+00  0.50406365526E+03  0.50406365528E+03  0.50400001928E-02 0. -1.
        1   -1    0    0  501    0  0.00000000000E+00  0.00000000000E+00 -0.40208631545E+03  0.40208631548E+03  0.50400001928E-02 0.  1.
    10030    2    1    2    0    0  0.00000000000E+00  0.00000000000E+00  0.10197733981E+03  0.90614997077E+03  0.90039346493E+03 0.  0.
        1    1    3    3  502    0  0.31773482276E+03 -0.31746529858E+03  0.20174876821E+02  0.44960722756E+03  0.50400001928E-02 0.  1.
       -1    1    3    3    0  502 -0.31773482276E+03  0.31746529858E+03  0.81802462986E+02  0.45654274320E+03  0.50400001928E-02 0. -1.
</event>
<event>
 5   0  0.1017079E-02  0.9004986E+03  0.7818609E-02  0.9424958E-01
        2   -1    0    0  501    0  0.00000000000E+00  0.00000000000E+00  0.56093645919E+03  0.56093645920E+03  0.25500000920E-02 0.  1.
       -2   -1    0    0    0  501  0.00000000000E+00  0.00000000000E+00 -0.36140352136E+03  0.36140352137E+03  0.25500000920E-02 0. -1.
    10030    2    1    2    0    0  0.00000000000E+00  0.00000000000E+00  0.19953293784E+03  0.92233998056E+03  0.90049855439E+03 0.  0.
        1    1    3    3  502    0  0.33991810694E+03 -0.24452444471E+03  0.26927333200E+03  0.49783998517E+03  0.50400001928E-02 0.  1.
       -1    1    3    3    0  502 -0.33991810694E+03  0.24452444471E+03 -0.69740394169E+02  0.42449999539E+03  0.50400001928E-02 0. -1.
</event>
<event>
 5   0  0.1003252E-02  0.9095898E+03  0.7818609E-02  0.9413673E-01
       -2   -1    0    0    0  501  0.00000000000E+00  0.00000000000E+00  0.11676746217E+03  0.11676746220E+03  0.25500000920E-02 0.  1.
        2   -1    0    0  501    0  0.00000000000E+00  0.00000000000E+00 -0.17713700170E+04  0.17713700170E+04  0.25500000920E-02 0. -1.
    10030    2    1    2    0    0  0.00000000000E+00  0.00000000000E+00 -0.16546025549E+04  0.18881374792E+04  0.90958975693E+03 0.  0.
        2    1    3    3  502    0 -0.39069753540E+03 -0.13815023016E+03 -0.43835184203E+03  0.60322664702E+03  0.25500000920E-02 0.  1.
       -2    1    3    3    0  502  0.39069753540E+03  0.13815023016E+03 -0.12162507128E+04  0.12849108322E+04  0.25500000920E-02 0. -1.
</event>
<event>
 5   0  0.6211218E-03  0.8875422E+03  0.7818609E-02  0.9441290E-01
       -1   -1    0    0    0  501  0.00000000000E+00  0.00000000000E+00  0.16923678318E+03  0.16923678326E+03  0.50400001928E-02 0.  1.
        1   -1    0    0  501    0  0.00000000000E+00  0.00000000000E+00 -0.11636524290E+04  0.11636524290E+04  0.50400001928E-02 0. -1.
    10030    2    1    2    0    0  0.00000000000E+00  0.00000000000E+00 -0.99441564583E+03  0.13328892123E+04  0.88754221056E+03 0.  0.
        5    1    3    3  502    0 -0.38453008342E+03  0.39463869270E+02 -0.82447749677E+03  0.91060749761E+03  0.46999998093E+01 0. -1.
       -5    1    3    3    0  502  0.38453008342E+03 -0.39463869270E+02 -0.16993814906E+03  0.42228171466E+03  0.46999998093E+01 0.  1.
</event>
<event>
 5   0  0.6015709E-03  0.9273617E+03  0.7818609E-02  0.9392010E-01
        1   -1    0    0  501    0  0.00000000000E+00  0.00000000000E+00  0.57726922481E+03  0.57726922483E+03  0.50400001928E-02 0. -1.
       -1   -1    0    0    0  501  0.00000000000E+00  0.00000000000E+00 -0.37244309801E+03  0.37244309805E+03  0.50400001928E-02 0.  1.
    10030    2    1    2    0    0  0.00000000000E+00  0.00000000000E+00  0.20482612679E+03  0.94971232288E+03  0.92736171692E+03 0.  0.
        3    1    3    3  502    0  0.31034790578E+03 -0.28920582004E+03  0.29412553267E+03  0.51620312682E+03  0.10100000352E+00 0. -1.
       -3    1    3    3    0  502 -0.31034790578E+03  0.28920582004E+03 -0.89299405883E+02  0.43350919605E+03  0.10100000352E+00 0.  1.
</event>
<event>
 5   0  0.1028978E-02  0.8492410E+03  0.7818609E-02  0.9491356E-01
        2   -1    0    0  501    0  0.00000000000E+00  0.00000000000E+00  0.14853237162E+04  0.14853237162E+04  0.25500000920E-02 0.  1.
       -2   -1    0    0    0  501  0.00000000000E+00  0.00000000000E+00 -0.12138939989E+03  0.12138939992E+03  0.25500000920E-02 0. -1.
    10030    2    1    2    0    0  0.00000000000E+00  0.00000000000E+00  0.13639343164E+04  0.16067131162E+04  0.84924096601E+03 0.  0.
        3    1    3    3  502    0  0.26686149885E+03 -0.61990990928E+02  0.12957395056E+04  0.13243862047E+04  0.10100000352E+00 0.  1.
       -3    1    3    3    0  502 -0.26686149885E+03  0.61990990928E+02  0.68194810703E+02  0.28232691146E+03  0.10100000352E+00 0. -1.
</event>
<event>
 5   0  0.1033749E-02  0.8839686E+03  0.7818609E-02  0.9445846E-01
        2   -1    0    0  501    0  0.00000000000E+00  0.00000000000E+00  0.21864857927E+04  0.21864857927E+04  0.25500000920E-02 0.  1.
       -2   -1    0    0    0  501  0.00000000000E+00  0.00000000000E+00 -0.89344329714E+02  0.89344329751E+02  0.25500000920E-02 0. -1.
    10030    2    1    2    0    0  0.00000000000E+00  0.00000000000E+00  0.20971414630E+04  0.22758301224E+04  0.88396856872E+03 0.  0.
        5    1    3    3  502    0 -0.32492910893E+03 -0.66105427646E+00  0.18198594734E+04  0.18486454381E+04  0.46999998093E+01 0.  1.
       -5    1    3    3    0  502  0.32492910893E+03  0.66105427646E+00  0.27728198961E+03  0.42718468439E+03  0.46999998093E+01 0. -1.
</event>
<event>
 5   0  0.6211218E-03  0.9101385E+03  0.7818609E-02  0.9412996E-01
       -1   -1    0    0    0  501  0.00000000000E+00  0.00000000000E+00  0.26211998914E+03  0.26211998919E+03  0.50400001928E-02 0.  1.
        1   -1    0    0  501    0  0.00000000000E+00  0.00000000000E+00 -0.79005054418E+03  0.79005054420E+03  0.50400001928E-02 0. -1.
    10030    2    1    2    0    0  0.00000000000E+00  0.00000000000E+00 -0.52793055504E+03  0.10521705334E+04  0.91013853911E+03 0.  0.
        5    1    3    3  502    0 -0.79995735496E+02 -0.44168268765E+02 -0.77930643218E+03  0.78465964526E+03  0.46999998093E+01 0. -1.
       -5    1    3    3    0  502  0.79995735496E+02  0.44168268765E+02  0.25137587714E+03  0.26751088813E+03  0.46999998093E+01 0.  1.
</event>
<event>
 5   0  0.1017079E-02  0.8955690E+03  0.7818609E-02  0.9431137E-01
        2   -1    0    0  501    0  0.00000000000E+00  0.00000000000E+00  0.49508261134E+03  0.49508261135E+03  0.25500000920E-02 0. -1.
       -2   -1    0    0    0  501  0.00000000000E+00  0.00000000000E+00 -0.40500502839E+03  0.40500502840E+03  0.25500000920E-02 0.  1.
    10030    2    1    2    0    0  0.00000000000E+00  0.00000000000E+00  0.90077582945E+02  0.90008763975E+03  0.89556897461E+03 0.  0.
        1    1    3    3  502    0  0.27530038564E+03  0.10777381537E+03  0.38304721460E+03  0.48387050566E+03  0.50400001928E-02 0. -1.
       -1    1    3    3    0  502 -0.27530038564E+03 -0.10777381537E+03 -0.29296963165E+03  0.41621713409E+03  0.50400001928E-02 0.  1.
</event>
<event>
 5   0  0.6288003E-03  0.8974147E+03  0.7818609E-02  0.9428819E-01
        1   -1    0    0  501    0  0.00000000000E+00  0.00000000000E+00  0.13311054661E+04  0.13311054661E+04  0.50400001928E-02 0.  1.
       -1   -1    0    0    0  501  0.00000000000E+00  0.00000000000E+00 -0.15125644608E+03  0.15125644616E+03  0.50400001928E-02 0. -1.
    10030    2    1    2    0    0  0.00000000000E+00  0.00000000000E+00  0.11798490200E+04  0.14823619123E+04  0.89741469172E+03 0.  0.
        1    1    3    3  502    0 -0.31527247700E+03 -0.18641955200E+03  0.16175954823E+03  0.40039372572E+03  0.50400001928E-02 0. -1.
       -1    1    3    3    0  502  0.31527247700E+03  0.18641955200E+03  0.10180894718E+04  0.10819681866E+04  0.50400001928E-02 0.  1.
</event>
<event>
 5   0  0.1028978E-02  0.8967659E+03  0.7818609E-02  0.9429633E-01
        2   -1    0    0  501    0  0.00000000000E+00  0.00000000000E+00  0.63862112130E+03  0.63862112131E+03  0.25500000920E-02 0.  1.
       -2   -1    0    0    0  501  0.00000000000E+00  0.00000000000E+00 -0.31481459443E+03  0.31481459444E+03  0.25500000920E-02 0. -1.
    10030    2    1    2    0    0  0.00000000000E+00  0.00000000000E+00  0.32380652688E+03  0.95343571575E+03  0.89676585417E+03 0.  0.
        3    1    3    3  502    0 -0.42607316810E+03 -0.13661679462E+03  0.13100205855E+03  0.46622316834E+03  0.10100000352E+00 0. -1.
       -3    1    3    3    0  502  0.42607316810E+03  0.13661679462E+03  0.19280446833E+03  0.48721254741E+03  0.10100000352E+00 0.  1.
</event>
<event>
 5   0  0.1041727E-02  0.8952534E+03  0.7818609E-02  0.9431534E-01
       -2   -1    0    0    0  501  0.00000000000E+00  0.00000000000E+00  0.11395948108E+03  0.11395948110E+03  0.25500000920E-02 0. -1.
        2   -1    0    0  501    0  0.00000000000E+00  0.00000000000E+00 -0.17582537065E+04  0.17582537065E+04  0.25500000920E-02 0.  1.
    10030    2    1    2    0    0  0.00000000000E+00  0.00000000000E+00 -0.16442942255E+04  0.18722131876E+04  0.89525343903E+03 0.  0.
        4    1    3    3  502    0 -0.39366171012E+03  0.66490152635E+02 -0.39881376554E+03  0.56430888252E+03  0.12699999809E+01 0. -1.
       -4    1    3    3    0  502  0.39366171012E+03 -0.66490152635E+02 -0.12454804599E+04  0.13079043051E+04  0.12699999809E+01 0.  1.
</event>
<event>
 5   0  0.1003252E-02  0.8883934E+03  0.7818609E-02  0.9440208E-01
       -2   -1    0    0    0  501  0.00000000000E+00  0.00000000000E+00  0.17672431444E+03  0.17672431446E+03  0.25500000920E-02 0.  1.
        2   -1    0    0  501    0  0.00000000000E+00  0.00000000000E+00 -0.11164887233E+04  0.11164887233E+04  0.25500000920E-02 0. -1.
    10030    2    1    2    0    0  0.00000000000E+00  0.00000000000E+00 -0.93976440888E+03  0.12932130378E+04  0.88839339085E+03 0.  0.
        2    1    3    3  502    0 -0.14881940013E+03 -0.17233541732E+03  0.85308913747E+02  0.24315493145E+03  0.25500000920E-02 0.  1.
       -2    1    3    3    0  502  0.14881940013E+03  0.17233541732E+03 -0.10250733226E+04  0.10500581063E+04  0.25500000920E-02 0. -1.
</event>
<event>
 5   0  0.1003252E-02  0.8692005E+03  0.7818609E-02  0.9464923E-01
       -2   -1    0    0    0  501  0.00000000000E+00  0.00000000000E+00  0.24980715799E+03  0.24980715800E+03  0.25500000920E-02 0. -1.
        2   -1    0    0  501    0  0.00000000000E+00  0.00000000000E+00 -0.75609282158E+03  0.75609282159E+03  0.25500000920E-02 0.  1.
    10030    2    1    2    0    0  0.00000000000E+00  0.00000000000E+00 -0.50628566359E+03  0.10058999796E+04  0.86920054981E+03 0.  0.
        2    1    3    3  502    0 -0.36209277861E+03  0.22828424414E+03 -0.34015018482E+03  0.54674219216E+03  0.25500000920E-02 0.  1.
       -2    1    3    3    0  502  0.36209277861E+03 -0.22828424414E+03 -0.16613547877E+03  0.45915778743E+03  0.25500000920E-02 0. -1.
</event>
<event>
 5   0  0.1017079E-02  0.9046117E+03  0.7818609E-02  0.9419835E-01
        2   -1    0    0  501    0  0.00000000000E+00  0.00000000000E+00  0.37435254875E+03  0.37435254876E+03  0.25500000920E-02 0.  1.
       -2   -1    0    0    0  501  0.00000000000E+00  0.00000000000E+00 -0.54649179648E+03  0.54649179649E+03  0.25500000920E-02 0. -1.
    10030    2    1    2    0    0  0.00000000000E+00  0.00000000000E+00 -0.17213924773E+03  0.92084434525E+03  0.90461173305E+03 0.  0.
        1    1    3    3  502    0  0.18906547999E+03  0.28106730379E+03 -0.39117456505E+03  0.51745736573E+03  0.50400001928E-02 0. -1.
       -1    1    3    3    0  502 -0.18906547999E+03 -0.28106730379E+03  0.21903531732E+03  0.40338697951E+03  0.50400001928E-02 0.  1.
</event>
<event>
 5   0  0.6211218E-03  0.8543747E+03  0.7818609E-02  0.9484484E-01
       -1   -1    0    0    0  501  0.00000000000E+00  0.00000000000E+00  0.15274323853E+03  0.15274323862E+03  0.50400001928E-02 0.  1.
        1   -1    0    0  501    0  0.00000000000E+00  0.00000000000E+00 -0.11947438984E+04  0.11947438985E+04  0.50400001928E-02 0. -1.
    10030    2    1    2    0    0  0.00000000000E+00  0.00000000000E+00 -0.10420006599E+04  0.13474871371E+04  0.85437474759E+03 0.  0.
        5    1    3    3  502    0 -0.25458363143E+02 -0.31537548824E+03 -0.68387520358E+02  0.32374182580E+03  0.46999998093E+01 0.  1.
       -5    1    3    3    0  502  0.25458363143E+02  0.31537548824E+03 -0.97361313956E+03  0.10237453113E+04  0.46999998093E+01 0. -1.
</event>
<event>
 5   0  0.6288003E-03  0.8946641E+03  0.7818609E-02  0.9432276E-01
        1   -1    0    0  501    0  0.00000000000E+00  0.00000000000E+00  0.47187705594E+03  0.47187705597E+03  0.50400001928E-02 0.  1.
       -1   -1    0    0    0  501  0.00000000000E+00  0.00000000000E+00 -0.42406375739E+03  0.42406375742E+03  0.50400001928E-02 0. -1.
    10030    2    1    2    0    0  0.00000000000E+00  0.00000000000E+00  0.47813298551E+02  0.89594081339E+03  0.89466408757E+03 0.  0.
        1    1    3    3  502    0  0.18383405773E+03  0.39821697149E+03  0.11197667921E+03  0.45267040314E+03  0.50400001928E-02 0.  1.
       -1    1    3    3    0  502 -0.18383405773E+03 -0.39821697149E+03 -0.64163380657E+02  0.44327041026E+03  0.50400001928E-02 0. -1.
</event>
<event>
 5   0  0.1017079E-02  0.9040968E+03  0.7818609E-02  0.9420475E-01
       -2   -1    0    0    0  501  0.00000000000E+00  0.00000000000E+00  0.43615338978E+03  0.43615338979E+03  0.25500000920E-02 0. -1.
        2   -1    0    0  501    0  0.00000000000E+00  0.00000000000E+00 -0.46852272585E+03  0.46852272586E+03  0.25500000920E-02 0.  1.
    10030    2    1    2    0    0  0.00000000000E+00  0.00000000000E+00 -0.32369336072E+02  0.90467611565E+03  0.90409684233E+03 0.  0.
        1    1    3    3  502    0  0.36820620467E+03 -0.24337898448E+03  0.81543848395E+02  0.44884132884E+03  0.50400001928E-02 0. -1.
       -1    1    3    3    0  502 -0.36820620467E+03  0.24337898448E+03 -0.11391318447E+03  0.45583478681E+03  0.50400001928E-02 0.  1.
</event>
<event>
 5   0  0.6092779E-03  0.9067826E+03  0.7818609E-02  0.9417142E-01
       -1   -1    0    0    0  501  0.00000000000E+00  0.00000000000E+00  0.73635730984E+03  0.73635730986E+03  0.50400001928E-02 0.  1.
        1   -1    0    0  501    0  0.00000000000E+00  0.00000000000E+00 -0.27916293846E+03  0.27916293850E+03  0.50400001928E-02 0. -1.
    10030    2    1    2    0    0  0.00000000000E+00  0.00000000000E+00  0.45719437139E+03  0.10155202484E+04  0.90678259887E+03 0.  0.
        2    1    3    3  502    0  0.91707674947E+02  0.26744995401E+03 -0.16833977209E+03  0.32905630889E+03  0.25500000920E-02 0. -1.
       -2    1    3    3    0  502 -0.91707674947E+02 -0.26744995401E+03  0.62553414348E+03  0.68646393948E+03  0.25500000920E-02 0.  1.
</event>
<event>
 5   0  0.6015709E-03  0.8978505E+03  0.7818609E-02  0.9428272E-01
        1   -1    0    0  501    0  0.00000000000E+00  0.00000000000E+00  0.33467381825E+03  0.33467381828E+03  0.50400001928E-02 0.  1.
       -1   -1    0    0    0  501  0.00000000000E+00  0.00000000000E+00 -0.60217999707E+03  0.60217999709E+03  0.50400001928E-02 0. -1.
    10030    2    1    2    0    0  0.00000000000E+00  0.00000000000E+00 -0.26750617883E+03  0.93685381538E+03  0.89785049740E+03 0.  0.
        3    1    3    3  502    0  0.17988494775E+03 -0.34068194323E+03  0.10671663225E+03  0.39976396870E+03  0.10100000352E+00 0.  1.
       -3    1    3    3    0  502 -0.17988494775E+03  0.34068194323E+03 -0.37422281108E+03  0.53708984668E+03  0.10100000352E+00 0. -1.
</event>
<event>
 5   0  0.6137243E-03  0.9088398E+03  0.7818609E-02  0.9414598E-01
        1   -1    0    0  501    0  0.00000000000E+00  0.00000000000E+00  0.19015465836E+04  0.19015465836E+04  0.50400001928E-02 0.  1.
       -1   -1    0    0    0  501  0.00000000000E+00  0.00000000000E+00 -0.10859445939E+03  0.10859445950E+03  0.50400001928E-02 0. -1.
    10030    2    1    2    0    0  0.00000000000E+00  0.00000000000E+00  0.17929521242E+04  0.20101410431E+04  0.90883975126E+03 0.  0.
        4    1    3    3  502    0  0.19680956348E+03  0.36204776075E+03  0.13200926643E+04  0.13829167873E+04  0.12699999809E+01 0.  1.
       -4    1    3    3    0  502 -0.19680956348E+03 -0.36204776075E+03  0.47285945988E+03  0.62722425578E+03  0.12699999809E+01 0. -1.
</event>
<event>
 5   0  0.1017079E-02  0.8988624E+03  0.7818609E-02  0.9427005E-01
        2   -1    0    0  501    0  0.00000000000E+00  0.00000000000E+00  0.10232286499E+04  0.10232286499E+04  0.25500000920E-02 0.  1.
       -2   -1    0    0    0  501  0.00000000000E+00  0.00000000000E+00 -0.19740298479E+03  0.19740298480E+03  0.25500000920E-02 0. -1.
    10030    2    1    2    0    0  0.00000000000E+00  0.00000000000E+00  0.82582566513E+03  0.12206316347E+04  0.89886236906E+03 0.  0.
        1    1    3    3  502    0 -0.25828683552E+02  0.15726472846E+03 -0.15774178615E+03  0.22423600700E+03  0.50400001928E-02 0. -1.
       -1    1    3    3    0  502  0.25828683552E+02 -0.15726472846E+03  0.98356745128E+03  0.99639562773E+03  0.50400001928E-02 0.  1.
</event>
<event>
 5   0  0.6092779E-03  0.9064553E+03  0.7818609E-02  0.9417548E-01
        1   -1    0    0  501    0  0.00000000000E+00  0.00000000000E+00  0.67577433165E+03  0.67577433167E+03  0.50400001928E-02 0. -1.
       -1   -1    0    0    0  501  0.00000000000E+00  0.00000000000E+00 -0.30397028024E+03  0.30397028028E+03  0.50400001928E-02 0.  1.
    10030    2    1    2    0    0  0.00000000000E+00  0.00000000000E+00  0.37180405142E+03  0.97974461195E+03  0.90645532267E+03 0.  0.
        2    1    3    3  502    0  0.38134322797E+03  0.18105563175E+03  0.36419853096E+03  0.55753418663E+03  0.25500000920E-02 0. -1.
       -2    1    3    3    0  502 -0.38134322797E+03 -0.18105563175E+03  0.76055204624E+01  0.42221042532E+03  0.25500000920E-02 0.  1.
</event>
<event>
 5   0  0.6015709E-03  0.8950058E+03  0.7818609E-02  0.9431846E-01
        1   -1    0    0  501    0  0.00000000000E+00  0.00000000000E+00  0.86630598258E+03  0.86630598260E+03  0.50400001928E-02 0. -1.
       -1   -1    0    0    0  501  0.00000000000E+00  0.00000000000E+00 -0.23116411538E+03  0.23116411544E+03  0.50400001928E-02 0.  1.
    10030    2    1    2    0    0  0.00000000000E+00  0.00000000000E+00  0.63514186720E+03  0.10974700980E+04  0.89500582378E+03 0.  0.
        3    1    3    3  502    0  0.11701264493E+03  0.62320402204E+01  0.84715987552E+03  0.85522550377E+03  0.10100000352E+00 0. -1.
       -3    1    3    3    0  502 -0.11701264493E+03 -0.62320402204E+01 -0.21201800832E+03  0.24224459427E+03  0.10100000352E+00 0.  1.
</event>
<event>
 5   0  0.6211218E-03  0.8952103E+03  0.7818609E-02  0.9431589E-01
        1   -1    0    0  501    0  0.00000000000E+00  0.00000000000E+00  0.40970765362E+03  0.40970765365E+03  0.50400001928E-02 0.  1.
       -1   -1    0    0    0  501  0.00000000000E+00  0.00000000000E+00 -0.48900811368E+03  0.48900811370E+03  0.50400001928E-02 0. -1.
    10030    2    1    2    0    0  0.00000000000E+00  0.00000000000E+00 -0.79300460058E+02  0.89871576735E+03  0.89521029234E+03 0.  0.
        5    1    3    3  502    0  0.42472211584E+03 -0.25141152107E+02 -0.17914513103E+03  0.46166656928E+03  0.46999998093E+01 0. -1.
       -5    1    3    3    0  502 -0.42472211584E+03  0.25141152107E+02  0.99844670976E+02  0.43704919807E+03  0.46999998093E+01 0.  1.
</event>
<event>
 5   0  0.1017079E-02  0.8979538E+03  0.7818609E-02  0.9428143E-01
       -2   -1    0    0    0  501  0.00000000000E+00  0.00000000000E+00  0.11750285887E+03  0.11750285890E+03  0.25500000920E-02 0.  1.
        2   -1    0    0  501    0  0.00000000000E+00  0.00000000000E+00 -0.17155350730E+04  0.17155350730E+04  0.25500000920E-02 0. -1.
    10030    2    1    2    0    0  0.00000000000E+00  0.00000000000E+00 -0.15980322141E+04  0.18330379319E+04  0.89795384201E+03 0.  0.
        1    1    3    3  502    0  0.39132229386E+03 -0.21916830815E+03 -0.75756159391E+03  0.88037915330E+03  0.50400001928E-02 0. -1.
       -1    1    3    3    0  502 -0.39132229386E+03  0.21916830815E+03 -0.84047062019E+03  0.95265877857E+03  0.50400001928E-02 0.  1.
</event>
<event>
 5   0  0.3996375E-03  0.8947625E+03  0.7818609E-02  0.9432152E-01
       -3   -1    0    0    0  501  0.00000000000E+00  0.00000000000E+00  0.32636790084E+03  0.32636791647E+03  0.10100000352E+00 0. -1.
        3   -1    0    0  501    0  0.00000000000E+00  0.00000000000E+00 -0.61326490127E+03  0.61326490959E+03  0.10100000352E+00 0.  1.
    10030    2    1    2    0    0  0.00000000000E+00  0.00000000000E+00 -0.28689700043E+03  0.93963282606E+03  0.89476251540E+03 0.  0.
        3    1    3    3  502    0  0.24926084898E+03  0.10600807994E+03  0.23047089416E+03  0.35564803824E+03  0.10100000352E+00 0. -1.
       -3    1    3    3    0  502 -0.24926084898E+03 -0.10600807994E+03 -0.51736789459E+03  0.58398478782E+03  0.10100000352E+00 0.  1.
</event>
<event>
 5   0  0.6211218E-03  0.8960055E+03  0.7818609E-02  0.9430589E-01
        1   -1    0    0  501    0  0.00000000000E+00  0.00000000000E+00  0.30833121394E+03  0.30833121398E+03  0.50400001928E-02 0.  1.
       -1   -1    0    0    0  501  0.00000000000E+00  0.00000000000E+00 -0.65094432880E+03  0.65094432882E+03  0.50400001928E-02 0. -1.
    10030    2    1    2    0    0  0.00000000000E+00  0.00000000000E+00 -0.34261311486E+03  0.95927554281E+03  0.89600548020E+03 0.  0.
        5    1    3    3  502    0  0.62235983164E+01 -0.32841014409E+03 -0.49743519148E+03  0.59611728346E+03  0.46999998093E+01 0. -1.
       -5    1    3    3    0  502 -0.62235983164E+01  0.32841014409E+03  0.15482207662E+03  0.36315825934E+03  0.46999998093E+01 0.  1.
</event>
<event>
 5   0  0.1003252E-02  0.9427481E+03  0.7818609E-02  0.9373667E-01
        2   -1    0    0  501    0  0.00000000000E+00  0.00000000000E+00  0.10111935788E+04  0.10111935788E+04  0.25500000920E-02 0.  1.
       -2   -1    0    0    0  501  0.00000000000E+00  0.00000000000E+00 -0.21973387450E+03  0.21973387451E+03  0.25500000920E-02 0. -1.
    10030    2    1    2    0    0  0.00000000000E+00  0.00000000000E+00  0.79145970435E+03  0.12309274534E+04  0.94274807442E+03 0.  0.
        2    1    3    3  502    0 -0.22324531169E+03 -0.19161279565E+03 -0.85142684348E+02  0.30627309603E+03  0.25500000920E-02 0. -1.
       -2    1    3    3    0  502  0.22324531169E+03  0.19161279565E+03  0.87660238869E+03  0.92465435733E+03  0.25500000920E-02 0.  1.
</event>
<event>
 5   0  0.6092779E-03  0.8877477E+03  0.7818609E-02  0.9441028E-01
       -1   -1    0    0    0  501  0.00000000000E+00  0.00000000000E+00  0.20191702019E+03  0.20191702025E+03  0.50400001928E-02 0.  1.
        1   -1    0    0  501    0  0.00000000000E+00  0.00000000000E+00 -0.97576711433E+03  0.97576711435E+03  0.50400001928E-02 0. -1.
    10030    2    1    2    0    0  0.00000000000E+00  0.00000000000E+00 -0.77385009414E+03  0.11776841346E+04  0.88774768526E+03 0.  0.
        2    1    3    3  502    0 -0.21209323151E+03  0.94234488159E+02  0.11501354915E+03  0.25902083720E+03  0.25500000920E-02 0.  1.
       -2    1    3    3    0  502  0.21209323151E+03 -0.94234488159E+02 -0.88886364329E+03  0.91866329740E+03  0.25500000920E-02 0. -1.
</event>
<event>
 5   0  0.1033749E-02  0.9150089E+03  0.7818609E-02  0.9407012E-01
       -2   -1    0    0    0  501  0.00000000000E+00  0.00000000000E+00  0.14860568151E+03  0.14860568153E+03  0.25500000920E-02 0. -1.
        2   -1    0    0  501    0  0.00000000000E+00  0.00000000000E+00 -0.14084948750E+04  0.14084948750E+04  0.25500000920E-02 0.  1.
    10030    2    1    2    0    0  0.00000000000E+00  0.00000000000E+00 -0.12598891935E+04  0.15571005565E+04  0.91500894164E+03 0.  0.
        5    1    3    3  502    0 -0.10654025526E+03  0.43903917205E+03 -0.50744312866E+03  0.67943126173E+03  0.46999998093E+01 0. -1.
       -5    1    3    3    0  502  0.10654025526E+03 -0.43903917205E+03 -0.75244606481E+03  0.87766929480E+03  0.46999998093E+01 0.  1.
</event>
<event>
 5   0  0.1041727E-02  0.9113718E+03  0.7818609E-02  0.9411477E-01
        2   -1    0    0  501    0  0.00000000000E+00  0.00000000000E+00  0.11449215013E+04  0.11449215013E+04  0.25500000920E-02 0. -1.
       -2   -1    0    0    0  501  0.00000000000E+00  0.00000000000E+00 -0.18136583366E+03  0.18136583368E+03  0.25500000920E-02 0.  1.
    10030    2    1    2    0    0  0.00000000000E+00  0.00000000000E+00  0.96355566766E+03  0.13262873350E+04  0.91137180684E+03 0.  0.
        4    1    3    3  502    0  0.24951280409E+03  0.62877225330E+02  0.10290770774E+04  0.10607598357E+04  0.12699999809E+01 0. -1.
       -4    1    3    3    0  502 -0.24951280409E+03 -0.62877225330E+02 -0.65521409724E+02  0.26552749933E+03  0.12699999809E+01 0.  1.
</event>
<event>
 5   0  0.1041727E-02  0.9072137E+03  0.7818609E-02  0.9416609E-01
        2   -1    0    0  501    0  0.00000000000E+00  0.00000000000E+00  0.71380977292E+03  0.71380977293E+03  0.25500000920E-02 0. -1.
       -2   -1    0    0    0  501  0.00000000000E+00  0.00000000000E+00 -0.28825490130E+03  0.28825490131E+03  0.25500000920E-02 0.  1.
    10030    2    1    2    0    0  0.00000000000E+00  0.00000000000E+00  0.42555487162E+03  0.10020646742E+04  0.90721368078E+03 0.  0.
        4    1    3    3  502    0  0.72308916610E+02  0.41150546508E+03  0.17698964965E+02  0.41818679256E+03  0.12699999809E+01 0.  1.
       -4    1    3    3    0  502 -0.72308916610E+02 -0.41150546508E+03  0.40785590666E+03  0.58387788168E+03  0.12699999809E+01 0. -1.
</event>
<event>
 5   0  0.6211218E-03  0.8879426E+03  0.7818609E-02  0.9440781E-01
        1   -1    0    0  501    0  0.00000000000E+00  0.00000000000E+00  0.29921312797E+03  0.29921312802E+03  0.50400001928E-02 0.  1.
       -1   -1    0    0    0  501  0.00000000000E+00  0.00000000000E+00 -0.65876294757E+03  0.65876294759E+03  0.50400001928E-02 0. -1.
    10030    2    1    2    0    0  0.00000000000E+00  0.00000000000E+00 -0.35954981959E+03  0.95797607560E+03  0.88794261563E+03 0.  0.
        5    1    3    3  502    0 -0.75475910962E+02  0.32303532764E+03 -0.49806945419E+03  0.59845109009E+03  0.46999998093E+01 0. -1.
       -5    1    3    3    0  502  0.75475910962E+02 -0.32303532764E+03  0.13851963459E+03  0.35952498551E+03  0.46999998093E+01 0.  1.
</event>
<event>
 5   0  0.3996375E-03  0.9066650E+03  0.7818609E-02  0.9417288E-01
        3   -1    0    0  501    0  0.00000000000E+00  0.00000000000E+00  0.83148201967E+03  0.83148202580E+03  0.10100000352E+00 0. -1.
       -3   -1    0    0    0  501  0.00000000000E+00  0.00000000000E+00 -0.24716151555E+03  0.24716153618E+03  0.10100000352E+00 0.  1.
    10030    2    1    2    0    0  0.00000000000E+00  0.00000000000E+00  0.58432050412E+03  0.10786435620E+04  0.90666503311E+03 0.  0.
        2    1    3    3  502    0 -0.30484905575E+02 -0.14655006532E+03 -0.21691284484E+03  0.26354778196E+03  0.25500000920E-02 0.  1.
       -2    1    3    3    0  502  0.30484905575E+02  0.14655006532E+03  0.80123334896E+03  0.81509578002E+03  0.25500000920E-02 0. -1.
</event>
<event>
 5   0  0.6211218E-03  0.9274627E+03  0.7818609E-02  0.9391888E-01
       -1   -1    0    0    0  501  0.00000000000E+00  0.00000000000E+00  0.46783636704E+03  0.46783636707E+03  0.50400001928E-02 0.  1.
        1   -1    0    0  501    0  0.00000000000E+00  0.00000000000E+00 -0.45966239662E+03  0.45966239664E+03  0.50400001928E-02 0. -1.
    10030    2    1    2    0    0  0.00000000000E+00  0.00000000000E+00  0.81739704237E+01  0.92749876371E+03  0.92746274474E+03 0.  0.
        5    1    3    3  502    0  0.43129923992E+02 -0.15834378870E+03 -0.42962531541E+03  0.45992711097E+03  0.46999998093E+01 0. -1.
       -5    1    3    3    0  502 -0.43129923992E+02  0.15834378870E+03  0.43779928584E+03  0.46757165274E+03  0.46999998093E+01 0.  1.
</event>
<event>
 5   0  0.1041727E-02  0.8895693E+03  0.7818609E-02  0.9438715E-01
        2   -1    0    0  501    0  0.00000000000E+00  0.00000000000E+00  0.14460385138E+04  0.14460385138E+04  0.25500000920E-02 0. -1.
       -2   -1    0    0    0  501  0.00000000000E+00  0.00000000000E+00 -0.13681058739E+03  0.13681058741E+03  0.25500000920E-02 0.  1.
    10030    2    1    2    0    0  0.00000000000E+00  0.00000000000E+00  0.13092279264E+04  0.15828491012E+04  0.88956928562E+03 0.  0.
        4    1    3    3  502    0 -0.31128463077E+03  0.81996125320E+01  0.12197239959E+04  0.12588461360E+04  0.12699999809E+01 0. -1.
       -4    1    3    3    0  502  0.31128463077E+03 -0.81996125320E+01  0.89503930505E+02  0.32400296522E+03  0.12699999809E+01 0.  1.
</event>
<event>
 5   0  0.1033749E-02  0.8988080E+03  0.7818609E-02  0.9427073E-01
        2   -1    0    0  501    0  0.00000000000E+00  0.00000000000E+00  0.40328745292E+03  0.40328745292E+03  0.25500000920E-02 0. -1.
       -2   -1    0    0    0  501  0.00000000000E+00  0.00000000000E+00 -0.50079399349E+03  0.50079399350E+03  0.25500000920E-02 0.  1.
    10030    2    1    2    0    0  0.00000000000E+00  0.00000000000E+00 -0.97506540579E+02  0.90408144642E+03  0.89880795297E+03 0.  0.
        5    1    3    3  502    0 -0.73815991907E+02  0.90389786736E+02  0.38775454187E+03  0.40496270069E+03  0.46999998093E+01 0. -1.
       -5    1    3    3    0  502  0.73815991907E+02 -0.90389786736E+02 -0.48526108245E+03  0.49911874574E+03  0.46999998093E+01 0.  1.
</event>
<event>
 5   0  0.6015709E-03  0.8995887E+03  0.7818609E-02  0.9426096E-01
        1   -1    0    0  501    0  0.00000000000E+00  0.00000000000E+00  0.23026117925E+03  0.23026117931E+03  0.50400001928E-02 0. -1.
       -1   -1    0    0    0  501  0.00000000000E+00  0.00000000000E+00 -0.87863249707E+03  0.87863249708E+03  0.50400001928E-02 0.  1.
    10030    2    1    2    0    0  0.00000000000E+00  0.00000000000E+00 -0.64837131782E+03  0.11088936764E+04  0.89958869478E+03 0.  0.
        3    1    3    3  502    0  0.36531294677E+03  0.80136308877E+02 -0.16167825626E+02  0.37434848185E+03  0.10100000352E+00 0. -1.
       -3    1    3    3    0  502 -0.36531294677E+03 -0.80136308877E+02 -0.63220349219E+03  0.73454519454E+03  0.10100000352E+00 0.  1.
</event>
<event>
 5   0  0.1041727E-02  0.9053881E+03  0.7818609E-02  0.9418871E-01
       -2   -1    0    0    0  501  0.00000000000E+00  0.00000000000E+00  0.20364083566E+03  0.20364083568E+03  0.25500000920E-02 0.  1.
        2   -1    0    0  501    0  0.00000000000E+00  0.00000000000E+00 -0.10063399968E+04  0.10063399968E+04  0.25500000920E-02 0. -1.
    10030    2    1    2    0    0  0.00000000000E+00  0.00000000000E+00 -0.80269916118E+03  0.12099808325E+04  0.90538813319E+03 0.  0.
        4    1    3    3  502    0 -0.72402169676E+02 -0.41420680347E+03 -0.62545828452E+03  0.75366373721E+03  0.12699999809E+01 0. -1.
       -4    1    3    3    0  502  0.72402169676E+02  0.41420680347E+03 -0.17724087666E+03  0.45631709531E+03  0.12699999809E+01 0.  1.
</event>
<event>
 5   0  0.1017079E-02  0.9034230E+03  0.7818609E-02  0.9421313E-01
        2   -1    0    0  501    0  0.00000000000E+00  0.00000000000E+00  0.17899000283E+04  0.17899000283E+04  0.25500000920E-02 0.  1.
       -2   -1    0    0    0  501  0.00000000000E+00  0.00000000000E+00 -0.11399701839E+03  0.11399701842E+03  0.25500000920E-02 0. -1.
    10030    2    1    2    0    0  0.00000000000E+00  0.00000000000E+00  0.16759030099E+04  0.19038970467E+04  0.90342297175E+03 0.  0.
        1    1    3    3  502    0  0.41054362171E+03 -0.12637066567E+03  0.11324461408E+04  0.12111770606E+04  0.50400001928E-02 0.  1.
       -1    1    3    3    0  502 -0.41054362171E+03  0.12637066567E+03  0.54345686913E+03  0.69271998607E+03  0.50400001928E-02 0. -1.
</event>
<event>
 5   0  0.6015709E-03  0.8867463E+03  0.7818609E-02  0.9442303E-01
        1   -1    0    0  501    0  0.00000000000E+00  0.00000000000E+00  0.11827108639E+04  0.11827108639E+04  0.50400001928E-02 0. -1.
       -1   -1    0    0    0  501  0.00000000000E+00  0.00000000000E+00 -0.16621114671E+03  0.16621114679E+03  0.50400001928E-02 0.  1.
    10030    2    1    2    0    0  0.00000000000E+00  0.00000000000E+00  0.10164997172E+04  0.13489220107E+04  0.88674625226E+03 0.  0.
        3    1    3    3  502    0 -0.32270529314E+03  0.26066613341E+02  0.96905555206E+03  0.10217078094E+04  0.10100000352E+00 0. -1.
       -3    1    3    3    0  502  0.32270529314E+03 -0.26066613341E+02  0.47444165145E+02  0.32721420134E+03  0.10100000352E+00 0.  1.
</event>
<event>
 5   0  0.1028978E-02  0.9151507E+03  0.7818609E-02  0.9406838E-01
       -2   -1    0    0    0  501  0.00000000000E+00  0.00000000000E+00  0.10342933704E+03  0.10342933708E+03  0.25500000920E-02 0. -1.
        2   -1    0    0  501    0  0.00000000000E+00  0.00000000000E+00 -0.20243309758E+04  0.20243309758E+04  0.25500000920E-02 0.  1.
    10030    2    1    2    0    0  0.00000000000E+00  0.00000000000E+00 -0.19209016388E+04  0.21277603129E+04  0.91515072162E+03 0.  0.
        3    1    3    3  502    0 -0.97162571384E+02  0.42650169905E+03 -0.64824627937E+03  0.78202782143E+03  0.10100000352E+00 0. -1.
       -3    1    3    3    0  502  0.97162571384E+02 -0.42650169905E+03 -0.12726553594E+04  0.13457324914E+04  0.10100000352E+00 0.  1.
</event>
<event>
 5   0  0.6015709E-03  0.9017385E+03  0.7818609E-02  0.9423411E-01
       -1   -1    0    0    0  501  0.00000000000E+00  0.00000000000E+00  0.10982571822E+03  0.10982571834E+03  0.50400001928E-02 0. -1.
        1   -1    0    0  501    0  0.00000000000E+00  0.00000000000E+00 -0.18509606060E+04  0.18509606060E+04  0.50400001928E-02 0.  1.
    10030    2    1    2    0    0  0.00000000000E+00  0.00000000000E+00 -0.17411348877E+04  0.19607863243E+04  0.90173849440E+03 0.  0.
        3    1    3    3  502    0  0.96614851447E+02  0.27573363538E+03 -0.12387344764E+03  0.31734540871E+03  0.10100000352E+00 0. -1.
       -3    1    3    3    0  502 -0.96614851447E+02 -0.27573363538E+03 -0.16172614401E+04  0.16434409156E+04  0.10100000352E+00 0.  1.
</event>
<event>
 5   0  0.6211218E-03  0.9000034E+03  0.7818609E-02  0.9425577E-01
        1   -1    0    0  501    0  0.00000000000E+00  0.00000000000E+00  0.29024933940E+03  0.29024933945E+03  0.50400001928E-02 0.  1.
       -1   -1    0    0    0  501  0.00000000000E+00  0.00000000000E+00 -0.69768133568E+03  0.69768133570E+03  0.50400001928E-02 0. -1.
    10030    2    1    2    0    0  0.00000000000E+00  0.00000000000E+00 -0.40743199627E+03  0.98793067514E+03  0.90000343738E+03 0.  0.
        5    1    3    3  502    0  0.24692953899E+03 -0.17486330560E+03  0.16188136781E+03  0.34318951050E+03  0.46999998093E+01 0.  1.
       -5    1    3    3    0  502 -0.24692953899E+03  0.17486330560E+03 -0.56931336408E+03  0.64474116465E+03  0.46999998093E+01 0. -1.
</event>
<event>
 5   0  0.6288003E-03  0.8879143E+03  0.7818609E-02  0.9440817E-01
       -1   -1    0    0    0  501  0.00000000000E+00  0.00000000000E+00  0.81735818476E+03  0.81735818477E+03  0.50400001928E-02 0. -1.
        1   -1    0    0  501    0  0.00000000000E+00  0.00000000000E+00 -0.24114023828E+03  0.24114023833E+03  0.50400001928E-02 0.  1.
    10030    2    1    2    0    0  0.00000000000E+00  0.00000000000E+00  0.57621794648E+03  0.10584984231E+04  0.88791429196E+03 0.  0.
        1    1    3    3  502    0  0.28785324302E+03  0.22854476167E+03  0.58495767284E+03  0.69084562433E+03  0.50400001928E-02 0.  1.
       -1    1    3    3    0  502 -0.28785324302E+03 -0.22854476167E+03 -0.87397263622E+01  0.36765279878E+03  0.50400001928E-02 0. -1.
</event>
<event>
 5   0  0.6288003E-03  0.8731772E+03  0.7818609E-02  0.9459747E-01
        1   -1    0    0  501    0  0.00000000000E+00  0.00000000000E+00  0.12222487750E+04  0.12222487750E+04  0.50400001928E-02 0. -1.
       -1   -1    0    0    0  501  0.00000000000E+00  0.00000000000E+00 -0.15594993031E+03  0.15594993039E+03  0.50400001928E-02 0.  1.
    10030    2    1    2    0    0  0.00000000000E+00  0.00000000000E+00  0.10662988447E+04  0.13781987054E+04  0.87317721304E+03 0.  0.
        1    1    3    3  502    0  0.11940398878E+03 -0.21944636374E+03  0.10982763358E+04  0.11263325126E+04  0.50400001928E-02 0. -1.
       -1    1    3    3    0  502 -0.11940398878E+03  0.21944636374E+03 -0.31977491162E+02  0.25186619277E+03  0.50400001928E-02 0.  1.
</event>
<event>
 5   0  0.1028978E-02  0.9226226E+03  0.7818609E-02  0.9397736E-01
       -2   -1    0    0    0  501  0.00000000000E+00  0.00000000000E+00  0.23366718887E+03  0.23366718888E+03  0.25500000920E-02 0. -1.
        2   -1    0    0  501    0  0.00000000000E+00  0.00000000000E+00 -0.91073173529E+03  0.91073173530E+03  0.25500000920E-02 0.  1.
    10030    2    1    2    0    0  0.00000000000E+00  0.00000000000E+00 -0.67706454642E+03  0.11443989242E+04  0.92262261930E+03 0.  0.
        3    1    3    3  502    0  0.21344078869E+02 -0.43053508168E+03 -0.13474756901E+03  0.45163363893E+03  0.10100000352E+00 0. -1.
       -3    1    3    3    0  502 -0.21344078869E+02  0.43053508168E+03 -0.54231697742E+03  0.69276528525E+03  0.10100000352E+00 0.  1.
</event>
<event>
 5   0  0.6288003E-03  0.8881866E+03  0.7818609E-02  0.9440470E-01
       -1   -1    0    0    0  501  0.00000000000E+00  0.00000000000E+00  0.26344650511E+03  0.26344650516E+03  0.50400001928E-02 0.  1.
        1   -1    0    0  501    0  0.00000000000E+00  0.00000000000E+00 -0.74861058438E+03  0.74861058440E+03  0.50400001928E-02 0. -1.
    10030    2    1    2    0    0  0.00000000000E+00  0.00000000000E+00 -0.48516407927E+03  0.10120570896E+04  0.88818656188E+03 0.  0.
        1    1    3    3  502    0  0.30642976433E+02 -0.36024096372E+03  0.51272362459E+02  0.36515941605E+03  0.50400001928E-02 0.  1.
       -1    1    3    3    0  502 -0.30642976433E+02  0.36024096372E+03 -0.53643644173E+03  0.64689767351E+03  0.50400001928E-02 0. -1.
</event>
<event>
 5   0  0.6092779E-03  0.9045662E+03  0.7818609E-02  0.9419891E-01
        1   -1    0    0  501    0  0.00000000000E+00  0.00000000000E+00  0.11188653139E+03  0.11188653150E+03  0.50400001928E-02 0. -1.
       -1   -1    0    0    0  501  0.00000000000E+00  0.00000000000E+00 -0.18282810032E+04  0.18282810032E+04  0.50400001928E-02 0.  1.
    10030    2    1    2    0    0  0.00000000000E+00  0.00000000000E+00 -0.17163944718E+04  0.19401675347E+04  0.90456623851E+03 0.  0.
        2    1    3    3  502    0  0.42719876105E+03  0.87715302989E+02 -0.11152876577E+04  0.11975221565E+04  0.25500000920E-02 0.  1.
       -2    1    3    3    0  502 -0.42719876105E+03 -0.87715302989E+02 -0.60110681408E+03  0.74264537820E+03  0.25500000920E-02 0. -1.
</event>
<event>
 5   0  0.6211218E-03  0.8939208E+03  0.7818609E-02  0.9433213E-01
       -1   -1    0    0    0  501  0.00000000000E+00  0.00000000000E+00  0.29300874927E+03  0.29300874931E+03  0.50400001928E-02 0. -1.
        1   -1    0    0  501    0  0.00000000000E+00  0.00000000000E+00 -0.68180080130E+03  0.68180080132E+03  0.50400001928E-02 0.  1.
    10030    2    1    2    0    0  0.00000000000E+00  0.00000000000E+00 -0.38879205203E+03  0.97480955063E+03  0.89392080201E+03 0.  0.
        5    1    3    3  502    0 -0.18258613854E+03 -0.27019465923E+03 -0.52767989839E+03  0.62033137679E+03  0.46999998093E+01 0.  1.
       -5    1    3    3    0  502  0.18258613854E+03  0.27019465923E+03  0.13888784635E+03  0.35447817384E+03  0.46999998093E+01 0. -1.
</event>
<event>
 5   0  0.1017079E-02  0.8576984E+03  0.7818609E-02  0.9480062E-01
       -2   -1    0    0    0  501  0.00000000000E+00  0.00000000000E+00  0.76613431725E+03  0.76613431726E+03  0.25500000920E-02 0. -1.
        2   -1    0    0  501    0  0.00000000000E+00  0.00000000000E+00 -0.24005144119E+03  0.24005144121E+03  0.25500000920E-02 0.  1.
    10030    2    1    2    0    0  0.00000000000E+00  0.00000000000E+00  0.52608287606E+03  0.10061857585E+04  0.85769842489E+03 0.  0.
        1    1    3    3  502    0 -0.69461163571E+02 -0.26763588898E+03  0.64760008034E+03  0.70415885026E+03  0.50400001928E-02 0. -1.
       -1    1    3    3    0  502  0.69461163571E+02  0.26763588898E+03 -0.12151720428E+03  0.30202690820E+03  0.50400001928E-02 0.  1.
</event>
<event>
 5   0  0.1028978E-02  0.9045284E+03  0.7818609E-02  0.9419938E-01
        2   -1    0    0  501    0  0.00000000000E+00  0.00000000000E+00  0.50100209231E+03  0.50100209232E+03  0.25500000920E-02 0. -1.
       -2   -1    0    0    0  501  0.00000000000E+00  0.00000000000E+00 -0.40826759065E+03  0.40826759066E+03  0.25500000920E-02 0.  1.
    10030    2    1    2    0    0  0.00000000000E+00  0.00000000000E+00  0.92734501662E+02  0.90926968298E+03  0.90452842331E+03 0.  0.
        3    1    3    3  502    0 -0.66746748087E+02  0.12677453099E+03  0.47758664189E+03  0.49861399980E+03  0.10100000352E+00 0. -1.
       -3    1    3    3    0  502  0.66746748087E+02 -0.12677453099E+03 -0.38485214022E+03  0.41065568318E+03  0.10100000352E+00 0.  1.
</event>
<event>
 5   0  0.6137243E-03  0.8949257E+03  0.7818609E-02  0.9431947E-01
       -1   -1    0    0    0  501  0.00000000000E+00  0.00000000000E+00  0.82942950993E+03  0.82942950995E+03  0.50400001928E-02 0. -1.
        1   -1    0    0  501    0  0.00000000000E+00  0.00000000000E+00 -0.24139845340E+03  0.24139845346E+03  0.50400001928E-02 0.  1.
    10030    2    1    2    0    0  0.00000000000E+00  0.00000000000E+00  0.58803105653E+03  0.10708279634E+04  0.89492569734E+03 0.  0.
        4    1    3    3  502    0 -0.30333664528E+03 -0.32421857854E+03  0.22749544408E+03  0.49888535458E+03  0.12699999809E+01 0. -1.
       -4    1    3    3    0  502  0.30333664528E+03  0.32421857854E+03  0.36053561245E+03  0.57194260882E+03  0.12699999809E+01 0.  1.
</event>
<event>
 5   0  0.6092779E-03  0.9020390E+03  0.7818609E-02  0.9423036E-01
       -1   -1    0    0    0  501  0.00000000000E+00  0.00000000000E+00  0.48583765890E+03  0.48583765893E+03  0.50400001928E-02 0. -1.
        1   -1    0    0  501    0  0.00000000000E+00  0.00000000000E+00 -0.41869658735E+03  0.41869658738E+03  0.50400001928E-02 0.  1.
    10030    2    1    2    0    0  0.00000000000E+00  0.00000000000E+00  0.67141071555E+02  0.90453424630E+03  0.90203895661E+03 0.  0.
        2    1    3    3  502    0  0.57479352506E+02 -0.15071233240E+03  0.45592503383E+03  0.48361732763E+03  0.25500000920E-02 0. -1.
       -2    1    3    3    0  502 -0.57479352506E+02  0.15071233240E+03 -0.38878396227E+03  0.42091691868E+03  0.25500000920E-02 0.  1.
</event>
<event>
 5   0  0.6137243E-03  0.8888305E+03  0.7818609E-02  0.9439653E-01
        1   -1    0    0  501    0  0.00000000000E+00  0.00000000000E+00  0.61531638307E+03  0.61531638309E+03  0.50400001928E-02 0. -1.
       -1   -1    0    0    0  501  0.00000000000E+00  0.00000000000E+00 -0.32098108029E+03  0.32098108033E+03  0.50400001928E-02 0.  1.
    10030    2    1    2    0    0  0.00000000000E+00  0.00000000000E+00  0.29433530278E+03  0.93629746343E+03  0.88883050665E+03 0.  0.
        4    1    3    3  502    0  0.16061808946E+03  0.18526752730E+03 -0.24327598892E+03  0.34540852192E+03  0.12699999809E+01 0.  1.
       -4    1    3    3    0  502 -0.16061808946E+03 -0.18526752730E+03  0.53761129170E+03  0.59088894150E+03  0.12699999809E+01 0. -1.
</event>
<event>
 5   0  0.6288003E-03  0.8973686E+03  0.7818609E-02  0.9428877E-01
       -1   -1    0    0    0  501  0.00000000000E+00  0.00000000000E+00  0.23868754491E+03  0.23868754497E+03  0.50400001928E-02 0. -1.
        1   -1    0    0  501    0  0.00000000000E+00  0.00000000000E+00 -0.84343562851E+03  0.84343562853E+03  0.50400001928E-02 0.  1.
    10030    2    1    2    0    0  0.00000000000E+00  0.00000000000E+00 -0.60474808360E+03  0.10821231735E+04  0.89736855193E+03 0.  0.
        1    1    3    3  502    0 -0.44343850614E+03  0.67270618496E+02 -0.28738345042E+03  0.53268404560E+03  0.50400001928E-02 0. -1.
       -1    1    3    3    0  502  0.44343850614E+03 -0.67270618496E+02 -0.31736463318E+03  0.54943912789E+03  0.50400001928E-02 0.  1.
</event>
<event>
 5   0  0.3996375E-03  0.8979851E+03  0.7818609E-02  0.9428104E-01
       -3   -1    0    0    0  501  0.00000000000E+00  0.00000000000E+00  0.93744880949E+03  0.93744881493E+03  0.10100000352E+00 0. -1.
        3   -1    0    0  501    0  0.00000000000E+00  0.00000000000E+00 -0.21504567196E+03  0.21504569568E+03  0.10100000352E+00 0.  1.
    10030    2    1    2    0    0  0.00000000000E+00  0.00000000000E+00  0.72240313753E+03  0.11524945106E+04  0.89798513567E+03 0.  0.
        4    1    3    3  502    0  0.40331288821E+03  0.47969238158E+02  0.11556646813E+03  0.42227900145E+03  0.12699999809E+01 0. -1.
       -4    1    3    3    0  502 -0.40331288821E+03 -0.47969238158E+02  0.60683666939E+03  0.73021550916E+03  0.12699999809E+01 0.  1.
</event>
<event>
 5   0  0.6137243E-03  0.9159838E+03  0.7818609E-02  0.9405819E-01
       -1   -1    0    0    0  501  0.00000000000E+00  0.00000000000E+00  0.17659340062E+03  0.17659340069E+03  0.50400001928E-02 0.  1.
        1   -1    0    0  501    0  0.00000000000E+00  0.00000000000E+00 -0.11877939335E+04  0.11877939335E+04  0.50400001928E-02 0. -1.
    10030    2    1    2    0    0  0.00000000000E+00  0.00000000000E+00 -0.10112005329E+04  0.13643873342E+04  0.91598377715E+03 0.  0.
        4    1    3    3  502    0  0.22507867569E+01  0.38890759491E+03 -0.14532810757E+03  0.41518195429E+03  0.12699999809E+01 0.  1.
       -4    1    3    3    0  502 -0.22507867569E+01 -0.38890759491E+03 -0.86587242530E+03  0.94920537989E+03  0.12699999809E+01 0. -1.
</event>
<event>
 5   0  0.1041727E-02  0.8995816E+03  0.7818609E-02  0.9426105E-01
        2   -1    0    0  501    0  0.00000000000E+00  0.00000000000E+00  0.57284827944E+03  0.57284827944E+03  0.25500000920E-02 0.  1.
       -2   -1    0    0    0  501  0.00000000000E+00  0.00000000000E+00 -0.35316817255E+03  0.35316817256E+03  0.25500000920E-02 0. -1.
    10030    2    1    2    0    0  0.00000000000E+00  0.00000000000E+00  0.21968010689E+03  0.92601645200E+03  0.89958163610E+03 0.  0.
        4    1    3    3  502    0 -0.38738201768E+03 -0.21418120972E+03  0.19200894853E+03  0.48250126159E+03  0.12699999809E+01 0. -1.
       -4    1    3    3    0  502  0.38738201768E+03  0.21418120972E+03  0.27671158356E+02  0.44351519041E+03  0.12699999809E+01 0.  1.
</event>
<event>
 5   0  0.3996375E-03  0.9027142E+03  0.7818609E-02  0.9422195E-01
        3   -1    0    0  501    0  0.00000000000E+00  0.00000000000E+00  0.19115264284E+03  0.19115266952E+03  0.10100000352E+00 0.  1.
       -3   -1    0    0    0  501  0.00000000000E+00  0.00000000000E+00 -0.10657619537E+04  0.10657619584E+04  0.10100000352E+00 0. -1.
    10030    2    1    2    0    0  0.00000000000E+00  0.00000000000E+00 -0.87460931082E+03  0.12569146280E+04  0.90271420473E+03 0.  0.
        3    1    3    3  502    0  0.29533961085E+03  0.33784362696E+03 -0.50493759800E+03  0.67551890432E+03  0.10100000352E+00 0.  1.
       -3    1    3    3    0  502 -0.29533961085E+03 -0.33784362696E+03 -0.36967171282E+03  0.58139572365E+03  0.10100000352E+00 0. -1.
</event>
<event>
 5   0  0.1041727E-02  0.8954096E+03  0.7818609E-02  0.9431338E-01
       -2   -1    0    0    0  501  0.00000000000E+00  0.00000000000E+00  0.20837540201E+03  0.20837540202E+03  0.25500000920E-02 0. -1.
        2   -1    0    0  501    0  0.00000000000E+00  0.00000000000E+00 -0.96191582887E+03  0.96191582887E+03  0.25500000920E-02 0.  1.
    10030    2    1    2    0    0  0.00000000000E+00  0.00000000000E+00 -0.75354042686E+03  0.11702912309E+04  0.89540962145E+03 0.  0.
        4    1    3    3  502    0  0.11924648706E+03  0.25225429376E+03  0.80836815388E+02  0.29049639760E+03  0.12699999809E+01 0. -1.
       -4    1    3    3    0  502 -0.11924648706E+03 -0.25225429376E+03 -0.83437724225E+03  0.87979483329E+03  0.12699999809E+01 0.  1.
</event>
<event>
 5   0  0.6288003E-03  0.9313451E+03  0.7818609E-02  0.9387225E-01
       -1   -1    0    0    0  501  0.00000000000E+00  0.00000000000E+00  0.77413380687E+03  0.77413380689E+03  0.50400001928E-02 0. -1.
        1   -1    0    0  501    0  0.00000000000E+00  0.00000000000E+00 -0.28012073848E+03  0.28012073853E+03  0.50400001928E-02 0.  1.
    10030    2    1    2    0    0  0.00000000000E+00  0.00000000000E+00  0.49401306839E+03  0.10542545454E+04  0.93134512120E+03 0.  0.
        1    1    3    3  502    0  0.41661230616E+03  0.92203623158E+02  0.45812303389E+03  0.62605433947E+03  0.50400001928E-02 0. -1.
       -1    1    3    3    0  502 -0.41661230616E+03 -0.92203623158E+02  0.35890034495E+02  0.42820020594E+03  0.50400001928E-02 0.  1.
</event>
<event>
 5   0  0.6137243E-03  0.8939768E+03  0.7818609E-02  0.9433142E-01
       -1   -1    0    0    0  501  0.00000000000E+00  0.00000000000E+00  0.19907015416E+03  0.19907015423E+03  0.50400001928E-02 0. -1.
        1   -1    0    0  501    0  0.00000000000E+00  0.00000000000E+00 -0.10036594705E+04  0.10036594706E+04  0.50400001928E-02 0.  1.
    10030    2    1    2    0    0  0.00000000000E+00  0.00000000000E+00 -0.80458931638E+03  0.12027296248E+04  0.89397683544E+03 0.  0.
        4    1    3    3  502    0 -0.78751300574E+02  0.35993544792E+02  0.18767690641E+03  0.20669188835E+03  0.12699999809E+01 0. -1.
       -4    1    3    3    0  502  0.78751300574E+02 -0.35993544792E+02 -0.99226622279E+03  0.99603773644E+03  0.12699999809E+01 0.  1.
</event>
<event>
 5   0  0.1041727E-02  0.8835053E+03  0.7818609E-02  0.9446439E-01
        2   -1    0    0  501    0  0.00000000000E+00  0.00000000000E+00  0.30326114406E+03  0.30326114407E+03  0.25500000920E-02 0. -1.
       -2   -1    0    0    0  501  0.00000000000E+00  0.00000000000E+00 -0.64348965620E+03  0.64348965620E+03  0.25500000920E-02 0.  1.
    10030    2    1    2    0    0  0.00000000000E+00  0.00000000000E+00 -0.34022851214E+03  0.94675080028E+03  0.88350531258E+03 0.  0.
        4    1    3    3  502    0  0.59306018442E+02 -0.65164494368E+02  0.29374725990E+03  0.30668009513E+03  0.12699999809E+01 0. -1.
       -4    1    3    3    0  502 -0.59306018442E+02  0.65164494368E+02 -0.63397577204E+03  0.64007070514E+03  0.12699999809E+01 0.  1.
</event>
<event>
 5   0  0.1041727E-02  0.8681504E+03  0.7818609E-02  0.9466295E-01
       -2   -1    0    0    0  501  0.00000000000E+00  0.00000000000E+00  0.20312997767E+03  0.20312997768E+03  0.25500000920E-02 0.  1.
        2   -1    0    0  501    0  0.00000000000E+00  0.00000000000E+00 -0.92758974617E+03  0.92758974617E+03  0.25500000920E-02 0. -1.
    10030    2    1    2    0    0  0.00000000000E+00  0.00000000000E+00 -0.72445976850E+03  0.11307197239E+04  0.86815041193E+03 0.  0.
        4    1    3    3  502    0 -0.10950505203E+03  0.42262316626E+02  0.18206544010E+03  0.21662616925E+03  0.12699999809E+01 0.  1.
       -4    1    3    3    0  502  0.10950505203E+03 -0.42262316626E+02 -0.90652520860E+03  0.91409355460E+03  0.12699999809E+01 0. -1.
</event>
<event>
 5   0  0.1033749E-02  0.8959443E+03  0.7818609E-02  0.9430666E-01
       -2   -1    0    0    0  501  0.00000000000E+00  0.00000000000E+00  0.57888188920E+03  0.57888188921E+03  0.25500000920E-02 0.  1.
        2   -1    0    0  501    0  0.00000000000E+00  0.00000000000E+00 -0.34666663866E+03  0.34666663867E+03  0.25500000920E-02 0. -1.
    10030    2    1    2    0    0  0.00000000000E+00  0.00000000000E+00  0.23221525054E+03  0.92554852788E+03  0.89594428112E+03 0.  0.
        5    1    3    3  502    0 -0.24062092184E+03 -0.29624915621E+03 -0.12615121319E+03  0.40199279741E+03  0.46999998093E+01 0. -1.
       -5    1    3    3    0  502  0.24062092184E+03  0.29624915621E+03  0.35836646374E+03  0.52355573047E+03  0.46999998093E+01 0.  1.
</event>
<event>
 5   0  0.1017079E-02  0.9840356E+03  0.7818609E-02  0.9326230E-01
       -2   -1    0    0    0  501  0.00000000000E+00  0.00000000000E+00  0.32512909819E+03  0.32512909820E+03  0.25500000920E-02 0. -1.
        2   -1    0    0  501    0  0.00000000000E+00  0.00000000000E+00 -0.74457042602E+03  0.74457042602E+03  0.25500000920E-02 0.  1.
    10030    2    1    2    0    0  0.00000000000E+00  0.00000000000E+00 -0.41944132783E+03  0.10696995242E+04  0.98403559114E+03 0.  0.
        1    1    3    3  502    0  0.12622984364E+03  0.82630947922E+02  0.29936372807E+03  0.33523199234E+03  0.50400001928E-02 0. -1.
       -1    1    3    3    0  502 -0.12622984364E+03 -0.82630947922E+02 -0.71880505590E+03  0.73446753188E+03  0.50400001928E-02 0.  1.
</event>
<event>
 5   0  0.6211218E-03  0.8942516E+03  0.7818609E-02  0.9432796E-01
        1   -1    0    0  501    0  0.00000000000E+00  0.00000000000E+00  0.13434590087E+03  0.13434590096E+03  0.50400001928E-02 0.  1.
       -1   -1    0    0    0  501  0.00000000000E+00  0.00000000000E+00 -0.14881099178E+04  0.14881099178E+04  0.50400001928E-02 0. -1.
    10030    2    1    2    0    0  0.00000000000E+00  0.00000000000E+00 -0.13537640169E+04  0.16224558187E+04  0.89425156992E+03 0.  0.
        5    1    3    3  502    0  0.41981881943E+03 -0.49351131973E+02 -0.94115023117E+03  0.10317311777E+04  0.46999998093E+01 0. -1.
       -5    1    3    3    0  502 -0.41981881943E+03  0.49351131973E+02 -0.41261378574E+03  0.59072464106E+03  0.46999998093E+01 0.  1.
</event>
<event>
 5   0  0.1033749E-02  0.9014015E+03  0.7818609E-02  0.9423831E-01
       -2   -1    0    0    0  501  0.00000000000E+00  0.00000000000E+00  0.16603377832E+03  0.16603377834E+03  0.25500000920E-02 0. -1.
        2   -1    0    0  501    0  0.00000000000E+00  0.00000000000E+00 -0.12234326838E+04  0.12234326838E+04  0.25500000920E-02 0.  1.
    10030    2    1    2    0    0  0.00000000000E+00  0.00000000000E+00 -0.10573989055E+04  0.13894664621E+04  0.90140146666E+03 0.  0.
        5    1    3    3  502    0 -0.93465621977E+01  0.39439605397E+03 -0.86455709121E+03  0.95032450224E+03  0.46999998093E+01 0.  1.
       -5    1    3    3    0  502  0.93465621977E+01 -0.39439605397E+03 -0.19284181427E+03  0.43914195989E+03  0.46999998093E+01 0. -1.
</event>
<event>
 5   0  0.3996375E-03  0.8967620E+03  0.7818609E-02  0.9429638E-01
        4   -1    0    0  501    0  0.00000000000E+00  0.00000000000E+00  0.31454005954E+03  0.31454262344E+03  0.12699999809E+01 0. -1.
       -4   -1    0    0    0  501  0.00000000000E+00  0.00000000000E+00 -0.63916722497E+03  0.63916848669E+03  0.12699999809E+01 0.  1.
    10030    2    1    2    0    0  0.00000000000E+00  0.00000000000E+00 -0.32462716543E+03  0.95371111013E+03  0.89676200022E+03 0.  0.
        5    1    3    3  502    0  0.28663279701E+03 -0.23470949450E+03  0.10626419005E+03  0.38543621419E+03  0.46999998093E+01 0. -1.
       -5    1    3    3    0  502 -0.28663279701E+03  0.23470949450E+03 -0.43089135547E+03  0.56827489593E+03  0.46999998093E+01 0.  1.
</event>
<event>
 5   0  0.1033749E-02  0.8974430E+03  0.7818609E-02  0.9428783E-01
        2   -1    0    0  501    0  0.00000000000E+00  0.00000000000E+00  0.85251023418E+03  0.85251023419E+03  0.25500000920E-02 0.  1.
       -2   -1    0    0    0  501  0.00000000000E+00  0.00000000000E+00 -0.23618601436E+03  0.23618601437E+03  0.25500000920E-02 0. -1.
    10030    2    1    2    0    0  0.00000000000E+00  0.00000000000E+00  0.61632421983E+03  0.10886962486E+04  0.89744302197E+03 0.  0.
        5    1    3    3  502    0  0.42014856720E+03 -0.13023080111E+03  0.20072129151E+03  0.48352456705E+03  0.46999998093E+01 0. -1.
       -5    1    3    3    0  502 -0.42014856720E+03  0.13023080111E+03  0.41560292831E+03  0.60517168151E+03  0.46999998093E+01 0.  1.
</event>
<event>
 5   0  0.6015709E-03  0.8927263E+03  0.7818609E-02  0.9434720E-01
        1   -1    0    0  501    0  0.00000000000E+00  0.00000000000E+00  0.49021518186E+03  0.49021518188E+03  0.50400001928E-02 0. -1.
       -1   -1    0    0    0  501  0.00000000000E+00  0.00000000000E+00 -0.40643387175E+03  0.40643387179E+03  0.50400001928E-02 0.  1.
    10030    2    1    2    0    0  0.00000000000E+00  0.00000000000E+00  0.83781310101E+02  0.89664905367E+03  0.89272628365E+03 0.  0.
        3    1    3    3  502    0 -0.32878869799E+03  0.29103229553E+03  0.12248187453E+03  0.45585482860E+03  0.10100000352E+00 0. -1.
       -3    1    3    3    0  502  0.32878869799E+03 -0.29103229553E+03 -0.38700564426E+02  0.44079422507E+03  0.10100000352E+00 0.  1.
</event>
<event>
 5   0  0.6137243E-03  0.9141625E+03  0.7818609E-02  0.9408049E-01
       -1   -1    0    0    0  501  0.00000000000E+00  0.00000000000E+00  0.32898984326E+03  0.32898984330E+03  0.50400001928E-02 0. -1.
        1   -1    0    0  501    0  0.00000000000E+00  0.00000000000E+00 -0.63504477754E+03  0.63504477756E+03  0.50400001928E-02 0.  1.
    10030    2    1    2    0    0  0.00000000000E+00  0.00000000000E+00 -0.30605493428E+03  0.96403462086E+03  0.91416252790E+03 0.  0.
        4    1    3    3  502    0 -0.34412042243E+02  0.35704311789E+02  0.32614295036E+03  0.32989365484E+03  0.12699999809E+01 0. -1.
       -4    1    3    3    0  502  0.34412042243E+02 -0.35704311789E+02 -0.63219788464E+03  0.63414096601E+03  0.12699999809E+01 0.  1.
</event>
<event>
 5   0  0.6015709E-03  0.9192928E+03  0.7818609E-02  0.9401781E-01
        1   -1    0    0  501    0  0.00000000000E+00  0.00000000000E+00  0.74127915463E+03  0.74127915464E+03  0.50400001928E-02 0. -1.
       -1   -1    0    0    0  501  0.00000000000E+00  0.00000000000E+00 -0.28501385306E+03  0.28501385311E+03  0.50400001928E-02 0.  1.
    10030    2    1    2    0    0  0.00000000000E+00  0.00000000000E+00  0.45626530156E+03  0.10262930078E+04  0.91929283275E+03 0.  0.
        3    1    3    3  502    0  0.41676699698E+03 -0.18707032170E+03  0.28489097021E+03  0.53837989389E+03  0.10100000352E+00 0.  1.
       -3    1    3    3    0  502 -0.41676699698E+03  0.18707032170E+03  0.17137433135E+03  0.48791311386E+03  0.10100000352E+00 0. -1.
</event>
<event>
 5   0  0.6015709E-03  0.9029712E+03  0.7818609E-02  0.9421875E-01
        1   -1    0    0  501    0  0.00000000000E+00  0.00000000000E+00  0.86572223132E+03  0.86572223134E+03  0.50400001928E-02 0. -1.
       -1   -1    0    0    0  501  0.00000000000E+00  0.00000000000E+00 -0.23545573389E+03  0.23545573395E+03  0.50400001928E-02 0.  1.
    10030    2    1    2    0    0  0.00000000000E+00  0.00000000000E+00  0.63026649743E+03  0.11011779653E+04  0.90297123622E+03 0.  0.
        3    1    3    3  502    0 -0.90258013570E+01  0.21506942816E+02 -0.23472051326E+03  0.23587654234E+03  0.10100000352E+00 0.  1.
       -3    1    3    3    0  502  0.90258013570E+01 -0.21506942816E+02  0.86498701069E+03  0.86530142294E+03  0.10100000352E+00 0. -1.
</event>
<event>
 5   0  0.1003252E-02  0.8980147E+03  0.7818609E-02  0.9428066E-01
       -2   -1    0    0    0  501  0.00000000000E+00  0.00000000000E+00  0.54376656361E+03  0.54376656361E+03  0.25500000920E-02 0.  1.
        2   -1    0    0  501    0  0.00000000000E+00  0.00000000000E+00 -0.37076134378E+03  0.37076134378E+03  0.25500000920E-02 0. -1.
    10030    2    1    2    0    0  0.00000000000E+00  0.00000000000E+00  0.17300521983E+03  0.91452790740E+03  0.89801474783E+03 0.  0.
        2    1    3    3  502    0  0.42160118879E+03  0.27549243512E+02  0.24128794468E+03  0.48654536835E+03  0.25500000920E-02 0.  1.
       -2    1    3    3    0  502 -0.42160118879E+03 -0.27549243512E+02 -0.68282724853E+02  0.42798253905E+03  0.25500000920E-02 0. -1.
</event>
<event>
 5   0  0.6211218E-03  0.8988789E+03  0.7818609E-02  0.9426984E-01
        1   -1    0    0  501    0  0.00000000000E+00  0.00000000000E+00  0.15938361324E+04  0.15938361324E+04  0.50400001928E-02 0.  1.
       -1   -1    0    0    0  501  0.00000000000E+00  0.00000000000E+00 -0.12673562001E+03  0.12673562011E+03  0.50400001928E-02 0. -1.
    10030    2    1    2    0    0  0.00000000000E+00  0.00000000000E+00  0.14671005124E+04  0.17205717525E+04  0.89887888067E+03 0.  0.
        5    1    3    3  502    0 -0.27347958020E+03 -0.25408244466E+03  0.25454021414E+03  0.45184264969E+03  0.46999998093E+01 0. -1.
       -5    1    3    3    0  502  0.27347958020E+03  0.25408244466E+03  0.12125602983E+04  0.12687291028E+04  0.46999998093E+01 0.  1.
</event>
<event>
 5   0  0.6092779E-03  0.9036957E+03  0.7818609E-02  0.9420973E-01
       -1   -1    0    0    0  501  0.00000000000E+00  0.00000000000E+00  0.21682670273E+03  0.21682670279E+03  0.50400001928E-02 0. -1.
        1   -1    0    0  501    0  0.00000000000E+00  0.00000000000E+00 -0.94161139826E+03  0.94161139827E+03  0.50400001928E-02 0.  1.
    10030    2    1    2    0    0  0.00000000000E+00  0.00000000000E+00 -0.72478469553E+03  0.11584381011E+04  0.90369573370E+03 0.  0.
        2    1    3    3  502    0  0.87730926632E+02  0.39889822112E+03 -0.11465251672E+03  0.42421893628E+03  0.25500000920E-02 0. -1.
       -2    1    3    3    0  502 -0.87730926632E+02 -0.39889822112E+03 -0.61013217881E+03  0.73421916478E+03  0.25500000920E-02 0.  1.
</event>
<event>
 5   0  0.6015709E-03  0.8986490E+03  0.7818609E-02  0.9427272E-01
        1   -1    0    0  501    0  0.00000000000E+00  0.00000000000E+00  0.12388656327E+04  0.12388656327E+04  0.50400001928E-02 0.  1.
       -1   -1    0    0    0  501  0.00000000000E+00  0.00000000000E+00 -0.16296560615E+03  0.16296560623E+03  0.50400001928E-02 0. -1.
    10030    2    1    2    0    0  0.00000000000E+00  0.00000000000E+00  0.10759000266E+04  0.14018312390E+04  0.89864896115E+03 0.  0.
        3    1    3    3  502    0 -0.43743719733E+02  0.24350009024E+03 -0.47152730672E+02  0.25185153796E+03  0.10100000352E+00 0. -1.
       -3    1    3    3    0  502  0.43743719733E+02 -0.24350009024E+03  0.11230527573E+04  0.11499797010E+04  0.10100000352E+00 0.  1.
</event>
<event>
 5   0  0.1017079E-02  0.8875012E+03  0.7818609E-02  0.9441342E-01
        2   -1    0    0  501    0  0.00000000000E+00  0.00000000000E+00  0.44242288727E+03  0.44242288728E+03  0.25500000920E-02 0. -1.
       -2   -1    0    0    0  501  0.00000000000E+00  0.00000000000E+00 -0.44508226984E+03  0.44508226984E+03  0.25500000920E-02 0.  1.
    10030    2    1    2    0    0  0.00000000000E+00  0.00000000000E+00 -0.26593825627E+01  0.88750515712E+03  0.88750117273E+03 0.  0.
        1    1    3    3  502    0  0.41639621844E+03  0.13529602410E+03  0.70946203136E+02  0.44353600601E+03  0.50400001928E-02 0. -1.
       -1    1    3    3    0  502 -0.41639621844E+03 -0.13529602410E+03 -0.73605585699E+02  0.44396915111E+03  0.50400001928E-02 0.  1.
</event>
<event>
 5   0  0.1003252E-02  0.8982421E+03  0.7818609E-02  0.9427782E-01
        2   -1    0    0  501    0  0.00000000000E+00  0.00000000000E+00  0.54278124263E+03  0.54278124264E+03  0.25500000920E-02 0. -1.
       -2   -1    0    0    0  501  0.00000000000E+00  0.00000000000E+00 -0.37162247392E+03  0.37162247392E+03  0.25500000920E-02 0.  1.
    10030    2    1    2    0    0  0.00000000000E+00  0.00000000000E+00  0.17115876872E+03  0.91440371656E+03  0.89824207915E+03 0.  0.
        2    1    3    3  502    0 -0.21123317563E+03  0.36058304977E+03 -0.81910915499E+02  0.42585089921E+03  0.25500000920E-02 0. -1.
       -2    1    3    3    0  502  0.21123317563E+03 -0.36058304977E+03  0.25306968422E+03  0.48855281736E+03  0.25500000920E-02 0.  1.
</event>
<event>
 5   0  0.6015709E-03  0.9028883E+03  0.7818609E-02  0.9421978E-01
       -1   -1    0    0    0  501  0.00000000000E+00  0.00000000000E+00  0.10923539806E+04  0.10923539806E+04  0.50400001928E-02 0. -1.
        1   -1    0    0  501    0  0.00000000000E+00  0.00000000000E+00 -0.18657123214E+03  0.18657123220E+03  0.50400001928E-02 0.  1.
    10030    2    1    2    0    0  0.00000000000E+00  0.00000000000E+00  0.90578274842E+03  0.12789252128E+04  0.90288831675E+03 0.  0.
        3    1    3    3  502    0  0.21448998902E+03  0.32435281102E+03  0.12805301261E+03  0.40939990919E+03  0.10100000352E+00 0. -1.
       -3    1    3    3    0  502 -0.21448998902E+03 -0.32435281102E+03  0.77772973581E+03  0.86952530358E+03  0.10100000352E+00 0.  1.
</event>
<event>
 5   0  0.1017079E-02  0.9001743E+03  0.7818609E-02  0.9425364E-01
        2   -1    0    0  501    0  0.00000000000E+00  0.00000000000E+00  0.10060039753E+04  0.10060039753E+04  0.25500000920E-02 0.  1.
       -2   -1    0    0    0  501  0.00000000000E+00  0.00000000000E+00 -0.20136943754E+03  0.20136943756E+03  0.25500000920E-02 0. -1.
    10030    2    1    2    0    0  0.00000000000E+00  0.00000000000E+00  0.80463453776E+03  0.12073734129E+04  0.90017432686E+03 0.  0.
        1    1    3    3  502    0 -0.54319870844E+02 -0.32445048570E+03 -0.96931846531E+01  0.32910898483E+03  0.50400001928E-02 0. -1.
       -1    1    3    3    0  502  0.54319870844E+02  0.32445048570E+03  0.81432772241E+03  0.87826442804E+03  0.50400001928E-02 0.  1.
</event>
<event>
 5   0  0.6288003E-03  0.8881127E+03  0.7818609E-02  0.9440564E-01
        1   -1    0    0  501    0  0.00000000000E+00  0.00000000000E+00  0.84085230580E+03  0.84085230581E+03  0.50400001928E-02 0. -1.
       -1   -1    0    0    0  501  0.00000000000E+00  0.00000000000E+00 -0.23450736717E+03  0.23450736722E+03  0.50400001928E-02 0.  1.
    10030    2    1    2    0    0  0.00000000000E+00  0.00000000000E+00  0.60634493863E+03  0.10753596730E+04  0.88811274159E+03 0.  0.
        1    1    3    3  502    0 -0.11264794916E+03  0.40278116592E+03  0.48384228714E+03  0.63955108234E+03  0.50400001928E-02 0. -1.
       -1    1    3    3    0  502  0.11264794916E+03 -0.40278116592E+03  0.12250265150E+03  0.43580859069E+03  0.50400001928E-02 0.  1.
</event>
<event>
 5   0  0.6015709E-03  0.8992729E+03  0.7818609E-02  0.9426491E-01
       -1   -1    0    0    0  501  0.00000000000E+00  0.00000000000E+00  0.79334089074E+03  0.79334089076E+03  0.50400001928E-02 0. -1.
        1   -1    0    0  501    0  0.00000000000E+00  0.00000000000E+00 -0.25483742728E+03  0.25483742733E+03  0.50400001928E-02 0.  1.
    10030    2    1    2    0    0  0.00000000000E+00  0.00000000000E+00  0.53850346346E+03  0.10481783181E+04  0.89927293207E+03 0.  0.
        3    1    3    3  502    0  0.16582083857E+03  0.33966486415E+03 -0.14596550278E+02  0.37826160250E+03  0.10100000352E+00 0.  1.
       -3    1    3    3    0  502 -0.16582083857E+03 -0.33966486415E+03  0.55310001373E+03  0.66991671560E+03  0.10100000352E+00 0. -1.
</event>
<event>
 5   0  0.1041727E-02  0.8986111E+03  0.7818609E-02  0.9427319E-01
       -2   -1    0    0    0  501  0.00000000000E+00  0.00000000000E+00  0.14163836165E+03  0.14163836168E+03  0.25500000920E-02 0. -1.
        2   -1    0    0  501    0  0.00000000000E+00  0.00000000000E+00 -0.14252882949E+04  0.14252882949E+04  0.25500000920E-02 0.  1.
    10030    2    1    2    0    0  0.00000000000E+00  0.00000000000E+00 -0.12836499332E+04  0.15669266566E+04  0.89861114837E+03 0.  0.
        4    1    3    3  502    0 -0.16084312211E+03 -0.13224218036E+03  0.52419732297E+02  0.21472760752E+03  0.12699999809E+01 0. -1.
       -4    1    3    3    0  502  0.16084312211E+03  0.13224218036E+03 -0.13360696655E+04  0.13521990491E+04  0.12699999809E+01 0.  1.
</event>
<event>
 5   0  0.3996375E-03  0.9027782E+03  0.7818609E-02  0.9422115E-01
       -4   -1    0    0    0  501  0.00000000000E+00  0.00000000000E+00  0.49980390156E+03  0.49980551509E+03  0.12699999809E+01 0.  1.
        4   -1    0    0  501    0  0.00000000000E+00  0.00000000000E+00 -0.40766083798E+03  0.40766281621E+03  0.12699999809E+01 0. -1.
    10030    2    1    2    0    0  0.00000000000E+00  0.00000000000E+00  0.92143063581E+02  0.90746833130E+03  0.90277817217E+03 0.  0.
        2    1    3    3  502    0  0.30529090229E+03  0.12135023333E+03 -0.26509070158E+03  0.42213918821E+03  0.25500000920E-02 0. -1.
       -2    1    3    3    0  502 -0.30529090229E+03 -0.12135023333E+03  0.35723376516E+03  0.48532914309E+03  0.25500000920E-02 0.  1.
</event>
<event>
 5   0  0.3996375E-03  0.8990072E+03  0.7818609E-02  0.9426823E-01
        3   -1    0    0  501    0  0.00000000000E+00  0.00000000000E+00  0.48186437842E+03  0.48186438901E+03  0.10100000352E+00 0. -1.
       -3   -1    0    0    0  501  0.00000000000E+00  0.00000000000E+00 -0.41931606009E+03  0.41931607225E+03  0.10100000352E+00 0.  1.
    10030    2    1    2    0    0  0.00000000000E+00  0.00000000000E+00  0.62548318334E+02  0.90118046126E+03  0.89900719220E+03 0.  0.
        1    1    3    3  502    0  0.40944804113E+02 -0.36860687133E+03  0.28586840907E+03  0.46826087805E+03  0.50400001928E-02 0. -1.
       -1    1    3    3    0  502 -0.40944804113E+02  0.36860687133E+03 -0.22332009074E+03  0.43291958321E+03  0.50400001928E-02 0.  1.
</event>
<event>
 5   0  0.1017079E-02  0.9016788E+03  0.7818609E-02  0.9423485E-01
        2   -1    0    0  501    0  0.00000000000E+00  0.00000000000E+00  0.12693042002E+04  0.12693042002E+04  0.25500000920E-02 0. -1.
       -2   -1    0    0    0  501  0.00000000000E+00  0.00000000000E+00 -0.16013197301E+03  0.16013197303E+03  0.25500000920E-02 0.  1.
    10030    2    1    2    0    0  0.00000000000E+00  0.00000000000E+00  0.11091722272E+04  0.14294361732E+04  0.90167884735E+03 0.  0.
        1    1    3    3  502    0 -0.92879909745E+02  0.17439423550E+03 -0.87836516851E+02  0.21622969437E+03  0.50400001928E-02 0.  1.
       -1    1    3    3    0  502  0.92879909745E+02 -0.17439423550E+03  0.11970087440E+04  0.12132064788E+04  0.50400001928E-02 0. -1.
</event>
<event>
 5   0  0.1033749E-02  0.8941117E+03  0.7818609E-02  0.9432972E-01
       -2   -1    0    0    0  501  0.00000000000E+00  0.00000000000E+00  0.19442967509E+04  0.19442967509E+04  0.25500000920E-02 0.  1.
        2   -1    0    0  501    0  0.00000000000E+00  0.00000000000E+00 -0.10279240780E+03  0.10279240783E+03  0.25500000920E-02 0. -1.
    10030    2    1    2    0    0  0.00000000000E+00  0.00000000000E+00  0.18415043431E+04  0.20470891587E+04  0.89411172576E+03 0.  0.
        5    1    3    3  502    0  0.31830279409E+02  0.18635637595E+03 -0.67023597460E+01  0.18923233648E+03  0.46999998093E+01 0. -1.
       -5    1    3    3    0  502 -0.31830279409E+02 -0.18635637595E+03  0.18482067029E+04  0.18578568223E+04  0.46999998093E+01 0.  1.
</event>
<event>
 5   0  0.1041727E-02  0.9058267E+03  0.7818609E-02  0.9418327E-01
        2   -1    0    0  501    0  0.00000000000E+00  0.00000000000E+00  0.17080447711E+04  0.17080447711E+04  0.25500000920E-02 0. -1.
       -2   -1    0    0    0  501  0.00000000000E+00  0.00000000000E+00 -0.12009666839E+03  0.12009666842E+03  0.25500000920E-02 0.  1.
    10030    2    1    2    0    0  0.00000000000E+00  0.00000000000E+00  0.15879481027E+04  0.18281414395E+04  0.90582666441E+03 0.  0.
        4    1    3    3  502    0  0.20318437492E+03  0.40267343871E+03  0.71078383332E+03  0.84181058384E+03  0.12699999809E+01 0. -1.
       -4    1    3    3    0  502 -0.20318437492E+03 -0.40267343871E+03  0.87716426936E+03  0.98633085564E+03  0.12699999809E+01 0.  1.
</event>
<event>
 5   0  0.6015709E-03  0.8934441E+03  0.7818609E-02  0.9433814E-01
       -1   -1    0    0    0  501  0.00000000000E+00  0.00000000000E+00  0.95023965528E+03  0.95023965529E+03  0.50400001928E-02 0.  1.
        1   -1    0    0  501    0  0.00000000000E+00  0.00000000000E+00 -0.21001080331E+03  0.21001080337E+03  0.50400001928E-02 0. -1.
    10030    2    1    2    0    0  0.00000000000E+00  0.00000000000E+00  0.74022885197E+03  0.11602504587E+04  0.89344410767E+03 0.  0.
        3    1    3    3  502    0 -0.27089415249E+03  0.26023033982E+02 -0.89936361125E+02  0.28661716523E+03  0.10100000352E+00 0. -1.
       -3    1    3    3    0  502  0.27089415249E+03 -0.26023033982E+02  0.83016521309E+03  0.87363329343E+03  0.10100000352E+00 0.  1.
</event>
<event>
 5   0  0.6015709E-03  0.9113946E+03  0.7818609E-02  0.9411449E-01
       -1   -1    0    0    0  501  0.00000000000E+00  0.00000000000E+00  0.38459598408E+03  0.38459598411E+03  0.50400001928E-02 0. -1.
        1   -1    0    0  501    0  0.00000000000E+00  0.00000000000E+00 -0.53994333135E+03  0.53994333137E+03  0.50400001928E-02 0.  1.
    10030    2    1    2    0    0  0.00000000000E+00  0.00000000000E+00 -0.15534734727E+03  0.92453931549E+03  0.91139461682E+03 0.  0.
        3    1    3    3  502    0  0.17779063567E+03 -0.32398742964E+03  0.19278490832E+03  0.41682537804E+03  0.10100000352E+00 0. -1.
       -3    1    3    3    0  502 -0.17779063567E+03  0.32398742964E+03 -0.34813225559E+03  0.50771393745E+03  0.10100000352E+00 0.  1.
</event>
<event>
 5   0  0.1028978E-02  0.8976135E+03  0.7818609E-02  0.9428570E-01
        2   -1    0    0  501    0  0.00000000000E+00  0.00000000000E+00  0.21544634915E+04  0.21544634915E+04  0.25500000920E-02 0.  1.
       -2   -1    0    0    0  501  0.00000000000E+00  0.00000000000E+00 -0.93493106494E+02  0.93493106529E+02  0.25500000920E-02 0. -1.
    10030    2    1    2    0    0  0.00000000000E+00  0.00000000000E+00  0.20609703850E+04  0.22479565980E+04  0.89761346846E+03 0.  0.
        3    1    3    3  502    0 -0.19854325687E+03  0.34066373900E+03  0.49361297363E+03  0.63176339389E+03  0.10100000352E+00 0. -1.
       -3    1    3    3    0  502  0.19854325687E+03 -0.34066373900E+03  0.15673574114E+04  0.16161932042E+04  0.10100000352E+00 0.  1.
</event>
<event>
 5   0  0.1041727E-02  0.8730637E+03  0.7818609E-02  0.9459894E-01
       -2   -1    0    0    0  501  0.00000000000E+00  0.00000000000E+00  0.41194901924E+03  0.41194901925E+03  0.25500000920E-02 0.  1.
        2   -1    0    0  501    0  0.00000000000E+00  0.00000000000E+00 -0.46258163113E+03  0.46258163114E+03  0.25500000920E-02 0. -1.
    10030    2    1    2    0    0  0.00000000000E+00  0.00000000000E+00 -0.50632611885E+02  0.87453065039E+03  0.87306368444E+03 0.  0.
        4    1    3    3  502    0 -0.29305202512E+03 -0.18012418177E+03 -0.29453215475E+03  0.45285208774E+03  0.12699999809E+01 0.  1.
       -4    1    3    3    0  502  0.29305202512E+03  0.18012418177E+03  0.24389954287E+03  0.42167856265E+03  0.12699999809E+01 0. -1.
</event>
<event>
 5   0  0.6092779E-03  0.8952307E+03  0.7818609E-02  0.9431563E-01
        1   -1    0    0  501    0  0.00000000000E+00  0.00000000000E+00  0.71041553437E+03  0.71041553438E+03  0.50400001928E-02 0.  1.
       -1   -1    0    0    0  501  0.00000000000E+00  0.00000000000E+00 -0.28203141352E+03  0.28203141356E+03  0.50400001928E-02 0. -1.
    10030    2    1    2    0    0  0.00000000000E+00  0.00000000000E+00  0.42838412085E+03  0.99244694794E+03  0.89523069065E+03 0.  0.
        2    1    3    3  502    0 -0.18978807073E+03 -0.32298091623E+03 -0.57409537425E+02  0.37898817796E+03  0.25500000920E-02 0. -1.
       -2    1    3    3    0  502  0.18978807073E+03  0.32298091623E+03  0.48579365827E+03  0.61345876998E+03  0.25500000920E-02 0.  1.
</event>
<event>
 5   0  0.6288003E-03  0.8987456E+03  0.7818609E-02  0.9427151E-01
       -1   -1    0    0    0  501  0.00000000000E+00  0.00000000000E+00  0.21193494704E+03  0.21193494710E+03  0.50400001928E-02 0.  1.
        1   -1    0    0  501    0  0.00000000000E+00  0.00000000000E+00 -0.95282027057E+03  0.95282027058E+03  0.50400001928E-02 0. -1.
    10030    2    1    2    0    0  0.00000000000E+00  0.00000000000E+00 -0.74088532353E+03  0.11647552177E+04  0.89874560054E+03 0.  0.
        1    1    3    3  502    0  0.24766771644E+03 -0.21828004277E+03  0.24672421758E+02  0.33105015218E+03  0.50400001928E-02 0.  1.
       -1    1    3    3    0  502 -0.24766771644E+03  0.21828004277E+03 -0.76555774529E+03  0.83370506550E+03  0.50400001928E-02 0. -1.
</event>
<event>
 5   0  0.6092779E-03  0.9044510E+03  0.7818609E-02  0.9420035E-01
       -1   -1    0    0    0  501  0.00000000000E+00  0.00000000000E+00  0.13418994595E+03  0.13418994604E+03  0.50400001928E-02 0. -1.
        1   -1    0    0  501    0  0.00000000000E+00  0.00000000000E+00 -0.15240179357E+04  0.15240179357E+04  0.50400001928E-02 0.  1.
    10030    2    1    2    0    0  0.00000000000E+00  0.00000000000E+00 -0.13898279898E+04  0.16582078818E+04  0.90445095943E+03 0.  0.
        2    1    3    3  502    0 -0.54229484678E+02  0.40010414710E+03 -0.32149810623E+03  0.51612517653E+03  0.25500000920E-02 0. -1.
       -2    1    3    3    0  502  0.54229484678E+02 -0.40010414710E+03 -0.10683298835E+04  0.11420827052E+04  0.25500000920E-02 0.  1.
</event>
<event>
 5   0  0.3996375E-03  0.9111709E+03  0.7818609E-02  0.9411724E-01
        3   -1    0    0  501    0  0.00000000000E+00  0.00000000000E+00  0.70793839246E+03  0.70793839967E+03  0.10100000352E+00 0.  1.
       -3   -1    0    0    0  501  0.00000000000E+00  0.00000000000E+00 -0.29318665431E+03  0.29318667171E+03  0.10100000352E+00 0. -1.
    10030    2    1    2    0    0  0.00000000000E+00  0.00000000000E+00  0.41475173815E+03  0.10011250714E+04  0.91117089738E+03 0.  0.
        3    1    3    3  502    0 -0.38730443949E+03 -0.21255427595E+03  0.85155304166E+02  0.44992831107E+03  0.10100000352E+00 0. -1.
       -3    1    3    3    0  502  0.38730443949E+03  0.21255427595E+03  0.32959643399E+03  0.55119676031E+03  0.10100000352E+00 0.  1.
</event>
<event>
 5   0  0.1041727E-02  0.8973989E+03  0.7818609E-02  0.9428839E-01
       -2   -1    0    0    0  501  0.00000000000E+00  0.00000000000E+00  0.31168691099E+03  0.31168691100E+03  0.25500000920E-02 0.  1.
        2   -1    0    0  501    0  0.00000000000E+00  0.00000000000E+00 -0.64594056023E+03  0.64594056023E+03  0.25500000920E-02 0. -1.
    10030    2    1    2    0    0  0.00000000000E+00  0.00000000000E+00 -0.33425364924E+03  0.95762747123E+03  0.89739894787E+03 0.  0.
        4    1    3    3  502    0 -0.11184270043E+01  0.44836090572E+03 -0.18563602873E+03  0.48527425310E+03  0.12699999809E+01 0. -1.
       -4    1    3    3    0  502  0.11184270043E+01 -0.44836090572E+03 -0.14861762051E+03  0.47235321813E+03  0.12699999809E+01 0.  1.
</event>
<event>
 5   0  0.1041727E-02  0.8880814E+03  0.7818609E-02  0.9440604E-01
       -2   -1    0    0    0  501  0.00000000000E+00  0.00000000000E+00  0.40837421496E+03  0.40837421497E+03  0.25500000920E-02 0.  1.
        2   -1    0    0  501    0  0.00000000000E+00  0.00000000000E+00 -0.48282223175E+03  0.48282223175E+03  0.25500000920E-02 0. -1.
    10030    2    1    2    0    0  0.00000000000E+00  0.00000000000E+00 -0.74448016789E+02  0.89119644672E+03  0.88808141487E+03 0.  0.
        4    1    3    3  502    0  0.42764591330E+03  0.92948589542E+02 -0.11265460796E+03  0.45189948114E+03  0.12699999809E+01 0.  1.
       -4    1    3    3    0  502 -0.42764591330E+03 -0.92948589542E+02  0.38206591169E+02  0.43929696558E+03  0.12699999809E+01 0. -1.
</event>
<event>
 5   0  0.1033749E-02  0.9060150E+03  0.7818609E-02  0.9418094E-01
       -2   -1    0    0    0  501  0.00000000000E+00  0.00000000000E+00  0.23433194879E+03  0.23433194880E+03  0.25500000920E-02 0. -1.
        2   -1    0    0  501    0  0.00000000000E+00  0.00000000000E+00 -0.87574818055E+03  0.87574818055E+03  0.25500000920E-02 0.  1.
    10030    2    1    2    0    0  0.00000000000E+00  0.00000000000E+00 -0.64141623176E+03  0.11100801294E+04  0.90601496192E+03 0.  0.
        5    1    3    3  502    0 -0.22612186973E+03  0.12392834873E+03  0.13560610467E+03  0.29137680280E+03  0.46999998093E+01 0. -1.
       -5    1    3    3    0  502  0.22612186973E+03 -0.12392834873E+03 -0.77702233643E+03  0.81870332655E+03  0.46999998093E+01 0.  1.
</event>
<event>
 5   0  0.6015709E-03  0.9046682E+03  0.7818609E-02  0.9419765E-01
        1   -1    0    0  501    0  0.00000000000E+00  0.00000000000E+00  0.54343907764E+03  0.54343907766E+03  0.50400001928E-02 0.  1.
       -1   -1    0    0    0  501  0.00000000000E+00  0.00000000000E+00 -0.37650240456E+03  0.37650240459E+03  0.50400001928E-02 0. -1.
    10030    2    1    2    0    0  0.00000000000E+00  0.00000000000E+00  0.16693667308E+03  0.91994148225E+03  0.90466815902E+03 0.  0.
        3    1    3    3  502    0 -0.33594270298E+03  0.30155057275E+03  0.54422815997E+02  0.45470001178E+03  0.10100000352E+00 0. -1.
       -3    1    3    3    0  502  0.33594270298E+03 -0.30155057275E+03  0.11251385709E+03  0.46524147047E+03  0.10100000352E+00 0.  1.
</event>
<event>
 5   0  0.6092779E-03  0.8979867E+03  0.7818609E-02  0.9428102E-01
       -1   -1    0    0    0  501  0.00000000000E+00  0.00000000000E+00  0.13164230456E+03  0.13164230465E+03  0.50400001928E-02 0. -1.
        1   -1    0    0  501    0  0.00000000000E+00  0.00000000000E+00 -0.15313849986E+04  0.15313849986E+04  0.50400001928E-02 0.  1.
    10030    2    1    2    0    0  0.00000000000E+00  0.00000000000E+00 -0.13997426940E+04  0.16630273033E+04  0.89798674927E+03 0.  0.
        2    1    3    3  502    0 -0.30848871631E+03 -0.31220964845E+03 -0.87512204954E+03  0.97901928187E+03  0.25500000920E-02 0. -1.
       -2    1    3    3    0  502  0.30848871631E+03  0.31220964845E+03 -0.52462064450E+03  0.68400802139E+03  0.25500000920E-02 0.  1.
</event>
<event>
 5   0  0.1017079E-02  0.8741507E+03  0.7818609E-02  0.9458484E-01
        2   -1    0    0  501    0  0.00000000000E+00  0.00000000000E+00  0.65699213523E+03  0.65699213524E+03  0.25500000920E-02 0. -1.
       -2   -1    0    0    0  501  0.00000000000E+00  0.00000000000E+00 -0.29077194797E+03  0.29077194798E+03  0.25500000920E-02 0.  1.
    10030    2    1    2    0    0  0.00000000000E+00  0.00000000000E+00  0.36622018727E+03  0.94776408322E+03  0.87415074894E+03 0.  0.
        1    1    3    3  502    0  0.13075361644E+03 -0.18737438822E+03  0.58708495813E+03  0.62997969623E+03  0.50400001928E-02 0. -1.
       -1    1    3    3    0  502 -0.13075361644E+03  0.18737438822E+03 -0.22086477087E+03  0.31778438698E+03  0.50400001928E-02 0.  1.
</event>
<event>
 5   0  0.6137243E-03  0.8722955E+03  0.7818609E-02  0.9460892E-01
        1   -1    0    0  501    0  0.00000000000E+00  0.00000000000E+00  0.57145530918E+03  0.57145530920E+03  0.50400001928E-02 0. -1.
       -1   -1    0    0    0  501  0.00000000000E+00  0.00000000000E+00 -0.33287792803E+03  0.33287792807E+03  0.50400001928E-02 0.  1.
    10030    2    1    2    0    0  0.00000000000E+00  0.00000000000E+00  0.23857738114E+03  0.90433323727E+03  0.87229549881E+03 0.  0.
        4    1    3    3  502    0  0.10125388821E+03 -0.42421767230E+03  0.11596743036E+03  0.45129041777E+03  0.12699999809E+01 0.  1.
       -4    1    3    3    0  502 -0.10125388821E+03  0.42421767230E+03  0.12260995078E+03  0.45304281950E+03  0.12699999809E+01 0. -1.
</event>
<event>
 5   0  0.1041727E-02  0.8900218E+03  0.7818609E-02  0.9438141E-01
        2   -1    0    0  501    0  0.00000000000E+00  0.00000000000E+00  0.52234858341E+03  0.52234858342E+03  0.25500000920E-02 0. -1.
       -2   -1    0    0    0  501  0.00000000000E+00  0.00000000000E+00 -0.37912369017E+03  0.37912369018E+03  0.25500000920E-02 0.  1.
    10030    2    1    2    0    0  0.00000000000E+00  0.00000000000E+00  0.14322489324E+03  0.90147227360E+03  0.89002184806E+03 0.  0.
        4    1    3    3  502    0  0.16007309517E+03  0.39396316288E+03  0.20445906995E+03  0.47184265777E+03  0.12699999809E+01 0. -1.
       -4    1    3    3    0  502 -0.16007309517E+03 -0.39396316288E+03 -0.61234176706E+02  0.42962961583E+03  0.12699999809E+01 0.  1.
</event>
<event>
 5   0  0.3996375E-03  0.8940163E+03  0.7818609E-02  0.9433092E-01
        3   -1    0    0  501    0  0.00000000000E+00  0.00000000000E+00  0.85017980183E+03  0.85017980783E+03  0.10100000352E+00 0. -1.
       -3   -1    0    0    0  501  0.00000000000E+00  0.00000000000E+00 -0.23502824789E+03  0.23502826959E+03  0.10100000352E+00 0.  1.
    10030    2    1    2    0    0  0.00000000000E+00  0.00000000000E+00  0.61515155394E+03  0.10852080774E+04  0.89401629571E+03 0.  0.
        1    1    3    3  502    0  0.25590438677E+03 -0.34865710054E+03  0.17041821535E+03  0.46485610362E+03  0.50400001928E-02 0.  1.
       -1    1    3    3    0  502 -0.25590438677E+03  0.34865710054E+03  0.44473333859E+03  0.62035197381E+03  0.50400001928E-02 0. -1.
</event>
<event>
 5   0  0.1003252E-02  0.8948366E+03  0.7818609E-02  0.9432059E-01
        2   -1    0    0  501    0  0.00000000000E+00  0.00000000000E+00  0.16943774227E+04  0.16943774227E+04  0.25500000920E-02 0.  1.
       -2   -1    0    0    0  501  0.00000000000E+00  0.00000000000E+00 -0.11814554838E+03  0.11814554841E+03  0.25500000920E-02 0. -1.
    10030    2    1    2    0    0  0.00000000000E+00  0.00000000000E+00  0.15762318743E+04  0.18125229711E+04  0.89483663266E+03 0.  0.
        2    1    3    3  502    0 -0.34642213434E+02 -0.36755197326E+03  0.13000941701E+04  0.13514952412E+04  0.25500000920E-02 0.  1.
       -2    1    3    3    0  502  0.34642213434E+02  0.36755197326E+03  0.27613770425E+03  0.46102772988E+03  0.25500000920E-02 0. -1.
</event>
<event>
 5   0  0.6137243E-03  0.8739920E+03  0.7818609E-02  0.9458690E-01
       -1   -1    0    0    0  501  0.00000000000E+00  0.00000000000E+00  0.20602309593E+03  0.20602309600E+03  0.50400001928E-02 0.  1.
        1   -1    0    0  501    0  0.00000000000E+00  0.00000000000E+00 -0.92691305612E+03  0.92691305613E+03  0.50400001928E-02 0. -1.
    10030    2    1    2    0    0  0.00000000000E+00  0.00000000000E+00 -0.72088996019E+03  0.11329361521E+04  0.87399198515E+03 0.  0.
        4    1    3    3  502    0 -0.33241549722E+03 -0.27962460834E+03 -0.29863142961E+03  0.52713596731E+03  0.12699999809E+01 0.  1.
       -4    1    3    3    0  502  0.33241549722E+03  0.27962460834E+03 -0.42225853057E+03  0.60580018482E+03  0.12699999809E+01 0. -1.
</event>
<event>
 5   0  0.1041727E-02  0.9018075E+03  0.7818609E-02  0.9423325E-01
        2   -1    0    0  501    0  0.00000000000E+00  0.00000000000E+00  0.40495368639E+03  0.40495368640E+03  0.25500000920E-02 0. -1.
       -2   -1    0    0    0  501  0.00000000000E+00  0.00000000000E+00 -0.50206770943E+03  0.50206770944E+03  0.25500000920E-02 0.  1.
    10030    2    1    2    0    0  0.00000000000E+00  0.00000000000E+00 -0.97114023046E+02  0.90702139584E+03  0.90180745119E+03 0.  0.
        4    1    3    3  502    0  0.24327985781E+03  0.10438758462E+03 -0.41567517069E+03  0.49281773250E+03  0.12699999809E+01 0.  1.
       -4    1    3    3    0  502 -0.24327985781E+03 -0.10438758462E+03  0.31856114764E+03  0.41420366334E+03  0.12699999809E+01 0. -1.
</event>
<event>
 5   0  0.6015709E-03  0.9068590E+03  0.7818609E-02  0.9417048E-01
       -1   -1    0    0    0  501  0.00000000000E+00  0.00000000000E+00  0.42436829689E+03  0.42436829692E+03  0.50400001928E-02 0.  1.
        1   -1    0    0  501    0  0.00000000000E+00  0.00000000000E+00 -0.48448082337E+03  0.48448082340E+03  0.50400001928E-02 0. -1.
    10030    2    1    2    0    0  0.00000000000E+00  0.00000000000E+00 -0.60112526486E+02  0.90884912031E+03  0.90685897892E+03 0.  0.
        3    1    3    3  502    0  0.28350732285E+03 -0.12259038754E+03  0.30262626705E+03  0.43242048163E+03  0.10100000352E+00 0.  1.
       -3    1    3    3    0  502 -0.28350732285E+03  0.12259038754E+03 -0.36273879353E+03  0.47642863868E+03  0.10100000352E+00 0. -1.
</event>
<event>
 5   0  0.1033749E-02  0.8971236E+03  0.7818609E-02  0.9429184E-01
        2   -1    0    0  501    0  0.00000000000E+00  0.00000000000E+00  0.10750167934E+04  0.10750167934E+04  0.25500000920E-02 0.  1.
       -2   -1    0    0    0  501  0.00000000000E+00  0.00000000000E+00 -0.18716700853E+03  0.18716700855E+03  0.25500000920E-02 0. -1.
    10030    2    1    2    0    0  0.00000000000E+00  0.00000000000E+00  0.88784978488E+03  0.12621838020E+04  0.89712357534E+03 0.  0.
        5    1    3    3  502    0  0.34624413637E+03  0.13047300803E+03  0.80062185777E+03  0.88200093931E+03  0.46999998093E+01 0.  1.
       -5    1    3    3    0  502 -0.34624413637E+03 -0.13047300803E+03  0.87227927108E+02  0.38018286266E+03  0.46999998093E+01 0. -1.
</event>
<event>
 5   0  0.1033749E-02  0.8920194E+03  0.7818609E-02  0.9435613E-01
        2   -1    0    0  501    0  0.00000000000E+00  0.00000000000E+00  0.68332689840E+03  0.68332689840E+03  0.25500000920E-02 0. -1.
       -2   -1    0    0    0  501  0.00000000000E+00  0.00000000000E+00 -0.29111201560E+03  0.29111201561E+03  0.25500000920E-02 0.  1.
    10030    2    1    2    0    0  0.00000000000E+00  0.00000000000E+00  0.39221488280E+03  0.97443891402E+03  0.89201944086E+03 0.  0.
        5    1    3    3  502    0 -0.19698980195E+03 -0.37966406023E+03  0.58132963309E+02  0.43168427366E+03  0.46999998093E+01 0.  1.
       -5    1    3    3    0  502  0.19698980195E+03  0.37966406023E+03  0.33408191949E+03  0.54275464036E+03  0.46999998093E+01 0. -1.
</event>
<event>
 5   0  0.1017079E-02  0.8879148E+03  0.7818609E-02  0.9440816E-01
       -2   -1    0    0    0  501  0.00000000000E+00  0.00000000000E+00  0.85653680375E+02  0.85653680413E+02  0.25500000920E-02 0.  1.
        2   -1    0    0  501    0  0.00000000000E+00  0.00000000000E+00 -0.23011056621E+04  0.23011056621E+04  0.25500000920E-02 0. -1.
    10030    2    1    2    0    0  0.00000000000E+00  0.00000000000E+00 -0.22154519817E+04  0.23867593425E+04  0.88791479082E+03 0.  0.
        1    1    3    3  502    0  0.29940644784E+03  0.23132588719E+03 -0.48341353819E+03  0.61387664560E+03  0.50400001928E-02 0.  1.
       -1    1    3    3    0  502 -0.29940644784E+03 -0.23132588719E+03 -0.17320384435E+04  0.17728826969E+04  0.50400001928E-02 0. -1.
</event>
<event>
 5   0  0.6092779E-03  0.8978328E+03  0.7818609E-02  0.9428295E-01
        1   -1    0    0  501    0  0.00000000000E+00  0.00000000000E+00  0.10345032245E+04  0.10345032245E+04  0.50400001928E-02 0. -1.
       -1   -1    0    0    0  501  0.00000000000E+00  0.00000000000E+00 -0.19480454695E+03  0.19480454701E+03  0.50400001928E-02 0.  1.
    10030    2    1    2    0    0  0.00000000000E+00  0.00000000000E+00  0.83969867753E+03  0.12293077715E+04  0.89783279514E+03 0.  0.
        2    1    3    3  502    0 -0.26030504858E+03  0.13265055747E+03 -0.46825200247E+02  0.29588424781E+03  0.25500000920E-02 0.  1.
       -2    1    3    3    0  502  0.26030504858E+03 -0.13265055747E+03  0.88652387778E+03  0.93342352370E+03  0.25500000920E-02 0. -1.
</event>
<event>
 5   0  0.6015709E-03  0.9024337E+03  0.7818609E-02  0.9422544E-01
        1   -1    0    0  501    0  0.00000000000E+00  0.00000000000E+00  0.43143135404E+03  0.43143135407E+03  0.50400001928E-02 0. -1.
       -1   -1    0    0    0  501  0.00000000000E+00  0.00000000000E+00 -0.47190968463E+03  0.47190968466E+03  0.50400001928E-02 0.  1.
    10030    2    1    2    0    0  0.00000000000E+00  0.00000000000E+00 -0.40478330596E+02  0.90334103873E+03  0.90243367458E+03 0.  0.
        3    1    3    3  502    0 -0.17255241149E+03 -0.38670684627E+03  0.13573825120E+03  0.44468123718E+03  0.10100000352E+00 0. -1.
       -3    1    3    3    0  502  0.17255241149E+03  0.38670684627E+03 -0.17621658179E+03  0.45865980155E+03  0.10100000352E+00 0.  1.
</event>
<event>
 5   0  0.6015709E-03  0.8906636E+03  0.7818609E-02  0.9437328E-01
       -1   -1    0    0    0  501  0.00000000000E+00  0.00000000000E+00  0.48216066932E+03  0.48216066935E+03  0.50400001928E-02 0. -1.
        1   -1    0    0  501    0  0.00000000000E+00  0.00000000000E+00 -0.41131603986E+03  0.41131603989E+03  0.50400001928E-02 0.  1.
    10030    2    1    2    0    0  0.00000000000E+00  0.00000000000E+00  0.70844629459E+02  0.89347670924E+03  0.89066361127E+03 0.  0.
        3    1    3    3  502    0 -0.17849083628E+03 -0.40491298709E+03 -0.14804788519E+02  0.44275579919E+03  0.10100000352E+00 0.  1.
       -3    1    3    3    0  502  0.17849083628E+03  0.40491298709E+03  0.85649417978E+02  0.45072091005E+03  0.10100000352E+00 0. -1.
</event>
<event>
 5   0  0.1041727E-02  0.8986573E+03  0.7818609E-02  0.9427261E-01
        2   -1    0    0  501    0  0.00000000000E+00  0.00000000000E+00  0.67531763272E+03  0.67531763273E+03  0.25500000920E-02 0.  1.
       -2   -1    0    0    0  501  0.00000000000E+00  0.00000000000E+00 -0.29896487114E+03  0.29896487115E+03  0.25500000920E-02 0. -1.
    10030    2    1    2    0    0  0.00000000000E+00  0.00000000000E+00  0.37635276158E+03  0.97428250388E+03  0.89865732970E+03 0.  0.
        4    1    3    3  502    0  0.18183660972E+03 -0.41067171351E+03  0.20267436516E+03  0.49274163626E+03  0.12699999809E+01 0.  1.
       -4    1    3    3    0  502 -0.18183660972E+03  0.41067171351E+03  0.17367839642E+03  0.48154086762E+03  0.12699999809E+01 0. -1.
</event>
<event>
 5   0  0.6211218E-03  0.9061060E+03  0.7818609E-02  0.9417981E-01
        1   -1    0    0  501    0  0.00000000000E+00  0.00000000000E+00  0.54019448293E+03  0.54019448296E+03  0.50400001928E-02 0. -1.
       -1   -1    0    0    0  501  0.00000000000E+00  0.00000000000E+00 -0.37996874997E+03  0.37996875001E+03  0.50400001928E-02 0.  1.
    10030    2    1    2    0    0  0.00000000000E+00  0.00000000000E+00  0.16022573296E+03  0.92016323296E+03  0.90610600362E+03 0.  0.
        5    1    3    3  502    0 -0.26151154652E+03  0.19352091126E+03 -0.24005001366E+03  0.40433245122E+03  0.46999998093E+01 0.  1.
       -5    1    3    3    0  502  0.26151154652E+03 -0.19352091126E+03  0.40027574662E+03  0.51583078174E+03  0.46999998093E+01 0. -1.
</event>
<event>
 5   0  0.6137243E-03  0.9316846E+03  0.7818609E-02  0.9386818E-01
        1   -1    0    0  501    0  0.00000000000E+00  0.00000000000E+00  0.18934147038E+04  0.18934147038E+04  0.50400001928E-02 0.  1.
       -1   -1    0    0    0  501  0.00000000000E+00  0.00000000000E+00 -0.11461253861E+03  0.11461253872E+03  0.50400001928E-02 0. -1.
    10030    2    1    2    0    0  0.00000000000E+00  0.00000000000E+00  0.17788021651E+04  0.20080272425E+04  0.93168463754E+03 0.  0.
        4    1    3    3  502    0 -0.22223377097E+03  0.36349567396E+03  0.12954297703E+04  0.13636923614E+04  0.12699999809E+01 0.  1.
       -4    1    3    3    0  502  0.22223377097E+03 -0.36349567396E+03  0.48337239484E+03  0.64433488105E+03  0.12699999809E+01 0. -1.
</event>
<event>
 5   0  0.6092779E-03  0.9128352E+03  0.7818609E-02  0.9409678E-01
        1   -1    0    0  501    0  0.00000000000E+00  0.00000000000E+00  0.80794838388E+03  0.80794838390E+03  0.50400001928E-02 0.  1.
       -1   -1    0    0    0  501  0.00000000000E+00  0.00000000000E+00 -0.25783457736E+03  0.25783457741E+03  0.50400001928E-02 0. -1.
    10030    2    1    2    0    0  0.00000000000E+00  0.00000000000E+00  0.55011380653E+03  0.10657829613E+04  0.91283520992E+03 0.  0.
        2    1    3    3  502    0  0.18352866745E+03  0.41178362813E+03  0.19193486235E+03  0.48998726470E+03  0.25500000920E-02 0. -1.
       -2    1    3    3    0  502 -0.18352866745E+03 -0.41178362813E+03  0.35817894418E+03  0.57579569661E+03  0.25500000920E-02 0.  1.
</event>
<event>
 5   0  0.1028978E-02  0.9033258E+03  0.7818609E-02  0.9421433E-01
        2   -1    0    0  501    0  0.00000000000E+00  0.00000000000E+00  0.19748837746E+03  0.19748837748E+03  0.25500000920E-02 0. -1.
       -2   -1    0    0    0  501  0.00000000000E+00  0.00000000000E+00 -0.10329691075E+04  0.10329691075E+04  0.25500000920E-02 0.  1.
    10030    2    1    2    0    0  0.00000000000E+00  0.00000000000E+00 -0.83548073003E+03  0.12304574850E+04  0.90332583937E+03 0.  0.
        3    1    3    3  502    0 -0.15574012694E+03  0.25023437667E+03  0.48436773344E+02  0.29869442851E+03  0.10100000352E+00 0.  1.
       -3    1    3    3    0  502  0.15574012694E+03 -0.25023437667E+03 -0.88391750338E+03  0.93176305646E+03  0.10100000352E+00 0. -1.
</event>
<event>
 5   0  0.1041727E-02  0.9212373E+03  0.7818609E-02  0.9399416E-01
       -2   -1    0    0    0  501  0.00000000000E+00  0.00000000000E+00  0.23052198791E+03  0.23052198792E+03  0.25500000920E-02 0. -1.
        2   -1    0    0  501    0  0.00000000000E+00  0.00000000000E+00 -0.92038743947E+03  0.92038743947E+03  0.25500000920E-02 0.  1.
    10030    2    1    2    0    0  0.00000000000E+00  0.00000000000E+00 -0.68986545156E+03  0.11509094274E+04  0.92123730320E+03 0.  0.
        4    1    3    3  502    0  0.32276472264E+03 -0.10822924057E+02 -0.75525725030E+03  0.82140692041E+03  0.12699999809E+01 0.  1.
       -4    1    3    3    0  502 -0.32276472264E+03  0.10822924057E+02  0.65391798743E+02  0.32950250698E+03  0.12699999809E+01 0. -1.
</event>
<event>
 5   0  0.1017079E-02  0.8997527E+03  0.7818609E-02  0.9425891E-01
       -2   -1    0    0    0  501  0.00000000000E+00  0.00000000000E+00  0.23321348495E+03  0.23321348496E+03  0.25500000920E-02 0. -1.
        2   -1    0    0  501    0  0.00000000000E+00  0.00000000000E+00 -0.86782607792E+03  0.86782607792E+03  0.25500000920E-02 0.  1.
    10030    2    1    2    0    0  0.00000000000E+00  0.00000000000E+00 -0.63461259297E+03  0.11010395629E+04  0.89975273041E+03 0.  0.
        1    1    3    3  502    0  0.28167168892E+01 -0.42817984690E+03 -0.14843902655E+03  0.45318876841E+03  0.50400001928E-02 0. -1.
       -1    1    3    3    0  502 -0.28167168892E+01  0.42817984690E+03 -0.48617356641E+03  0.64785079447E+03  0.50400001928E-02 0.  1.
</event>
<event>
 5   0  0.1028978E-02  0.8888376E+03  0.7818609E-02  0.9439643E-01
        2   -1    0    0  501    0  0.00000000000E+00  0.00000000000E+00  0.33539039825E+03  0.33539039826E+03  0.25500000920E-02 0.  1.
       -2   -1    0    0    0  501  0.00000000000E+00  0.00000000000E+00 -0.58889011109E+03  0.58889011110E+03  0.25500000920E-02 0. -1.
    10030    2    1    2    0    0  0.00000000000E+00  0.00000000000E+00 -0.25349971285E+03  0.92428050936E+03  0.88883764297E+03 0.  0.
        3    1    3    3  502    0  0.42055114741E+03 -0.12027063307E+03 -0.45003562716E+02  0.43971993772E+03  0.10100000352E+00 0.  1.
       -3    1    3    3    0  502 -0.42055114741E+03  0.12027063307E+03 -0.20849615013E+03  0.48456057164E+03  0.10100000352E+00 0. -1.
</event>
<event>
 5   0  0.6211218E-03  0.8350426E+03  0.7818609E-02  0.9510635E-01
        1   -1    0    0  501    0  0.00000000000E+00  0.00000000000E+00  0.36847334432E+03  0.36847334436E+03  0.50400001928E-02 0. -1.
       -1   -1    0    0    0  501  0.00000000000E+00  0.00000000000E+00 -0.47309812864E+03  0.47309812867E+03  0.50400001928E-02 0.  1.
    10030    2    1    2    0    0  0.00000000000E+00  0.00000000000E+00 -0.10462478432E+03  0.84157147303E+03  0.83504263287E+03 0.  0.
        5    1    3    3  502    0 -0.31397737921E+03 -0.12183318373E+03  0.19634902739E+03  0.38987196600E+03  0.46999998093E+01 0. -1.
       -5    1    3    3    0  502  0.31397737921E+03  0.12183318373E+03 -0.30097381171E+03  0.45169950703E+03  0.46999998093E+01 0.  1.
</event>
<event>
 5   0  0.6137243E-03  0.8902635E+03  0.7818609E-02  0.9437835E-01
       -1   -1    0    0    0  501  0.00000000000E+00  0.00000000000E+00  0.45008928235E+03  0.45008928238E+03  0.50400001928E-02 0.  1.
        1   -1    0    0  501    0  0.00000000000E+00  0.00000000000E+00 -0.44022881386E+03  0.44022881388E+03  0.50400001928E-02 0. -1.
    10030    2    1    2    0    0  0.00000000000E+00  0.00000000000E+00  0.98604684952E+01  0.89031809626E+03  0.89026349116E+03 0.  0.
        4    1    3    3  502    0  0.19540939458E+03 -0.79139267874E+02 -0.38713054824E+03  0.44081688884E+03  0.12699999809E+01 0. -1.
       -4    1    3    3    0  502 -0.19540939458E+03  0.79139267874E+02  0.39699101673E+03  0.44950120742E+03  0.12699999809E+01 0.  1.
</event>
<event>
 5   0  0.6211218E-03  0.9009266E+03  0.7818609E-02  0.9424424E-01
       -1   -1    0    0    0  501  0.00000000000E+00  0.00000000000E+00  0.47191261276E+03  0.47191261279E+03  0.50400001928E-02 0. -1.
        1   -1    0    0  501    0  0.00000000000E+00  0.00000000000E+00 -0.42998886095E+03  0.42998886098E+03  0.50400001928E-02 0.  1.
    10030    2    1    2    0    0  0.00000000000E+00  0.00000000000E+00  0.41923751812E+02  0.90190147376E+03  0.90092656050E+03 0.  0.
        5    1    3    3  502    0  0.12938273658E+03  0.71255997992E+02  0.44695468795E+03  0.47075247515E+03  0.46999998093E+01 0. -1.
       -5    1    3    3    0  502 -0.12938273658E+03 -0.71255997992E+02 -0.40503093614E+03  0.43114899861E+03  0.46999998093E+01 0.  1.
</event>
<event>
 5   0  0.6288003E-03  0.9292052E+03  0.7818609E-02  0.9389792E-01
       -1   -1    0    0    0  501  0.00000000000E+00  0.00000000000E+00  0.33746782683E+03  0.33746782687E+03  0.50400001928E-02 0. -1.
        1   -1    0    0  501    0  0.00000000000E+00  0.00000000000E+00 -0.63963298428E+03  0.63963298430E+03  0.50400001928E-02 0.  1.
    10030    2    1    2    0    0  0.00000000000E+00  0.00000000000E+00 -0.30216515746E+03  0.97710081117E+03  0.92920515109E+03 0.  0.
        1    1    3    3  502    0 -0.22440412480E+03  0.25934915704E+03 -0.48066488532E+03  0.59047263145E+03  0.50400001928E-02 0.  1.
       -1    1    3    3    0  502  0.22440412480E+03 -0.25934915704E+03  0.17849972787E+03  0.38662817972E+03  0.50400001928E-02 0. -1.
</event>
<event>
 5   0  0.1041727E-02  0.9068456E+03  0.7818609E-02  0.9417064E-01
       -2   -1    0    0    0  501  0.00000000000E+00  0.00000000000E+00  0.32557111795E+03  0.32557111796E+03  0.25500000920E-02 0. -1.
        2   -1    0    0  501    0  0.00000000000E+00  0.00000000000E+00 -0.63148184647E+03  0.63148184648E+03  0.25500000920E-02 0.  1.
    10030    2    1    2    0    0  0.00000000000E+00  0.00000000000E+00 -0.30591072852E+03  0.95705296444E+03  0.90684563346E+03 0.  0.
        4    1    3    3  502    0  0.12688890411E+03 -0.42425978700E+03 -0.50126448301E+02  0.44565842814E+03  0.12699999809E+01 0. -1.
       -4    1    3    3    0  502 -0.12688890411E+03  0.42425978700E+03 -0.25578428022E+03  0.51139453630E+03  0.12699999809E+01 0.  1.
</event>
<event>
 5   0  0.1017079E-02  0.8973637E+03  0.7818609E-02  0.9428883E-01
        2   -1    0    0  501    0  0.00000000000E+00  0.00000000000E+00  0.23300184778E+04  0.23300184778E+04  0.25500000920E-02 0. -1.
       -2   -1    0    0    0  501  0.00000000000E+00  0.00000000000E+00 -0.86400776183E+02  0.86400776221E+02  0.25500000920E-02 0.  1.
    10030    2    1    2    0    0  0.00000000000E+00  0.00000000000E+00  0.22436177016E+04  0.24164192540E+04  0.89736370564E+03 0.  0.
        1    1    3    3  502    0 -0.26553112707E+03  0.70975367525E+02  0.20767888067E+04  0.20948976180E+04  0.50400001928E-02 0. -1.
       -1    1    3    3    0  502  0.26553112707E+03 -0.70975367525E+02  0.16682889495E+03  0.32152163605E+03  0.50400001928E-02 0.  1.
</event>
<event>
 5   0  0.1003252E-02  0.8991613E+03  0.7818609E-02  0.9426630E-01
       -2   -1    0    0    0  501  0.00000000000E+00  0.00000000000E+00  0.29460567990E+03  0.29460567991E+03  0.25500000920E-02 0. -1.
        2   -1    0    0  501    0  0.00000000000E+00  0.00000000000E+00 -0.68607893782E+03  0.68607893782E+03  0.25500000920E-02 0.  1.
    10030    2    1    2    0    0  0.00000000000E+00  0.00000000000E+00 -0.39147325792E+03  0.98068461774E+03  0.89916128020E+03 0.  0.
        2    1    3    3  502    0 -0.38489118719E+03  0.20273160922E+03 -0.31952323242E+03  0.53975589614E+03  0.25500000920E-02 0.  1.
       -2    1    3    3    0  502  0.38489118719E+03 -0.20273160922E+03 -0.71950025499E+02  0.44092872160E+03  0.25500000920E-02 0. -1.
</event>
<event>
 5   0  0.6015709E-03  0.9036257E+03  0.7818609E-02  0.9421060E-01
        1   -1    0    0  501    0  0.00000000000E+00  0.00000000000E+00  0.45142123588E+03  0.45142123591E+03  0.50400001928E-02 0.  1.
       -1   -1    0    0    0  501  0.00000000000E+00  0.00000000000E+00 -0.45220483220E+03  0.45220483223E+03  0.50400001928E-02 0. -1.
    10030    2    1    2    0    0  0.00000000000E+00  0.00000000000E+00 -0.78359632364E+00  0.90362606814E+03  0.90362572838E+03 0.  0.
        3    1    3    3  502    0 -0.37071152790E+03  0.24342094057E+03  0.85945148913E+02  0.45173816536E+03  0.10100000352E+00 0.  1.
       -3    1    3    3    0  502  0.37071152790E+03 -0.24342094057E+03 -0.86728745237E+02  0.45188790278E+03  0.10100000352E+00 0. -1.
</event>
<event>
 5   0  0.1028978E-02  0.9074661E+03  0.7818609E-02  0.9416296E-01
       -2   -1    0    0    0  501  0.00000000000E+00  0.00000000000E+00  0.89965103956E+03  0.89965103957E+03  0.25500000920E-02 0.  1.
        2   -1    0    0  501    0  0.00000000000E+00  0.00000000000E+00 -0.22883725156E+03  0.22883725157E+03  0.25500000920E-02 0. -1.
    10030    2    1    2    0    0  0.00000000000E+00  0.00000000000E+00  0.67081378801E+03  0.11284882911E+04  0.90746607928E+03 0.  0.
        3    1    3    3  502    0 -0.27701498468E+03 -0.32253389612E+03  0.13835762074E+03  0.44711101228E+03  0.10100000352E+00 0. -1.
       -3    1    3    3    0  502  0.27701498468E+03  0.32253389612E+03  0.53245616726E+03  0.68137727886E+03  0.10100000352E+00 0.  1.
</event>
<event>
 5   0  0.1033749E-02  0.9869117E+03  0.7818609E-02  0.9323017E-01
        2   -1    0    0  501    0  0.00000000000E+00  0.00000000000E+00  0.70465159216E+03  0.70465159216E+03  0.25500000920E-02 0. -1.
       -2   -1    0    0    0  501  0.00000000000E+00  0.00000000000E+00 -0.34555894755E+03  0.34555894756E+03  0.25500000920E-02 0.  1.
    10030    2    1    2    0    0  0.00000000000E+00  0.00000000000E+00  0.35909264460E+03  0.10502105397E+04  0.98691167302E+03 0.  0.
        5    1    3    3  502    0 -0.21207734276E+03 -0.37551273671E+03 -0.75602801806E+02  0.43786354996E+03  0.46999998093E+01 0.  1.
       -5    1    3    3    0  502  0.21207734276E+03  0.37551273671E+03  0.43469544641E+03  0.61234698976E+03  0.46999998093E+01 0. -1.
</event>
<event>
 5   0  0.1017079E-02  0.8774210E+03  0.7818609E-02  0.9454255E-01
       -2   -1    0    0    0  501  0.00000000000E+00  0.00000000000E+00  0.43208400689E+03  0.43208400690E+03  0.25500000920E-02 0. -1.
        2   -1    0    0  501    0  0.00000000000E+00  0.00000000000E+00 -0.44543864292E+03  0.44543864293E+03  0.25500000920E-02 0.  1.
    10030    2    1    2    0    0  0.00000000000E+00  0.00000000000E+00 -0.13354636033E+02  0.87752264983E+03  0.87742102474E+03 0.  0.
        1    1    3    3  502    0 -0.13012729584E+03  0.41227625965E+03 -0.81265351572E+02  0.43989644780E+03  0.50400001928E-02 0.  1.
       -1    1    3    3    0  502  0.13012729584E+03 -0.41227625965E+03  0.67910715539E+02  0.43762620203E+03  0.50400001928E-02 0. -1.
</event>
<event>
 5   0  0.6015709E-03  0.8983838E+03  0.7818609E-02  0.9427604E-01
        1   -1    0    0  501    0  0.00000000000E+00  0.00000000000E+00  0.55924532282E+03  0.55924532285E+03  0.50400001928E-02 0. -1.
       -1   -1    0    0    0  501  0.00000000000E+00  0.00000000000E+00 -0.36079576606E+03  0.36079576610E+03  0.50400001928E-02 0.  1.
    10030    2    1    2    0    0  0.00000000000E+00  0.00000000000E+00  0.19844955676E+03  0.92004108894E+03  0.89838375918E+03 0.  0.
        3    1    3    3  502    0 -0.12275729339E+03 -0.61996440319E+02  0.53715527624E+03  0.55448057918E+03  0.10100000352E+00 0. -1.
       -3    1    3    3    0  502  0.12275729339E+03  0.61996440319E+02 -0.33870571948E+03  0.36556050976E+03  0.10100000352E+00 0.  1.
</event>
<event>
 5   0  0.6137243E-03  0.8946871E+03  0.7818609E-02  0.9432247E-01
        1   -1    0    0  501    0  0.00000000000E+00  0.00000000000E+00  0.77794839845E+03  0.77794839847E+03  0.50400001928E-02 0. -1.
       -1   -1    0    0    0  501  0.00000000000E+00  0.00000000000E+00 -0.25723586880E+03  0.25723586885E+03  0.50400001928E-02 0.  1.
    10030    2    1    2    0    0  0.00000000000E+00  0.00000000000E+00  0.52071252965E+03  0.10351842673E+04  0.89468705633E+03 0.  0.
        4    1    3    3  502    0  0.11259348041E+03  0.41896568716E+03  0.38660082562E+03  0.58109495792E+03  0.12699999809E+01 0.  1.
       -4    1    3    3    0  502 -0.11259348041E+03 -0.41896568716E+03  0.13411170403E+03  0.45408930940E+03  0.12699999809E+01 0. -1.
</event>
<event>
 5   0  0.6015709E-03  0.8980117E+03  0.7818609E-02  0.9428070E-01
        1   -1    0    0  501    0  0.00000000000E+00  0.00000000000E+00  0.23031784361E+03  0.23031784367E+03  0.50400001928E-02 0.  1.
       -1   -1    0    0    0  501  0.00000000000E+00  0.00000000000E+00 -0.87533923116E+03  0.87533923118E+03  0.50400001928E-02 0. -1.
    10030    2    1    2    0    0  0.00000000000E+00  0.00000000000E+00 -0.64502138755E+03  0.11056570748E+04  0.89801167963E+03 0.  0.
        3    1    3    3  502    0 -0.33850130316E+03  0.41950916637E+02  0.37006226617E+02  0.34309252784E+03  0.10100000352E+00 0.  1.
       -3    1    3    3    0  502  0.33850130316E+03 -0.41950916637E+02 -0.68202761417E+03  0.76256454700E+03  0.10100000352E+00 0. -1.
</event>
<event>
 5   0  0.1041727E-02  0.9033503E+03  0.7818609E-02  0.9421403E-01
        2   -1    0    0  501    0  0.00000000000E+00  0.00000000000E+00  0.68622827126E+03  0.68622827126E+03  0.25500000920E-02 0.  1.
       -2   -1    0    0    0  501  0.00000000000E+00  0.00000000000E+00 -0.29729236143E+03  0.29729236144E+03  0.25500000920E-02 0. -1.
    10030    2    1    2    0    0  0.00000000000E+00  0.00000000000E+00  0.38893590982E+03  0.98352063271E+03  0.90335026042E+03 0.  0.
        4    1    3    3  502    0 -0.18534354606E+03 -0.37606069813E+03  0.11522901563E+02  0.41941419731E+03  0.12699999809E+01 0.  1.
       -4    1    3    3    0  502  0.18534354606E+03  0.37606069813E+03  0.37741300826E+03  0.56410643539E+03  0.12699999809E+01 0. -1.
</event>
<event>
 5   0  0.1033749E-02  0.8969820E+03  0.7818609E-02  0.9429362E-01
        2   -1    0    0  501    0  0.00000000000E+00  0.00000000000E+00  0.96415123492E+03  0.96415123493E+03  0.25500000920E-02 0. -1.
       -2   -1    0    0    0  501  0.00000000000E+00  0.00000000000E+00 -0.20862303677E+03  0.20862303679E+03  0.25500000920E-02 0.  1.
    10030    2    1    2    0    0  0.00000000000E+00  0.00000000000E+00  0.75552819815E+03  0.11727742717E+04  0.89698195868E+03 0.  0.
        5    1    3    3  502    0  0.33193667864E+03 -0.21208094158E+03  0.97460185599E+02  0.40580889860E+03  0.46999998093E+01 0.  1.
       -5    1    3    3    0  502 -0.33193667864E+03  0.21208094158E+03  0.65806801255E+03  0.76696537311E+03  0.46999998093E+01 0. -1.
</event>
<event>
 5   0  0.1003252E-02  0.8941833E+03  0.7818609E-02  0.9432882E-01
        2   -1    0    0  501    0  0.00000000000E+00  0.00000000000E+00  0.11847557757E+04  0.11847557757E+04  0.25500000920E-02 0.  1.
       -2   -1    0    0    0  501  0.00000000000E+00  0.00000000000E+00 -0.16871913062E+03  0.16871913064E+03  0.25500000920E-02 0. -1.
    10030    2    1    2    0    0  0.00000000000E+00  0.00000000000E+00  0.10160366451E+04  0.13534749064E+04  0.89418334696E+03 0.  0.
        2    1    3    3  502    0 -0.32655766373E+03  0.27306184944E+03  0.30109552876E+03  0.52140310587E+03  0.25500000920E-02 0. -1.
       -2    1    3    3    0  502  0.32655766373E+03 -0.27306184944E+03  0.71494111634E+03  0.83207180051E+03  0.25500000920E-02 0.  1.
</event>
<event>
 5   0  0.1028978E-02  0.8456670E+03  0.7818609E-02  0.9496171E-01
        2   -1    0    0  501    0  0.00000000000E+00  0.00000000000E+00  0.87066470373E+03  0.87066470374E+03  0.25500000920E-02 0.  1.
       -2   -1    0    0    0  501  0.00000000000E+00  0.00000000000E+00 -0.20534673436E+03  0.20534673438E+03  0.25500000920E-02 0. -1.
    10030    2    1    2    0    0  0.00000000000E+00  0.00000000000E+00  0.66531796937E+03  0.10760114381E+04  0.84566696434E+03 0.  0.
        3    1    3    3  502    0 -0.46436257794E+02 -0.40683444100E+03  0.19849925753E+03  0.45505225399E+03  0.10100000352E+00 0. -1.
       -3    1    3    3    0  502  0.46436257794E+02  0.40683444100E+03  0.46681871185E+03  0.62095918413E+03  0.10100000352E+00 0.  1.
</event>
<event>
 5   0  0.1003252E-02  0.8912231E+03  0.7818609E-02  0.9436620E-01
        2   -1    0    0  501    0  0.00000000000E+00  0.00000000000E+00  0.88657392338E+03  0.88657392339E+03  0.25500000920E-02 0.  1.
       -2   -1    0    0    0  501  0.00000000000E+00  0.00000000000E+00 -0.22397414713E+03  0.22397414714E+03  0.25500000920E-02 0. -1.
    10030    2    1    2    0    0  0.00000000000E+00  0.00000000000E+00  0.66259977626E+03  0.11105480705E+04  0.89122306605E+03 0.  0.
        2    1    3    3  502    0 -0.12504164628E+02  0.32617626809E+03 -0.46705114893E+02  0.32974032171E+03  0.25500000920E-02 0.  1.
       -2    1    3    3    0  502  0.12504164628E+02 -0.32617626809E+03  0.70930489115E+03  0.78080774882E+03  0.25500000920E-02 0. -1.
</event>
<event>
 5   0  0.1028978E-02  0.9127093E+03  0.7818609E-02  0.9409832E-01
        2   -1    0    0  501    0  0.00000000000E+00  0.00000000000E+00  0.26556388854E+03  0.26556388856E+03  0.25500000920E-02 0. -1.
       -2   -1    0    0    0  501  0.00000000000E+00  0.00000000000E+00 -0.78421635336E+03  0.78421635336E+03  0.25500000920E-02 0.  1.
    10030    2    1    2    0    0  0.00000000000E+00  0.00000000000E+00 -0.51865246481E+03  0.10497802419E+04  0.91270925111E+03 0.  0.
        3    1    3    3  502    0 -0.46818782331E+02 -0.45064460873E+03 -0.19646519553E+03  0.49383311453E+03  0.10100000352E+00 0. -1.
       -3    1    3    3    0  502  0.46818782331E+02  0.45064460873E+03 -0.32218726929E+03  0.55594712739E+03  0.10100000352E+00 0.  1.
</event>
<event>
 5   0  0.1028978E-02  0.9253317E+03  0.7818609E-02  0.9394458E-01
       -2   -1    0    0    0  501  0.00000000000E+00  0.00000000000E+00  0.42107979490E+03  0.42107979491E+03  0.25500000920E-02 0.  1.
        2   -1    0    0  501    0  0.00000000000E+00  0.00000000000E+00 -0.50835895152E+03  0.50835895153E+03  0.25500000920E-02 0. -1.
    10030    2    1    2    0    0  0.00000000000E+00  0.00000000000E+00 -0.87279156619E+02  0.92943874644E+03  0.92533168766E+03 0.  0.
        3    1    3    3  502    0 -0.19310804098E+03  0.24348515283E+02 -0.46523592942E+03  0.50430947434E+03  0.10100000352E+00 0. -1.
       -3    1    3    3    0  502  0.19310804098E+03 -0.24348515283E+02  0.37795677280E+03  0.42512927210E+03  0.10100000352E+00 0.  1.
</event>
<event>
 5   0  0.1041727E-02  0.9173559E+03  0.7818609E-02  0.9404142E-01
       -2   -1    0    0    0  501  0.00000000000E+00  0.00000000000E+00  0.22236373215E+03  0.22236373217E+03  0.25500000920E-02 0. -1.
        2   -1    0    0  501    0  0.00000000000E+00  0.00000000000E+00 -0.94613203337E+03  0.94613203337E+03  0.25500000920E-02 0.  1.
    10030    2    1    2    0    0  0.00000000000E+00  0.00000000000E+00 -0.72376830122E+03  0.11684957655E+04  0.91735587437E+03 0.  0.
        4    1    3    3  502    0 -0.31336560233E+03  0.18029510695E+03 -0.23313911259E+01  0.36154028074E+03  0.12699999809E+01 0. -1.
       -4    1    3    3    0  502  0.31336560233E+03 -0.18029510695E+03 -0.72143691009E+03  0.80695548480E+03  0.12699999809E+01 0.  1.
</event>
<event>
 5   0  0.6015709E-03  0.9033499E+03  0.7818609E-02  0.9421404E-01
       -1   -1    0    0    0  501  0.00000000000E+00  0.00000000000E+00  0.26322671684E+03  0.26322671689E+03  0.50400001928E-02 0. -1.
        1   -1    0    0  501    0  0.00000000000E+00  0.00000000000E+00 -0.77503635425E+03  0.77503635427E+03  0.50400001928E-02 0.  1.
    10030    2    1    2    0    0  0.00000000000E+00  0.00000000000E+00 -0.51180963741E+03  0.10382630712E+04  0.90334993218E+03 0.  0.
        3    1    3    3  502    0  0.41235686639E+03 -0.18338574436E+03 -0.27715215878E+03  0.52960536800E+03  0.10100000352E+00 0.  1.
       -3    1    3    3    0  502 -0.41235686639E+03  0.18338574436E+03 -0.23465747863E+03  0.50865770315E+03  0.10100000352E+00 0. -1.
</event>
<event>
 5   0  0.6092779E-03  0.8467940E+03  0.7818609E-02  0.9494650E-01
       -1   -1    0    0    0  501  0.00000000000E+00  0.00000000000E+00  0.44159050437E+03  0.44159050440E+03  0.50400001928E-02 0. -1.
        1   -1    0    0  501    0  0.00000000000E+00  0.00000000000E+00 -0.40595303694E+03  0.40595303697E+03  0.50400001928E-02 0.  1.
    10030    2    1    2    0    0  0.00000000000E+00  0.00000000000E+00  0.35637467435E+02  0.84754354137E+03  0.84679396871E+03 0.  0.
        2    1    3    3  502    0 -0.18072335975E+03  0.37705404395E+03 -0.48830913219E+02  0.42096928975E+03  0.25500000920E-02 0. -1.
       -2    1    3    3    0  502  0.18072335975E+03 -0.37705404395E+03  0.84468380653E+02  0.42657425163E+03  0.25500000920E-02 0.  1.
</event>
<event>
 5   0  0.6092779E-03  0.9054138E+03  0.7818609E-02  0.9418839E-01
       -1   -1    0    0    0  501  0.00000000000E+00  0.00000000000E+00  0.10599682533E+03  0.10599682545E+03  0.50400001928E-02 0. -1.
        1   -1    0    0  501    0  0.00000000000E+00  0.00000000000E+00 -0.19334874626E+04  0.19334874626E+04  0.50400001928E-02 0.  1.
    10030    2    1    2    0    0  0.00000000000E+00  0.00000000000E+00 -0.18274906373E+04  0.20394842881E+04  0.90541379043E+03 0.  0.
        2    1    3    3  502    0  0.34126213705E+03  0.18951455975E+03 -0.39728893597E+03  0.55696868241E+03  0.25500000920E-02 0. -1.
       -2    1    3    3    0  502 -0.34126213705E+03 -0.18951455975E+03 -0.14302017013E+04  0.14825156057E+04  0.25500000920E-02 0.  1.
</event>
<event>
 5   0  0.6015709E-03  0.9029626E+03  0.7818609E-02  0.9421886E-01
       -1   -1    0    0    0  501  0.00000000000E+00  0.00000000000E+00  0.18026620365E+03  0.18026620372E+03  0.50400001928E-02 0.  1.
        1   -1    0    0  501    0  0.00000000000E+00  0.00000000000E+00 -0.11307464685E+04  0.11307464685E+04  0.50400001928E-02 0. -1.
    10030    2    1    2    0    0  0.00000000000E+00  0.00000000000E+00 -0.95048026481E+03  0.13110126722E+04  0.90296261985E+03 0.  0.
        3    1    3    3  502    0  0.16803777554E+03 -0.40789411886E+03 -0.33581936586E+03  0.55442669749E+03  0.10100000352E+00 0.  1.
       -3    1    3    3    0  502 -0.16803777554E+03  0.40789411886E+03 -0.61466089895E+03  0.75658597470E+03  0.10100000352E+00 0. -1.
</event>
<event>
 5   0  0.1017079E-02  0.8926425E+03  0.7818609E-02  0.9434826E-01
        2   -1    0    0  501    0  0.00000000000E+00  0.00000000000E+00  0.30562203908E+03  0.30562203909E+03  0.25500000920E-02 0.  1.
       -2   -1    0    0    0  501  0.00000000000E+00  0.00000000000E+00 -0.65179413216E+03  0.65179413217E+03  0.25500000920E-02 0. -1.
    10030    2    1    2    0    0  0.00000000000E+00  0.00000000000E+00 -0.34617209308E+03  0.95741617126E+03  0.89264248552E+03 0.  0.
        1    1    3    3  502    0  0.11587811466E+03  0.26347060638E+03  0.19277958619E+03  0.34642238201E+03  0.50400001928E-02 0.  1.
       -1    1    3    3    0  502 -0.11587811466E+03 -0.26347060638E+03 -0.53895167927E+03  0.61099378925E+03  0.50400001928E-02 0. -1.
</event>
<event>
 5   0  0.6015709E-03  0.9195706E+03  0.7818609E-02  0.9401442E-01
       -1   -1    0    0    0  501  0.00000000000E+00  0.00000000000E+00  0.12403944658E+04  0.12403944658E+04  0.50400001928E-02 0.  1.
        1   -1    0    0  501    0  0.00000000000E+00  0.00000000000E+00 -0.17043170377E+03  0.17043170384E+03  0.50400001928E-02 0. -1.
    10030    2    1    2    0    0  0.00000000000E+00  0.00000000000E+00  0.10699627620E+04  0.14108261696E+04  0.91957064375E+03 0.  0.
        3    1    3    3  502    0  0.58585222405E+02 -0.22750941049E+03 -0.71395322172E+02  0.24554034775E+03  0.10100000352E+00 0. -1.
       -3    1    3    3    0  502 -0.58585222405E+02  0.22750941049E+03  0.11413580842E+04  0.11652858219E+04  0.10100000352E+00 0.  1.
</event>
<event>
 5   0  0.1028978E-02  0.8986220E+03  0.7818609E-02  0.9427306E-01
        2   -1    0    0  501    0  0.00000000000E+00  0.00000000000E+00  0.13191352198E+04  0.13191352198E+04  0.25500000920E-02 0.  1.
       -2   -1    0    0    0  501  0.00000000000E+00  0.00000000000E+00 -0.15303993926E+03  0.15303993928E+03  0.25500000920E-02 0. -1.
    10030    2    1    2    0    0  0.00000000000E+00  0.00000000000E+00  0.11660952805E+04  0.14721751591E+04  0.89862199824E+03 0.  0.
        3    1    3    3  502    0  0.14486548222E+03 -0.25055410666E+03  0.20008436904E+02  0.29010983447E+03  0.10100000352E+00 0. -1.
       -3    1    3    3    0  502 -0.14486548222E+03  0.25055410666E+03  0.11460868436E+04  0.11820653246E+04  0.10100000352E+00 0.  1.
</event>
<event>
 5   0  0.6288003E-03  0.7460183E+03  0.7818609E-02  0.9641618E-01
        1   -1    0    0  501    0  0.00000000000E+00  0.00000000000E+00  0.17327578413E+03  0.17327578420E+03  0.50400001928E-02 0. -1.
       -1   -1    0    0    0  501  0.00000000000E+00  0.00000000000E+00 -0.80297327859E+03  0.80297327861E+03  0.50400001928E-02 0.  1.
    10030    2    1    2    0    0  0.00000000000E+00  0.00000000000E+00 -0.62969749446E+03  0.97624906281E+03  0.74601829609E+03 0.  0.
        1    1    3    3  502    0 -0.33951772916E+03 -0.45721591777E+02 -0.50794373776E+03  0.61267413289E+03  0.50400001928E-02 0.  1.
       -1    1    3    3    0  502  0.33951772916E+03  0.45721591777E+02 -0.12175375671E+03  0.36357492992E+03  0.50400001928E-02 0. -1.
</event>
<event>
 5   0  0.1041727E-02  0.9048891E+03  0.7818609E-02  0.9419490E-01
        2   -1    0    0  501    0  0.00000000000E+00  0.00000000000E+00  0.18935075317E+04  0.18935075317E+04  0.25500000920E-02 0. -1.
       -2   -1    0    0    0  501  0.00000000000E+00  0.00000000000E+00 -0.10810945869E+03  0.10810945872E+03  0.25500000920E-02 0.  1.
    10030    2    1    2    0    0  0.00000000000E+00  0.00000000000E+00  0.17853980731E+04  0.20016169905E+04  0.90488910772E+03 0.  0.
        4    1    3    3  502    0  0.19381800971E+03 -0.32048638205E+03  0.33123580156E+03  0.49999571108E+03  0.12699999809E+01 0.  1.
       -4    1    3    3    0  502 -0.19381800971E+03  0.32048638205E+03  0.14541622715E+04  0.15016212794E+04  0.12699999809E+01 0. -1.
</event>
<event>
 5   0  0.1041727E-02  0.8987556E+03  0.7818609E-02  0.9427138E-01
        2   -1    0    0  501    0  0.00000000000E+00  0.00000000000E+00  0.72921713510E+03  0.72921713511E+03  0.25500000920E-02 0.  1.
       -2   -1    0    0    0  501  0.00000000000E+00  0.00000000000E+00 -0.27692767776E+03  0.27692767777E+03  0.25500000920E-02 0. -1.
    10030    2    1    2    0    0  0.00000000000E+00  0.00000000000E+00  0.45228945735E+03  0.10061448129E+04  0.89875560151E+03 0.  0.
        4    1    3    3  502    0  0.26605495449E+03  0.27350351732E+03 -0.39599267531E+02  0.38361325275E+03  0.12699999809E+01 0. -1.
       -4    1    3    3    0  502 -0.26605495449E+03 -0.27350351732E+03  0.49188872488E+03  0.62253156013E+03  0.12699999809E+01 0.  1.
</event>
<event>
 5   0  0.6211218E-03  0.8971064E+03  0.7818609E-02  0.9429206E-01
       -1   -1    0    0    0  501  0.00000000000E+00  0.00000000000E+00  0.22487474764E+03  0.22487474770E+03  0.50400001928E-02 0.  1.
        1   -1    0    0  501    0  0.00000000000E+00  0.00000000000E+00 -0.89472025280E+03  0.89472025281E+03  0.50400001928E-02 0. -1.
    10030    2    1    2    0    0  0.00000000000E+00  0.00000000000E+00 -0.66984550516E+03  0.11195950005E+04  0.89710643983E+03 0.  0.
        5    1    3    3  502    0 -0.39894661789E+03 -0.20349518054E+03 -0.30411925613E+03  0.54136799349E+03  0.46999998093E+01 0.  1.
       -5    1    3    3    0  502  0.39894661789E+03  0.20349518054E+03 -0.36572624903E+03  0.57822700703E+03  0.46999998093E+01 0. -1.
</event>
<event>
 5   0  0.6015709E-03  0.8855028E+03  0.7818609E-02  0.9443887E-01
       -1   -1    0    0    0  501  0.00000000000E+00  0.00000000000E+00  0.70248575007E+03  0.70248575009E+03  0.50400001928E-02 0.  1.
        1   -1    0    0  501    0  0.00000000000E+00  0.00000000000E+00 -0.27905023696E+03  0.27905023700E+03  0.50400001928E-02 0. -1.
    10030    2    1    2    0    0  0.00000000000E+00  0.00000000000E+00  0.42343551311E+03  0.98153598709E+03  0.88550282901E+03 0.  0.
        3    1    3    3  502    0 -0.22343240115E+03 -0.16226868271E+03 -0.17190161286E+03  0.32527425040E+03  0.10100000352E+00 0. -1.
       -3    1    3    3    0  502  0.22343240115E+03  0.16226868271E+03  0.59533712598E+03  0.65626173669E+03  0.10100000352E+00 0.  1.
</event>
<event>
 5   0  0.6092779E-03  0.8484578E+03  0.7818609E-02  0.9492409E-01
       -1   -1    0    0    0  501  0.00000000000E+00  0.00000000000E+00  0.31889747264E+03  0.31889747268E+03  0.50400001928E-02 0.  1.
        1   -1    0    0  501    0  0.00000000000E+00  0.00000000000E+00 -0.56435112300E+03  0.56435112302E+03  0.50400001928E-02 0. -1.
    10030    2    1    2    0    0  0.00000000000E+00  0.00000000000E+00 -0.24545365036E+03  0.88324859570E+03  0.84845776992E+03 0.  0.
        2    1    3    3  502    0  0.39393656091E+03 -0.89974261858E+02 -0.25720903107E+03  0.47899673015E+03  0.25500000920E-02 0. -1.
       -2    1    3    3    0  502 -0.39393656091E+03  0.89974261858E+02  0.11755380717E+02  0.40425186555E+03  0.25500000920E-02 0.  1.
</event>
<event>
 5   0  0.1041727E-02  0.8869447E+03  0.7818609E-02  0.9442050E-01
       -2   -1    0    0    0  501  0.00000000000E+00  0.00000000000E+00  0.19751102537E+03  0.19751102539E+03  0.25500000920E-02 0.  1.
        2   -1    0    0  501    0  0.00000000000E+00  0.00000000000E+00 -0.99573037090E+03  0.99573037090E+03  0.25500000920E-02 0. -1.
    10030    2    1    2    0    0  0.00000000000E+00  0.00000000000E+00 -0.79821934553E+03  0.11932413963E+04  0.88694470303E+03 0.  0.
        4    1    3    3  502    0  0.26431362383E+03 -0.13731720715E+03  0.42908256012E+02  0.30093261448E+03  0.12699999809E+01 0.  1.
       -4    1    3    3    0  502 -0.26431362383E+03  0.13731720715E+03 -0.84112760154E+03  0.89230878181E+03  0.12699999809E+01 0. -1.
</event>
<event>
 5   0  0.6015709E-03  0.9011406E+03  0.7818609E-02  0.9424157E-01
        1   -1    0    0  501    0  0.00000000000E+00  0.00000000000E+00  0.13140988830E+04  0.13140988830E+04  0.50400001928E-02 0. -1.
       -1   -1    0    0    0  501  0.00000000000E+00  0.00000000000E+00 -0.15448882549E+03  0.15448882557E+03  0.50400001928E-02 0.  1.
    10030    2    1    2    0    0  0.00000000000E+00  0.00000000000E+00  0.11596100575E+04  0.14685877085E+04  0.90114059518E+03 0.  0.
        3    1    3    3  502    0  0.37237410735E+03  0.12073431622E+03  0.21621659911E+03  0.44720116152E+03  0.10100000352E+00 0. -1.
       -3    1    3    3    0  502 -0.37237410735E+03 -0.12073431622E+03  0.94339345836E+03  0.10213865470E+04  0.10100000352E+00 0.  1.
</event>
<event>
 5   0  0.1003252E-02  0.8993932E+03  0.7818609E-02  0.9426340E-01
        2   -1    0    0  501    0  0.00000000000E+00  0.00000000000E+00  0.65932236220E+03  0.65932236220E+03  0.25500000920E-02 0.  1.
       -2   -1    0    0    0  501  0.00000000000E+00  0.00000000000E+00 -0.30671951752E+03  0.30671951753E+03  0.25500000920E-02 0. -1.
    10030    2    1    2    0    0  0.00000000000E+00  0.00000000000E+00  0.35260284468E+03  0.96604187973E+03  0.89939321062E+03 0.  0.
        2    1    3    3  502    0  0.14424106927E+03 -0.26345084709E+03 -0.18318693746E+03  0.35180859705E+03  0.25500000920E-02 0. -1.
       -2    1    3    3    0  502 -0.14424106927E+03  0.26345084709E+03  0.53578978214E+03  0.61423328268E+03  0.25500000920E-02 0.  1.
</event>
<event>
 5   0  0.1041727E-02  0.8925951E+03  0.7818609E-02  0.9434886E-01
       -2   -1    0    0    0  501  0.00000000000E+00  0.00000000000E+00  0.18004062149E+03  0.18004062151E+03  0.25500000920E-02 0. -1.
        2   -1    0    0  501    0  0.00000000000E+00  0.00000000000E+00 -0.11063141853E+04  0.11063141853E+04  0.25500000920E-02 0.  1.
    10030    2    1    2    0    0  0.00000000000E+00  0.00000000000E+00 -0.92627356384E+03  0.12863548068E+04  0.89259507843E+03 0.  0.
        4    1    3    3  502    0 -0.43170998358E+03  0.10044276019E+03 -0.53826461440E+03  0.69727517238E+03  0.12699999809E+01 0.  1.
       -4    1    3    3    0  502  0.43170998358E+03 -0.10044276019E+03 -0.38800894944E+03  0.58907963447E+03  0.12699999809E+01 0. -1.
</event>
<event>
 5   0  0.6211218E-03  0.8955794E+03  0.7818609E-02  0.9431124E-01
       -1   -1    0    0    0  501  0.00000000000E+00  0.00000000000E+00  0.28053426031E+03  0.28053426036E+03  0.50400001928E-02 0.  1.
        1   -1    0    0  501    0  0.00000000000E+00  0.00000000000E+00 -0.71476343699E+03  0.71476343701E+03  0.50400001928E-02 0. -1.
    10030    2    1    2    0    0  0.00000000000E+00  0.00000000000E+00 -0.43422917667E+03  0.99529769736E+03  0.89557943729E+03 0.  0.
        5    1    3    3  502    0  0.16237863527E+03 -0.13940297218E+03 -0.65421877267E+03  0.68834896844E+03  0.46999998093E+01 0. -1.
       -5    1    3    3    0  502 -0.16237863527E+03  0.13940297218E+03  0.21998959599E+03  0.30694872892E+03  0.46999998093E+01 0.  1.
</event>
<event>
 5   0  0.3996375E-03  0.9098298E+03  0.7818609E-02  0.9413376E-01
       -4   -1    0    0    0  501  0.00000000000E+00  0.00000000000E+00  0.57141596365E+03  0.57141737496E+03  0.12699999809E+01 0.  1.
        4   -1    0    0  501    0  0.00000000000E+00  0.00000000000E+00 -0.36216329192E+03  0.36216551867E+03  0.12699999809E+01 0. -1.
    10030    2    1    2    0    0  0.00000000000E+00  0.00000000000E+00  0.20925267172E+03  0.93358289364E+03  0.90982984050E+03 0.  0.
        3    1    3    3  502    0  0.34766277275E+03 -0.88028856671E+02 -0.18255370494E+03  0.40242309644E+03  0.10100000352E+00 0. -1.
       -3    1    3    3    0  502 -0.34766277275E+03  0.88028856671E+02  0.39180637667E+03  0.53115979720E+03  0.10100000352E+00 0.  1.
</event>
<event>
 5   0  0.1003252E-02  0.8891439E+03  0.7818609E-02  0.9439255E-01
        2   -1    0    0  501    0  0.00000000000E+00  0.00000000000E+00  0.97137244494E+03  0.97137244494E+03  0.25500000920E-02 0. -1.
       -2   -1    0    0    0  501  0.00000000000E+00  0.00000000000E+00 -0.20346905114E+03  0.20346905115E+03  0.25500000920E-02 0.  1.
    10030    2    1    2    0    0  0.00000000000E+00  0.00000000000E+00  0.76790339381E+03  0.11748414961E+04  0.88914392464E+03 0.  0.
        2    1    3    3  502    0  0.29608774145E+03  0.15194078608E+03 -0.55351554429E+01  0.33284319290E+03  0.25500000920E-02 0.  1.
       -2    1    3    3    0  502 -0.29608774145E+03 -0.15194078608E+03  0.77343854925E+03  0.84199830319E+03  0.25500000920E-02 0. -1.
</event>
<event>
 5   0  0.1028978E-02  0.8994598E+03  0.7818609E-02  0.9426257E-01
        2   -1    0    0  501    0  0.00000000000E+00  0.00000000000E+00  0.94650163729E+03  0.94650163729E+03  0.25500000920E-02 0.  1.
       -2   -1    0    0    0  501  0.00000000000E+00  0.00000000000E+00 -0.21368898165E+03  0.21368898167E+03  0.25500000920E-02 0. -1.
    10030    2    1    2    0    0  0.00000000000E+00  0.00000000000E+00  0.73281265564E+03  0.11601906190E+04  0.89945977345E+03 0.  0.
        3    1    3    3  502    0 -0.19322016420E+03  0.40457579082E+03  0.41185238451E+03  0.60880045926E+03  0.10100000352E+00 0.  1.
       -3    1    3    3    0  502  0.19322016420E+03 -0.40457579082E+03  0.32096027113E+03  0.55139015970E+03  0.10100000352E+00 0. -1.
</event>
<event>
 5   0  0.1033749E-02  0.8957757E+03  0.7818609E-02  0.9430877E-01
        2   -1    0    0  501    0  0.00000000000E+00  0.00000000000E+00  0.24850391467E+03  0.24850391469E+03  0.25500000920E-02 0.  1.
       -2   -1    0    0    0  501  0.00000000000E+00  0.00000000000E+00 -0.80724502310E+03  0.80724502310E+03  0.25500000920E-02 0. -1.
    10030    2    1    2    0    0  0.00000000000E+00  0.00000000000E+00 -0.55874110842E+03  0.10557489378E+04  0.89577574950E+03 0.  0.
        5    1    3    3  502    0 -0.29116754633E+03 -0.28086074318E+02 -0.67907306590E+03  0.73941171646E+03  0.46999998093E+01 0. -1.
       -5    1    3    3    0  502  0.29116754633E+03  0.28086074318E+02  0.12033195748E+03  0.31633722132E+03  0.46999998093E+01 0.  1.
</event>
<event>
 5   0  0.6092779E-03  0.8802914E+03  0.7818609E-02  0.9450559E-01
        1   -1    0    0  501    0  0.00000000000E+00  0.00000000000E+00  0.91455045260E+03  0.91455045261E+03  0.50400001928E-02 0.  1.
       -1   -1    0    0    0  501  0.00000000000E+00  0.00000000000E+00 -0.21182892445E+03  0.21182892451E+03  0.50400001928E-02 0. -1.
    10030    2    1    2    0    0  0.00000000000E+00  0.00000000000E+00  0.70272152814E+03  0.11263793771E+04  0.88029140351E+03 0.  0.
        2    1    3    3  502    0 -0.18795206207E+03 -0.25186166152E+03  0.74567893861E+03  0.80919549781E+03  0.25500000920E-02 0.  1.
       -2    1    3    3    0  502  0.18795206207E+03  0.25186166152E+03 -0.42957410467E+02  0.31718387932E+03  0.25500000920E-02 0. -1.
</event>
<event>
 5   0  0.1003252E-02  0.8891754E+03  0.7818609E-02  0.9439215E-01
       -2   -1    0    0    0  501  0.00000000000E+00  0.00000000000E+00  0.54780535716E+03  0.54780535717E+03  0.25500000920E-02 0.  1.
        2   -1    0    0  501    0  0.00000000000E+00  0.00000000000E+00 -0.36081836004E+03  0.36081836005E+03  0.25500000920E-02 0. -1.
    10030    2    1    2    0    0  0.00000000000E+00  0.00000000000E+00  0.18698699712E+03  0.90862371722E+03  0.88917541711E+03 0.  0.
        2    1    3    3  502    0 -0.11404221699E+03  0.11887620208E+03  0.51546743083E+03  0.54115048825E+03  0.25500000920E-02 0.  1.
       -2    1    3    3    0  502  0.11404221699E+03 -0.11887620208E+03 -0.32848043371E+03  0.36747322897E+03  0.25500000920E-02 0. -1.
</event>
<event>
 5   0  0.6092779E-03  0.9081383E+03  0.7818609E-02  0.9415465E-01
        1   -1    0    0  501    0  0.00000000000E+00  0.00000000000E+00  0.80313372395E+03  0.80313372397E+03  0.50400001928E-02 0. -1.
       -1   -1    0    0    0  501  0.00000000000E+00  0.00000000000E+00 -0.25671790110E+03  0.25671790115E+03  0.50400001928E-02 0.  1.
    10030    2    1    2    0    0  0.00000000000E+00  0.00000000000E+00  0.54641582285E+03  0.10598516251E+04  0.90813832415E+03 0.  0.
        2    1    3    3  502    0  0.17514989468E+03 -0.21046615211E+01  0.76211662463E+03  0.78198699782E+03  0.25500000920E-02 0. -1.
       -2    1    3    3    0  502 -0.17514989468E+03  0.21046615211E+01 -0.21570080178E+03  0.27786462729E+03  0.25500000920E-02 0.  1.
</event>
<event>
 5   0  0.1033749E-02  0.8959847E+03  0.7818609E-02  0.9430615E-01
        2   -1    0    0  501    0  0.00000000000E+00  0.00000000000E+00  0.71615002731E+03  0.71615002731E+03  0.25500000920E-02 0.  1.
       -2   -1    0    0    0  501  0.00000000000E+00  0.00000000000E+00 -0.28024455770E+03  0.28024455771E+03  0.25500000920E-02 0. -1.
    10030    2    1    2    0    0  0.00000000000E+00  0.00000000000E+00  0.43590546960E+03  0.99639458502E+03  0.89598470446E+03 0.  0.
        5    1    3    3  502    0  0.28212055828E+03  0.34173507033E+03  0.14502804615E+03  0.46629399724E+03  0.46999998093E+01 0.  1.
       -5    1    3    3    0  502 -0.28212055828E+03 -0.34173507033E+03  0.29087742345E+03  0.53010058778E+03  0.46999998093E+01 0. -1.
</event>
<event>
 5   0  0.6137243E-03  0.9002460E+03  0.7818609E-02  0.9425274E-01
       -1   -1    0    0    0  501  0.00000000000E+00  0.00000000000E+00  0.39563254660E+03  0.39563254663E+03  0.50400001928E-02 0.  1.
        1   -1    0    0  501    0  0.00000000000E+00  0.00000000000E+00 -0.51211839047E+03  0.51211839049E+03  0.50400001928E-02 0. -1.
    10030    2    1    2    0    0  0.00000000000E+00  0.00000000000E+00 -0.11648584387E+03  0.90775093712E+03  0.90024597307E+03 0.  0.
        4    1    3    3  502    0  0.15406173696E+03  0.17981372633E+03 -0.44424108237E+03  0.50340813177E+03  0.12699999809E+01 0. -1.
       -4    1    3    3    0  502 -0.15406173696E+03 -0.17981372633E+03  0.32775523850E+03  0.40434280535E+03  0.12699999809E+01 0.  1.
</event>
<event>
 5   0  0.6092779E-03  0.8992033E+03  0.7818609E-02  0.9426578E-01
        1   -1    0    0  501    0  0.00000000000E+00  0.00000000000E+00  0.17295713637E+04  0.17295713637E+04  0.50400001928E-02 0.  1.
       -1   -1    0    0    0  501  0.00000000000E+00  0.00000000000E+00 -0.11687382943E+03  0.11687382954E+03  0.50400001928E-02 0. -1.
    10030    2    1    2    0    0  0.00000000000E+00  0.00000000000E+00  0.16126975342E+04  0.18464451932E+04  0.89920326657E+03 0.  0.
        2    1    3    3  502    0  0.33072246879E+03  0.14184629729E+03  0.25289909182E+03  0.43983596268E+03  0.25500000920E-02 0. -1.
       -2    1    3    3    0  502 -0.33072246879E+03 -0.14184629729E+03  0.13597984424E+04  0.14066092305E+04  0.25500000920E-02 0.  1.
</event>
<event>
 5   0  0.6288003E-03  0.8986597E+03  0.7818609E-02  0.9427258E-01
        1   -1    0    0  501    0  0.00000000000E+00  0.00000000000E+00  0.76494056639E+03  0.76494056641E+03  0.50400001928E-02 0. -1.
       -1   -1    0    0    0  501  0.00000000000E+00  0.00000000000E+00 -0.26393854336E+03  0.26393854341E+03  0.50400001928E-02 0.  1.
    10030    2    1    2    0    0  0.00000000000E+00  0.00000000000E+00  0.50100202303E+03  0.10288791098E+04  0.89865966613E+03 0.  0.
        1    1    3    3  502    0 -0.12747273390E+03  0.32259584683E+03  0.57751078933E+03  0.67367357829E+03  0.50400001928E-02 0. -1.
       -1    1    3    3    0  502  0.12747273390E+03 -0.32259584683E+03 -0.76508766295E+02  0.35520553152E+03  0.50400001928E-02 0.  1.
</event>
<event>
 5   0  0.1033749E-02  0.8963747E+03  0.7818609E-02  0.9430125E-01
       -2   -1    0    0    0  501  0.00000000000E+00  0.00000000000E+00  0.18751808307E+03  0.18751808309E+03  0.25500000920E-02 0.  1.
        2   -1    0    0  501    0  0.00000000000E+00  0.00000000000E+00 -0.10712134509E+04  0.10712134509E+04  0.25500000920E-02 0. -1.
    10030    2    1    2    0    0  0.00000000000E+00  0.00000000000E+00 -0.88369536779E+03  0.12587315339E+04  0.89637468254E+03 0.  0.
        5    1    3    3  502    0  0.58034640953E+02  0.40185402648E+03 -0.70826679322E+03  0.81640591529E+03  0.46999998093E+01 0.  1.
       -5    1    3    3    0  502 -0.58034640953E+02 -0.40185402648E+03 -0.17542857457E+03  0.44232561866E+03  0.46999998093E+01 0. -1.
</event>
<event>
 5   0  0.6211218E-03  0.9054965E+03  0.7818609E-02  0.9418737E-01
        1   -1    0    0  501    0  0.00000000000E+00  0.00000000000E+00  0.61639995607E+03  0.61639995609E+03  0.50400001928E-02 0. -1.
       -1   -1    0    0    0  501  0.00000000000E+00  0.00000000000E+00 -0.33254538254E+03  0.33254538258E+03  0.50400001928E-02 0.  1.
    10030    2    1    2    0    0  0.00000000000E+00  0.00000000000E+00  0.28385457353E+03  0.94894533867E+03  0.90549645878E+03 0.  0.
        5    1    3    3  502    0  0.14186919812E+03  0.34904598931E+03 -0.12111217922E+03  0.39579062897E+03  0.46999998093E+01 0.  1.
       -5    1    3    3    0  502 -0.14186919812E+03 -0.34904598931E+03  0.40496675275E+03  0.55315470970E+03  0.46999998093E+01 0. -1.
</event>
<event>
 5   0  0.6015709E-03  0.8012655E+03  0.7818609E-02  0.9558187E-01
        1   -1    0    0  501    0  0.00000000000E+00  0.00000000000E+00  0.33100726231E+03  0.33100726235E+03  0.50400001928E-02 0.  1.
       -1   -1    0    0    0  501  0.00000000000E+00  0.00000000000E+00 -0.48490355858E+03  0.48490355861E+03  0.50400001928E-02 0. -1.
    10030    2    1    2    0    0  0.00000000000E+00  0.00000000000E+00 -0.15389629627E+03  0.81591082096E+03  0.80126549767E+03 0.  0.
        3    1    3    3  502    0 -0.34756574782E+03 -0.36814567722E+02 -0.27635731926E+03  0.44556777214E+03  0.10100000352E+00 0. -1.
       -3    1    3    3    0  502  0.34756574782E+03  0.36814567722E+02  0.12246102300E+03  0.37034304882E+03  0.10100000352E+00 0.  1.
</event>
<event>
 5   0  0.1017079E-02  0.9126274E+03  0.7818609E-02  0.9409933E-01
        2   -1    0    0  501    0  0.00000000000E+00  0.00000000000E+00  0.90120931400E+03  0.90120931400E+03  0.25500000920E-02 0.  1.
       -2   -1    0    0    0  501  0.00000000000E+00  0.00000000000E+00 -0.23104754081E+03  0.23104754082E+03  0.25500000920E-02 0. -1.
    10030    2    1    2    0    0  0.00000000000E+00  0.00000000000E+00  0.67016177319E+03  0.11322568548E+04  0.91262740647E+03 0.  0.
        1    1    3    3  502    0  0.24574310660E+03  0.37062438536E+03  0.20813267643E+03  0.49099014296E+03  0.50400001928E-02 0. -1.
       -1    1    3    3    0  502 -0.24574310660E+03 -0.37062438536E+03  0.46202909676E+03  0.64126671186E+03  0.50400001928E-02 0.  1.
</event>
<event>
 5   0  0.6288003E-03  0.9085120E+03  0.7818609E-02  0.9415003E-01
        1   -1    0    0  501    0  0.00000000000E+00  0.00000000000E+00  0.43909273634E+03  0.43909273637E+03  0.50400001928E-02 0. -1.
       -1   -1    0    0    0  501  0.00000000000E+00  0.00000000000E+00 -0.46994285846E+03  0.46994285849E+03  0.50400001928E-02 0.  1.
    10030    2    1    2    0    0  0.00000000000E+00  0.00000000000E+00 -0.30850122127E+02  0.90903559486E+03  0.90851196067E+03 0.  0.
        1    1    3    3  502    0 -0.14025368182E+03  0.27406790801E+03 -0.34962982246E+03  0.46585977101E+03  0.50400001928E-02 0.  1.
       -1    1    3    3    0  502  0.14025368182E+03 -0.27406790801E+03  0.31877970034E+03  0.44317582384E+03  0.50400001928E-02 0. -1.
</event>
<event>
 5   0  0.1028978E-02  0.9031591E+03  0.7818609E-02  0.9421641E-01
       -2   -1    0    0    0  501  0.00000000000E+00  0.00000000000E+00  0.86955992882E+02  0.86955992919E+02  0.25500000920E-02 0.  1.
        2   -1    0    0  501    0  0.00000000000E+00  0.00000000000E+00 -0.23451412089E+04  0.23451412089E+04  0.25500000920E-02 0. -1.
    10030    2    1    2    0    0  0.00000000000E+00  0.00000000000E+00 -0.22581852161E+04  0.24320972019E+04  0.90315908304E+03 0.  0.
        3    1    3    3  502    0 -0.17052601618E+03  0.30685912970E+03 -0.18939952202E+04  0.19262553185E+04  0.10100000352E+00 0. -1.
       -3    1    3    3    0  502  0.17052601618E+03 -0.30685912970E+03 -0.36418999582E+03  0.50584188333E+03  0.10100000352E+00 0.  1.
</event>
<event>
 5   0  0.6288003E-03  0.9116867E+03  0.7818609E-02  0.9411089E-01
        1   -1    0    0  501    0  0.00000000000E+00  0.00000000000E+00  0.55728814662E+03  0.55728814664E+03  0.50400001928E-02 0. -1.
       -1   -1    0    0    0  501  0.00000000000E+00  0.00000000000E+00 -0.37286483423E+03  0.37286483427E+03  0.50400001928E-02 0.  1.
    10030    2    1    2    0    0  0.00000000000E+00  0.00000000000E+00  0.18442331238E+03  0.93015298091E+03  0.91168668398E+03 0.  0.
        1    1    3    3  502    0  0.29587056246E+03 -0.39058927378E+01 -0.26156612804E+03  0.39493225380E+03  0.50400001928E-02 0.  1.
       -1    1    3    3    0  502 -0.29587056246E+03  0.39058927378E+01  0.44598944043E+03  0.53522072711E+03  0.50400001928E-02 0. -1.
</event>
<event>
 5   0  0.6137243E-03  0.8914079E+03  0.7818609E-02  0.9436386E-01
        1   -1    0    0  501    0  0.00000000000E+00  0.00000000000E+00  0.14891014302E+04  0.14891014302E+04  0.50400001928E-02 0.  1.
       -1   -1    0    0    0  501  0.00000000000E+00  0.00000000000E+00 -0.13340396325E+03  0.13340396335E+03  0.50400001928E-02 0. -1.
    10030    2    1    2    0    0  0.00000000000E+00  0.00000000000E+00  0.13556974670E+04  0.16225053936E+04  0.89140794826E+03 0.  0.
        4    1    3    3  502    0 -0.22264476143E+03 -0.37384226966E+03  0.85358318555E+03  0.95808903549E+03  0.12699999809E+01 0. -1.
       -4    1    3    3    0  502  0.22264476143E+03  0.37384226966E+03  0.50211428142E+03  0.66441635808E+03  0.12699999809E+01 0.  1.
</event>
<event>
 5   0  0.1017079E-02  0.8944454E+03  0.7818609E-02  0.9432552E-01
        2   -1    0    0  501    0  0.00000000000E+00  0.00000000000E+00  0.47607522489E+03  0.47607522489E+03  0.25500000920E-02 0.  1.
       -2   -1    0    0    0  501  0.00000000000E+00  0.00000000000E+00 -0.42011873918E+03  0.42011873919E+03  0.25500000920E-02 0. -1.
    10030    2    1    2    0    0  0.00000000000E+00  0.00000000000E+00  0.55956485710E+02  0.89619396408E+03  0.89444535493E+03 0.  0.
        1    1    3    3  502    0  0.13166880128E+03  0.27516783637E+03  0.35565598640E+03  0.46855649829E+03  0.50400001928E-02 0.  1.
       -1    1    3    3    0  502 -0.13166880128E+03 -0.27516783637E+03 -0.29969950069E+03  0.42763746579E+03  0.50400001928E-02 0. -1.
</event>
<event>
 5   0  0.6288003E-03  0.8963831E+03  0.7818609E-02  0.9430114E-01
        1   -1    0    0  501    0  0.00000000000E+00  0.00000000000E+00  0.81139448893E+03  0.81139448895E+03  0.50400001928E-02 0. -1.
       -1   -1    0    0    0  501  0.00000000000E+00  0.00000000000E+00 -0.24756845519E+03  0.24756845524E+03  0.50400001928E-02 0.  1.
    10030    2    1    2    0    0  0.00000000000E+00  0.00000000000E+00  0.56382603374E+03  0.10589629442E+04  0.89638313284E+03 0.  0.
        1    1    3    3  502    0 -0.40155997407E+03  0.19872294915E+03  0.26821434039E+03  0.52218785481E+03  0.50400001928E-02 0.  1.
       -1    1    3    3    0  502  0.40155997407E+03 -0.19872294915E+03  0.29561169335E+03  0.53677508937E+03  0.50400001928E-02 0. -1.
</event>
<event>
 5   0  0.6288003E-03  0.8893817E+03  0.7818609E-02  0.9438953E-01
        1   -1    0    0  501    0  0.00000000000E+00  0.00000000000E+00  0.44061444240E+03  0.44061444243E+03  0.50400001928E-02 0.  1.
       -1   -1    0    0    0  501  0.00000000000E+00  0.00000000000E+00 -0.44880493900E+03  0.44880493903E+03  0.50400001928E-02 0. -1.
    10030    2    1    2    0    0  0.00000000000E+00  0.00000000000E+00 -0.81904966019E+01  0.88941938146E+03  0.88938166829E+03 0.  0.
        1    1    3    3  502    0  0.87307902821E+02 -0.34296523118E+03  0.26517834326E+03  0.44223000063E+03  0.50400001928E-02 0.  1.
       -1    1    3    3    0  502 -0.87307902821E+02  0.34296523118E+03 -0.27336883987E+03  0.44718938083E+03  0.50400001928E-02 0. -1.
</event>
<event>
 5   0  0.1028978E-02  0.9010900E+03  0.7818609E-02  0.9424220E-01
        2   -1    0    0  501    0  0.00000000000E+00  0.00000000000E+00  0.20929068952E+04  0.20929068952E+04  0.25500000920E-02 0.  1.
       -2   -1    0    0    0  501  0.00000000000E+00  0.00000000000E+00 -0.96989874324E+02  0.96989874358E+02  0.25500000920E-02 0. -1.
    10030    2    1    2    0    0  0.00000000000E+00  0.00000000000E+00  0.19959170208E+04  0.21898967695E+04  0.90108995505E+03 0.  0.
        3    1    3    3  502    0  0.23724021071E+03 -0.24785314805E+03  0.28826538088E+03  0.44811944902E+03  0.10100000352E+00 0. -1.
       -3    1    3    3    0  502 -0.23724021071E+03  0.24785314805E+03  0.17076516400E+04  0.17417773205E+04  0.10100000352E+00 0.  1.
</event>
<event>
 5   0  0.1033749E-02  0.8974112E+03  0.7818609E-02  0.9428823E-01
        2   -1    0    0  501    0  0.00000000000E+00  0.00000000000E+00  0.85131019783E+03  0.85131019783E+03  0.25500000920E-02 0.  1.
       -2   -1    0    0    0  501  0.00000000000E+00  0.00000000000E+00 -0.23650219305E+03  0.23650219307E+03  0.25500000920E-02 0. -1.
    10030    2    1    2    0    0  0.00000000000E+00  0.00000000000E+00  0.61480800478E+03  0.10878123909E+04  0.89741122962E+03 0.  0.
        5    1    3    3  502    0  0.27501603181E+03 -0.65419555213E+02 -0.11494728045E+03  0.30520239717E+03  0.46999998093E+01 0. -1.
       -5    1    3    3    0  502 -0.27501603181E+03  0.65419555213E+02  0.72975528523E+03  0.78260999372E+03  0.46999998093E+01 0.  1.
</event>
<event>
 5   0  0.1003252E-02  0.9073405E+03  0.7818609E-02  0.9416452E-01
       -2   -1    0    0    0  501  0.00000000000E+00  0.00000000000E+00  0.92598173626E+02  0.92598173661E+02  0.25500000920E-02 0. -1.
        2   -1    0    0  501    0  0.00000000000E+00  0.00000000000E+00 -0.22226864654E+04  0.22226864654E+04  0.25500000920E-02 0.  1.
    10030    2    1    2    0    0  0.00000000000E+00  0.00000000000E+00 -0.21300882918E+04  0.23152846391E+04  0.90734052546E+03 0.  0.
        2    1    3    3  502    0  0.12152207706E+03  0.43618434882E+03 -0.11368699554E+04  0.12237228840E+04  0.25500000920E-02 0.  1.
       -2    1    3    3    0  502 -0.12152207706E+03 -0.43618434882E+03 -0.99321833645E+03  0.10915617551E+04  0.25500000920E-02 0. -1.
</event>
<event>
 5   0  0.1003252E-02  0.9062191E+03  0.7818609E-02  0.9417840E-01
        2   -1    0    0  501    0  0.00000000000E+00  0.00000000000E+00  0.43534375958E+03  0.43534375958E+03  0.25500000920E-02 0. -1.
       -2   -1    0    0    0  501  0.00000000000E+00  0.00000000000E+00 -0.47160033376E+03  0.47160033377E+03  0.25500000920E-02 0.  1.
    10030    2    1    2    0    0  0.00000000000E+00  0.00000000000E+00 -0.36256574187E+02  0.90694409336E+03  0.90621909564E+03 0.  0.
        2    1    3    3  502    0 -0.33956333851E+03  0.29723153559E+02  0.28064284858E+03  0.44152818164E+03  0.25500000920E-02 0. -1.
       -2    1    3    3    0  502  0.33956333851E+03 -0.29723153559E+02 -0.31689942277E+03  0.46541591171E+03  0.25500000920E-02 0.  1.
</event>
<event>
 5   0  0.1028978E-02  0.9083937E+03  0.7818609E-02  0.9415149E-01
       -2   -1    0    0    0  501  0.00000000000E+00  0.00000000000E+00  0.13790168676E+03  0.13790168678E+03  0.25500000920E-02 0. -1.
        2   -1    0    0  501    0  0.00000000000E+00  0.00000000000E+00 -0.14959553025E+04  0.14959553025E+04  0.25500000920E-02 0.  1.
    10030    2    1    2    0    0  0.00000000000E+00  0.00000000000E+00 -0.13580536157E+04  0.16338569893E+04  0.90839365818E+03 0.  0.
        3    1    3    3  502    0 -0.38422475670E+03  0.31950753310E+02 -0.24718801435E+03  0.45798628684E+03  0.10100000352E+00 0. -1.
       -3    1    3    3    0  502  0.38422475670E+03 -0.31950753310E+02 -0.11108656014E+04  0.11758707024E+04  0.10100000352E+00 0.  1.
</event>
<event>
 5   0  0.6092779E-03  0.8994234E+03  0.7818609E-02  0.9426302E-01
       -1   -1    0    0    0  501  0.00000000000E+00  0.00000000000E+00  0.20871215306E+03  0.20871215312E+03  0.50400001928E-02 0. -1.
        1   -1    0    0  501    0  0.00000000000E+00  0.00000000000E+00 -0.96899304044E+03  0.96899304045E+03  0.50400001928E-02 0.  1.
    10030    2    1    2    0    0  0.00000000000E+00  0.00000000000E+00 -0.76028088738E+03  0.11777051936E+04  0.89942342379E+03 0.  0.
        2    1    3    3  502    0  0.69775937529E-01 -0.17024366374E+03 -0.92516828337E+03  0.94070147362E+03  0.25500000920E-02 0.  1.
       -2    1    3    3    0  502 -0.69775937529E-01  0.17024366374E+03  0.16488739599E+03  0.23700371996E+03  0.25500000920E-02 0. -1.
</event>
<event>
 5   0  0.1017079E-02  0.8897640E+03  0.7818609E-02  0.9438468E-01
        2   -1    0    0  501    0  0.00000000000E+00  0.00000000000E+00  0.19559356499E+04  0.19559356499E+04  0.25500000920E-02 0. -1.
       -2   -1    0    0    0  501  0.00000000000E+00  0.00000000000E+00 -0.10118942566E+03  0.10118942569E+03  0.25500000920E-02 0.  1.
    10030    2    1    2    0    0  0.00000000000E+00  0.00000000000E+00  0.18547462242E+04  0.20571250756E+04  0.88976402505E+03 0.  0.
        1    1    3    3  502    0  0.76858381095E+02  0.42501784140E+03  0.11739295163E+04  0.12508628564E+04  0.50400001928E-02 0. -1.
       -1    1    3    3    0  502 -0.76858381095E+02 -0.42501784140E+03  0.68081670796E+03  0.80626221921E+03  0.50400001928E-02 0.  1.
</event>
<event>
 5   0  0.6015709E-03  0.9025101E+03  0.7818609E-02  0.9422449E-01
       -1   -1    0    0    0  501  0.00000000000E+00  0.00000000000E+00  0.11493104757E+04  0.11493104758E+04  0.50400001928E-02 0.  1.
        1   -1    0    0  501    0  0.00000000000E+00  0.00000000000E+00 -0.17717677145E+03  0.17717677152E+03  0.50400001928E-02 0. -1.
    10030    2    1    2    0    0  0.00000000000E+00  0.00000000000E+00  0.97213370430E+03  0.13264872473E+04  0.90251009864E+03 0.  0.
        3    1    3    3  502    0 -0.18129007365E+02  0.12409851662E+03  0.11231802206E+04  0.11301605730E+04  0.10100000352E+00 0.  1.
       -3    1    3    3    0  502  0.18129007365E+02 -0.12409851662E+03 -0.15104651628E+03  0.19632667424E+03  0.10100000352E+00 0. -1.
</event>
<event>
 5   0  0.6015709E-03  0.9077803E+03  0.7818609E-02  0.9415908E-01
       -1   -1    0    0    0  501  0.00000000000E+00  0.00000000000E+00  0.15716049956E+03  0.15716049964E+03  0.50400001928E-02 0.  1.
        1   -1    0    0  501    0  0.00000000000E+00  0.00000000000E+00 -0.13108653598E+04  0.13108653599E+04  0.50400001928E-02 0. -1.
    10030    2    1    2    0    0  0.00000000000E+00  0.00000000000E+00 -0.11537048603E+04  0.14680258595E+04  0.90778027051E+03 0.  0.
        3    1    3    3  502    0  0.21170408569E+02  0.14277424952E+03  0.11905936069E+03  0.18710375222E+03  0.10100000352E+00 0.  1.
       -3    1    3    3    0  502 -0.21170408569E+02 -0.14277424952E+03 -0.12727642210E+04  0.12809221073E+04  0.10100000352E+00 0. -1.
</event>
<event>
 5   0  0.6137243E-03  0.9008138E+03  0.7818609E-02  0.9424565E-01
        1   -1    0    0  501    0  0.00000000000E+00  0.00000000000E+00  0.33111692801E+03  0.33111692805E+03  0.50400001928E-02 0. -1.
       -1   -1    0    0    0  501  0.00000000000E+00  0.00000000000E+00 -0.61267289205E+03  0.61267289207E+03  0.50400001928E-02 0.  1.
    10030    2    1    2    0    0  0.00000000000E+00  0.00000000000E+00 -0.28155596404E+03  0.94378982012E+03  0.90081377857E+03 0.  0.
        4    1    3    3  502    0  0.13081272479E+03 -0.42774982588E+03 -0.85508325279E+02  0.45540659756E+03  0.12699999809E+01 0. -1.
       -4    1    3    3    0  502 -0.13081272479E+03  0.42774982588E+03 -0.19604763876E+03  0.48838322256E+03  0.12699999809E+01 0.  1.
</event>
<event>
 5   0  0.1041727E-02  0.9001365E+03  0.7818609E-02  0.9425411E-01
        2   -1    0    0  501    0  0.00000000000E+00  0.00000000000E+00  0.15685192177E+04  0.15685192177E+04  0.25500000920E-02 0. -1.
       -2   -1    0    0    0  501  0.00000000000E+00  0.00000000000E+00 -0.12914181266E+03  0.12914181268E+03  0.25500000920E-02 0.  1.
    10030    2    1    2    0    0  0.00000000000E+00  0.00000000000E+00  0.14393774050E+04  0.16976610304E+04  0.90013646740E+03 0.  0.
        4    1    3    3  502    0 -0.10841860952E+02  0.14552102046E+03  0.15226611901E+04  0.15296380703E+04  0.12699999809E+01 0. -1.
       -4    1    3    3    0  502  0.10841860952E+02 -0.14552102046E+03 -0.83283785100E+02  0.16802296005E+03  0.12699999809E+01 0.  1.
</event>
<event>
 5   0  0.6015709E-03  0.8831921E+03  0.7818609E-02  0.9446839E-01
       -1   -1    0    0    0  501  0.00000000000E+00  0.00000000000E+00  0.31108483900E+03  0.31108483904E+03  0.50400001928E-02 0.  1.
        1   -1    0    0  501    0  0.00000000000E+00  0.00000000000E+00 -0.62686138944E+03  0.62686138946E+03  0.50400001928E-02 0. -1.
    10030    2    1    2    0    0  0.00000000000E+00  0.00000000000E+00 -0.31577655043E+03  0.93794622850E+03  0.88319210694E+03 0.  0.
        3    1    3    3  502    0  0.10678516061E+03  0.40334800390E+03 -0.31147202783E+03  0.52067986047E+03  0.10100000352E+00 0. -1.
       -3    1    3    3    0  502 -0.10678516061E+03 -0.40334800390E+03 -0.43045226042E+01  0.41726636803E+03  0.10100000352E+00 0.  1.
</event>
<event>
 5   0  0.1033749E-02  0.9101843E+03  0.7818609E-02  0.9412939E-01
        2   -1    0    0  501    0  0.00000000000E+00  0.00000000000E+00  0.29347246142E+04  0.29347246142E+04  0.25500000920E-02 0.  1.
       -2   -1    0    0    0  501  0.00000000000E+00  0.00000000000E+00 -0.70571828345E+02  0.70571828391E+02  0.25500000920E-02 0. -1.
    10030    2    1    2    0    0  0.00000000000E+00  0.00000000000E+00  0.28641527858E+04  0.30052964426E+04  0.91018433690E+03 0.  0.
        5    1    3    3  502    0 -0.16667644023E+02 -0.33897450507E+03  0.43109003500E+03  0.54867315746E+03  0.46999998093E+01 0. -1.
       -5    1    3    3    0  502  0.16667644023E+02  0.33897450507E+03  0.24330627508E+04  0.24566232851E+04  0.46999998093E+01 0.  1.
</event>
<event>
 5   0  0.6015709E-03  0.9015677E+03  0.7818609E-02  0.9423624E-01
        1   -1    0    0  501    0  0.00000000000E+00  0.00000000000E+00  0.58204403659E+03  0.58204403662E+03  0.50400001928E-02 0.  1.
       -1   -1    0    0    0  501  0.00000000000E+00  0.00000000000E+00 -0.34912490954E+03  0.34912490958E+03  0.50400001928E-02 0. -1.
    10030    2    1    2    0    0  0.00000000000E+00  0.00000000000E+00  0.23291912705E+03  0.93116894619E+03  0.90156768277E+03 0.  0.
        3    1    3    3  502    0  0.28714561396E+03 -0.19529807545E+03 -0.18040067415E+03  0.39132896050E+03  0.10100000352E+00 0. -1.
       -3    1    3    3    0  502 -0.28714561396E+03  0.19529807545E+03  0.41331980120E+03  0.53983998570E+03  0.10100000352E+00 0.  1.
</event>
<event>
 5   0  0.1017079E-02  0.9208966E+03  0.7818609E-02  0.9399830E-01
        2   -1    0    0  501    0  0.00000000000E+00  0.00000000000E+00  0.84685382852E+03  0.84685382853E+03  0.25500000920E-02 0.  1.
       -2   -1    0    0    0  501  0.00000000000E+00  0.00000000000E+00 -0.25035326371E+03  0.25035326372E+03  0.25500000920E-02 0. -1.
    10030    2    1    2    0    0  0.00000000000E+00  0.00000000000E+00  0.59650056482E+03  0.10972070922E+04  0.92089656284E+03 0.  0.
        1    1    3    3  502    0 -0.38530791578E+03  0.19331231991E+03  0.10546715618E+03  0.44379630919E+03  0.50400001928E-02 0.  1.
       -1    1    3    3    0  502  0.38530791578E+03 -0.19331231991E+03  0.49103340864E+03  0.65341078306E+03  0.50400001928E-02 0. -1.
</event>
<event>
 5   0  0.6015709E-03  0.8937595E+03  0.7818609E-02  0.9433416E-01
       -1   -1    0    0    0  501  0.00000000000E+00  0.00000000000E+00  0.11256643013E+04  0.11256643013E+04  0.50400001928E-02 0.  1.
        1   -1    0    0  501    0  0.00000000000E+00  0.00000000000E+00 -0.17740768173E+03  0.17740768180E+03  0.50400001928E-02 0. -1.
    10030    2    1    2    0    0  0.00000000000E+00  0.00000000000E+00  0.94825661960E+03  0.13030719831E+04  0.89375946241E+03 0.  0.
        3    1    3    3  502    0 -0.38603439791E+02 -0.14522871388E+03 -0.13946611936E+03  0.20501808103E+03  0.10100000352E+00 0. -1.
       -3    1    3    3    0  502  0.38603439791E+02  0.14522871388E+03  0.10877227390E+04  0.10980539021E+04  0.10100000352E+00 0.  1.
</event>
<event>
 5   0  0.1033749E-02  0.9020679E+03  0.7818609E-02  0.9423000E-01
       -2   -1    0    0    0  501  0.00000000000E+00  0.00000000000E+00  0.27120049530E+03  0.27120049531E+03  0.25500000920E-02 0.  1.
        2   -1    0    0  501    0  0.00000000000E+00  0.00000000000E+00 -0.75011522984E+03  0.75011522984E+03  0.25500000920E-02 0. -1.
    10030    2    1    2    0    0  0.00000000000E+00  0.00000000000E+00 -0.47891473454E+03  0.10213157252E+04  0.90206789517E+03 0.  0.
        5    1    3    3  502    0 -0.13780752068E+03  0.22748819006E+03  0.17292820431E+03  0.31728227687E+03  0.46999998093E+01 0.  1.
       -5    1    3    3    0  502  0.13780752068E+03 -0.22748819006E+03 -0.65184293885E+03  0.70403344828E+03  0.46999998093E+01 0. -1.
</event>
<event>
 5   0  0.1028978E-02  0.8945522E+03  0.7818609E-02  0.9432417E-01
       -2   -1    0    0    0  501  0.00000000000E+00  0.00000000000E+00  0.17811396707E+03  0.17811396709E+03  0.25500000920E-02 0. -1.
        2   -1    0    0  501    0  0.00000000000E+00  0.00000000000E+00 -0.11231904868E+04  0.11231904868E+04  0.25500000920E-02 0.  1.
    10030    2    1    2    0    0  0.00000000000E+00  0.00000000000E+00 -0.94507651977E+03  0.13013044539E+04  0.89455220842E+03 0.  0.
        3    1    3    3  502    0 -0.24095057116E+03 -0.89233113772E+02 -0.10051175077E+04  0.10374396083E+04  0.10100000352E+00 0.  1.
       -3    1    3    3    0  502  0.24095057116E+03  0.89233113772E+02  0.60040987931E+02  0.26386484565E+03  0.10100000352E+00 0. -1.
</event>
<event>
 5   0  0.1028978E-02  0.9216654E+03  0.7818609E-02  0.9398897E-01
        2   -1    0    0  501    0  0.00000000000E+00  0.00000000000E+00  0.44741596664E+03  0.44741596665E+03  0.25500000920E-02 0.  1.
       -2   -1    0    0    0  501  0.00000000000E+00  0.00000000000E+00 -0.47465177182E+03  0.47465177183E+03  0.25500000920E-02 0. -1.
    10030    2    1    2    0    0  0.00000000000E+00  0.00000000000E+00 -0.27235805176E+02  0.92206773848E+03  0.92166540852E+03 0.  0.
        3    1    3    3  502    0 -0.40727447582E+03  0.18334426647E+03  0.99917990472E+02  0.45768027456E+03  0.10100000352E+00 0.  1.
       -3    1    3    3    0  502  0.40727447582E+03 -0.18334426647E+03 -0.12715379565E+03  0.46438746392E+03  0.10100000352E+00 0. -1.
</event>
<event>
 5   0  0.6288003E-03  0.8984770E+03  0.7818609E-02  0.9427487E-01
        1   -1    0    0  501    0  0.00000000000E+00  0.00000000000E+00  0.38476821055E+03  0.38476821058E+03  0.50400001928E-02 0. -1.
       -1   -1    0    0    0  501  0.00000000000E+00  0.00000000000E+00 -0.52451123597E+03  0.52451123600E+03  0.50400001928E-02 0.  1.
    10030    2    1    2    0    0  0.00000000000E+00  0.00000000000E+00 -0.13974302543E+03  0.90927944658E+03  0.89847704412E+03 0.  0.
        1    1    3    3  502    0 -0.10299439824E+03  0.37392020498E+03 -0.29929309874E+03  0.48989848411E+03  0.50400001928E-02 0.  1.
       -1    1    3    3    0  502  0.10299439824E+03 -0.37392020498E+03  0.15955007331E+03  0.41938096247E+03  0.50400001928E-02 0. -1.
</event>
<event>
 5   0  0.6137243E-03  0.8977668E+03  0.7818609E-02  0.9428377E-01
       -1   -1    0    0    0  501  0.00000000000E+00  0.00000000000E+00  0.14148286707E+03  0.14148286716E+03  0.50400001928E-02 0.  1.
        1   -1    0    0  501    0  0.00000000000E+00  0.00000000000E+00 -0.14241747060E+04  0.14241747060E+04  0.50400001928E-02 0. -1.
    10030    2    1    2    0    0  0.00000000000E+00  0.00000000000E+00 -0.12826918389E+04  0.15656575732E+04  0.89776683096E+03 0.  0.
        4    1    3    3  502    0 -0.98862362843E+02 -0.80112079870E+02 -0.13920598024E+04  0.13978640201E+04  0.12699999809E+01 0. -1.
       -4    1    3    3    0  502  0.98862362843E+02  0.80112079870E+02  0.10936796350E+03  0.16779355312E+03  0.12699999809E+01 0.  1.
</event>
<event>
 5   0  0.6288003E-03  0.9089742E+03  0.7818609E-02  0.9414432E-01
       -1   -1    0    0    0  501  0.00000000000E+00  0.00000000000E+00  0.17617012515E+03  0.17617012522E+03  0.50400001928E-02 0.  1.
        1   -1    0    0  501    0  0.00000000000E+00  0.00000000000E+00 -0.11724945904E+04  0.11724945904E+04  0.50400001928E-02 0. -1.
    10030    2    1    2    0    0  0.00000000000E+00  0.00000000000E+00 -0.99632446522E+03  0.13486647156E+04  0.90897418837E+03 0.  0.
        1    1    3    3  502    0 -0.64721014801E+02  0.84670464655E+02  0.15736847780E+03  0.19005981999E+03  0.50400001928E-02 0.  1.
       -1    1    3    3    0  502  0.64721014801E+02 -0.84670464655E+02 -0.11536929430E+04  0.11586048956E+04  0.50400001928E-02 0. -1.
</event>
<event>
 5   0  0.3996375E-03  0.8961914E+03  0.7818609E-02  0.9430355E-01
        3   -1    0    0  501    0  0.00000000000E+00  0.00000000000E+00  0.31121853299E+03  0.31121854937E+03  0.10100000352E+00 0.  1.
       -3   -1    0    0    0  501  0.00000000000E+00  0.00000000000E+00 -0.64517289259E+03  0.64517290049E+03  0.10100000352E+00 0. -1.
    10030    2    1    2    0    0  0.00000000000E+00  0.00000000000E+00 -0.33395435960E+03  0.95639144987E+03  0.89619143663E+03 0.  0.
        2    1    3    3  502    0  0.39697929371E+02  0.23667424287E+03 -0.57081325742E+03  0.61920787922E+03  0.25500000920E-02 0. -1.
       -2    1    3    3    0  502 -0.39697929371E+02 -0.23667424287E+03  0.23685889782E+03  0.33718357065E+03  0.25500000920E-02 0.  1.
</event>
<event>
 5   0  0.6015709E-03  0.8955424E+03  0.7818609E-02  0.9431171E-01
        1   -1    0    0  501    0  0.00000000000E+00  0.00000000000E+00  0.13198955992E+04  0.13198955992E+04  0.50400001928E-02 0. -1.
       -1   -1    0    0    0  501  0.00000000000E+00  0.00000000000E+00 -0.15190523424E+03  0.15190523432E+03  0.50400001928E-02 0.  1.
    10030    2    1    2    0    0  0.00000000000E+00  0.00000000000E+00  0.11679903650E+04  0.14718008336E+04  0.89554240601E+03 0.  0.
        3    1    3    3  502    0  0.59002472603E+02 -0.26961199647E+03  0.45053437191E+01  0.27602939832E+03  0.10100000352E+00 0.  1.
       -3    1    3    3    0  502 -0.59002472603E+02  0.26961199647E+03  0.11634850213E+04  0.11957714352E+04  0.10100000352E+00 0. -1.
</event>
<event>
 5   0  0.6137243E-03  0.9425564E+03  0.7818609E-02  0.9373894E-01
       -1   -1    0    0    0  501  0.00000000000E+00  0.00000000000E+00  0.70640254390E+03  0.70640254392E+03  0.50400001928E-02 0. -1.
        1   -1    0    0  501    0  0.00000000000E+00  0.00000000000E+00 -0.31441442296E+03  0.31441442300E+03  0.50400001928E-02 0.  1.
    10030    2    1    2    0    0  0.00000000000E+00  0.00000000000E+00  0.39198812095E+03  0.10208169669E+04  0.94255641369E+03 0.  0.
        4    1    3    3  502    0 -0.61227798606E+01 -0.33643279079E+03 -0.16136816826E+03  0.37318334607E+03  0.12699999809E+01 0.  1.
       -4    1    3    3    0  502  0.61227798606E+01  0.33643279079E+03  0.55335628921E+03  0.64763362085E+03  0.12699999809E+01 0. -1.
</event>
<event>
 5   0  0.6092779E-03  0.9024265E+03  0.7818609E-02  0.9422553E-01
       -1   -1    0    0    0  501  0.00000000000E+00  0.00000000000E+00  0.38697691828E+03  0.38697691831E+03  0.50400001928E-02 0.  1.
        1   -1    0    0  501    0  0.00000000000E+00  0.00000000000E+00 -0.52611249579E+03  0.52611249581E+03  0.50400001928E-02 0. -1.
    10030    2    1    2    0    0  0.00000000000E+00  0.00000000000E+00 -0.13913557751E+03  0.91308941412E+03  0.90242648967E+03 0.  0.
        2    1    3    3  502    0 -0.39480879896E+03  0.21170975717E+03 -0.15095028632E+02  0.44824420678E+03  0.25500000920E-02 0.  1.
       -2    1    3    3    0  502  0.39480879896E+03 -0.21170975717E+03 -0.12404054888E+03  0.46484520734E+03  0.25500000920E-02 0. -1.
</event>
<event>
 5   0  0.1003252E-02  0.8860823E+03  0.7818609E-02  0.9443148E-01
       -2   -1    0    0    0  501  0.00000000000E+00  0.00000000000E+00  0.34458165221E+03  0.34458165221E+03  0.25500000920E-02 0. -1.
        2   -1    0    0  501    0  0.00000000000E+00  0.00000000000E+00 -0.56963412210E+03  0.56963412210E+03  0.25500000920E-02 0.  1.
    10030    2    1    2    0    0  0.00000000000E+00  0.00000000000E+00 -0.22505246989E+03  0.91421577432E+03  0.88608231435E+03 0.  0.
        2    1    3    3  502    0  0.50639782117E+02  0.46816456892E+02 -0.56406209985E+03  0.56826245755E+03  0.25500000920E-02 0.  1.
       -2    1    3    3    0  502 -0.50639782117E+02 -0.46816456892E+02  0.33900962996E+03  0.34595331676E+03  0.25500000920E-02 0. -1.
</event>
<event>
 5   0  0.6211218E-03  0.8973517E+03  0.7818609E-02  0.9428898E-01
        1   -1    0    0  501    0  0.00000000000E+00  0.00000000000E+00  0.96011203641E+03  0.96011203642E+03  0.50400001928E-02 0.  1.
       -1   -1    0    0    0  501  0.00000000000E+00  0.00000000000E+00 -0.20967346521E+03  0.20967346527E+03  0.50400001928E-02 0. -1.
    10030    2    1    2    0    0  0.00000000000E+00  0.00000000000E+00  0.75043857120E+03  0.11697855017E+04  0.89735169851E+03 0.  0.
        5    1    3    3  502    0  0.10372053723E+02 -0.10651085515E+03 -0.19276011827E+03  0.22052368344E+03  0.46999998093E+01 0. -1.
       -5    1    3    3    0  502 -0.10372053723E+02  0.10651085515E+03  0.94319868948E+03  0.94926181825E+03  0.46999998093E+01 0.  1.
</event>
<event>
 5   0  0.6015709E-03  0.8997643E+03  0.7818609E-02  0.9425876E-01
        1   -1    0    0  501    0  0.00000000000E+00  0.00000000000E+00  0.27355035459E+03  0.27355035464E+03  0.50400001928E-02 0. -1.
       -1   -1    0    0    0  501  0.00000000000E+00  0.00000000000E+00 -0.73987813584E+03  0.73987813586E+03  0.50400001928E-02 0.  1.
    10030    2    1    2    0    0  0.00000000000E+00  0.00000000000E+00 -0.46632778125E+03  0.10134284905E+04  0.89976425011E+03 0.  0.
        3    1    3    3  502    0  0.20432907789E+03 -0.37587929752E+03 -0.38987434142E+03  0.57882435218E+03  0.10100000352E+00 0.  1.
       -3    1    3    3    0  502 -0.20432907789E+03  0.37587929752E+03 -0.76453439827E+02  0.43460413831E+03  0.10100000352E+00 0. -1.
</event>
<event>
 5   0  0.1003252E-02  0.9560471E+03  0.7818609E-02  0.9358110E-01
        2   -1    0    0  501    0  0.00000000000E+00  0.00000000000E+00  0.77782487538E+03  0.77782487538E+03  0.25500000920E-02 0. -1.
       -2   -1    0    0    0  501  0.00000000000E+00  0.00000000000E+00 -0.29377628374E+03  0.29377628375E+03  0.25500000920E-02 0.  1.
    10030    2    1    2    0    0  0.00000000000E+00  0.00000000000E+00  0.48404859164E+03  0.10716011591E+04  0.95604707268E+03 0.  0.
        2    1    3    3  502    0  0.91241443868E+02 -0.18871001515E+03  0.72356664876E+03  0.75331611300E+03  0.25500000920E-02 0. -1.
       -2    1    3    3    0  502 -0.91241443868E+02  0.18871001515E+03 -0.23951805712E+03  0.31828504613E+03  0.25500000920E-02 0.  1.
</event>
<event>
 5   0  0.6092779E-03  0.8942843E+03  0.7818609E-02  0.9432755E-01
        1   -1    0    0  501    0  0.00000000000E+00  0.00000000000E+00  0.78555468515E+03  0.78555468517E+03  0.50400001928E-02 0. -1.
       -1   -1    0    0    0  501  0.00000000000E+00  0.00000000000E+00 -0.25451584321E+03  0.25451584326E+03  0.50400001928E-02 0.  1.
    10030    2    1    2    0    0  0.00000000000E+00  0.00000000000E+00  0.53103884194E+03  0.10400705284E+04  0.89428432416E+03 0.  0.
        2    1    3    3  502    0 -0.20927768105E+03  0.72284319385E+02  0.71732527590E+03  0.75071813756E+03  0.25500000920E-02 0. -1.
       -2    1    3    3    0  502  0.20927768105E+03 -0.72284319385E+02 -0.18628643396E+03  0.28935239086E+03  0.25500000920E-02 0.  1.
</event>
<event>
 5   0  0.6211218E-03  0.9085595E+03  0.7818609E-02  0.9414944E-01
       -1   -1    0    0    0  501  0.00000000000E+00  0.00000000000E+00  0.14157480616E+03  0.14157480625E+03  0.50400001928E-02 0.  1.
        1   -1    0    0  501    0  0.00000000000E+00  0.00000000000E+00 -0.14576751964E+04  0.14576751964E+04  0.50400001928E-02 0. -1.
    10030    2    1    2    0    0  0.00000000000E+00  0.00000000000E+00 -0.13161003902E+04  0.15992500026E+04  0.90855948280E+03 0.  0.
        5    1    3    3  502    0 -0.12817078132E+03 -0.17702410382E+03  0.42906056481E+02  0.22277410576E+03  0.46999998093E+01 0.  1.
       -5    1    3    3    0  502  0.12817078132E+03  0.17702410382E+03 -0.13590064467E+04  0.13764758969E+04  0.46999998093E+01 0. -1.
</event>
<event>
 5   0  0.1017079E-02  0.8984265E+03  0.7818609E-02  0.9427550E-01
       -2   -1    0    0    0  501  0.00000000000E+00  0.00000000000E+00  0.26937792632E+03  0.26937792633E+03  0.25500000920E-02 0. -1.
        2   -1    0    0  501    0  0.00000000000E+00  0.00000000000E+00 -0.74910579684E+03  0.74910579685E+03  0.25500000920E-02 0.  1.
    10030    2    1    2    0    0  0.00000000000E+00  0.00000000000E+00 -0.47972787053E+03  0.10184837232E+04  0.89842654937E+03 0.  0.
        1    1    3    3  502    0 -0.31565809639E+03 -0.26406582129E+03 -0.35741893027E+02  0.41309596311E+03  0.50400001928E-02 0. -1.
       -1    1    3    3    0  502  0.31565809639E+03  0.26406582129E+03 -0.44398597750E+03  0.60538776006E+03  0.50400001928E-02 0.  1.
</event>
<event>
 5   0  0.1003252E-02  0.9040914E+03  0.7818609E-02  0.9420481E-01
        2   -1    0    0  501    0  0.00000000000E+00  0.00000000000E+00  0.15955892480E+04  0.15955892480E+04  0.25500000920E-02 0.  1.
       -2   -1    0    0    0  501  0.00000000000E+00  0.00000000000E+00 -0.12806887556E+03  0.12806887559E+03  0.25500000920E-02 0. -1.
    10030    2    1    2    0    0  0.00000000000E+00  0.00000000000E+00  0.14675203725E+04  0.17236581236E+04  0.90409141325E+03 0.  0.
        2    1    3    3  502    0 -0.41259368355E+03  0.18463417125E+03  0.72481868636E+03  0.85421627999E+03  0.25500000920E-02 0. -1.
       -2    1    3    3    0  502  0.41259368355E+03 -0.18463417125E+03  0.74270168612E+03  0.86944184364E+03  0.25500000920E-02 0.  1.
</event>
<event>
 5   0  0.1041727E-02  0.8810715E+03  0.7818609E-02  0.9449557E-01
       -2   -1    0    0    0  501  0.00000000000E+00  0.00000000000E+00  0.39268058566E+03  0.39268058566E+03  0.25500000920E-02 0. -1.
        2   -1    0    0  501    0  0.00000000000E+00  0.00000000000E+00 -0.49422294033E+03  0.49422294033E+03  0.25500000920E-02 0.  1.
    10030    2    1    2    0    0  0.00000000000E+00  0.00000000000E+00 -0.10154235467E+03  0.88690352600E+03  0.88107151505E+03 0.  0.
        4    1    3    3  502    0 -0.32591401081E+03  0.56263760070E+02  0.24216122228E+03  0.40991367825E+03  0.12699999809E+01 0. -1.
       -4    1    3    3    0  502  0.32591401081E+03 -0.56263760070E+02 -0.34370357695E+03  0.47698984775E+03  0.12699999809E+01 0.  1.
</event>
<event>
 5   0  0.1033749E-02  0.9040245E+03  0.7818609E-02  0.9420565E-01
        2   -1    0    0  501    0  0.00000000000E+00  0.00000000000E+00  0.67809905742E+03  0.67809905743E+03  0.25500000920E-02 0. -1.
       -2   -1    0    0    0  501  0.00000000000E+00  0.00000000000E+00 -0.30130562547E+03  0.30130562548E+03  0.25500000920E-02 0.  1.
    10030    2    1    2    0    0  0.00000000000E+00  0.00000000000E+00  0.37679343196E+03  0.97940468290E+03  0.90402447010E+03 0.  0.
        5    1    3    3  502    0 -0.38897206993E+03 -0.22361619588E+03  0.12916135946E+03  0.46691350486E+03  0.46999998093E+01 0.  1.
       -5    1    3    3    0  502  0.38897206993E+03  0.22361619588E+03  0.24763207249E+03  0.51249117804E+03  0.46999998093E+01 0. -1.
</event>
<event>
 5   0  0.1041727E-02  0.9007734E+03  0.7818609E-02  0.9424615E-01
       -2   -1    0    0    0  501  0.00000000000E+00  0.00000000000E+00  0.38768406540E+03  0.38768406541E+03  0.25500000920E-02 0. -1.
        2   -1    0    0  501    0  0.00000000000E+00  0.00000000000E+00 -0.52323064213E+03  0.52323064214E+03  0.25500000920E-02 0.  1.
    10030    2    1    2    0    0  0.00000000000E+00  0.00000000000E+00 -0.13554657673E+03  0.91091470754E+03  0.90077340655E+03 0.  0.
        4    1    3    3  502    0 -0.55347980385E+02  0.17998347949E+03  0.34596505230E+03  0.39389196760E+03  0.12699999809E+01 0. -1.
       -4    1    3    3    0  502  0.55347980385E+02 -0.17998347949E+03 -0.48151162904E+03  0.51702273995E+03  0.12699999809E+01 0.  1.
</event>
<event>
 5   0  0.1017079E-02  0.8995625E+03  0.7818609E-02  0.9426128E-01
       -2   -1    0    0    0  501  0.00000000000E+00  0.00000000000E+00  0.10939459988E+03  0.10939459991E+03  0.25500000920E-02 0.  1.
        2   -1    0    0  501    0  0.00000000000E+00  0.00000000000E+00 -0.18492976276E+04  0.18492976276E+04  0.25500000920E-02 0. -1.
    10030    2    1    2    0    0  0.00000000000E+00  0.00000000000E+00 -0.17399030277E+04  0.19586922275E+04  0.89956250268E+03 0.  0.
        1    1    3    3  502    0 -0.70296004112E+02  0.15344880179E+02 -0.18366855506E+04  0.18380943407E+04  0.50400001928E-02 0. -1.
       -1    1    3    3    0  502  0.70296004112E+02 -0.15344880179E+02  0.96782522878E+02  0.12059788680E+03  0.50400001928E-02 0.  1.
</event>
<event>
 5   0  0.6092779E-03  0.8954170E+03  0.7818609E-02  0.9431329E-01
       -1   -1    0    0    0  501  0.00000000000E+00  0.00000000000E+00  0.31107001357E+03  0.31107001361E+03  0.50400001928E-02 0. -1.
        1   -1    0    0  501    0  0.00000000000E+00  0.00000000000E+00 -0.64436583920E+03  0.64436583922E+03  0.50400001928E-02 0.  1.
    10030    2    1    2    0    0  0.00000000000E+00  0.00000000000E+00 -0.33329582563E+03  0.95543585283E+03  0.89541697632E+03 0.  0.
        2    1    3    3  502    0 -0.25446700089E+03 -0.13348308252E+03 -0.53298508477E+03  0.60551159233E+03  0.25500000920E-02 0.  1.
       -2    1    3    3    0  502  0.25446700089E+03  0.13348308252E+03  0.19968925914E+03  0.34992426050E+03  0.25500000920E-02 0. -1.
</event>
<event>
 5   0  0.1003252E-02  0.9032655E+03  0.7818609E-02  0.9421509E-01
       -2   -1    0    0    0  501  0.00000000000E+00  0.00000000000E+00  0.34858345614E+03  0.34858345615E+03  0.25500000920E-02 0. -1.
        2   -1    0    0  501    0  0.00000000000E+00  0.00000000000E+00 -0.58514580375E+03  0.58514580375E+03  0.25500000920E-02 0.  1.
    10030    2    1    2    0    0  0.00000000000E+00  0.00000000000E+00 -0.23656234761E+03  0.93372925990E+03  0.90326551273E+03 0.  0.
        2    1    3    3  502    0  0.15127545758E+03  0.16292338984E+03  0.28809796465E+03  0.36390758754E+03  0.25500000920E-02 0. -1.
       -2    1    3    3    0  502 -0.15127545758E+03 -0.16292338984E+03 -0.52466031226E+03  0.56982167236E+03  0.25500000920E-02 0.  1.
</event>
<event>
 5   0  0.1028978E-02  0.8648526E+03  0.7818609E-02  0.9470616E-01
        2   -1    0    0  501    0  0.00000000000E+00  0.00000000000E+00  0.58616309232E+03  0.58616309232E+03  0.25500000920E-02 0. -1.
       -2   -1    0    0    0  501  0.00000000000E+00  0.00000000000E+00 -0.31901108131E+03  0.31901108132E+03  0.25500000920E-02 0.  1.
    10030    2    1    2    0    0  0.00000000000E+00  0.00000000000E+00  0.26715201101E+03  0.90517417364E+03  0.86485263927E+03 0.  0.
        3    1    3    3  502    0  0.30608338053E+03 -0.27986135599E+03  0.54637023093E+01  0.41477617658E+03  0.10100000352E+00 0.  1.
       -3    1    3    3    0  502 -0.30608338053E+03  0.27986135599E+03  0.26168830870E+03  0.49039799706E+03  0.10100000352E+00 0. -1.
</event>
<event>
 5   0  0.3996375E-03  0.9017534E+03  0.7818609E-02  0.9423392E-01
       -4   -1    0    0    0  501  0.00000000000E+00  0.00000000000E+00  0.54708770240E+03  0.54708917648E+03  0.12699999809E+01 0.  1.
        4   -1    0    0  501    0  0.00000000000E+00  0.00000000000E+00 -0.37158234441E+03  0.37158451472E+03  0.12699999809E+01 0. -1.
    10030    2    1    2    0    0  0.00000000000E+00  0.00000000000E+00  0.17550535799E+03  0.91867369120E+03  0.90175341431E+03 0.  0.
        2    1    3    3  502    0  0.19399886849E+03 -0.30568863326E+03 -0.18600622774E+03  0.40703736713E+03  0.25500000920E-02 0. -1.
       -2    1    3    3    0  502 -0.19399886849E+03  0.30568863326E+03  0.36151158573E+03  0.51163632406E+03  0.25500000920E-02 0.  1.
</event>
<event>
 5   0  0.1017079E-02  0.8920353E+03  0.7818609E-02  0.9435593E-01
       -2   -1    0    0    0  501  0.00000000000E+00  0.00000000000E+00  0.17768026909E+03  0.17768026910E+03  0.25500000920E-02 0.  1.
        2   -1    0    0  501    0  0.00000000000E+00  0.00000000000E+00 -0.11196051473E+04  0.11196051473E+04  0.25500000920E-02 0. -1.
    10030    2    1    2    0    0  0.00000000000E+00  0.00000000000E+00 -0.94192487826E+03  0.12972854165E+04  0.89203529944E+03 0.  0.
        1    1    3    3  502    0 -0.12872963749E+03  0.41274896830E+03 -0.63026429524E+03  0.76430760318E+03  0.50400001928E-02 0. -1.
       -1    1    3    3    0  502  0.12872963749E+03 -0.41274896830E+03 -0.31166058302E+03  0.53297781327E+03  0.50400001928E-02 0.  1.
</event>
<event>
 5   0  0.6288003E-03  0.8867707E+03  0.7818609E-02  0.9442271E-01
       -1   -1    0    0    0  501  0.00000000000E+00  0.00000000000E+00  0.13602947705E+03  0.13602947714E+03  0.50400001928E-02 0. -1.
        1   -1    0    0  501    0  0.00000000000E+00  0.00000000000E+00 -0.14452056951E+04  0.14452056951E+04  0.50400001928E-02 0.  1.
    10030    2    1    2    0    0  0.00000000000E+00  0.00000000000E+00 -0.13091762180E+04  0.15812351722E+04  0.88677071447E+03 0.  0.
        1    1    3    3  502    0 -0.42430607533E+03 -0.11337558938E+03 -0.76306546753E+03  0.88043090450E+03  0.50400001928E-02 0. -1.
       -1    1    3    3    0  502  0.42430607533E+03  0.11337558938E+03 -0.54611075050E+03  0.70080426773E+03  0.50400001928E-02 0.  1.
</event>
<event>
 5   0  0.1003252E-02  0.8787380E+03  0.7818609E-02  0.9452557E-01
        2   -1    0    0  501    0  0.00000000000E+00  0.00000000000E+00  0.14346497301E+04  0.14346497301E+04  0.25500000920E-02 0. -1.
       -2   -1    0    0    0  501  0.00000000000E+00  0.00000000000E+00 -0.13455905101E+03  0.13455905103E+03  0.25500000920E-02 0.  1.
    10030    2    1    2    0    0  0.00000000000E+00  0.00000000000E+00  0.13000906791E+04  0.15692087811E+04  0.87873797285E+03 0.  0.
        2    1    3    3  502    0  0.50045437147E+02 -0.30854398520E+03  0.98651926700E+02  0.32777452499E+03  0.25500000920E-02 0.  1.
       -2    1    3    3    0  502 -0.50045437147E+02  0.30854398520E+03  0.12014387524E+04  0.12414342561E+04  0.25500000920E-02 0. -1.
</event>
<event>
 5   0  0.6015709E-03  0.8966396E+03  0.7818609E-02  0.9429792E-01
       -1   -1    0    0    0  501  0.00000000000E+00  0.00000000000E+00  0.62043705736E+03  0.62043705738E+03  0.50400001928E-02 0.  1.
        1   -1    0    0  501    0  0.00000000000E+00  0.00000000000E+00 -0.32395011231E+03  0.32395011235E+03  0.50400001928E-02 0. -1.
    10030    2    1    2    0    0  0.00000000000E+00  0.00000000000E+00  0.29648694505E+03  0.94438716974E+03  0.89663962537E+03 0.  0.
        3    1    3    3  502    0 -0.13860170660E+03 -0.42620427048E+03  0.13622850697E+03  0.46842152977E+03  0.10100000352E+00 0.  1.
       -3    1    3    3    0  502  0.13860170660E+03  0.42620427048E+03  0.16025843808E+03  0.47596563996E+03  0.10100000352E+00 0. -1.
</event>
<event>
 5   0  0.1033749E-02  0.9027788E+03  0.7818609E-02  0.9422114E-01
        2   -1    0    0  501    0  0.00000000000E+00  0.00000000000E+00  0.42199314602E+03  0.42199314603E+03  0.25500000920E-02 0. -1.
       -2   -1    0    0    0  501  0.00000000000E+00  0.00000000000E+00 -0.48283345125E+03  0.48283345125E+03  0.25500000920E-02 0.  1.
    10030    2    1    2    0    0  0.00000000000E+00  0.00000000000E+00 -0.60840305226E+02  0.90482659728E+03  0.90277883693E+03 0.  0.
        5    1    3    3  502    0 -0.34619941357E+03 -0.43068459899E+02 -0.31746354449E+03  0.47171402171E+03  0.46999998093E+01 0.  1.
       -5    1    3    3    0  502  0.34619941357E+03  0.43068459899E+02  0.25662323927E+03  0.43311257558E+03  0.46999998093E+01 0. -1.
</event>
<event>
 5   0  0.6092779E-03  0.9640482E+03  0.7818609E-02  0.9348879E-01
        1   -1    0    0  501    0  0.00000000000E+00  0.00000000000E+00  0.11825399032E+04  0.11825399032E+04  0.50400001928E-02 0. -1.
       -1   -1    0    0    0  501  0.00000000000E+00  0.00000000000E+00 -0.19648149827E+03  0.19648149834E+03  0.50400001928E-02 0.  1.
    10030    2    1    2    0    0  0.00000000000E+00  0.00000000000E+00  0.98605840490E+03  0.13790214015E+04  0.96404815646E+03 0.  0.
        2    1    3    3  502    0  0.12714973736E+03  0.45757811437E+03  0.61100805712E+03  0.77387055269E+03  0.25500000920E-02 0. -1.
       -2    1    3    3    0  502 -0.12714973736E+03 -0.45757811437E+03  0.37505034778E+03  0.60515084883E+03  0.25500000920E-02 0.  1.
</event>
<event>
 5   0  0.1041727E-02  0.8980658E+03  0.7818609E-02  0.9428003E-01
       -2   -1    0    0    0  501  0.00000000000E+00  0.00000000000E+00  0.53136297388E+03  0.53136297389E+03  0.25500000920E-02 0. -1.
        2   -1    0    0  501    0  0.00000000000E+00  0.00000000000E+00 -0.37945912944E+03  0.37945912945E+03  0.25500000920E-02 0.  1.
    10030    2    1    2    0    0  0.00000000000E+00  0.00000000000E+00  0.15190384444E+03  0.91082210333E+03  0.89806576929E+03 0.  0.
        4    1    3    3  502    0  0.59178168055E+02 -0.42544802475E+03  0.20865713063E+03  0.47754317962E+03  0.12699999809E+01 0. -1.
       -4    1    3    3    0  502 -0.59178168055E+02  0.42544802475E+03 -0.56753286189E+02  0.43327892371E+03  0.12699999809E+01 0.  1.
</event>
<event>
 5   0  0.6288003E-03  0.8757156E+03  0.7818609E-02  0.9456458E-01
        1   -1    0    0  501    0  0.00000000000E+00  0.00000000000E+00  0.94044657556E+03  0.94044657558E+03  0.50400001928E-02 0. -1.
       -1   -1    0    0    0  501  0.00000000000E+00  0.00000000000E+00 -0.20386001716E+03  0.20386001723E+03  0.50400001928E-02 0.  1.
    10030    2    1    2    0    0  0.00000000000E+00  0.00000000000E+00  0.73658655840E+03  0.11443065928E+04  0.87571560470E+03 0.  0.
        1    1    3    3  502    0  0.16407854942E+03  0.14434392809E+03  0.86409042712E+03  0.89129636273E+03  0.50400001928E-02 0. -1.
       -1    1    3    3    0  502 -0.16407854942E+03 -0.14434392809E+03 -0.12750386872E+03  0.25301023007E+03  0.50400001928E-02 0.  1.
</event>
<event>
 5   0  0.1017079E-02  0.9079970E+03  0.7818609E-02  0.9415640E-01
       -2   -1    0    0    0  501  0.00000000000E+00  0.00000000000E+00  0.48621267789E+03  0.48621267790E+03  0.25500000920E-02 0. -1.
        2   -1    0    0  501    0  0.00000000000E+00  0.00000000000E+00 -0.42391868237E+03  0.42391868238E+03  0.25500000920E-02 0.  1.
    10030    2    1    2    0    0  0.00000000000E+00  0.00000000000E+00  0.62293995524E+02  0.91013136028E+03  0.90799699949E+03 0.  0.
        1    1    3    3  502    0 -0.32488185870E+03  0.13638938902E+03 -0.25582013982E+03  0.43542419720E+03  0.50400001928E-02 0.  1.
       -1    1    3    3    0  502  0.32488185870E+03 -0.13638938902E+03  0.31811413534E+03  0.47470716308E+03  0.50400001928E-02 0. -1.
</event>
<event>
 5   0  0.6137243E-03  0.8964517E+03  0.7818609E-02  0.9430028E-01
        1   -1    0    0  501    0  0.00000000000E+00  0.00000000000E+00  0.25092567786E+03  0.25092567791E+03  0.50400001928E-02 0. -1.
       -1   -1    0    0    0  501  0.00000000000E+00  0.00000000000E+00 -0.80066111049E+03  0.80066111050E+03  0.50400001928E-02 0.  1.
    10030    2    1    2    0    0  0.00000000000E+00  0.00000000000E+00 -0.54973543263E+03  0.10515867884E+04  0.89645174309E+03 0.  0.
        4    1    3    3  502    0  0.11110321617E+03  0.40012200089E+03 -0.76960938278E+02  0.42233415580E+03  0.12699999809E+01 0. -1.
       -4    1    3    3    0  502 -0.11110321617E+03 -0.40012200089E+03 -0.47277449435E+03  0.62925263261E+03  0.12699999809E+01 0.  1.
</event>
<event>
 5   0  0.3996375E-03  0.9008125E+03  0.7818609E-02  0.9424566E-01
        3   -1    0    0  501    0  0.00000000000E+00  0.00000000000E+00  0.22428281092E+03  0.22428283366E+03  0.10100000352E+00 0.  1.
       -3   -1    0    0    0  501  0.00000000000E+00  0.00000000000E+00 -0.90450872139E+03  0.90450872703E+03  0.10100000352E+00 0. -1.
    10030    2    1    2    0    0  0.00000000000E+00  0.00000000000E+00 -0.68022591047E+03  0.11287915607E+04  0.90081246562E+03 0.  0.
        3    1    3    3  502    0  0.44794845705E+03  0.36870390990E+02 -0.30361151412E+03  0.54239949079E+03  0.10100000352E+00 0. -1.
       -3    1    3    3    0  502 -0.44794845705E+03 -0.36870390990E+02 -0.37661439635E+03  0.58639206990E+03  0.10100000352E+00 0.  1.
</event>
<event>
 5   0  0.1028978E-02  0.9034475E+03  0.7818609E-02  0.9421282E-01
        2   -1    0    0  501    0  0.00000000000E+00  0.00000000000E+00  0.79172017735E+03  0.79172017736E+03  0.25500000920E-02 0.  1.
       -2   -1    0    0    0  501  0.00000000000E+00  0.00000000000E+00 -0.25773546051E+03  0.25773546052E+03  0.25500000920E-02 0. -1.
    10030    2    1    2    0    0  0.00000000000E+00  0.00000000000E+00  0.53398471684E+03  0.10494556379E+04  0.90344754029E+03 0.  0.
        3    1    3    3  502    0 -0.16761810768E+03  0.34902285473E+03  0.53728023880E+03  0.66225587831E+03  0.10100000352E+00 0.  1.
       -3    1    3    3    0  502  0.16761810768E+03 -0.34902285473E+03 -0.32955219559E+01  0.38719975957E+03  0.10100000352E+00 0. -1.
</event>
<event>
 5   0  0.6015709E-03  0.8974989E+03  0.7818609E-02  0.9428713E-01
       -1   -1    0    0    0  501  0.00000000000E+00  0.00000000000E+00  0.94851810308E+03  0.94851810309E+03  0.50400001928E-02 0. -1.
        1   -1    0    0  501    0  0.00000000000E+00  0.00000000000E+00 -0.21230596331E+03  0.21230596337E+03  0.50400001928E-02 0.  1.
    10030    2    1    2    0    0  0.00000000000E+00  0.00000000000E+00  0.73621213977E+03  0.11608240665E+04  0.89749885713E+03 0.  0.
        3    1    3    3  502    0  0.19051751525E+03  0.35796241635E+03  0.11951080966E+03  0.42274916790E+03  0.10100000352E+00 0.  1.
       -3    1    3    3    0  502 -0.19051751525E+03 -0.35796241635E+03  0.61670133011E+03  0.73807489857E+03  0.10100000352E+00 0. -1.
</event>
<event>
 5   0  0.1017079E-02  0.9072214E+03  0.7818609E-02  0.9416599E-01
        2   -1    0    0  501    0  0.00000000000E+00  0.00000000000E+00  0.41374256734E+03  0.41374256735E+03  0.25500000920E-02 0. -1.
       -2   -1    0    0    0  501  0.00000000000E+00  0.00000000000E+00 -0.49732055219E+03  0.49732055220E+03  0.25500000920E-02 0.  1.
    10030    2    1    2    0    0  0.00000000000E+00  0.00000000000E+00 -0.83577984851E+02  0.91106311954E+03  0.90722143286E+03 0.  0.
        1    1    3    3  502    0  0.23746339884E+02 -0.44286308303E+03  0.53856550467E+02  0.44675734692E+03  0.50400001928E-02 0. -1.
       -1    1    3    3    0  502 -0.23746339884E+02  0.44286308303E+03 -0.13743453532E+03  0.46430577263E+03  0.50400001928E-02 0.  1.
</event>
<event>
 5   0  0.6137243E-03  0.8925933E+03  0.7818609E-02  0.9434888E-01
        1   -1    0    0  501    0  0.00000000000E+00  0.00000000000E+00  0.54734853474E+03  0.54734853477E+03  0.50400001928E-02 0. -1.
       -1   -1    0    0    0  501  0.00000000000E+00  0.00000000000E+00 -0.36390103782E+03  0.36390103785E+03  0.50400001928E-02 0.  1.
    10030    2    1    2    0    0  0.00000000000E+00  0.00000000000E+00  0.18344749693E+03  0.91124957262E+03  0.89259330015E+03 0.  0.
        4    1    3    3  502    0 -0.22933292096E+03  0.16006066047E+03  0.44679501110E+03  0.52710568059E+03  0.12699999809E+01 0. -1.
       -4    1    3    3    0  502  0.22933292096E+03 -0.16006066047E+03 -0.26334751417E+03  0.38414389203E+03  0.12699999809E+01 0.  1.
</event>
<event>
 5   0  0.1028978E-02  0.8971798E+03  0.7818609E-02  0.9429114E-01
       -2   -1    0    0    0  501  0.00000000000E+00  0.00000000000E+00  0.11396191590E+03  0.11396191593E+03  0.25500000920E-02 0. -1.
        2   -1    0    0  501    0  0.00000000000E+00  0.00000000000E+00 -0.17657907826E+04  0.17657907826E+04  0.25500000920E-02 0.  1.
    10030    2    1    2    0    0  0.00000000000E+00  0.00000000000E+00 -0.16518288667E+04  0.18797526985E+04  0.89717980514E+03 0.  0.
        3    1    3    3  502    0  0.78618188435E+02 -0.43230221241E+03 -0.10152573216E+04  0.11062610279E+04  0.10100000352E+00 0.  1.
       -3    1    3    3    0  502 -0.78618188435E+02  0.43230221241E+03 -0.63657154502E+03  0.77349167063E+03  0.10100000352E+00 0. -1.
</event>
<event>
 5   0  0.6137243E-03  0.9017156E+03  0.7818609E-02  0.9423439E-01
       -1   -1    0    0    0  501  0.00000000000E+00  0.00000000000E+00  0.62270953518E+03  0.62270953520E+03  0.50400001928E-02 0.  1.
        1   -1    0    0  501    0  0.00000000000E+00  0.00000000000E+00 -0.32643273693E+03  0.32643273697E+03  0.50400001928E-02 0. -1.
    10030    2    1    2    0    0  0.00000000000E+00  0.00000000000E+00  0.29627679826E+03  0.94914227217E+03  0.90171564899E+03 0.  0.
        4    1    3    3  502    0 -0.18226491549E+03 -0.18048756454E+03 -0.24213901865E+03  0.35274520212E+03  0.12699999809E+01 0. -1.
       -4    1    3    3    0  502  0.18226491549E+03  0.18048756454E+03  0.53841581690E+03  0.59639707005E+03  0.12699999809E+01 0.  1.
</event>
<event>
 5   0  0.3996375E-03  0.9043570E+03  0.7818609E-02  0.9420151E-01
        3   -1    0    0  501    0  0.00000000000E+00  0.00000000000E+00  0.32058726132E+03  0.32058727723E+03  0.10100000352E+00 0.  1.
       -3   -1    0    0    0  501  0.00000000000E+00  0.00000000000E+00 -0.63778381614E+03  0.63778382413E+03  0.10100000352E+00 0. -1.
    10030    2    1    2    0    0  0.00000000000E+00  0.00000000000E+00 -0.31719655482E+03  0.95837110136E+03  0.90435696135E+03 0.  0.
        2    1    3    3  502    0  0.15062587310E+03 -0.20006613600E+02 -0.60991859291E+03  0.62856114119E+03  0.25500000920E-02 0. -1.
       -2    1    3    3    0  502 -0.15062587310E+03  0.20006613600E+02  0.29272203809E+03  0.32980996017E+03  0.25500000920E-02 0.  1.
</event>
<event>
 5   0  0.6137243E-03  0.8774147E+03  0.7818609E-02  0.9454263E-01
        1   -1    0    0  501    0  0.00000000000E+00  0.00000000000E+00  0.75044522095E+03  0.75044522096E+03  0.50400001928E-02 0.  1.
       -1   -1    0    0    0  501  0.00000000000E+00  0.00000000000E+00 -0.25646660091E+03  0.25646660096E+03  0.50400001928E-02 0. -1.
    10030    2    1    2    0    0  0.00000000000E+00  0.00000000000E+00  0.49397862004E+03  0.10069118219E+04  0.87741469105E+03 0.  0.
        4    1    3    3  502    0  0.18216518839E+03 -0.35645040501E+03  0.45298552794E+03  0.60451513506E+03  0.12699999809E+01 0.  1.
       -4    1    3    3    0  502 -0.18216518839E+03  0.35645040501E+03  0.40993092102E+02  0.40239668686E+03  0.12699999809E+01 0. -1.
</event>
<event>
 5   0  0.6211218E-03  0.9224414E+03  0.7818609E-02  0.9397955E-01
       -1   -1    0    0    0  501  0.00000000000E+00  0.00000000000E+00  0.39961677393E+03  0.39961677396E+03  0.50400001928E-02 0.  1.
        1   -1    0    0  501    0  0.00000000000E+00  0.00000000000E+00 -0.53232131520E+03  0.53232131523E+03  0.50400001928E-02 0. -1.
    10030    2    1    2    0    0  0.00000000000E+00  0.00000000000E+00 -0.13270454127E+03  0.93193808919E+03  0.92244138394E+03 0.  0.
        5    1    3    3  502    0 -0.22428850297E+03 -0.38984544847E+03 -0.16946986127E+03  0.48065260858E+03  0.46999998093E+01 0.  1.
       -5    1    3    3    0  502  0.22428850297E+03  0.38984544847E+03  0.36765320001E+02  0.45128548061E+03  0.46999998093E+01 0. -1.
</event>
<event>
 5   0  0.1003252E-02  0.8662280E+03  0.7818609E-02  0.9468811E-01
       -2   -1    0    0    0  501  0.00000000000E+00  0.00000000000E+00  0.54643110209E+03  0.54643110209E+03  0.25500000920E-02 0. -1.
        2   -1    0    0  501    0  0.00000000000E+00  0.00000000000E+00 -0.34329619817E+03  0.34329619818E+03  0.25500000920E-02 0.  1.
    10030    2    1    2    0    0  0.00000000000E+00  0.00000000000E+00  0.20313490392E+03  0.88972730027E+03  0.86622796056E+03 0.  0.
        2    1    3    3  502    0  0.60998079123E+02  0.28390075153E+03 -0.22850263422E+03  0.36950487985E+03  0.25500000920E-02 0.  1.
       -2    1    3    3    0  502 -0.60998079123E+02 -0.28390075153E+03  0.43163753814E+03  0.52022242043E+03  0.25500000920E-02 0. -1.
</event>
<event>
 5   0  0.1041727E-02  0.9042075E+03  0.7818609E-02  0.9420337E-01
       -2   -1    0    0    0  501  0.00000000000E+00  0.00000000000E+00  0.10994152090E+03  0.10994152093E+03  0.25500000920E-02 0.  1.
        2   -1    0    0  501    0  0.00000000000E+00  0.00000000000E+00 -0.18591504037E+04  0.18591504037E+04  0.25500000920E-02 0. -1.
    10030    2    1    2    0    0  0.00000000000E+00  0.00000000000E+00 -0.17492088828E+04  0.19690919246E+04  0.90420754915E+03 0.  0.
        4    1    3    3  502    0 -0.17537696532E+03 -0.17986243081E+03 -0.16931662516E+04  0.17117012422E+04  0.12699999809E+01 0. -1.
       -4    1    3    3    0  502  0.17537696532E+03  0.17986243081E+03 -0.56042631149E+02  0.25739068241E+03  0.12699999809E+01 0.  1.
</event>
<event>
 5   0  0.1033749E-02  0.9002304E+03  0.7818609E-02  0.9425293E-01
        2   -1    0    0  501    0  0.00000000000E+00  0.00000000000E+00  0.11126334228E+04  0.11126334228E+04  0.25500000920E-02 0. -1.
       -2   -1    0    0    0  501  0.00000000000E+00  0.00000000000E+00 -0.18209385567E+03  0.18209385568E+03  0.25500000920E-02 0.  1.
    10030    2    1    2    0    0  0.00000000000E+00  0.00000000000E+00  0.93053956717E+03  0.12947272785E+04  0.90023043699E+03 0.  0.
        5    1    3    3  502    0 -0.25274119663E+03 -0.13078471913E+03 -0.36251497108E+02  0.28691290712E+03  0.46999998093E+01 0.  1.
       -5    1    3    3    0  502  0.25274119663E+03  0.13078471913E+03  0.96679106427E+03  0.10078143714E+04  0.46999998093E+01 0. -1.
</event>
<event>
 5   0  0.1033749E-02  0.9001465E+03  0.7818609E-02  0.9425398E-01
        2   -1    0    0  501    0  0.00000000000E+00  0.00000000000E+00  0.37956514114E+03  0.37956514115E+03  0.25500000920E-02 0.  1.
       -2   -1    0    0    0  501  0.00000000000E+00  0.00000000000E+00 -0.53367895593E+03  0.53367895594E+03  0.25500000920E-02 0. -1.
    10030    2    1    2    0    0  0.00000000000E+00  0.00000000000E+00 -0.15411381479E+03  0.91324409709E+03  0.90014649527E+03 0.  0.
        5    1    3    3  502    0  0.20720189742E+03 -0.22733204668E+03  0.25625243633E+03  0.40037468310E+03  0.46999998093E+01 0. -1.
       -5    1    3    3    0  502 -0.20720189742E+03  0.22733204668E+03 -0.41036625112E+03  0.51286941398E+03  0.46999998093E+01 0.  1.
</event>
<event>
 5   0  0.6092779E-03  0.9054624E+03  0.7818609E-02  0.9418779E-01
       -1   -1    0    0    0  501  0.00000000000E+00  0.00000000000E+00  0.28842283509E+03  0.28842283513E+03  0.50400001928E-02 0.  1.
        1   -1    0    0  501    0  0.00000000000E+00  0.00000000000E+00 -0.71064249311E+03  0.71064249313E+03  0.50400001928E-02 0. -1.
    10030    2    1    2    0    0  0.00000000000E+00  0.00000000000E+00 -0.42221965802E+03  0.99906532826E+03  0.90546236284E+03 0.  0.
        2    1    3    3  502    0 -0.19919359331E+03  0.39613615158E+03 -0.11020319788E+03  0.45688804212E+03  0.25500000920E-02 0. -1.
       -2    1    3    3    0  502  0.19919359331E+03 -0.39613615158E+03 -0.31201646014E+03  0.54217728614E+03  0.25500000920E-02 0.  1.
</event>
<event>
 5   0  0.6288003E-03  0.9031945E+03  0.7818609E-02  0.9421597E-01
       -1   -1    0    0    0  501  0.00000000000E+00  0.00000000000E+00  0.20988106892E+03  0.20988106898E+03  0.50400001928E-02 0.  1.
        1   -1    0    0  501    0  0.00000000000E+00  0.00000000000E+00 -0.97169342262E+03  0.97169342264E+03  0.50400001928E-02 0. -1.
    10030    2    1    2    0    0  0.00000000000E+00  0.00000000000E+00 -0.76181235370E+03  0.11815744916E+04  0.90319445138E+03 0.  0.
        1    1    3    3  502    0  0.19250625430E+03  0.28209625105E+03  0.56340363441E+01  0.34156799497E+03  0.50400001928E-02 0.  1.
       -1    1    3    3    0  502 -0.19250625430E+03 -0.28209625105E+03 -0.76744639004E+03  0.84000649665E+03  0.50400001928E-02 0. -1.
</event>
<event>
 5   0  0.1028978E-02  0.9194084E+03  0.7818609E-02  0.9401640E-01
        2   -1    0    0  501    0  0.00000000000E+00  0.00000000000E+00  0.64974693782E+03  0.64974693783E+03  0.25500000920E-02 0. -1.
       -2   -1    0    0    0  501  0.00000000000E+00  0.00000000000E+00 -0.32524657162E+03  0.32524657163E+03  0.25500000920E-02 0.  1.
    10030    2    1    2    0    0  0.00000000000E+00  0.00000000000E+00  0.32450036620E+03  0.97499350946E+03  0.91940842710E+03 0.  0.
        3    1    3    3  502    0  0.24574648683E+03 -0.27528984938E+01  0.57423351789E+03  0.62461432701E+03  0.10100000352E+00 0. -1.
       -3    1    3    3    0  502 -0.24574648683E+03  0.27528984938E+01 -0.24973315170E+03  0.35037918245E+03  0.10100000352E+00 0.  1.
</event>
<event>
 5   0  0.1017079E-02  0.8809601E+03  0.7818609E-02  0.9449700E-01
        2   -1    0    0  501    0  0.00000000000E+00  0.00000000000E+00  0.74623256773E+03  0.74623256774E+03  0.25500000920E-02 0. -1.
       -2   -1    0    0    0  501  0.00000000000E+00  0.00000000000E+00 -0.26000292877E+03  0.26000292878E+03  0.25500000920E-02 0.  1.
    10030    2    1    2    0    0  0.00000000000E+00  0.00000000000E+00  0.48622963896E+03  0.10062354965E+04  0.88096005168E+03 0.  0.
        1    1    3    3  502    0 -0.27042742666E+03 -0.22905838538E+03 -0.55662331595E+02  0.35874368593E+03  0.50400001928E-02 0.  1.
       -1    1    3    3    0  502  0.27042742666E+03  0.22905838538E+03  0.54189197056E+03  0.64749181059E+03  0.50400001928E-02 0. -1.
</event>
<event>
 5   0  0.3996375E-03  0.9014459E+03  0.7818609E-02  0.9423776E-01
        3   -1    0    0  501    0  0.00000000000E+00  0.00000000000E+00  0.16350763288E+03  0.16350766408E+03  0.10100000352E+00 0. -1.
       -3   -1    0    0    0  501  0.00000000000E+00  0.00000000000E+00 -0.12424566616E+04  0.12424566657E+04  0.10100000352E+00 0.  1.
    10030    2    1    2    0    0  0.00000000000E+00  0.00000000000E+00 -0.10789490287E+04  0.14059643298E+04  0.90144588858E+03 0.  0.
        1    1    3    3  502    0 -0.86621051817E+02  0.39299183909E+03 -0.85607501947E+03  0.94594409518E+03  0.50400001928E-02 0. -1.
       -1    1    3    3    0  502  0.86621051817E+02 -0.39299183909E+03 -0.22287400922E+03  0.46002023458E+03  0.50400001928E-02 0.  1.
</event>
<event>
 5   0  0.1033749E-02  0.8910528E+03  0.7818609E-02  0.9436835E-01
        2   -1    0    0  501    0  0.00000000000E+00  0.00000000000E+00  0.93562470694E+03  0.93562470695E+03  0.25500000920E-02 0.  1.
       -2   -1    0    0    0  501  0.00000000000E+00  0.00000000000E+00 -0.21215105657E+03  0.21215105658E+03  0.25500000920E-02 0. -1.
    10030    2    1    2    0    0  0.00000000000E+00  0.00000000000E+00  0.72347365038E+03  0.11477757635E+04  0.89105279336E+03 0.  0.
        5    1    3    3  502    0 -0.22680839950E+03  0.25219914552E+03 -0.10314021302E+02  0.33937431859E+03  0.46999998093E+01 0. -1.
       -5    1    3    3    0  502  0.22680839950E+03 -0.25219914552E+03  0.73378767168E+03  0.80840144494E+03  0.46999998093E+01 0.  1.
</event>
<event>
 5   0  0.6015709E-03  0.9077276E+03  0.7818609E-02  0.9415973E-01
       -1   -1    0    0    0  501  0.00000000000E+00  0.00000000000E+00  0.15827035560E+03  0.15827035568E+03  0.50400001928E-02 0. -1.
        1   -1    0    0  501    0  0.00000000000E+00  0.00000000000E+00 -0.13015219318E+04  0.13015219318E+04  0.50400001928E-02 0.  1.
    10030    2    1    2    0    0  0.00000000000E+00  0.00000000000E+00 -0.11432515762E+04  0.14597922875E+04  0.90772757814E+03 0.  0.
        3    1    3    3  502    0 -0.45153463248E+03 -0.26418891385E+02 -0.51122043262E+03  0.68258905872E+03  0.10100000352E+00 0. -1.
       -3    1    3    3    0  502  0.45153463248E+03  0.26418891385E+02 -0.63203114358E+03  0.77720322877E+03  0.10100000352E+00 0.  1.
</event>
<event>
 5   0  0.3996375E-03  0.9020154E+03  0.7818609E-02  0.9423066E-01
        3   -1    0    0  501    0  0.00000000000E+00  0.00000000000E+00  0.86197962086E+03  0.86197962677E+03  0.10100000352E+00 0.  1.
       -3   -1    0    0    0  501  0.00000000000E+00  0.00000000000E+00 -0.23597764531E+03  0.23597766693E+03  0.10100000352E+00 0. -1.
    10030    2    1    2    0    0  0.00000000000E+00  0.00000000000E+00  0.62600197554E+03  0.10979572937E+04  0.90201537981E+03 0.  0.
        3    1    3    3  502    0 -0.32145427609E+03  0.13523072173E+03  0.66111024562E+03  0.74745365528E+03  0.10100000352E+00 0.  1.
       -3    1    3    3    0  502  0.32145427609E+03 -0.13523072173E+03 -0.35108270084E+02  0.35050363842E+03  0.10100000352E+00 0. -1.
</event>
<event>
 5   0  0.1003252E-02  0.9012698E+03  0.7818609E-02  0.9423996E-01
       -2   -1    0    0    0  501  0.00000000000E+00  0.00000000000E+00  0.64319826321E+03  0.64319826322E+03  0.25500000920E-02 0. -1.
        2   -1    0    0  501    0  0.00000000000E+00  0.00000000000E+00 -0.31572192744E+03  0.31572192745E+03  0.25500000920E-02 0.  1.
    10030    2    1    2    0    0  0.00000000000E+00  0.00000000000E+00  0.32747633577E+03  0.95892019067E+03  0.90126976071E+03 0.  0.
        2    1    3    3  502    0 -0.34103192852E+03  0.24437434434E+03 -0.11251696637E+02  0.41970012762E+03  0.25500000920E-02 0.  1.
       -2    1    3    3    0  502  0.34103192852E+03 -0.24437434434E+03  0.33872803241E+03  0.53922006304E+03  0.25500000920E-02 0. -1.
</event>
<event>
 5   0  0.6288003E-03  0.8740675E+03  0.7818609E-02  0.9458592E-01
       -1   -1    0    0    0  501  0.00000000000E+00  0.00000000000E+00  0.55049783567E+03  0.55049783569E+03  0.50400001928E-02 0.  1.
        1   -1    0    0  501    0  0.00000000000E+00  0.00000000000E+00 -0.34695591062E+03  0.34695591066E+03  0.50400001928E-02 0. -1.
    10030    2    1    2    0    0  0.00000000000E+00  0.00000000000E+00  0.20354192505E+03  0.89745374634E+03  0.87406745253E+03 0.  0.
        1    1    3    3  502    0  0.35613170003E+03  0.25090990341E+03  0.66012280921E+02  0.44061682748E+03  0.50400001928E-02 0. -1.
       -1    1    3    3    0  502 -0.35613170003E+03 -0.25090990341E+03  0.13752964413E+03  0.45683691886E+03  0.50400001928E-02 0.  1.
</event>
<event>
 5   0  0.1028978E-02  0.9013420E+03  0.7818609E-02  0.9423905E-01
        2   -1    0    0  501    0  0.00000000000E+00  0.00000000000E+00  0.38246430545E+03  0.38246430546E+03  0.25500000920E-02 0.  1.
       -2   -1    0    0    0  501  0.00000000000E+00  0.00000000000E+00 -0.53104136198E+03  0.53104136199E+03  0.25500000920E-02 0. -1.
    10030    2    1    2    0    0  0.00000000000E+00  0.00000000000E+00 -0.14857705653E+03  0.91350566744E+03  0.90134203426E+03 0.  0.
        3    1    3    3  502    0  0.23530569187E+02 -0.79737606049E+02  0.37462522657E+03  0.38373929182E+03  0.10100000352E+00 0.  1.
       -3    1    3    3    0  502 -0.23530569187E+02  0.79737606049E+02 -0.52320228310E+03  0.52976637562E+03  0.10100000352E+00 0. -1.
</event>
<event>
 5   0  0.1003252E-02  0.9132415E+03  0.7818609E-02  0.9409179E-01
       -2   -1    0    0    0  501  0.00000000000E+00  0.00000000000E+00  0.15667816374E+03  0.15667816376E+03  0.25500000920E-02 0.  1.
        2   -1    0    0  501    0  0.00000000000E+00  0.00000000000E+00 -0.13307693107E+04  0.13307693107E+04  0.25500000920E-02 0. -1.
    10030    2    1    2    0    0  0.00000000000E+00  0.00000000000E+00 -0.11740911469E+04  0.14874474744E+04  0.91324146198E+03 0.  0.
        2    1    3    3  502    0  0.13548675713E+03  0.16516880748E+03  0.70264105438E+02  0.22488761825E+03  0.25500000920E-02 0.  1.
       -2    1    3    3    0  502 -0.13548675713E+03 -0.16516880748E+03 -0.12443552524E+04  0.12625598562E+04  0.25500000920E-02 0. -1.
</event>
<event>
 5   0  0.6288003E-03  0.9040341E+03  0.7818609E-02  0.9420553E-01
        1   -1    0    0  501    0  0.00000000000E+00  0.00000000000E+00  0.68424165961E+03  0.68424165963E+03  0.50400001928E-02 0.  1.
       -1   -1    0    0    0  501  0.00000000000E+00  0.00000000000E+00 -0.29860708149E+03  0.29860708153E+03  0.50400001928E-02 0. -1.
    10030    2    1    2    0    0  0.00000000000E+00  0.00000000000E+00  0.38563457813E+03  0.98284874116E+03  0.90403408130E+03 0.  0.
        1    1    3    3  502    0 -0.25717220996E+03 -0.42299330610E+02 -0.20869360012E+03  0.33388590522E+03  0.50400001928E-02 0. -1.
       -1    1    3    3    0  502  0.25717220996E+03  0.42299330610E+02  0.59432817825E+03  0.64896283594E+03  0.50400001928E-02 0.  1.
</event>
<event>
 5   0  0.1033749E-02  0.8915503E+03  0.7818609E-02  0.9436206E-01
        2   -1    0    0  501    0  0.00000000000E+00  0.00000000000E+00  0.60795973247E+03  0.60795973248E+03  0.25500000920E-02 0. -1.
       -2   -1    0    0    0  501  0.00000000000E+00  0.00000000000E+00 -0.32685632324E+03  0.32685632325E+03  0.25500000920E-02 0.  1.
    10030    2    1    2    0    0  0.00000000000E+00  0.00000000000E+00  0.28110340923E+03  0.93481605572E+03  0.89155029659E+03 0.  0.
        5    1    3    3  502    0  0.14094203933E+03  0.38820696731E+02  0.58208274681E+03  0.60017840604E+03  0.46999998093E+01 0. -1.
       -5    1    3    3    0  502 -0.14094203933E+03 -0.38820696731E+02 -0.30097933757E+03  0.33463764969E+03  0.46999998093E+01 0.  1.
</event>
<event>
 5   0  0.1003252E-02  0.9033236E+03  0.7818609E-02  0.9421436E-01
       -2   -1    0    0    0  501  0.00000000000E+00  0.00000000000E+00  0.32495550106E+03  0.32495550107E+03  0.25500000920E-02 0.  1.
        2   -1    0    0  501    0  0.00000000000E+00  0.00000000000E+00 -0.62777323548E+03  0.62777323549E+03  0.25500000920E-02 0. -1.
    10030    2    1    2    0    0  0.00000000000E+00  0.00000000000E+00 -0.30281773442E+03  0.95272873656E+03  0.90332356616E+03 0.  0.
        2    1    3    3  502    0 -0.14998557136E+03  0.41218310055E+03 -0.26504086086E+03  0.51248145130E+03  0.25500000920E-02 0. -1.
       -2    1    3    3    0  502  0.14998557136E+03 -0.41218310055E+03 -0.37776873563E+02  0.44024728526E+03  0.25500000920E-02 0.  1.
</event>
<event>
 5   0  0.1033749E-02  0.8837369E+03  0.7818609E-02  0.9446143E-01
       -2   -1    0    0    0  501  0.00000000000E+00  0.00000000000E+00  0.33966985559E+03  0.33966985560E+03  0.25500000920E-02 0.  1.
        2   -1    0    0  501    0  0.00000000000E+00  0.00000000000E+00 -0.57481619944E+03  0.57481619944E+03  0.25500000920E-02 0. -1.
    10030    2    1    2    0    0  0.00000000000E+00  0.00000000000E+00 -0.23514634385E+03  0.91448605504E+03  0.88373691891E+03 0.  0.
        5    1    3    3  502    0  0.21370910744E+02  0.32894684043E+02 -0.57298486649E+03  0.57434529970E+03  0.46999998093E+01 0. -1.
       -5    1    3    3    0  502 -0.21370910744E+02 -0.32894684043E+02  0.33783852264E+03  0.34014075534E+03  0.46999998093E+01 0.  1.
</event>
<event>
 5   0  0.6288003E-03  0.9068639E+03  0.7818609E-02  0.9417042E-01
        1   -1    0    0  501    0  0.00000000000E+00  0.00000000000E+00  0.25235635554E+03  0.25235635559E+03  0.50400001928E-02 0.  1.
       -1   -1    0    0    0  501  0.00000000000E+00  0.00000000000E+00 -0.81472304464E+03  0.81472304466E+03  0.50400001928E-02 0. -1.
    10030    2    1    2    0    0  0.00000000000E+00  0.00000000000E+00 -0.56236668910E+03  0.10670794002E+04  0.90686391119E+03 0.  0.
        1    1    3    3  502    0 -0.16960038909E+03 -0.15986090969E+02  0.21327102926E+03  0.27295490292E+03  0.50400001928E-02 0.  1.
       -1    1    3    3    0  502  0.16960038909E+03  0.15986090969E+02 -0.77563771836E+03  0.79412449732E+03  0.50400001928E-02 0. -1.
</event>
<event>
 5   0  0.1041727E-02  0.9019667E+03  0.7818609E-02  0.9423126E-01
       -2   -1    0    0    0  501  0.00000000000E+00  0.00000000000E+00  0.17220308806E+03  0.17220308808E+03  0.25500000920E-02 0.  1.
        2   -1    0    0  501    0  0.00000000000E+00  0.00000000000E+00 -0.11810821686E+04  0.11810821687E+04  0.25500000920E-02 0. -1.
    10030    2    1    2    0    0  0.00000000000E+00  0.00000000000E+00 -0.10088790806E+04  0.13532852567E+04  0.90196673267E+03 0.  0.
        4    1    3    3  502    0  0.13256736319E+03  0.17610521984E+03  0.85870843414E+02  0.23656409044E+03  0.12699999809E+01 0.  1.
       -4    1    3    3    0  502 -0.13256736319E+03 -0.17610521984E+03 -0.10947499240E+04  0.11167211663E+04  0.12699999809E+01 0. -1.
</event>
<event>
 5   0  0.1028978E-02  0.9198110E+03  0.7818609E-02  0.9401150E-01
        2   -1    0    0  501    0  0.00000000000E+00  0.00000000000E+00  0.23028113976E+04  0.23028113976E+04  0.25500000920E-02 0.  1.
       -2   -1    0    0    0  501  0.00000000000E+00  0.00000000000E+00 -0.91849931177E+02  0.91849931213E+02  0.25500000920E-02 0. -1.
    10030    2    1    2    0    0  0.00000000000E+00  0.00000000000E+00  0.22109614664E+04  0.23946613288E+04  0.91981099891E+03 0.  0.
        3    1    3    3  502    0  0.41471828986E+03 -0.47132541824E+02  0.16082882847E+04  0.16615667165E+04  0.10100000352E+00 0.  1.
       -3    1    3    3    0  502 -0.41471828986E+03  0.47132541824E+02  0.60267318170E+03  0.73309461230E+03  0.10100000352E+00 0. -1.
</event>
<event>
 5   0  0.1033749E-02  0.9180056E+03  0.7818609E-02  0.9403349E-01
        2   -1    0    0  501    0  0.00000000000E+00  0.00000000000E+00  0.74078918756E+03  0.74078918756E+03  0.25500000920E-02 0.  1.
       -2   -1    0    0    0  501  0.00000000000E+00  0.00000000000E+00 -0.28440422943E+03  0.28440422944E+03  0.25500000920E-02 0. -1.
    10030    2    1    2    0    0  0.00000000000E+00  0.00000000000E+00  0.45638495813E+03  0.10251934170E+04  0.91800561668E+03 0.  0.
        5    1    3    3  502    0  0.43547569861E+03 -0.18563917003E+02  0.38878025297E+03  0.58408550589E+03  0.46999998093E+01 0.  1.
       -5    1    3    3    0  502 -0.43547569861E+03  0.18563917003E+02  0.67604705165E+02  0.44110791112E+03  0.46999998093E+01 0. -1.
</event>
<event>
 5   0  0.1028978E-02  0.8977780E+03  0.7818609E-02  0.9428363E-01
       -2   -1    0    0    0  501  0.00000000000E+00  0.00000000000E+00  0.51135999654E+03  0.51135999654E+03  0.25500000920E-02 0.  1.
        2   -1    0    0  501    0  0.00000000000E+00  0.00000000000E+00 -0.39404987606E+03  0.39404987607E+03  0.25500000920E-02 0. -1.
    10030    2    1    2    0    0  0.00000000000E+00  0.00000000000E+00  0.11731012048E+03  0.90540987261E+03  0.89777801992E+03 0.  0.
        3    1    3    3  502    0  0.21594543608E+02 -0.79984097381E+02 -0.38627277353E+03  0.39505752229E+03  0.10100000352E+00 0. -1.
       -3    1    3    3    0  502 -0.21594543608E+02  0.79984097381E+02  0.50358289400E+03  0.51035235032E+03  0.10100000352E+00 0.  1.
</event>
<event>
 5   0  0.6015709E-03  0.9013029E+03  0.7818609E-02  0.9423954E-01
       -1   -1    0    0    0  501  0.00000000000E+00  0.00000000000E+00  0.29489728623E+03  0.29489728627E+03  0.50400001928E-02 0. -1.
        1   -1    0    0  501    0  0.00000000000E+00  0.00000000000E+00 -0.68866932172E+03  0.68866932173E+03  0.50400001928E-02 0.  1.
    10030    2    1    2    0    0  0.00000000000E+00  0.00000000000E+00 -0.39377203549E+03  0.98356660801E+03  0.90130286611E+03 0.  0.
        3    1    3    3  502    0 -0.18833295902E+03 -0.27966029535E+03 -0.52318825193E+03  0.62241878298E+03  0.10100000352E+00 0.  1.
       -3    1    3    3    0  502  0.18833295902E+03  0.27966029535E+03  0.12941621644E+03  0.36114782503E+03  0.10100000352E+00 0. -1.
</event>
<event>
 5   0  0.6015709E-03  0.8937008E+03  0.7818609E-02  0.9433490E-01
       -1   -1    0    0    0  501  0.00000000000E+00  0.00000000000E+00  0.15289903330E+03  0.15289903338E+03  0.50400001928E-02 0. -1.
        1   -1    0    0  501    0  0.00000000000E+00  0.00000000000E+00 -0.13059289285E+04  0.13059289286E+04  0.50400001928E-02 0.  1.
    10030    2    1    2    0    0  0.00000000000E+00  0.00000000000E+00 -0.11530298952E+04  0.14588279619E+04  0.89370077946E+03 0.  0.
        3    1    3    3  502    0  0.49759526427E+02  0.39782059742E+03 -0.89862100172E+03  0.98400048432E+03  0.10100000352E+00 0.  1.
       -3    1    3    3    0  502 -0.49759526427E+02 -0.39782059742E+03 -0.25440889352E+03  0.47482747762E+03  0.10100000352E+00 0. -1.
</event>
<event>
 5   0  0.1041727E-02  0.9142957E+03  0.7818609E-02  0.9407885E-01
        2   -1    0    0  501    0  0.00000000000E+00  0.00000000000E+00  0.25578763993E+03  0.25578763995E+03  0.25500000920E-02 0.  1.
       -2   -1    0    0    0  501  0.00000000000E+00  0.00000000000E+00 -0.81702209822E+03  0.81702209822E+03  0.25500000920E-02 0. -1.
    10030    2    1    2    0    0  0.00000000000E+00  0.00000000000E+00 -0.56123445828E+03  0.10728097382E+04  0.91429569459E+03 0.  0.
        4    1    3    3  502    0  0.20013173051E+02 -0.29009713314E+03  0.13327857354E+03  0.31987757786E+03  0.12699999809E+01 0. -1.
       -4    1    3    3    0  502 -0.20013173051E+02  0.29009713314E+03 -0.69451303183E+03  0.75293216031E+03  0.12699999809E+01 0.  1.
</event>
<event>
 5   0  0.6211218E-03  0.9010220E+03  0.7818609E-02  0.9424305E-01
       -1   -1    0    0    0  501  0.00000000000E+00  0.00000000000E+00  0.53012716412E+03  0.53012716414E+03  0.50400001928E-02 0. -1.
        1   -1    0    0  501    0  0.00000000000E+00  0.00000000000E+00 -0.38285183802E+03  0.38285183805E+03  0.50400001928E-02 0.  1.
    10030    2    1    2    0    0  0.00000000000E+00  0.00000000000E+00  0.14727532610E+03  0.91297900219E+03  0.90102199572E+03 0.  0.
        5    1    3    3  502    0  0.11620360113E+03 -0.40313854859E+03  0.23986993881E+03  0.48330491806E+03  0.46999998093E+01 0. -1.
       -5    1    3    3    0  502 -0.11620360113E+03  0.40313854859E+03 -0.92594612709E+02  0.42967408413E+03  0.46999998093E+01 0.  1.
</event>
<event>
 5   0  0.3996375E-03  0.8861382E+03  0.7818609E-02  0.9443077E-01
        3   -1    0    0  501    0  0.00000000000E+00  0.00000000000E+00  0.63944907917E+03  0.63944908715E+03  0.10100000352E+00 0.  1.
       -3   -1    0    0    0  501  0.00000000000E+00  0.00000000000E+00 -0.30699896353E+03  0.30699898015E+03  0.10100000352E+00 0. -1.
    10030    2    1    2    0    0  0.00000000000E+00  0.00000000000E+00  0.33245011564E+03  0.94644806729E+03  0.88613817472E+03 0.  0.
        1    1    3    3  502    0  0.30201436725E+03  0.26549220984E+03  0.36492835801E+03  0.54302071601E+03  0.50400001928E-02 0.  1.
       -1    1    3    3    0  502 -0.30201436725E+03 -0.26549220984E+03 -0.32478242375E+02  0.40342735128E+03  0.50400001928E-02 0. -1.
</event>
<event>
 5   0  0.6015709E-03  0.9046215E+03  0.7818609E-02  0.9419823E-01
        1   -1    0    0  501    0  0.00000000000E+00  0.00000000000E+00  0.12568698646E+04  0.12568698647E+04  0.50400001928E-02 0.  1.
       -1   -1    0    0    0  501  0.00000000000E+00  0.00000000000E+00 -0.16277341245E+03  0.16277341253E+03  0.50400001928E-02 0. -1.
    10030    2    1    2    0    0  0.00000000000E+00  0.00000000000E+00  0.10940964522E+04  0.14196432772E+04  0.90462146102E+03 0.  0.
        3    1    3    3  502    0  0.39186032854E+03 -0.22346991182E+03  0.59889928940E+03  0.74978242685E+03  0.10100000352E+00 0. -1.
       -3    1    3    3    0  502 -0.39186032854E+03  0.22346991182E+03  0.49519716279E+03  0.66986085033E+03  0.10100000352E+00 0.  1.
</event>
<event>
 5   0  0.3996375E-03  0.9000222E+03  0.7818609E-02  0.9425554E-01
       -3   -1    0    0    0  501  0.00000000000E+00  0.00000000000E+00  0.53730107323E+03  0.53730108272E+03  0.10100000352E+00 0. -1.
        3   -1    0    0  501    0  0.00000000000E+00  0.00000000000E+00 -0.37690224728E+03  0.37690226082E+03  0.10100000352E+00 0.  1.
    10030    2    1    2    0    0  0.00000000000E+00  0.00000000000E+00  0.16039882594E+03  0.91420334353E+03  0.90002220526E+03 0.  0.
        2    1    3    3  502    0  0.19643080327E+03  0.39026430999E+03 -0.29289049389E+02  0.43789169957E+03  0.25500000920E-02 0.  1.
       -2    1    3    3    0  502 -0.19643080327E+03 -0.39026430999E+03  0.18968787533E+03  0.47631164397E+03  0.25500000920E-02 0. -1.
</event>
<event>
 5   0  0.6015709E-03  0.8933428E+03  0.7818609E-02  0.9433942E-01
       -1   -1    0    0    0  501  0.00000000000E+00  0.00000000000E+00  0.31308819415E+03  0.31308819419E+03  0.50400001928E-02 0. -1.
        1   -1    0    0  501    0  0.00000000000E+00  0.00000000000E+00 -0.63724962368E+03  0.63724962370E+03  0.50400001928E-02 0.  1.
    10030    2    1    2    0    0  0.00000000000E+00  0.00000000000E+00 -0.32416142953E+03  0.95033781790E+03  0.89334278736E+03 0.  0.
        3    1    3    3  502    0 -0.11921193560E+03  0.25174832845E+03  0.20937679171E+03  0.34846428451E+03  0.10100000352E+00 0. -1.
       -3    1    3    3    0  502  0.11921193560E+03 -0.25174832845E+03 -0.53353822124E+03  0.60187353339E+03  0.10100000352E+00 0.  1.
</event>
<event>
 5   0  0.1017079E-02  0.8970077E+03  0.7818609E-02  0.9429330E-01
        2   -1    0    0  501    0  0.00000000000E+00  0.00000000000E+00  0.55138391996E+03  0.55138391997E+03  0.25500000920E-02 0.  1.
       -2   -1    0    0    0  501  0.00000000000E+00  0.00000000000E+00 -0.36481968019E+03  0.36481968020E+03  0.25500000920E-02 0. -1.
    10030    2    1    2    0    0  0.00000000000E+00  0.00000000000E+00  0.18656423977E+03  0.91620360016E+03  0.89700770420E+03 0.  0.
        1    1    3    3  502    0  0.35441246223E+03 -0.16796222345E+03 -0.12894268431E+03  0.41285072091E+03  0.50400001928E-02 0. -1.
       -1    1    3    3    0  502 -0.35441246223E+03  0.16796222345E+03  0.31550692408E+03  0.50335287926E+03  0.50400001928E-02 0.  1.
</event>
<event>
 5   0  0.6092779E-03  0.8932128E+03  0.7818609E-02  0.9434106E-01
       -1   -1    0    0    0  501  0.00000000000E+00  0.00000000000E+00  0.41315950355E+03  0.41315950358E+03  0.50400001928E-02 0. -1.
        1   -1    0    0  501    0  0.00000000000E+00  0.00000000000E+00 -0.48276091075E+03  0.48276091078E+03  0.50400001928E-02 0.  1.
    10030    2    1    2    0    0  0.00000000000E+00  0.00000000000E+00 -0.69601407204E+02  0.89592041436E+03  0.89321275908E+03 0.  0.
        2    1    3    3  502    0  0.13715900579E+03  0.17361253983E+02  0.39115502466E+03  0.41486896646E+03  0.25500000920E-02 0. -1.
       -2    1    3    3    0  502 -0.13715900579E+03 -0.17361253983E+02 -0.46075643187E+03  0.48105144789E+03  0.25500000920E-02 0.  1.
</event>
<event>
 5   0  0.6015709E-03  0.8903290E+03  0.7818609E-02  0.9437752E-01
        1   -1    0    0  501    0  0.00000000000E+00  0.00000000000E+00  0.38084972537E+03  0.38084972541E+03  0.50400001928E-02 0.  1.
       -1   -1    0    0    0  501  0.00000000000E+00  0.00000000000E+00 -0.52034026153E+03  0.52034026156E+03  0.50400001928E-02 0. -1.
    10030    2    1    2    0    0  0.00000000000E+00  0.00000000000E+00 -0.13949053616E+03  0.90118998696E+03  0.89032903071E+03 0.  0.
        3    1    3    3  502    0  0.18195682744E+03  0.26579235936E+03  0.24127753637E+03  0.40245338252E+03  0.10100000352E+00 0.  1.
       -3    1    3    3    0  502 -0.18195682744E+03 -0.26579235936E+03 -0.38076807254E+03  0.49873660444E+03  0.10100000352E+00 0. -1.
</event>
<event>
 5   0  0.6092779E-03  0.9563135E+03  0.7818609E-02  0.9357801E-01
       -1   -1    0    0    0  501  0.00000000000E+00  0.00000000000E+00  0.86414516607E+03  0.86414516608E+03  0.50400001928E-02 0.  1.
        1   -1    0    0  501    0  0.00000000000E+00  0.00000000000E+00 -0.26457807360E+03  0.26457807365E+03  0.50400001928E-02 0. -1.
    10030    2    1    2    0    0  0.00000000000E+00  0.00000000000E+00  0.59956709247E+03  0.11287232397E+04  0.95631347034E+03 0.  0.
        2    1    3    3  502    0 -0.88129884216E+02 -0.17119949036E+03  0.81636287668E+03  0.83876366661E+03  0.25500000920E-02 0.  1.
       -2    1    3    3    0  502  0.88129884216E+02  0.17119949036E+03 -0.21679578421E+03  0.28995957313E+03  0.25500000920E-02 0. -1.
</event>
<event>
 5   0  0.6015709E-03  0.9053974E+03  0.7818609E-02  0.9418859E-01
        1   -1    0    0  501    0  0.00000000000E+00  0.00000000000E+00  0.61157592285E+03  0.61157592287E+03  0.50400001928E-02 0.  1.
       -1   -1    0    0    0  501  0.00000000000E+00  0.00000000000E+00 -0.33509510426E+03  0.33509510429E+03  0.50400001928E-02 0. -1.
    10030    2    1    2    0    0  0.00000000000E+00  0.00000000000E+00  0.27648081859E+03  0.94667102717E+03  0.90539736615E+03 0.  0.
        3    1    3    3  502    0 -0.34550998194E+03  0.17244021596E+03  0.38528062499E+03  0.54548505561E+03  0.10100000352E+00 0.  1.
       -3    1    3    3    0  502  0.34550998194E+03 -0.17244021596E+03 -0.10879980640E+03  0.40118597155E+03  0.10100000352E+00 0. -1.
</event>
<event>
 5   0  0.1033749E-02  0.8885778E+03  0.7818609E-02  0.9439973E-01
       -2   -1    0    0    0  501  0.00000000000E+00  0.00000000000E+00  0.20370357988E+03  0.20370357990E+03  0.25500000920E-02 0.  1.
        2   -1    0    0  501    0  0.00000000000E+00  0.00000000000E+00 -0.96901894033E+03  0.96901894033E+03  0.25500000920E-02 0. -1.
    10030    2    1    2    0    0  0.00000000000E+00  0.00000000000E+00 -0.76531536044E+03  0.11727225202E+04  0.88857780106E+03 0.  0.
        5    1    3    3  502    0 -0.80823203652E+02 -0.15459226386E+03 -0.92189408254E+03  0.93826539301E+03  0.46999998093E+01 0. -1.
       -5    1    3    3    0  502  0.80823203652E+02  0.15459226386E+03  0.15657872210E+03  0.23445712722E+03  0.46999998093E+01 0.  1.
</event>
<event>
 5   0  0.1017079E-02  0.8922645E+03  0.7818609E-02  0.9435303E-01
        2   -1    0    0  501    0  0.00000000000E+00  0.00000000000E+00  0.13335762884E+04  0.13335762884E+04  0.25500000920E-02 0. -1.
       -2   -1    0    0    0  501  0.00000000000E+00  0.00000000000E+00 -0.14924830146E+03  0.14924830148E+03  0.25500000920E-02 0.  1.
    10030    2    1    2    0    0  0.00000000000E+00  0.00000000000E+00  0.11843279870E+04  0.14828245899E+04  0.89226452564E+03 0.  0.
        1    1    3    3  502    0  0.12094194659E+03 -0.14009153697E+03 -0.82442085496E+02  0.20260624537E+03  0.50400001928E-02 0.  1.
       -1    1    3    3    0  502 -0.12094194659E+03  0.14009153697E+03  0.12667700725E+04  0.12802183446E+04  0.50400001928E-02 0. -1.
</event>
<event>
 5   0  0.6288003E-03  0.9007496E+03  0.7818609E-02  0.9424645E-01
        1   -1    0    0  501    0  0.00000000000E+00  0.00000000000E+00  0.82332639523E+03  0.82332639524E+03  0.50400001928E-02 0.  1.
       -1   -1    0    0    0  501  0.00000000000E+00  0.00000000000E+00 -0.24636336768E+03  0.24636336773E+03  0.50400001928E-02 0. -1.
    10030    2    1    2    0    0  0.00000000000E+00  0.00000000000E+00  0.57696302755E+03  0.10696897630E+04  0.90074960664E+03 0.  0.
        1    1    3    3  502    0 -0.41280898723E+03  0.17262753208E+03  0.34933648309E+03  0.56766848002E+03  0.50400001928E-02 0.  1.
       -1    1    3    3    0  502  0.41280898723E+03 -0.17262753208E+03  0.22762654446E+03  0.50202128295E+03  0.50400001928E-02 0. -1.
</event>
<event>
 5   0  0.1003252E-02  0.9029548E+03  0.7818609E-02  0.9421895E-01
       -2   -1    0    0    0  501  0.00000000000E+00  0.00000000000E+00  0.43980225335E+03  0.43980225336E+03  0.25500000920E-02 0. -1.
        2   -1    0    0  501    0  0.00000000000E+00  0.00000000000E+00 -0.46346243618E+03  0.46346243619E+03  0.25500000920E-02 0.  1.
    10030    2    1    2    0    0  0.00000000000E+00  0.00000000000E+00 -0.23660182830E+02  0.90326468955E+03  0.90295475808E+03 0.  0.
        2    1    3    3  502    0 -0.19390197315E+03 -0.35047563157E+03 -0.22022989755E+03  0.45709118488E+03  0.25500000920E-02 0.  1.
       -2    1    3    3    0  502  0.19390197315E+03  0.35047563157E+03  0.19656971472E+03  0.44617350467E+03  0.25500000920E-02 0. -1.
</event>
<event>
 5   0  0.1033749E-02  0.8742316E+03  0.7818609E-02  0.9458379E-01
       -2   -1    0    0    0  501  0.00000000000E+00  0.00000000000E+00  0.37464029639E+03  0.37464029640E+03  0.25500000920E-02 0. -1.
        2   -1    0    0  501    0  0.00000000000E+00  0.00000000000E+00 -0.51000982539E+03  0.51000982539E+03  0.25500000920E-02 0.  1.
    10030    2    1    2    0    0  0.00000000000E+00  0.00000000000E+00 -0.13536952900E+03  0.88465012179E+03  0.87423162183E+03 0.  0.
        5    1    3    3  502    0  0.26672312197E+03 -0.16532325173E+03 -0.37557238056E+03  0.48943815176E+03  0.46999998093E+01 0.  1.
       -5    1    3    3    0  502 -0.26672312197E+03  0.16532325173E+03  0.24020285156E+03  0.39521197003E+03  0.46999998093E+01 0. -1.
</event>
<event>
 5   0  0.6092779E-03  0.9039195E+03  0.7818609E-02  0.9420695E-01
        1   -1    0    0  501    0  0.00000000000E+00  0.00000000000E+00  0.13377269346E+03  0.13377269355E+03  0.50400001928E-02 0.  1.
       -1   -1    0    0    0  501  0.00000000000E+00  0.00000000000E+00 -0.15269755294E+04  0.15269755294E+04  0.50400001928E-02 0. -1.
    10030    2    1    2    0    0  0.00000000000E+00  0.00000000000E+00 -0.13932028359E+04  0.16607482229E+04  0.90391953069E+03 0.  0.
        2    1    3    3  502    0  0.37117812059E+03 -0.11903748065E+03 -0.11168696986E+04  0.11829374635E+04  0.25500000920E-02 0. -1.
       -2    1    3    3    0  502 -0.37117812059E+03  0.11903748065E+03 -0.27633313732E+03  0.47781075939E+03  0.25500000920E-02 0.  1.
</event>
<event>
 5   0  0.1003252E-02  0.9002224E+03  0.7818609E-02  0.9425303E-01
        2   -1    0    0  501    0  0.00000000000E+00  0.00000000000E+00  0.35674805280E+03  0.35674805281E+03  0.25500000920E-02 0.  1.
       -2   -1    0    0    0  501  0.00000000000E+00  0.00000000000E+00 -0.56790807145E+03  0.56790807145E+03  0.25500000920E-02 0. -1.
    10030    2    1    2    0    0  0.00000000000E+00  0.00000000000E+00 -0.21116001864E+03  0.92465612426E+03  0.90022241399E+03 0.  0.
        2    1    3    3  502    0  0.18663612964E+03 -0.38413333268E+03 -0.25159550078E+03  0.49567303556E+03  0.25500000920E-02 0.  1.
       -2    1    3    3    0  502 -0.18663612964E+03  0.38413333268E+03  0.40435482134E+02  0.42898308870E+03  0.25500000920E-02 0. -1.
</event>
<event>
 5   0  0.1028978E-02  0.9005637E+03  0.7818609E-02  0.9424877E-01
        2   -1    0    0  501    0  0.00000000000E+00  0.00000000000E+00  0.50688185936E+03  0.50688185936E+03  0.25500000920E-02 0.  1.
       -2   -1    0    0    0  501  0.00000000000E+00  0.00000000000E+00 -0.40000201439E+03  0.40000201440E+03  0.25500000920E-02 0. -1.
    10030    2    1    2    0    0  0.00000000000E+00  0.00000000000E+00  0.10687984496E+03  0.90688387376E+03  0.90056374524E+03 0.  0.
        3    1    3    3  502    0 -0.12935448017E+03 -0.43099543931E+03  0.69805261610E+02  0.45537065671E+03  0.10100000352E+00 0.  1.
       -3    1    3    3    0  502  0.12935448017E+03  0.43099543931E+03  0.37074583354E+02  0.45151321705E+03  0.10100000352E+00 0. -1.
</event>
<event>
 5   0  0.3996375E-03  0.8992488E+03  0.7818609E-02  0.9426521E-01
       -3   -1    0    0    0  501  0.00000000000E+00  0.00000000000E+00  0.16387319674E+03  0.16387322786E+03  0.10100000352E+00 0. -1.
        3   -1    0    0  501    0  0.00000000000E+00  0.00000000000E+00 -0.12336494696E+04  0.12336494737E+04  0.10100000352E+00 0.  1.
    10030    2    1    2    0    0  0.00000000000E+00  0.00000000000E+00 -0.10697762728E+04  0.13975227015E+04  0.89924881288E+03 0.  0.
        2    1    3    3  502    0  0.19654336542E+03  0.40307566395E+03 -0.58555326674E+03  0.73754451632E+03  0.25500000920E-02 0.  1.
       -2    1    3    3    0  502 -0.19654336542E+03 -0.40307566395E+03 -0.48422300608E+03  0.65997818523E+03  0.25500000920E-02 0. -1.
</event>
<event>
 5   0  0.6211218E-03  0.8977198E+03  0.7818609E-02  0.9428436E-01
        1   -1    0    0  501    0  0.00000000000E+00  0.00000000000E+00  0.85631794089E+03  0.85631794090E+03  0.50400001928E-02 0. -1.
       -1   -1    0    0    0  501  0.00000000000E+00  0.00000000000E+00 -0.23528085825E+03  0.23528085830E+03  0.50400001928E-02 0.  1.
    10030    2    1    2    0    0  0.00000000000E+00  0.00000000000E+00  0.62103708264E+03  0.10915987992E+04  0.89771982289E+03 0.  0.
        5    1    3    3  502    0 -0.35092251063E+03 -0.29235681946E+02  0.64892448486E+03  0.73832676412E+03  0.46999998093E+01 0. -1.
       -5    1    3    3    0  502  0.35092251063E+03  0.29235681946E+02 -0.27887402218E+02  0.35327203508E+03  0.46999998093E+01 0.  1.
</event>
<event>
 5   0  0.1017079E-02  0.8817450E+03  0.7818609E-02  0.9448693E-01
       -2   -1    0    0    0  501  0.00000000000E+00  0.00000000000E+00  0.66647663590E+03  0.66647663590E+03  0.25500000920E-02 0.  1.
        2   -1    0    0  501    0  0.00000000000E+00  0.00000000000E+00 -0.29163594889E+03  0.29163594890E+03  0.25500000920E-02 0. -1.
    10030    2    1    2    0    0  0.00000000000E+00  0.00000000000E+00  0.37484068701E+03  0.95811258480E+03  0.88174496568E+03 0.  0.
        1    1    3    3  502    0 -0.22190947821E+03  0.74644130758E+02 -0.21850215076E+03  0.32024795501E+03  0.50400001928E-02 0. -1.
       -1    1    3    3    0  502  0.22190947821E+03 -0.74644130758E+02  0.59334283777E+03  0.63786462979E+03  0.50400001928E-02 0.  1.
</event>
<event>
 5   0  0.6137243E-03  0.8709243E+03  0.7818609E-02  0.9462676E-01
        1   -1    0    0  501    0  0.00000000000E+00  0.00000000000E+00  0.66461678542E+03  0.66461678544E+03  0.50400001928E-02 0. -1.
       -1   -1    0    0    0  501  0.00000000000E+00  0.00000000000E+00 -0.28531823863E+03  0.28531823867E+03  0.50400001928E-02 0.  1.
    10030    2    1    2    0    0  0.00000000000E+00  0.00000000000E+00  0.37929854679E+03  0.94993502411E+03  0.87092431498E+03 0.  0.
        4    1    3    3  502    0 -0.42724722417E+03 -0.81022217973E+02  0.21454274036E+03  0.48490719804E+03  0.12699999809E+01 0.  1.
       -4    1    3    3    0  502  0.42724722417E+03  0.81022217973E+02  0.16475580643E+03  0.46502782607E+03  0.12699999809E+01 0. -1.
</event>
<event>
 5   0  0.6092779E-03  0.8853759E+03  0.7818609E-02  0.9444049E-01
       -1   -1    0    0    0  501  0.00000000000E+00  0.00000000000E+00  0.11290322570E+03  0.11290322581E+03  0.50400001928E-02 0. -1.
        1   -1    0    0  501    0  0.00000000000E+00  0.00000000000E+00 -0.17357574269E+04  0.17357574269E+04  0.50400001928E-02 0.  1.
    10030    2    1    2    0    0  0.00000000000E+00  0.00000000000E+00 -0.16228542012E+04  0.18486606527E+04  0.88537588096E+03 0.  0.
        2    1    3    3  502    0 -0.37453608181E+03  0.17480227239E+03 -0.11424879636E+04  0.12149534386E+04  0.25500000920E-02 0.  1.
       -2    1    3    3    0  502  0.37453608181E+03 -0.17480227239E+03 -0.48036623766E+03  0.63370721418E+03  0.25500000920E-02 0. -1.
</event>
<event>
 5   0  0.1041727E-02  0.9176794E+03  0.7818609E-02  0.9403747E-01
        2   -1    0    0  501    0  0.00000000000E+00  0.00000000000E+00  0.65307144892E+03  0.65307144892E+03  0.25500000920E-02 0.  1.
       -2   -1    0    0    0  501  0.00000000000E+00  0.00000000000E+00 -0.32237494752E+03  0.32237494753E+03  0.25500000920E-02 0. -1.
    10030    2    1    2    0    0  0.00000000000E+00  0.00000000000E+00  0.33069650140E+03  0.97544639645E+03  0.91767940824E+03 0.  0.
        4    1    3    3  502    0 -0.90522235547E+02 -0.15936093465E+03 -0.28177575183E+03  0.33613891449E+03  0.12699999809E+01 0. -1.
       -4    1    3    3    0  502  0.90522235547E+02  0.15936093465E+03  0.61247225322E+03  0.63930748196E+03  0.12699999809E+01 0.  1.
</event>
<event>
 5   0  0.1003252E-02  0.9208909E+03  0.7818609E-02  0.9399837E-01
        2   -1    0    0  501    0  0.00000000000E+00  0.00000000000E+00  0.45267913167E+03  0.45267913167E+03  0.25500000920E-02 0. -1.
       -2   -1    0    0    0  501  0.00000000000E+00  0.00000000000E+00 -0.46834497042E+03  0.46834497042E+03  0.25500000920E-02 0.  1.
    10030    2    1    2    0    0  0.00000000000E+00  0.00000000000E+00 -0.15665838751E+02  0.92102410210E+03  0.92089086115E+03 0.  0.
        2    1    3    3  502    0 -0.36521386842E+03  0.12550929879E+03 -0.25862055231E+03  0.46477773596E+03  0.25500000920E-02 0.  1.
       -2    1    3    3    0  502  0.36521386842E+03 -0.12550929879E+03  0.24295471356E+03  0.45624636613E+03  0.25500000920E-02 0. -1.
</event>
<event>
 5   0  0.1028978E-02  0.8750102E+03  0.7818609E-02  0.9457371E-01
       -2   -1    0    0    0  501  0.00000000000E+00  0.00000000000E+00  0.27667436224E+03  0.27667436225E+03  0.25500000920E-02 0.  1.
        2   -1    0    0  501    0  0.00000000000E+00  0.00000000000E+00 -0.69182662866E+03  0.69182662866E+03  0.25500000920E-02 0. -1.
    10030    2    1    2    0    0  0.00000000000E+00  0.00000000000E+00 -0.41515226642E+03  0.96850099092E+03  0.87501015142E+03 0.  0.
        3    1    3    3  502    0 -0.22372661822E+03 -0.10589941901E+03  0.19172116748E+03  0.31308992783E+03  0.10100000352E+00 0.  1.
       -3    1    3    3    0  502  0.22372661822E+03  0.10589941901E+03 -0.60687343390E+03  0.65541106309E+03  0.10100000352E+00 0. -1.
</event>
<event>
 5   0  0.3996375E-03  0.8836592E+03  0.7818609E-02  0.9446242E-01
        4   -1    0    0  501    0  0.00000000000E+00  0.00000000000E+00  0.23534324180E+03  0.23534666848E+03  0.12699999809E+01 0. -1.
       -4   -1    0    0    0  501  0.00000000000E+00  0.00000000000E+00 -0.82947380522E+03  0.82947477746E+03  0.12699999809E+01 0.  1.
    10030    2    1    2    0    0  0.00000000000E+00  0.00000000000E+00 -0.59413056341E+03  0.10648214459E+04  0.88365920204E+03 0.  0.
        1    1    3    3  502    0 -0.15346855706E+03  0.15302682216E+03  0.16689408495E+03  0.27353873935E+03  0.50400001928E-02 0. -1.
       -1    1    3    3    0  502  0.15346855706E+03 -0.15302682216E+03 -0.76102464836E+03  0.79128270659E+03  0.50400001928E-02 0.  1.
</event>
<event>
 5   0  0.1041727E-02  0.8996549E+03  0.7818609E-02  0.9426013E-01
       -2   -1    0    0    0  501  0.00000000000E+00  0.00000000000E+00  0.16143279784E+03  0.16143279786E+03  0.25500000920E-02 0.  1.
        2   -1    0    0  501    0  0.00000000000E+00  0.00000000000E+00 -0.12534300651E+04  0.12534300651E+04  0.25500000920E-02 0. -1.
    10030    2    1    2    0    0  0.00000000000E+00  0.00000000000E+00 -0.10919972672E+04  0.14148628629E+04  0.89965487231E+03 0.  0.
        4    1    3    3  502    0 -0.37792377328E+03 -0.51151298525E+02 -0.92114055320E+03  0.99696758493E+03  0.12699999809E+01 0. -1.
       -4    1    3    3    0  502  0.37792377328E+03  0.51151298525E+02 -0.17085671404E+03  0.41789527801E+03  0.12699999809E+01 0.  1.
</event>
<event>
 5   0  0.1028978E-02  0.9113641E+03  0.7818609E-02  0.9411486E-01
       -2   -1    0    0    0  501  0.00000000000E+00  0.00000000000E+00  0.36763076903E+03  0.36763076904E+03  0.25500000920E-02 0.  1.
        2   -1    0    0  501    0  0.00000000000E+00  0.00000000000E+00 -0.56482255953E+03  0.56482255953E+03  0.25500000920E-02 0. -1.
    10030    2    1    2    0    0  0.00000000000E+00  0.00000000000E+00 -0.19719179049E+03  0.93245332857E+03  0.91136414661E+03 0.  0.
        3    1    3    3  502    0 -0.26156760958E+03  0.34397270075E+03 -0.24654957424E+03  0.49751536258E+03  0.10100000352E+00 0. -1.
       -3    1    3    3    0  502  0.26156760958E+03 -0.34397270075E+03  0.49357783745E+02  0.43493796599E+03  0.10100000352E+00 0.  1.
</event>
<event>
 5   0  0.6015709E-03  0.8985511E+03  0.7818609E-02  0.9427394E-01
       -1   -1    0    0    0  501  0.00000000000E+00  0.00000000000E+00  0.22994252245E+03  0.22994252250E+03  0.50400001928E-02 0. -1.
        1   -1    0    0  501    0  0.00000000000E+00  0.00000000000E+00 -0.87782156189E+03  0.87782156190E+03  0.50400001928E-02 0.  1.
    10030    2    1    2    0    0  0.00000000000E+00  0.00000000000E+00 -0.64787903944E+03  0.11077640844E+04  0.89855106530E+03 0.  0.
        3    1    3    3  502    0  0.33754913422E+03 -0.18875098508E+03 -0.42048525226E+02  0.38901727604E+03  0.10100000352E+00 0. -1.
       -3    1    3    3    0  502 -0.33754913422E+03  0.18875098508E+03 -0.60583051422E+03  0.71874680837E+03  0.10100000352E+00 0.  1.
</event>
<event>
 5   0  0.1028978E-02  0.9062363E+03  0.7818609E-02  0.9417819E-01
       -2   -1    0    0    0  501  0.00000000000E+00  0.00000000000E+00  0.23607665184E+03  0.23607665186E+03  0.25500000920E-02 0. -1.
        2   -1    0    0  501    0  0.00000000000E+00  0.00000000000E+00 -0.86970076921E+03  0.86970076921E+03  0.25500000920E-02 0.  1.
    10030    2    1    2    0    0  0.00000000000E+00  0.00000000000E+00 -0.63362411737E+03  0.11057774211E+04  0.90623627319E+03 0.  0.
        3    1    3    3  502    0 -0.20098115463E+03 -0.31476048931E+03 -0.37005437338E+01  0.37347194590E+03  0.10100000352E+00 0. -1.
       -3    1    3    3    0  502  0.20098115463E+03  0.31476048931E+03 -0.62992357363E+03  0.73230547517E+03  0.10100000352E+00 0.  1.
</event>
<event>
 5   0  0.6092779E-03  0.8809773E+03  0.7818609E-02  0.9449678E-01
       -1   -1    0    0    0  501  0.00000000000E+00  0.00000000000E+00  0.47516729001E+03  0.47516729004E+03  0.50400001928E-02 0. -1.
        1   -1    0    0  501    0  0.00000000000E+00  0.00000000000E+00 -0.40834093451E+03  0.40834093454E+03  0.50400001928E-02 0.  1.
    10030    2    1    2    0    0  0.00000000000E+00  0.00000000000E+00  0.66826355507E+02  0.88350822458E+03  0.88097731021E+03 0.  0.
        2    1    3    3  502    0  0.24881041276E+03 -0.46417930843E+02 -0.32813466789E+03  0.41440753623E+03  0.25500000920E-02 0.  1.
       -2    1    3    3    0  502 -0.24881041276E+03  0.46417930843E+02  0.39496102340E+03  0.46910068835E+03  0.25500000920E-02 0. -1.
</event>
<event>
 5   0  0.6288003E-03  0.8848967E+03  0.7818609E-02  0.9444661E-01
        1   -1    0    0  501    0  0.00000000000E+00  0.00000000000E+00  0.31578736810E+03  0.31578736814E+03  0.50400001928E-02 0.  1.
       -1   -1    0    0    0  501  0.00000000000E+00  0.00000000000E+00 -0.61991246018E+03  0.61991246020E+03  0.50400001928E-02 0. -1.
    10030    2    1    2    0    0  0.00000000000E+00  0.00000000000E+00 -0.30412509208E+03  0.93569982834E+03  0.88489665901E+03 0.  0.
        1    1    3    3  502    0 -0.24737370228E+03 -0.35433928073E+03 -0.51689470791E+02  0.43522623526E+03  0.50400001928E-02 0. -1.
       -1    1    3    3    0  502  0.24737370228E+03  0.35433928073E+03 -0.25243562129E+03  0.50047359307E+03  0.50400001928E-02 0.  1.
</event>
<event>
 5   0  0.1041727E-02  0.9050056E+03  0.7818609E-02  0.9419346E-01
       -2   -1    0    0    0  501  0.00000000000E+00  0.00000000000E+00  0.89279081389E+02  0.89279081426E+02  0.25500000920E-02 0.  1.
        2   -1    0    0  501    0  0.00000000000E+00  0.00000000000E+00 -0.22934686655E+04  0.22934686655E+04  0.25500000920E-02 0. -1.
    10030    2    1    2    0    0  0.00000000000E+00  0.00000000000E+00 -0.22041895841E+04  0.23827477469E+04  0.90500558162E+03 0.  0.
        4    1    3    3  502    0  0.77706727876E+02 -0.33278538865E+03 -0.18830044623E+04  0.19137637964E+04  0.12699999809E+01 0. -1.
       -4    1    3    3    0  502 -0.77706727876E+02  0.33278538865E+03 -0.32118512173E+03  0.46898395045E+03  0.12699999809E+01 0.  1.
</event>
<event>
 5   0  0.1041727E-02  0.8854121E+03  0.7818609E-02  0.9444003E-01
        2   -1    0    0  501    0  0.00000000000E+00  0.00000000000E+00  0.58478199256E+03  0.58478199257E+03  0.25500000920E-02 0. -1.
       -2   -1    0    0    0  501  0.00000000000E+00  0.00000000000E+00 -0.33514821978E+03  0.33514821979E+03  0.25500000920E-02 0.  1.
    10030    2    1    2    0    0  0.00000000000E+00  0.00000000000E+00  0.24963377278E+03  0.91993021236E+03  0.88541209338E+03 0.  0.
        4    1    3    3  502    0  0.33594365493E+03  0.28583586434E+03  0.85571969719E+02  0.44931554116E+03  0.12699999809E+01 0.  1.
       -4    1    3    3    0  502 -0.33594365493E+03 -0.28583586434E+03  0.16406180306E+03  0.47061467120E+03  0.12699999809E+01 0. -1.
</event>
<event>
 5   0  0.1041727E-02  0.8983029E+03  0.7818609E-02  0.9427705E-01
       -2   -1    0    0    0  501  0.00000000000E+00  0.00000000000E+00  0.58036028410E+03  0.58036028410E+03  0.25500000920E-02 0. -1.
        2   -1    0    0  501    0  0.00000000000E+00  0.00000000000E+00 -0.34760656133E+03  0.34760656134E+03  0.25500000920E-02 0.  1.
    10030    2    1    2    0    0  0.00000000000E+00  0.00000000000E+00  0.23275372277E+03  0.92796684544E+03  0.89830293931E+03 0.  0.
        4    1    3    3  502    0 -0.36848274685E+03  0.23572903554E+03  0.22166263465E+03  0.49039132275E+03  0.12699999809E+01 0. -1.
       -4    1    3    3    0  502  0.36848274685E+03 -0.23572903554E+03  0.11091088113E+02  0.43757552269E+03  0.12699999809E+01 0.  1.
</event>
<event>
 5   0  0.3996375E-03  0.9040624E+03  0.7818609E-02  0.9420517E-01
        3   -1    0    0  501    0  0.00000000000E+00  0.00000000000E+00  0.85414933354E+03  0.85414933951E+03  0.10100000352E+00 0.  1.
       -3   -1    0    0    0  501  0.00000000000E+00  0.00000000000E+00 -0.23922301407E+03  0.23922303539E+03  0.10100000352E+00 0. -1.
    10030    2    1    2    0    0  0.00000000000E+00  0.00000000000E+00  0.61492631947E+03  0.10933723749E+04  0.90406237164E+03 0.  0.
        1    1    3    3  502    0  0.32817122997E+02  0.58984112371E+01  0.85266008114E+03  0.85331176530E+03  0.50400001928E-02 0.  1.
       -1    1    3    3    0  502 -0.32817122997E+02 -0.58984112371E+01 -0.23773376167E+03  0.24006060960E+03  0.50400001928E-02 0. -1.
</event>
<event>
 5   0  0.6288003E-03  0.9219309E+03  0.7818609E-02  0.9398575E-01
       -1   -1    0    0    0  501  0.00000000000E+00  0.00000000000E+00  0.65550021151E+03  0.65550021153E+03  0.50400001928E-02 0. -1.
        1   -1    0    0  501    0  0.00000000000E+00  0.00000000000E+00 -0.32416332623E+03  0.32416332627E+03  0.50400001928E-02 0.  1.
    10030    2    1    2    0    0  0.00000000000E+00  0.00000000000E+00  0.33133688528E+03  0.97966353780E+03  0.92193086278E+03 0.  0.
        1    1    3    3  502    0 -0.97897254520E+01  0.94229998560E+02 -0.31370694565E+03  0.32769983083E+03  0.50400001928E-02 0.  1.
       -1    1    3    3    0  502  0.97897254520E+01 -0.94229998560E+02  0.64504383093E+03  0.65196370696E+03  0.50400001928E-02 0. -1.
</event>
<event>
 5   0  0.3996375E-03  0.8962238E+03  0.7818609E-02  0.9430314E-01
       -3   -1    0    0    0  501  0.00000000000E+00  0.00000000000E+00  0.16741594002E+03  0.16741597049E+03  0.10100000352E+00 0. -1.
        3   -1    0    0  501    0  0.00000000000E+00  0.00000000000E+00 -0.11994331675E+04  0.11994331717E+04  0.10100000352E+00 0.  1.
    10030    2    1    2    0    0  0.00000000000E+00  0.00000000000E+00 -0.10320172274E+04  0.13668491422E+04  0.89622375543E+03 0.  0.
        1    1    3    3  502    0 -0.11764151043E+03 -0.36457953991E+03 -0.16145013392E+03  0.41572095408E+03  0.50400001928E-02 0. -1.
       -1    1    3    3    0  502  0.11764151043E+03  0.36457953991E+03 -0.87056709351E+03  0.95112818811E+03  0.50400001928E-02 0.  1.
</event>
<event>
 5   0  0.1028978E-02  0.9043051E+03  0.7818609E-02  0.9420216E-01
       -2   -1    0    0    0  501  0.00000000000E+00  0.00000000000E+00  0.58906783241E+03  0.58906783241E+03  0.25500000920E-02 0. -1.
        2   -1    0    0  501    0  0.00000000000E+00  0.00000000000E+00 -0.34706005599E+03  0.34706005600E+03  0.25500000920E-02 0.  1.
    10030    2    1    2    0    0  0.00000000000E+00  0.00000000000E+00  0.24200777642E+03  0.93612788842E+03  0.90430507000E+03 0.  0.
        3    1    3    3  502    0  0.36300092492E+03  0.25713531873E+03  0.20480739783E+03  0.48972882704E+03  0.10100000352E+00 0.  1.
       -3    1    3    3    0  502 -0.36300092492E+03 -0.25713531873E+03  0.37200378587E+02  0.44639906137E+03  0.10100000352E+00 0. -1.
</event>
<event>
 5   0  0.1017079E-02  0.9008127E+03  0.7818609E-02  0.9424566E-01
       -2   -1    0    0    0  501  0.00000000000E+00  0.00000000000E+00  0.28638664231E+03  0.28638664232E+03  0.25500000920E-02 0. -1.
        2   -1    0    0  501    0  0.00000000000E+00  0.00000000000E+00 -0.70836355220E+03  0.70836355220E+03  0.25500000920E-02 0.  1.
    10030    2    1    2    0    0  0.00000000000E+00  0.00000000000E+00 -0.42197690989E+03  0.99475019452E+03  0.90081265367E+03 0.  0.
        1    1    3    3  502    0 -0.35808241397E+03  0.18974889063E+03  0.60756501190E+01  0.40529565781E+03  0.50400001928E-02 0. -1.
       -1    1    3    3    0  502  0.35808241397E+03 -0.18974889063E+03 -0.42805256001E+03  0.58945453671E+03  0.50400001928E-02 0.  1.
</event>
<event>
 5   0  0.3996375E-03  0.8872154E+03  0.7818609E-02  0.9441705E-01
       -4   -1    0    0    0  501  0.00000000000E+00  0.00000000000E+00  0.10220325803E+04  0.10220333693E+04  0.12699999809E+01 0.  1.
        4   -1    0    0  501    0  0.00000000000E+00  0.00000000000E+00 -0.19254254115E+03  0.19254672953E+03  0.12699999809E+01 0. -1.
    10030    2    1    2    0    0  0.00000000000E+00  0.00000000000E+00  0.82949003911E+03  0.12145800989E+04  0.88721535804E+03 0.  0.
        1    1    3    3  502    0 -0.74219782902E+01 -0.34081598566E+03  0.80334525892E+03  0.87268220270E+03  0.50400001928E-02 0.  1.
       -1    1    3    3    0  502  0.74219782902E+01  0.34081598566E+03  0.26144780186E+02  0.34189789616E+03  0.50400001928E-02 0. -1.
</event>
<event>
 5   0  0.6288003E-03  0.8974547E+03  0.7818609E-02  0.9428769E-01
        1   -1    0    0  501    0  0.00000000000E+00  0.00000000000E+00  0.23563351476E+03  0.23563351482E+03  0.50400001928E-02 0.  1.
       -1   -1    0    0    0  501  0.00000000000E+00  0.00000000000E+00 -0.85453145381E+03  0.85453145383E+03  0.50400001928E-02 0. -1.
    10030    2    1    2    0    0  0.00000000000E+00  0.00000000000E+00 -0.61889793905E+03  0.10901649686E+04  0.89745473418E+03 0.  0.
        1    1    3    3  502    0  0.39657385047E+02 -0.12077401031E+03  0.21330441627E+03  0.24830997520E+03  0.50400001928E-02 0.  1.
       -1    1    3    3    0  502 -0.39657385047E+02  0.12077401031E+03 -0.83220235533E+03  0.84185499345E+03  0.50400001928E-02 0. -1.
</event>
<event>
 5   0  0.6092779E-03  0.9054197E+03  0.7818609E-02  0.9418832E-01
        1   -1    0    0  501    0  0.00000000000E+00  0.00000000000E+00  0.40170297906E+03  0.40170297909E+03  0.50400001928E-02 0. -1.
       -1   -1    0    0    0  501  0.00000000000E+00  0.00000000000E+00 -0.51019339423E+03  0.51019339426E+03  0.50400001928E-02 0.  1.
    10030    2    1    2    0    0  0.00000000000E+00  0.00000000000E+00 -0.10849041517E+03  0.91189637335E+03  0.90541969580E+03 0.  0.
        2    1    3    3  502    0 -0.30954287031E+03 -0.25549425932E+03  0.15666167634E+03  0.43085610816E+03  0.25500000920E-02 0. -1.
       -2    1    3    3    0  502  0.30954287031E+03  0.25549425932E+03 -0.26515209151E+03  0.48104026519E+03  0.25500000920E-02 0.  1.
</event>
<event>
 5   0  0.1028978E-02  0.9047592E+03  0.7818609E-02  0.9419652E-01
       -2   -1    0    0    0  501  0.00000000000E+00  0.00000000000E+00  0.10872588979E+03  0.10872588982E+03  0.25500000920E-02 0.  1.
        2   -1    0    0  501    0  0.00000000000E+00  0.00000000000E+00 -0.18822315273E+04  0.18822315273E+04  0.25500000920E-02 0. -1.
    10030    2    1    2    0    0  0.00000000000E+00  0.00000000000E+00 -0.17735056375E+04  0.19909574171E+04  0.90475918922E+03 0.  0.
        3    1    3    3  502    0  0.34811327979E+03 -0.12096354481E+02 -0.15219355373E+04  0.15612869586E+04  0.10100000352E+00 0. -1.
       -3    1    3    3    0  502 -0.34811327979E+03  0.12096354481E+02 -0.25157010022E+03  0.42967045847E+03  0.10100000352E+00 0.  1.
</event>
<event>
 5   0  0.6092779E-03  0.8993467E+03  0.7818609E-02  0.9426398E-01
        1   -1    0    0  501    0  0.00000000000E+00  0.00000000000E+00  0.25936807251E+03  0.25936807256E+03  0.50400001928E-02 0.  1.
       -1   -1    0    0    0  501  0.00000000000E+00  0.00000000000E+00 -0.77961068080E+03  0.77961068081E+03  0.50400001928E-02 0. -1.
    10030    2    1    2    0    0  0.00000000000E+00  0.00000000000E+00 -0.52024260829E+03  0.10389787534E+04  0.89934669537E+03 0.  0.
        2    1    3    3  502    0 -0.33821032111E+03  0.25007356746E+03 -0.44381521620E+03  0.61146950585E+03  0.25500000920E-02 0.  1.
       -2    1    3    3    0  502  0.33821032111E+03 -0.25007356746E+03 -0.76427392086E+02  0.42750924752E+03  0.25500000920E-02 0. -1.
</event>
<event>
 5   0  0.1003252E-02  0.8934108E+03  0.7818609E-02  0.9433856E-01
       -2   -1    0    0    0  501  0.00000000000E+00  0.00000000000E+00  0.54128540001E+03  0.54128540001E+03  0.25500000920E-02 0.  1.
        2   -1    0    0  501    0  0.00000000000E+00  0.00000000000E+00 -0.36865154996E+03  0.36865154997E+03  0.25500000920E-02 0. -1.
    10030    2    1    2    0    0  0.00000000000E+00  0.00000000000E+00  0.17263385005E+03  0.90993694998E+03  0.89341077157E+03 0.  0.
        2    1    3    3  502    0  0.25162524858E+03  0.30376202593E+03 -0.12722558954E+03  0.41445504553E+03  0.25500000920E-02 0. -1.
       -2    1    3    3    0  502 -0.25162524858E+03 -0.30376202593E+03  0.29985943959E+03  0.49548190445E+03  0.25500000920E-02 0.  1.
</event>
<event>
 5   0  0.6015709E-03  0.8979493E+03  0.7818609E-02  0.9428149E-01
        1   -1    0    0  501    0  0.00000000000E+00  0.00000000000E+00  0.44740768400E+03  0.44740768403E+03  0.50400001928E-02 0.  1.
       -1   -1    0    0    0  501  0.00000000000E+00  0.00000000000E+00 -0.45054705891E+03  0.45054705893E+03  0.50400001928E-02 0. -1.
    10030    2    1    2    0    0  0.00000000000E+00  0.00000000000E+00 -0.31393749084E+01  0.89795474296E+03  0.89794925510E+03 0.  0.
        3    1    3    3  502    0 -0.33868435947E+03  0.19099233943E+03 -0.22605499404E+03  0.44976220339E+03  0.10100000352E+00 0. -1.
       -3    1    3    3    0  502  0.33868435947E+03 -0.19099233943E+03  0.22291561913E+03  0.44819253957E+03  0.10100000352E+00 0.  1.
</event>
<event>
 5   0  0.6288003E-03  0.9392594E+03  0.7818609E-02  0.9377793E-01
       -1   -1    0    0    0  501  0.00000000000E+00  0.00000000000E+00  0.93779552585E+03  0.93779552587E+03  0.50400001928E-02 0. -1.
        1   -1    0    0  501    0  0.00000000000E+00  0.00000000000E+00 -0.23518141165E+03  0.23518141170E+03  0.50400001928E-02 0.  1.
    10030    2    1    2    0    0  0.00000000000E+00  0.00000000000E+00  0.70261411420E+03  0.11729769376E+04  0.93925944371E+03 0.  0.
        1    1    3    3  502    0 -0.31903815789E+03 -0.85967058806E+02 -0.65466810175E+02  0.33684059234E+03  0.50400001928E-02 0.  1.
       -1    1    3    3    0  502  0.31903815789E+03  0.85967058806E+02  0.76808092438E+03  0.83613634523E+03  0.50400001928E-02 0. -1.
</event>
<event>
 5   0  0.1041727E-02  0.8962075E+03  0.7818609E-02  0.9430335E-01
       -2   -1    0    0    0  501  0.00000000000E+00  0.00000000000E+00  0.44336601016E+03  0.44336601017E+03  0.25500000920E-02 0.  1.
        2   -1    0    0  501    0  0.00000000000E+00  0.00000000000E+00 -0.45289207631E+03  0.45289207631E+03  0.25500000920E-02 0. -1.
    10030    2    1    2    0    0  0.00000000000E+00  0.00000000000E+00 -0.95260661473E+01  0.89625808648E+03  0.89620746016E+03 0.  0.
        4    1    3    3  502    0  0.25442968152E+02  0.27966427816E+03 -0.35397595307E+03  0.45184072565E+03  0.12699999809E+01 0. -1.
       -4    1    3    3    0  502 -0.25442968152E+02 -0.27966427816E+03  0.34444988692E+03  0.44441736083E+03  0.12699999809E+01 0.  1.
</event>
<event>
 5   0  0.1033749E-02  0.8970518E+03  0.7818609E-02  0.9429274E-01
       -2   -1    0    0    0  501  0.00000000000E+00  0.00000000000E+00  0.26377640699E+03  0.26377640700E+03  0.25500000920E-02 0.  1.
        2   -1    0    0  501    0  0.00000000000E+00  0.00000000000E+00 -0.76267429632E+03  0.76267429633E+03  0.25500000920E-02 0. -1.
    10030    2    1    2    0    0  0.00000000000E+00  0.00000000000E+00 -0.49889788934E+03  0.10264507033E+04  0.89705180585E+03 0.  0.
        5    1    3    3  502    0 -0.94026730987E+02  0.89837601614E+02  0.24170132899E+03  0.27450581640E+03  0.46999998093E+01 0.  1.
       -5    1    3    3    0  502  0.94026730987E+02 -0.89837601614E+02 -0.74059921832E+03  0.75194488693E+03  0.46999998093E+01 0. -1.
</event>
<event>
 5   0  0.6092779E-03  0.8968649E+03  0.7818609E-02  0.9429509E-01
       -1   -1    0    0    0  501  0.00000000000E+00  0.00000000000E+00  0.24807273788E+03  0.24807273793E+03  0.50400001928E-02 0.  1.
        1   -1    0    0  501    0  0.00000000000E+00  0.00000000000E+00 -0.81061573055E+03  0.81061573057E+03  0.50400001928E-02 0. -1.
    10030    2    1    2    0    0  0.00000000000E+00  0.00000000000E+00 -0.56254299267E+03  0.10586884685E+04  0.89686490328E+03 0.  0.
        2    1    3    3  502    0 -0.17176045988E+03 -0.37374195981E+03 -0.49212646398E+03  0.64138378889E+03  0.25500000920E-02 0. -1.
       -2    1    3    3    0  502  0.17176045988E+03  0.37374195981E+03 -0.70416528691E+02  0.41730467960E+03  0.25500000920E-02 0.  1.
</event>
<event>
 5   0  0.6092779E-03  0.9066037E+03  0.7818609E-02  0.9417364E-01
       -1   -1    0    0    0  501  0.00000000000E+00  0.00000000000E+00  0.32663754709E+03  0.32663754713E+03  0.50400001928E-02 0. -1.
        1   -1    0    0  501    0  0.00000000000E+00  0.00000000000E+00 -0.62908435990E+03  0.62908435992E+03  0.50400001928E-02 0.  1.
    10030    2    1    2    0    0  0.00000000000E+00  0.00000000000E+00 -0.30244681281E+03  0.95572190705E+03  0.90660371114E+03 0.  0.
        2    1    3    3  502    0  0.13345956800E+03  0.26960944399E+03 -0.50868445115E+03  0.59098272346E+03  0.25500000920E-02 0.  1.
       -2    1    3    3    0  502 -0.13345956800E+03 -0.26960944399E+03  0.20623763834E+03  0.36473918360E+03  0.25500000920E-02 0. -1.
</event>
<event>
 5   0  0.6288003E-03  0.8753414E+03  0.7818609E-02  0.9456942E-01
       -1   -1    0    0    0  501  0.00000000000E+00  0.00000000000E+00  0.11134460596E+04  0.11134460596E+04  0.50400001928E-02 0. -1.
        1   -1    0    0  501    0  0.00000000000E+00  0.00000000000E+00 -0.17203853646E+03  0.17203853653E+03  0.50400001928E-02 0.  1.
    10030    2    1    2    0    0  0.00000000000E+00  0.00000000000E+00  0.94140752314E+03  0.12854845961E+04  0.87534137471E+03 0.  0.
        1    1    3    3  502    0 -0.33227321584E+03  0.27870017939E+03  0.55729046481E+03  0.70615291697E+03  0.50400001928E-02 0.  1.
       -1    1    3    3    0  502  0.33227321584E+03 -0.27870017939E+03  0.38411705833E+03  0.57933167916E+03  0.50400001928E-02 0. -1.
</event>
<event>
 5   0  0.6211218E-03  0.9146835E+03  0.7818609E-02  0.9407410E-01
       -1   -1    0    0    0  501  0.00000000000E+00  0.00000000000E+00  0.72607740635E+03  0.72607740637E+03  0.50400001928E-02 0. -1.
        1   -1    0    0  501    0  0.00000000000E+00  0.00000000000E+00 -0.28807050554E+03  0.28807050558E+03  0.50400001928E-02 0.  1.
    10030    2    1    2    0    0  0.00000000000E+00  0.00000000000E+00  0.43800690081E+03  0.10141479120E+04  0.91468352022E+03 0.  0.
        5    1    3    3  502    0  0.13810941811E+03 -0.41640451044E+03  0.75840582203E+02  0.44524241891E+03  0.46999998093E+01 0.  1.
       -5    1    3    3    0  502 -0.13810941811E+03  0.41640451044E+03  0.36216631861E+03  0.56890549305E+03  0.46999998093E+01 0. -1.
</event>
<event>
 5   0  0.6015709E-03  0.8971494E+03  0.7818609E-02  0.9429152E-01
        1   -1    0    0  501    0  0.00000000000E+00  0.00000000000E+00  0.54256703600E+03  0.54256703603E+03  0.50400001928E-02 0.  1.
       -1   -1    0    0    0  501  0.00000000000E+00  0.00000000000E+00 -0.37086525775E+03  0.37086525779E+03  0.50400001928E-02 0. -1.
    10030    2    1    2    0    0  0.00000000000E+00  0.00000000000E+00  0.17170177825E+03  0.91343229381E+03  0.89714940491E+03 0.  0.
        3    1    3    3  502    0  0.43894062416E+03 -0.70072938266E+02  0.24422073921E+02  0.44516910956E+03  0.10100000352E+00 0. -1.
       -3    1    3    3    0  502 -0.43894062416E+03  0.70072938266E+02  0.14727970433E+03  0.46826318425E+03  0.10100000352E+00 0.  1.
</event>
<event>
 5   0  0.1017079E-02  0.9131093E+03  0.7818609E-02  0.9409341E-01
        2   -1    0    0  501    0  0.00000000000E+00  0.00000000000E+00  0.13599007654E+04  0.13599007654E+04  0.25500000920E-02 0. -1.
       -2   -1    0    0    0  501  0.00000000000E+00  0.00000000000E+00 -0.15327748527E+03  0.15327748529E+03  0.25500000920E-02 0.  1.
    10030    2    1    2    0    0  0.00000000000E+00  0.00000000000E+00  0.12066232801E+04  0.15131782506E+04  0.91310934625E+03 0.  0.
        1    1    3    3  502    0  0.12904135732E+02 -0.10494838326E+03  0.13393296757E+04  0.13434971753E+04  0.50400001928E-02 0. -1.
       -1    1    3    3    0  502 -0.12904135732E+02  0.10494838326E+03 -0.13270639560E+03  0.16968107534E+03  0.50400001928E-02 0.  1.
</event>
<event>
 5   0  0.6211218E-03  0.9013648E+03  0.7818609E-02  0.9423877E-01
       -1   -1    0    0    0  501  0.00000000000E+00  0.00000000000E+00  0.87302509282E+03  0.87302509283E+03  0.50400001928E-02 0.  1.
        1   -1    0    0  501    0  0.00000000000E+00  0.00000000000E+00 -0.23265612875E+03  0.23265612881E+03  0.50400001928E-02 0. -1.
    10030    2    1    2    0    0  0.00000000000E+00  0.00000000000E+00  0.64036896406E+03  0.11056812216E+04  0.90136482833E+03 0.  0.
        5    1    3    3  502    0 -0.25056896380E+03  0.11160891620E+03 -0.11842873854E+03  0.29881233560E+03  0.46999998093E+01 0. -1.
       -5    1    3    3    0  502  0.25056896380E+03 -0.11160891620E+03  0.75879770260E+03  0.80686888604E+03  0.46999998093E+01 0.  1.
</event>
<event>
 5   0  0.6288003E-03  0.8838876E+03  0.7818609E-02  0.9445950E-01
       -1   -1    0    0    0  501  0.00000000000E+00  0.00000000000E+00  0.76196255385E+03  0.76196255386E+03  0.50400001928E-02 0.  1.
        1   -1    0    0  501    0  0.00000000000E+00  0.00000000000E+00 -0.25633057866E+03  0.25633057871E+03  0.50400001928E-02 0. -1.
    10030    2    1    2    0    0  0.00000000000E+00  0.00000000000E+00  0.50563197518E+03  0.10182931326E+04  0.88388755480E+03 0.  0.
        1    1    3    3  502    0 -0.33978025705E+03  0.61147812621E+02 -0.65045840606E+02  0.35131273742E+03  0.50400001928E-02 0. -1.
       -1    1    3    3    0  502  0.33978025705E+03 -0.61147812621E+02  0.57067781579E+03  0.66698039516E+03  0.50400001928E-02 0.  1.
</event>
<event>
 5   0  0.6288003E-03  0.1011369E+04  0.7818609E-02  0.9296163E-01
       -1   -1    0    0    0  501  0.00000000000E+00  0.00000000000E+00  0.16513038464E+03  0.16513038471E+03  0.50400001928E-02 0. -1.
        1   -1    0    0  501    0  0.00000000000E+00  0.00000000000E+00 -0.15485746445E+04  0.15485746445E+04  0.50400001928E-02 0.  1.
    10030    2    1    2    0    0  0.00000000000E+00  0.00000000000E+00 -0.13834442599E+04  0.17137050292E+04  0.10113688284E+04 0.  0.
        1    1    3    3  502    0 -0.68994357790E+02 -0.20147756748E+03  0.85439749249E+02  0.22946324843E+03  0.50400001928E-02 0. -1.
       -1    1    3    3    0  502  0.68994357790E+02  0.20147756748E+03 -0.14688840091E+04  0.14842417808E+04  0.50400001928E-02 0.  1.
</event>
<event>
 5   0  0.6092779E-03  0.8984921E+03  0.7818609E-02  0.9427468E-01
       -1   -1    0    0    0  501  0.00000000000E+00  0.00000000000E+00  0.93065219026E+03  0.93065219028E+03  0.50400001928E-02 0.  1.
        1   -1    0    0  501    0  0.00000000000E+00  0.00000000000E+00 -0.21686085402E+03  0.21686085408E+03  0.50400001928E-02 0. -1.
    10030    2    1    2    0    0  0.00000000000E+00  0.00000000000E+00  0.71379133624E+03  0.11475130444E+04  0.89849213423E+03 0.  0.
        2    1    3    3  502    0  0.74660801981E+02  0.15569430771E+03 -0.17278790951E+03  0.24427569360E+03  0.25500000920E-02 0. -1.
       -2    1    3    3    0  502 -0.74660801981E+02 -0.15569430771E+03  0.88657924575E+03  0.90323735076E+03  0.25500000920E-02 0.  1.
</event>
<event>
 5   0  0.6015709E-03  0.9054218E+03  0.7818609E-02  0.9418829E-01
        1   -1    0    0  501    0  0.00000000000E+00  0.00000000000E+00  0.94626192646E+03  0.94626192647E+03  0.50400001928E-02 0. -1.
       -1   -1    0    0    0  501  0.00000000000E+00  0.00000000000E+00 -0.21658606677E+03  0.21658606683E+03  0.50400001928E-02 0.  1.
    10030    2    1    2    0    0  0.00000000000E+00  0.00000000000E+00  0.72967585968E+03  0.11628479933E+04  0.90542177758E+03 0.  0.
        3    1    3    3  502    0  0.10884858013E+03 -0.11730356092E+03  0.90872581263E+03  0.92270837838E+03  0.10100000352E+00 0. -1.
       -3    1    3    3    0  502 -0.10884858013E+03  0.11730356092E+03 -0.17904995295E+03  0.24013961492E+03  0.10100000352E+00 0.  1.
</event>
<event>
 5   0  0.1017079E-02  0.8935717E+03  0.7818609E-02  0.9433653E-01
       -2   -1    0    0    0  501  0.00000000000E+00  0.00000000000E+00  0.78018870685E+03  0.78018870685E+03  0.25500000920E-02 0.  1.
        2   -1    0    0  501    0  0.00000000000E+00  0.00000000000E+00 -0.25585810873E+03  0.25585810874E+03  0.25500000920E-02 0. -1.
    10030    2    1    2    0    0  0.00000000000E+00  0.00000000000E+00  0.52433059812E+03  0.10360468156E+04  0.89357172515E+03 0.  0.
        1    1    3    3  502    0  0.35057109689E+03 -0.23277391241E+03  0.43621262690E+03  0.60610662772E+03  0.50400001928E-02 0.  1.
       -1    1    3    3    0  502 -0.35057109689E+03  0.23277391241E+03  0.88117971217E+02  0.42994018788E+03  0.50400001928E-02 0. -1.
</event>
<event>
 5   0  0.1028978E-02  0.8940734E+03  0.7818609E-02  0.9433020E-01
        2   -1    0    0  501    0  0.00000000000E+00  0.00000000000E+00  0.12450070830E+04  0.12450070830E+04  0.25500000920E-02 0.  1.
       -2   -1    0    0    0  501  0.00000000000E+00  0.00000000000E+00 -0.16051460730E+03  0.16051460732E+03  0.25500000920E-02 0. -1.
    10030    2    1    2    0    0  0.00000000000E+00  0.00000000000E+00  0.10844924757E+04  0.14055216903E+04  0.89407342657E+03 0.  0.
        3    1    3    3  502    0  0.27585311482E+03  0.21458120397E+03  0.10403869831E+03  0.36464242073E+03  0.10100000352E+00 0. -1.
       -3    1    3    3    0  502 -0.27585311482E+03 -0.21458120397E+03  0.98045377736E+03  0.10408792696E+04  0.10100000352E+00 0.  1.
</event>
<event>
 5   0  0.6015709E-03  0.9091796E+03  0.7818609E-02  0.9414179E-01
        1   -1    0    0  501    0  0.00000000000E+00  0.00000000000E+00  0.16426760300E+04  0.16426760300E+04  0.50400001928E-02 0. -1.
       -1   -1    0    0    0  501  0.00000000000E+00  0.00000000000E+00 -0.12580198311E+03  0.12580198321E+03  0.50400001928E-02 0.  1.
    10030    2    1    2    0    0  0.00000000000E+00  0.00000000000E+00  0.15168740469E+04  0.17684780132E+04  0.90917963523E+03 0.  0.
        3    1    3    3  502    0  0.25446354864E+03  0.12900630606E+03  0.70019443742E+02  0.29376360784E+03  0.10100000352E+00 0.  1.
       -3    1    3    3    0  502 -0.25446354864E+03 -0.12900630606E+03  0.14468546031E+04  0.14747144053E+04  0.10100000352E+00 0. -1.
</event>
<event>
 5   0  0.3996375E-03  0.9043219E+03  0.7818609E-02  0.9420195E-01
       -4   -1    0    0    0  501  0.00000000000E+00  0.00000000000E+00  0.92450522863E+03  0.92450610093E+03  0.12699999809E+01 0.  1.
        4   -1    0    0  501    0  0.00000000000E+00  0.00000000000E+00 -0.22114200379E+03  0.22114565051E+03  0.12699999809E+01 0. -1.
    10030    2    1    2    0    0  0.00000000000E+00  0.00000000000E+00  0.70336322484E+03  0.11456517514E+04  0.90432190592E+03 0.  0.
        2    1    3    3  502    0  0.26987990307E+03  0.26105243575E+03  0.32527749441E+02  0.37688405483E+03  0.25500000920E-02 0. -1.
       -2    1    3    3    0  502 -0.26987990307E+03 -0.26105243575E+03  0.67083547540E+03  0.76876769661E+03  0.25500000920E-02 0.  1.
</event>
<event>
 5   0  0.6137243E-03  0.8478973E+03  0.7818609E-02  0.9493163E-01
       -1   -1    0    0    0  501  0.00000000000E+00  0.00000000000E+00  0.37811553620E+03  0.37811553624E+03  0.50400001928E-02 0.  1.
        1   -1    0    0  501    0  0.00000000000E+00  0.00000000000E+00 -0.47533741013E+03  0.47533741016E+03  0.50400001928E-02 0. -1.
    10030    2    1    2    0    0  0.00000000000E+00  0.00000000000E+00 -0.97221873927E+02  0.85345294639E+03  0.84789730448E+03 0.  0.
        4    1    3    3  502    0  0.14002145721E+03 -0.21371531506E+03 -0.38913308870E+03  0.46551736594E+03  0.12699999809E+01 0. -1.
       -4    1    3    3    0  502 -0.14002145721E+03  0.21371531506E+03  0.29191121478E+03  0.38793558045E+03  0.12699999809E+01 0.  1.
</event>
<event>
 5   0  0.6092779E-03  0.9024039E+03  0.7818609E-02  0.9422581E-01
       -1   -1    0    0    0  501  0.00000000000E+00  0.00000000000E+00  0.25428634483E+03  0.25428634488E+03  0.50400001928E-02 0. -1.
        1   -1    0    0  501    0  0.00000000000E+00  0.00000000000E+00 -0.80060617124E+03  0.80060617126E+03  0.50400001928E-02 0.  1.
    10030    2    1    2    0    0  0.00000000000E+00  0.00000000000E+00 -0.54631982641E+03  0.10548925161E+04  0.90240393831E+03 0.  0.
        2    1    3    3  502    0  0.28211344579E+02 -0.39281775410E+03 -0.15767659148E+02  0.39414500756E+03  0.25500000920E-02 0. -1.
       -2    1    3    3    0  502 -0.28211344579E+02  0.39281775410E+03 -0.53055216726E+03  0.66074750858E+03  0.25500000920E-02 0.  1.
</event>
<event>
 5   0  0.6288003E-03  0.8500051E+03  0.7818609E-02  0.9490330E-01
        1   -1    0    0  501    0  0.00000000000E+00  0.00000000000E+00  0.34045849083E+03  0.34045849086E+03  0.50400001928E-02 0. -1.
       -1   -1    0    0    0  501  0.00000000000E+00  0.00000000000E+00 -0.53054094427E+03  0.53054094430E+03  0.50400001928E-02 0.  1.
    10030    2    1    2    0    0  0.00000000000E+00  0.00000000000E+00 -0.19008245345E+03  0.87099943516E+03  0.85000510407E+03 0.  0.
        1    1    3    3  502    0 -0.36483163944E+03 -0.18482426961E+02 -0.31762379973E+03  0.48407499773E+03  0.50400001928E-02 0.  1.
       -1    1    3    3    0  502  0.36483163944E+03  0.18482426961E+02  0.12754134629E+03  0.38692443743E+03  0.50400001928E-02 0. -1.
</event>
<event>
 5   0  0.6211218E-03  0.8947704E+03  0.7818609E-02  0.9432142E-01
       -1   -1    0    0    0  501  0.00000000000E+00  0.00000000000E+00  0.14447205915E+03  0.14447205924E+03  0.50400001928E-02 0. -1.
        1   -1    0    0  501    0  0.00000000000E+00  0.00000000000E+00 -0.13854132814E+04  0.13854132814E+04  0.50400001928E-02 0.  1.
    10030    2    1    2    0    0  0.00000000000E+00  0.00000000000E+00 -0.12409412222E+04  0.15298853406E+04  0.89477038309E+03 0.  0.
        5    1    3    3  502    0  0.25774347502E+03  0.21913293963E+03 -0.11209523278E+04  0.11709001474E+04  0.46999998093E+01 0.  1.
       -5    1    3    3    0  502 -0.25774347502E+03 -0.21913293963E+03 -0.11998889448E+03  0.35898519321E+03  0.46999998093E+01 0. -1.
</event>
<event>
 5   0  0.1033749E-02  0.8969259E+03  0.7818609E-02  0.9429432E-01
       -2   -1    0    0    0  501  0.00000000000E+00  0.00000000000E+00  0.46305984902E+03  0.46305984903E+03  0.25500000920E-02 0. -1.
        2   -1    0    0  501    0  0.00000000000E+00  0.00000000000E+00 -0.43432617762E+03  0.43432617762E+03  0.25500000920E-02 0.  1.
    10030    2    1    2    0    0  0.00000000000E+00  0.00000000000E+00  0.28733671407E+02  0.89738602665E+03  0.89692589268E+03 0.  0.
        5    1    3    3  502    0 -0.18717767824E+03  0.24876143277E+03  0.33730043321E+03  0.45903312071E+03  0.46999998093E+01 0. -1.
       -5    1    3    3    0  502  0.18717767824E+03 -0.24876143277E+03 -0.30856676180E+03  0.43835290595E+03  0.46999998093E+01 0.  1.
</event>
<event>
 5   0  0.1041727E-02  0.9004019E+03  0.7818609E-02  0.9425079E-01
        2   -1    0    0  501    0  0.00000000000E+00  0.00000000000E+00  0.27996190128E+03  0.27996190129E+03  0.25500000920E-02 0.  1.
       -2   -1    0    0    0  501  0.00000000000E+00  0.00000000000E+00 -0.72395891185E+03  0.72395891185E+03  0.25500000920E-02 0. -1.
    10030    2    1    2    0    0  0.00000000000E+00  0.00000000000E+00 -0.44399701057E+03  0.10039208131E+04  0.90040194006E+03 0.  0.
        4    1    3    3  502    0  0.24059393989E+03 -0.18031392514E+03  0.15160907461E+03  0.33672760491E+03  0.12699999809E+01 0.  1.
       -4    1    3    3    0  502 -0.24059393989E+03  0.18031392514E+03 -0.59560608517E+03  0.66719320823E+03  0.12699999809E+01 0. -1.
</event>
<event>
 5   0  0.6211218E-03  0.8974761E+03  0.7818609E-02  0.9428742E-01
        1   -1    0    0  501    0  0.00000000000E+00  0.00000000000E+00  0.40362081316E+03  0.40362081319E+03  0.50400001928E-02 0.  1.
       -1   -1    0    0    0  501  0.00000000000E+00  0.00000000000E+00 -0.49889855153E+03  0.49889855155E+03  0.50400001928E-02 0. -1.
    10030    2    1    2    0    0  0.00000000000E+00  0.00000000000E+00 -0.95277738366E+02  0.90251936474E+03  0.89747610347E+03 0.  0.
        5    1    3    3  502    0 -0.10972316841E+02 -0.17116865271E+03  0.36932911431E+03  0.40724094107E+03  0.46999998093E+01 0.  1.
       -5    1    3    3    0  502  0.10972316841E+02  0.17116865271E+03 -0.46460685267E+03  0.49527842367E+03  0.46999998093E+01 0. -1.
</event>
<event>
 5   0  0.3996375E-03  0.9000402E+03  0.7818609E-02  0.9425531E-01
       -3   -1    0    0    0  501  0.00000000000E+00  0.00000000000E+00  0.21644674909E+03  0.21644677265E+03  0.10100000352E+00 0. -1.
        3   -1    0    0  501    0  0.00000000000E+00  0.00000000000E+00 -0.93564856230E+03  0.93564856776E+03  0.10100000352E+00 0.  1.
    10030    2    1    2    0    0  0.00000000000E+00  0.00000000000E+00 -0.71920181322E+03  0.11520953404E+04  0.90004023536E+03 0.  0.
        2    1    3    3  502    0  0.17690129711E+03 -0.18365757427E+03 -0.83424519899E+03  0.87234696397E+03  0.25500000920E-02 0.  1.
       -2    1    3    3    0  502 -0.17690129711E+03  0.18365757427E+03  0.11504338577E+03  0.27974837644E+03  0.25500000920E-02 0. -1.
</event>
<event>
 5   0  0.1017079E-02  0.8970283E+03  0.7818609E-02  0.9429304E-01
       -2   -1    0    0    0  501  0.00000000000E+00  0.00000000000E+00  0.58986971108E+03  0.58986971109E+03  0.25500000920E-02 0.  1.
        2   -1    0    0  501    0  0.00000000000E+00  0.00000000000E+00 -0.34103285212E+03  0.34103285213E+03  0.25500000920E-02 0. -1.
    10030    2    1    2    0    0  0.00000000000E+00  0.00000000000E+00  0.24883685896E+03  0.93090256321E+03  0.89702831606E+03 0.  0.
        1    1    3    3  502    0  0.23259465140E+03  0.34277923710E+03  0.30286254794E+03  0.51315066035E+03  0.50400001928E-02 0.  1.
       -1    1    3    3    0  502 -0.23259465140E+03 -0.34277923710E+03 -0.54025688973E+02  0.41775190286E+03  0.50400001928E-02 0. -1.
</event>
<event>
 5   0  0.1041727E-02  0.8887805E+03  0.7818609E-02  0.9439716E-01
       -2   -1    0    0    0  501  0.00000000000E+00  0.00000000000E+00  0.13884867412E+03  0.13884867414E+03  0.25500000920E-02 0.  1.
        2   -1    0    0  501    0  0.00000000000E+00  0.00000000000E+00 -0.14222872183E+04  0.14222872183E+04  0.25500000920E-02 0. -1.
    10030    2    1    2    0    0  0.00000000000E+00  0.00000000000E+00 -0.12834385442E+04  0.15611358925E+04  0.88878050045E+03 0.  0.
        4    1    3    3  502    0  0.19358976905E+02  0.43112147986E+03 -0.45549316064E+03  0.62746803318E+03  0.12699999809E+01 0.  1.
       -4    1    3    3    0  502 -0.19358976905E+02 -0.43112147986E+03 -0.82794538356E+03  0.93366785927E+03  0.12699999809E+01 0. -1.
</event>
<event>
 5   0  0.1041727E-02  0.9090991E+03  0.7818609E-02  0.9414278E-01
       -2   -1    0    0    0  501  0.00000000000E+00  0.00000000000E+00  0.10573498849E+04  0.10573498849E+04  0.25500000920E-02 0.  1.
        2   -1    0    0  501    0  0.00000000000E+00  0.00000000000E+00 -0.19540864325E+03  0.19540864327E+03  0.25500000920E-02 0. -1.
    10030    2    1    2    0    0  0.00000000000E+00  0.00000000000E+00  0.86194124165E+03  0.12527585282E+04  0.90909912874E+03 0.  0.
        4    1    3    3  502    0  0.44217648849E+03 -0.42416964827E+02  0.29811867486E+03  0.53497252554E+03  0.12699999809E+01 0. -1.
       -4    1    3    3    0  502 -0.44217648849E+03  0.42416964827E+02  0.56382256679E+03  0.71778600265E+03  0.12699999809E+01 0.  1.
</event>
<event>
 5   0  0.6137243E-03  0.9178850E+03  0.7818609E-02  0.9403496E-01
        1   -1    0    0  501    0  0.00000000000E+00  0.00000000000E+00  0.48584778897E+03  0.48584778899E+03  0.50400001928E-02 0. -1.
       -1   -1    0    0    0  501  0.00000000000E+00  0.00000000000E+00 -0.43352721207E+03  0.43352721210E+03  0.50400001928E-02 0.  1.
    10030    2    1    2    0    0  0.00000000000E+00  0.00000000000E+00  0.52320576898E+02  0.91937500109E+03  0.91788504175E+03 0.  0.
        4    1    3    3  502    0  0.26960367285E+03 -0.37106456248E+03  0.10273437775E+02  0.45878339809E+03  0.12699999809E+01 0. -1.
       -4    1    3    3    0  502 -0.26960367285E+03  0.37106456248E+03  0.42047139122E+02  0.46059160300E+03  0.12699999809E+01 0.  1.
</event>
<event>
 5   0  0.6015709E-03  0.9224494E+03  0.7818609E-02  0.9397946E-01
        1   -1    0    0  501    0  0.00000000000E+00  0.00000000000E+00  0.47406617634E+03  0.47406617636E+03  0.50400001928E-02 0. -1.
       -1   -1    0    0    0  501  0.00000000000E+00  0.00000000000E+00 -0.44873106079E+03  0.44873106082E+03  0.50400001928E-02 0.  1.
    10030    2    1    2    0    0  0.00000000000E+00  0.00000000000E+00  0.25335115545E+02  0.92279723719E+03  0.92244938771E+03 0.  0.
        3    1    3    3  502    0 -0.26222760645E+03 -0.31643427732E+03 -0.19677767135E+03  0.45564836397E+03  0.10100000352E+00 0.  1.
       -3    1    3    3    0  502  0.26222760645E+03  0.31643427732E+03  0.22211278689E+03  0.46714887322E+03  0.10100000352E+00 0. -1.
</event>
<event>
 5   0  0.6015709E-03  0.8958059E+03  0.7818609E-02  0.9430839E-01
       -1   -1    0    0    0  501  0.00000000000E+00  0.00000000000E+00  0.98387770117E+03  0.98387770118E+03  0.50400001928E-02 0. -1.
        1   -1    0    0  501    0  0.00000000000E+00  0.00000000000E+00 -0.20390447274E+03  0.20390447280E+03  0.50400001928E-02 0.  1.
    10030    2    1    2    0    0  0.00000000000E+00  0.00000000000E+00  0.77997322843E+03  0.11877821740E+04  0.89580592527E+03 0.  0.
        3    1    3    3  502    0  0.17361827843E+03  0.93559045102E+01 -0.15733184936E+03  0.23448701580E+03  0.10100000352E+00 0.  1.
       -3    1    3    3    0  502 -0.17361827843E+03 -0.93559045102E+01  0.93730507779E+03  0.95329515818E+03  0.10100000352E+00 0. -1.
</event>
<event>
 5   0  0.1041727E-02  0.9142596E+03  0.7818609E-02  0.9407930E-01
       -2   -1    0    0    0  501  0.00000000000E+00  0.00000000000E+00  0.12606929601E+04  0.12606929601E+04  0.25500000920E-02 0.  1.
        2   -1    0    0  501    0  0.00000000000E+00  0.00000000000E+00 -0.16575619627E+03  0.16575619629E+03  0.25500000920E-02 0. -1.
    10030    2    1    2    0    0  0.00000000000E+00  0.00000000000E+00  0.10949367638E+04  0.14264491563E+04  0.91425963434E+03 0.  0.
        4    1    3    3  502    0 -0.82580943900E+02  0.31422097281E+03  0.10491999556E+04  0.10983517614E+04  0.12699999809E+01 0.  1.
       -4    1    3    3    0  502  0.82580943900E+02 -0.31422097281E+03  0.45736808181E+02  0.32809739495E+03  0.12699999809E+01 0. -1.
</event>
<event>
 5   0  0.6137243E-03  0.8951628E+03  0.7818609E-02  0.9431648E-01
        1   -1    0    0  501    0  0.00000000000E+00  0.00000000000E+00  0.52510771017E+03  0.52510771020E+03  0.50400001928E-02 0.  1.
       -1   -1    0    0    0  501  0.00000000000E+00  0.00000000000E+00 -0.38150096735E+03  0.38150096738E+03  0.50400001928E-02 0. -1.
    10030    2    1    2    0    0  0.00000000000E+00  0.00000000000E+00  0.14360674282E+03  0.90660867758E+03  0.89516277720E+03 0.  0.
        4    1    3    3  502    0 -0.38792318518E+03  0.21667929868E+03  0.17327414688E+02  0.44467535155E+03  0.12699999809E+01 0. -1.
       -4    1    3    3    0  502  0.38792318518E+03 -0.21667929868E+03  0.12627932814E+03  0.46193332603E+03  0.12699999809E+01 0.  1.
</event>
<event>
 5   0  0.1017079E-02  0.8975988E+03  0.7818609E-02  0.9428588E-01
        2   -1    0    0  501    0  0.00000000000E+00  0.00000000000E+00  0.37022052635E+03  0.37022052636E+03  0.25500000920E-02 0. -1.
       -2   -1    0    0    0  501  0.00000000000E+00  0.00000000000E+00 -0.54405659731E+03  0.54405659731E+03  0.25500000920E-02 0.  1.
    10030    2    1    2    0    0  0.00000000000E+00  0.00000000000E+00 -0.17383607096E+03  0.91427712367E+03  0.89759884096E+03 0.  0.
        1    1    3    3  502    0 -0.13429960698E+03  0.15156447840E+03 -0.49487561321E+03  0.53470557144E+03  0.50400001928E-02 0.  1.
       -1    1    3    3    0  502  0.13429960698E+03 -0.15156447840E+03  0.32103954226E+03  0.37957155223E+03  0.50400001928E-02 0. -1.
</event>
<event>
 5   0  0.6211218E-03  0.9035231E+03  0.7818609E-02  0.9421188E-01
        1   -1    0    0  501    0  0.00000000000E+00  0.00000000000E+00  0.94541979310E+03  0.94541979311E+03  0.50400001928E-02 0.  1.
       -1   -1    0    0    0  501  0.00000000000E+00  0.00000000000E+00 -0.21587076332E+03  0.21587076337E+03  0.50400001928E-02 0. -1.
    10030    2    1    2    0    0  0.00000000000E+00  0.00000000000E+00  0.72954902978E+03  0.11612905565E+04  0.90352308754E+03 0.  0.
        5    1    3    3  502    0 -0.34599917936E+03  0.14263296291E+03  0.68994770032E+03  0.78492643821E+03  0.46999998093E+01 0.  1.
       -5    1    3    3    0  502  0.34599917936E+03 -0.14263296291E+03  0.39601329458E+02  0.37636411827E+03  0.46999998093E+01 0. -1.
</event>
<event>
 5   0  0.1028978E-02  0.8901436E+03  0.7818609E-02  0.9437987E-01
       -2   -1    0    0    0  501  0.00000000000E+00  0.00000000000E+00  0.14855906222E+04  0.14855906222E+04  0.25500000920E-02 0. -1.
        2   -1    0    0  501    0  0.00000000000E+00  0.00000000000E+00 -0.13334017214E+03  0.13334017216E+03  0.25500000920E-02 0.  1.
    10030    2    1    2    0    0  0.00000000000E+00  0.00000000000E+00  0.13522504501E+04  0.16189307944E+04  0.89014360486E+03 0.  0.
        3    1    3    3  502    0 -0.55036639543E+02  0.21185174272E+03  0.13809357613E+04  0.13981751606E+04  0.10100000352E+00 0. -1.
       -3    1    3    3    0  502  0.55036639543E+02 -0.21185174272E+03 -0.28685311207E+02  0.22075563383E+03  0.10100000352E+00 0.  1.
</event>
<event>
 5   0  0.1017079E-02  0.9087480E+03  0.7818609E-02  0.9414712E-01
       -2   -1    0    0    0  501  0.00000000000E+00  0.00000000000E+00  0.20473874345E+03  0.20473874347E+03  0.25500000920E-02 0.  1.
        2   -1    0    0  501    0  0.00000000000E+00  0.00000000000E+00 -0.10083861797E+04  0.10083861797E+04  0.25500000920E-02 0. -1.
    10030    2    1    2    0    0  0.00000000000E+00  0.00000000000E+00 -0.80364743621E+03  0.12131249231E+04  0.90874797244E+03 0.  0.
        1    1    3    3  502    0 -0.27586127801E+02  0.37316895566E+02 -0.10052143519E+04  0.10062849688E+04  0.50400001928E-02 0. -1.
       -1    1    3    3    0  502  0.27586127801E+02 -0.37316895566E+02  0.20156691574E+03  0.20683995429E+03  0.50400001928E-02 0.  1.
</event>
<event>
 5   0  0.6211218E-03  0.8799451E+03  0.7818609E-02  0.9451004E-01
        1   -1    0    0  501    0  0.00000000000E+00  0.00000000000E+00  0.77511150109E+03  0.77511150111E+03  0.50400001928E-02 0.  1.
       -1   -1    0    0    0  501  0.00000000000E+00  0.00000000000E+00 -0.24973937800E+03  0.24973937805E+03  0.50400001928E-02 0. -1.
    10030    2    1    2    0    0  0.00000000000E+00  0.00000000000E+00  0.52537212310E+03  0.10248508792E+04  0.87994514419E+03 0.  0.
        5    1    3    3  502    0  0.24120485538E+02 -0.29485843395E+03 -0.11655944457E+03  0.31801177338E+03  0.46999998093E+01 0. -1.
       -5    1    3    3    0  502 -0.24120485538E+02  0.29485843395E+03  0.64193156767E+03  0.70683910578E+03  0.46999998093E+01 0.  1.
</event>
<event>
 5   0  0.6092779E-03  0.9058340E+03  0.7818609E-02  0.9418318E-01
        1   -1    0    0  501    0  0.00000000000E+00  0.00000000000E+00  0.11421583388E+04  0.11421583388E+04  0.50400001928E-02 0. -1.
       -1   -1    0    0    0  501  0.00000000000E+00  0.00000000000E+00 -0.17960188510E+03  0.17960188517E+03  0.50400001928E-02 0.  1.
    10030    2    1    2    0    0  0.00000000000E+00  0.00000000000E+00  0.96255645367E+03  0.13217602239E+04  0.90583396000E+03 0.  0.
        2    1    3    3  502    0 -0.43138953162E+03 -0.51774798954E+02  0.29466358151E+03  0.52498017493E+03  0.25500000920E-02 0.  1.
       -2    1    3    3    0  502  0.43138953162E+03  0.51774798954E+02  0.66789287217E+03  0.79678004901E+03  0.25500000920E-02 0. -1.
</event>
<event>
 5   0  0.1003252E-02  0.8984053E+03  0.7818609E-02  0.9427577E-01
       -2   -1    0    0    0  501  0.00000000000E+00  0.00000000000E+00  0.98277533628E+02  0.98277533661E+02  0.25500000920E-02 0.  1.
        2   -1    0    0  501    0  0.00000000000E+00  0.00000000000E+00 -0.20531956295E+04  0.20531956295E+04  0.25500000920E-02 0. -1.
    10030    2    1    2    0    0  0.00000000000E+00  0.00000000000E+00 -0.19549180959E+04  0.21514731632E+04  0.89840525947E+03 0.  0.
        2    1    3    3  502    0 -0.86099793169E+02  0.18868643456E+03 -0.23248706336E+02  0.20870133522E+03  0.25500000920E-02 0.  1.
       -2    1    3    3    0  502  0.86099793169E+02 -0.18868643456E+03 -0.19316693896E+04  0.19427718280E+04  0.25500000920E-02 0. -1.
</event>
<event>
 5   0  0.1003252E-02  0.8941071E+03  0.7818609E-02  0.9432978E-01
       -2   -1    0    0    0  501  0.00000000000E+00  0.00000000000E+00  0.13308264083E+03  0.13308264086E+03  0.25500000920E-02 0.  1.
        2   -1    0    0  501    0  0.00000000000E+00  0.00000000000E+00 -0.15017501942E+04  0.15017501943E+04  0.25500000920E-02 0. -1.
    10030    2    1    2    0    0  0.00000000000E+00  0.00000000000E+00 -0.13686675534E+04  0.16348328351E+04  0.89410711158E+03 0.  0.
        2    1    3    3  502    0  0.27559790602E+03 -0.28177792304E+02 -0.42787256027E+02  0.28031935907E+03  0.25500000920E-02 0.  1.
       -2    1    3    3    0  502 -0.27559790602E+03  0.28177792304E+02 -0.13258802974E+04  0.13545134760E+04  0.25500000920E-02 0. -1.
</event>
<event>
 5   0  0.6015709E-03  0.9009189E+03  0.7818609E-02  0.9424434E-01
        1   -1    0    0  501    0  0.00000000000E+00  0.00000000000E+00  0.78298984970E+03  0.78298984972E+03  0.50400001928E-02 0.  1.
       -1   -1    0    0    0  501  0.00000000000E+00  0.00000000000E+00 -0.25915239984E+03  0.25915239989E+03  0.50400001928E-02 0. -1.
    10030    2    1    2    0    0  0.00000000000E+00  0.00000000000E+00  0.52383744986E+03  0.10421422496E+04  0.90091886123E+03 0.  0.
        3    1    3    3  502    0  0.21864413575E+03 -0.24876506804E+03 -0.91269369282E+02  0.34353955398E+03  0.10100000352E+00 0. -1.
       -3    1    3    3    0  502 -0.21864413575E+03  0.24876506804E+03  0.61510681915E+03  0.69860269563E+03  0.10100000352E+00 0.  1.
</event>
<event>
 5   0  0.6092779E-03  0.8997954E+03  0.7818609E-02  0.9425837E-01
        1   -1    0    0  501    0  0.00000000000E+00  0.00000000000E+00  0.10614055239E+04  0.10614055240E+04  0.50400001928E-02 0. -1.
       -1   -1    0    0    0  501  0.00000000000E+00  0.00000000000E+00 -0.19069802509E+03  0.19069802515E+03  0.50400001928E-02 0.  1.
    10030    2    1    2    0    0  0.00000000000E+00  0.00000000000E+00  0.87070749886E+03  0.12521035491E+04  0.89979539292E+03 0.  0.
        2    1    3    3  502    0 -0.13962073034E+02 -0.34067813826E+03  0.26914319953E+02  0.34202472717E+03  0.25500000920E-02 0.  1.
       -2    1    3    3    0  502  0.13962073034E+02  0.34067813826E+03  0.84379317891E+03  0.91007882194E+03  0.25500000920E-02 0. -1.
</event>
<event>
 5   0  0.1017079E-02  0.9029648E+03  0.7818609E-02  0.9421883E-01
        2   -1    0    0  501    0  0.00000000000E+00  0.00000000000E+00  0.79151806345E+03  0.79151806346E+03  0.25500000920E-02 0.  1.
       -2   -1    0    0    0  501  0.00000000000E+00  0.00000000000E+00 -0.25752583641E+03  0.25752583642E+03  0.25500000920E-02 0. -1.
    10030    2    1    2    0    0  0.00000000000E+00  0.00000000000E+00  0.53399222704E+03  0.10490438999E+04  0.90296478632E+03 0.  0.
        1    1    3    3  502    0  0.33872358262E+03 -0.23148391516E+03  0.48045390219E+02  0.41307000369E+03  0.50400001928E-02 0.  1.
       -1    1    3    3    0  502 -0.33872358262E+03  0.23148391516E+03  0.48594683682E+03  0.63597389619E+03  0.50400001928E-02 0. -1.
</event>
<event>
 5   0  0.6137243E-03  0.8974683E+03  0.7818609E-02  0.9428752E-01
       -1   -1    0    0    0  501  0.00000000000E+00  0.00000000000E+00  0.52981090763E+03  0.52981090766E+03  0.50400001928E-02 0.  1.
        1   -1    0    0  501    0  0.00000000000E+00  0.00000000000E+00 -0.38006456819E+03  0.38006456822E+03  0.50400001928E-02 0. -1.
    10030    2    1    2    0    0  0.00000000000E+00  0.00000000000E+00  0.14974633945E+03  0.90987547588E+03  0.89746833673E+03 0.  0.
        4    1    3    3  502    0 -0.20927049590E+03  0.94784247505E+01  0.47719264814E+03  0.52115105040E+03  0.12699999809E+01 0.  1.
       -4    1    3    3    0  502  0.20927049590E+03 -0.94784247505E+01 -0.32744630870E+03  0.38872442548E+03  0.12699999809E+01 0. -1.
</event>
<event>
 5   0  0.1017079E-02  0.8984700E+03  0.7818609E-02  0.9427496E-01
       -2   -1    0    0    0  501  0.00000000000E+00  0.00000000000E+00  0.10710935300E+03  0.10710935303E+03  0.25500000920E-02 0.  1.
        2   -1    0    0  501    0  0.00000000000E+00  0.00000000000E+00 -0.18841686609E+04  0.18841686609E+04  0.25500000920E-02 0. -1.
    10030    2    1    2    0    0  0.00000000000E+00  0.00000000000E+00 -0.17770593079E+04  0.19912780139E+04  0.89847000227E+03 0.  0.
        1    1    3    3  502    0 -0.31352501636E+03  0.11438123188E+03 -0.22204955538E+03  0.40085783909E+03  0.50400001928E-02 0.  1.
       -1    1    3    3    0  502  0.31352501636E+03 -0.11438123188E+03 -0.15550097525E+04  0.15904201748E+04  0.50400001928E-02 0. -1.
</event>
<event>
 5   0  0.6288003E-03  0.8905658E+03  0.7818609E-02  0.9437452E-01
        1   -1    0    0  501    0  0.00000000000E+00  0.00000000000E+00  0.18826197611E+04  0.18826197611E+04  0.50400001928E-02 0. -1.
       -1   -1    0    0    0  501  0.00000000000E+00  0.00000000000E+00 -0.10531965779E+03  0.10531965791E+03  0.50400001928E-02 0.  1.
    10030    2    1    2    0    0  0.00000000000E+00  0.00000000000E+00  0.17773001033E+04  0.19879394190E+04  0.89056581814E+03 0.  0.
        1    1    3    3  502    0 -0.39936980185E+03 -0.46646287957E+02  0.13157267448E+04  0.13757939460E+04  0.50400001928E-02 0. -1.
       -1    1    3    3    0  502  0.39936980185E+03  0.46646287957E+02  0.46157335842E+03  0.61214547294E+03  0.50400001928E-02 0.  1.
</event>
<event>
 5   0  0.1041727E-02  0.8815902E+03  0.7818609E-02  0.9448892E-01
        2   -1    0    0  501    0  0.00000000000E+00  0.00000000000E+00  0.74246903155E+03  0.74246903156E+03  0.25500000920E-02 0.  1.
       -2   -1    0    0    0  501  0.00000000000E+00  0.00000000000E+00 -0.26169484537E+03  0.26169484539E+03  0.25500000920E-02 0. -1.
    10030    2    1    2    0    0  0.00000000000E+00  0.00000000000E+00  0.48077418618E+03  0.10041638769E+04  0.88159019599E+03 0.  0.
        4    1    3    3  502    0 -0.60724554630E+02 -0.66632371239E+02 -0.25107981342E+03  0.26677711678E+03  0.12699999809E+01 0. -1.
       -4    1    3    3    0  502  0.60724554630E+02  0.66632371239E+02  0.73185399960E+03  0.73738676016E+03  0.12699999809E+01 0.  1.
</event>
<event>
 5   0  0.3996375E-03  0.9069814E+03  0.7818609E-02  0.9416896E-01
        3   -1    0    0  501    0  0.00000000000E+00  0.00000000000E+00  0.37235687759E+03  0.37235689129E+03  0.10100000352E+00 0.  1.
       -3   -1    0    0    0  501  0.00000000000E+00  0.00000000000E+00 -0.55230294136E+03  0.55230295060E+03  0.10100000352E+00 0. -1.
    10030    2    1    2    0    0  0.00000000000E+00  0.00000000000E+00 -0.17994606377E+03  0.92465984188E+03  0.90698138753E+03 0.  0.
        2    1    3    3  502    0  0.26140280923E+03 -0.37022006953E+03 -0.73550647651E+02  0.45913399605E+03  0.25500000920E-02 0.  1.
       -2    1    3    3    0  502 -0.26140280923E+03  0.37022006953E+03 -0.10639541612E+03  0.46552584583E+03  0.25500000920E-02 0. -1.
</event>
<event>
 5   0  0.1028978E-02  0.8778779E+03  0.7818609E-02  0.9453666E-01
        2   -1    0    0  501    0  0.00000000000E+00  0.00000000000E+00  0.90218786156E+03  0.90218786157E+03  0.25500000920E-02 0.  1.
       -2   -1    0    0    0  501  0.00000000000E+00  0.00000000000E+00 -0.21355575988E+03  0.21355575990E+03  0.25500000920E-02 0. -1.
    10030    2    1    2    0    0  0.00000000000E+00  0.00000000000E+00  0.68863210168E+03  0.11157436215E+04  0.87787792852E+03 0.  0.
        3    1    3    3  502    0 -0.43873332012E+03  0.96764448432E+01  0.33247197598E+03  0.55056169934E+03  0.10100000352E+00 0. -1.
       -3    1    3    3    0  502  0.43873332012E+03 -0.96764448432E+01  0.35616012570E+03  0.56518192213E+03  0.10100000352E+00 0.  1.
</event>
<event>
 5   0  0.1003252E-02  0.8990857E+03  0.7818609E-02  0.9426725E-01
       -2   -1    0    0    0  501  0.00000000000E+00  0.00000000000E+00  0.32626676978E+03  0.32626676979E+03  0.25500000920E-02 0. -1.
        2   -1    0    0  501    0  0.00000000000E+00  0.00000000000E+00 -0.61939735280E+03  0.61939735281E+03  0.25500000920E-02 0.  1.
    10030    2    1    2    0    0  0.00000000000E+00  0.00000000000E+00 -0.29313058302E+03  0.94566412260E+03  0.89908569896E+03 0.  0.
        2    1    3    3  502    0 -0.26923192784E+03  0.34950981370E+03 -0.23732486764E+03  0.50096510223E+03  0.25500000920E-02 0.  1.
       -2    1    3    3    0  502  0.26923192784E+03 -0.34950981370E+03 -0.55805715377E+02  0.44469902037E+03  0.25500000920E-02 0. -1.
</event>
<event>
 5   0  0.1017079E-02  0.9022115E+03  0.7818609E-02  0.9422821E-01
        2   -1    0    0  501    0  0.00000000000E+00  0.00000000000E+00  0.93691871500E+03  0.93691871500E+03  0.25500000920E-02 0.  1.
       -2   -1    0    0    0  501  0.00000000000E+00  0.00000000000E+00 -0.21719750426E+03  0.21719750427E+03  0.25500000920E-02 0. -1.
    10030    2    1    2    0    0  0.00000000000E+00  0.00000000000E+00  0.71972121074E+03  0.11541162193E+04  0.90221151977E+03 0.  0.
        1    1    3    3  502    0  0.35906799404E+03  0.13020104959E+03  0.66690855670E+03  0.76853702623E+03  0.50400001928E-02 0.  1.
       -1    1    3    3    0  502 -0.35906799404E+03 -0.13020104959E+03  0.52812654042E+02  0.38557919305E+03  0.50400001928E-02 0. -1.
</event>
<event>
 5   0  0.6092779E-03  0.8969980E+03  0.7818609E-02  0.9429342E-01
       -1   -1    0    0    0  501  0.00000000000E+00  0.00000000000E+00  0.25977061734E+03  0.25977061739E+03  0.50400001928E-02 0. -1.
        1   -1    0    0  501    0  0.00000000000E+00  0.00000000000E+00 -0.77434216088E+03  0.77434216090E+03  0.50400001928E-02 0.  1.
    10030    2    1    2    0    0  0.00000000000E+00  0.00000000000E+00 -0.51457154354E+03  0.10341127783E+04  0.89699797369E+03 0.  0.
        2    1    3    3  502    0 -0.37589409521E+03 -0.22872664946E+03 -0.35738619478E+03  0.56686607167E+03  0.25500000920E-02 0. -1.
       -2    1    3    3    0  502  0.37589409521E+03  0.22872664946E+03 -0.15718534876E+03  0.46724670662E+03  0.25500000920E-02 0.  1.
</event>
<event>
 5   0  0.1003252E-02  0.9072041E+03  0.7818609E-02  0.9416620E-01
        2   -1    0    0  501    0  0.00000000000E+00  0.00000000000E+00  0.45455603247E+03  0.45455603248E+03  0.25500000920E-02 0.  1.
       -2   -1    0    0    0  501  0.00000000000E+00  0.00000000000E+00 -0.45265011430E+03  0.45265011431E+03  0.25500000920E-02 0. -1.
    10030    2    1    2    0    0  0.00000000000E+00  0.00000000000E+00  0.19059181696E+01  0.90720614678E+03  0.90720414474E+03 0.  0.
        2    1    3    3  502    0  0.82079504176E+02  0.37011598919E+03 -0.24810973058E+03  0.45307982616E+03  0.25500000920E-02 0. -1.
       -2    1    3    3    0  502 -0.82079504176E+02 -0.37011598919E+03  0.25001564875E+03  0.45412632062E+03  0.25500000920E-02 0.  1.
</event>
<event>
 5   0  0.6015709E-03  0.8822315E+03  0.7818609E-02  0.9448070E-01
        1   -1    0    0  501    0  0.00000000000E+00  0.00000000000E+00  0.76994063428E+03  0.76994063430E+03  0.50400001928E-02 0. -1.
       -1   -1    0    0    0  501  0.00000000000E+00  0.00000000000E+00 -0.25272479074E+03  0.25272479079E+03  0.50400001928E-02 0.  1.
    10030    2    1    2    0    0  0.00000000000E+00  0.00000000000E+00  0.51721584355E+03  0.10226654251E+04  0.88223145651E+03 0.  0.
        3    1    3    3  502    0  0.39847566734E+03 -0.13665988856E+03  0.41029806394E+03  0.58805041798E+03  0.10100000352E+00 0. -1.
       -3    1    3    3    0  502 -0.39847566734E+03  0.13665988856E+03  0.10691777960E+03  0.43461500711E+03  0.10100000352E+00 0.  1.
</event>
<event>
 5   0  0.6137243E-03  0.9117355E+03  0.7818609E-02  0.9411029E-01
       -1   -1    0    0    0  501  0.00000000000E+00  0.00000000000E+00  0.12744364264E+03  0.12744364274E+03  0.50400001928E-02 0. -1.
        1   -1    0    0  501    0  0.00000000000E+00  0.00000000000E+00 -0.16306454393E+04  0.16306454393E+04  0.50400001928E-02 0.  1.
    10030    2    1    2    0    0  0.00000000000E+00  0.00000000000E+00 -0.15032017966E+04  0.17580890820E+04  0.91173547638E+03 0.  0.
        4    1    3    3  502    0 -0.24202057920E+03 -0.35194752929E+03 -0.10587546746E+04  0.11416672448E+04  0.12699999809E+01 0.  1.
       -4    1    3    3    0  502  0.24202057920E+03  0.35194752929E+03 -0.44444712207E+03  0.61642183718E+03  0.12699999809E+01 0. -1.
</event>
<event>
 5   0  0.6092779E-03  0.8966501E+03  0.7818609E-02  0.9429779E-01
        1   -1    0    0  501    0  0.00000000000E+00  0.00000000000E+00  0.10367496537E+04  0.10367496537E+04  0.50400001928E-02 0. -1.
       -1   -1    0    0    0  501  0.00000000000E+00  0.00000000000E+00 -0.19387065848E+03  0.19387065854E+03  0.50400001928E-02 0.  1.
    10030    2    1    2    0    0  0.00000000000E+00  0.00000000000E+00  0.84287899522E+03  0.12306203122E+04  0.89665007240E+03 0.  0.
        2    1    3    3  502    0  0.29113412528E+03  0.11524102590E+03  0.86181832070E+03  0.91693532534E+03  0.25500000920E-02 0. -1.
       -2    1    3    3    0  502 -0.29113412528E+03 -0.11524102590E+03 -0.18939325483E+02  0.31368498691E+03  0.25500000920E-02 0.  1.
</event>
<event>
 5   0  0.6211218E-03  0.8750908E+03  0.7818609E-02  0.9457266E-01
        1   -1    0    0  501    0  0.00000000000E+00  0.00000000000E+00  0.47396660839E+03  0.47396660841E+03  0.50400001928E-02 0.  1.
       -1   -1    0    0    0  501  0.00000000000E+00  0.00000000000E+00 -0.40392291428E+03  0.40392291431E+03  0.50400001928E-02 0. -1.
    10030    2    1    2    0    0  0.00000000000E+00  0.00000000000E+00  0.70043694110E+02  0.87788952272E+03  0.87509079244E+03 0.  0.
        5    1    3    3  502    0  0.24684396883E+02  0.39064126770E+03 -0.16108727628E+03  0.42329790935E+03  0.46999998093E+01 0. -1.
       -5    1    3    3    0  502 -0.24684396883E+02 -0.39064126770E+03  0.23113097039E+03  0.45459161338E+03  0.46999998093E+01 0.  1.
</event>
<event>
 5   0  0.1028978E-02  0.9006565E+03  0.7818609E-02  0.9424761E-01
       -2   -1    0    0    0  501  0.00000000000E+00  0.00000000000E+00  0.13582723364E+03  0.13582723367E+03  0.25500000920E-02 0. -1.
        2   -1    0    0  501    0  0.00000000000E+00  0.00000000000E+00 -0.14930403493E+04  0.14930403493E+04  0.25500000920E-02 0.  1.
    10030    2    1    2    0    0  0.00000000000E+00  0.00000000000E+00 -0.13572131156E+04  0.16288675829E+04  0.90065651695E+03 0.  0.
        3    1    3    3  502    0 -0.35832362223E+02  0.11598970149E+03  0.10567580051E+03  0.16095016014E+03  0.10100000352E+00 0. -1.
       -3    1    3    3    0  502  0.35832362223E+02 -0.11598970149E+03 -0.14628889161E+04  0.14679174228E+04  0.10100000352E+00 0.  1.
</event>
<event>
 5   0  0.1041727E-02  0.9046216E+03  0.7818609E-02  0.9419823E-01
       -2   -1    0    0    0  501  0.00000000000E+00  0.00000000000E+00  0.59914657516E+03  0.59914657517E+03  0.25500000920E-02 0.  1.
        2   -1    0    0  501    0  0.00000000000E+00  0.00000000000E+00 -0.34146079401E+03  0.34146079402E+03  0.25500000920E-02 0. -1.
    10030    2    1    2    0    0  0.00000000000E+00  0.00000000000E+00  0.25768578116E+03  0.94060736919E+03  0.90462161214E+03 0.  0.
        4    1    3    3  502    0  0.36740658094E+03  0.22137583971E+03 -0.20352279978E+02  0.42943065369E+03  0.12699999809E+01 0. -1.
       -4    1    3    3    0  502 -0.36740658094E+03 -0.22137583971E+03  0.27803806114E+03  0.51117671550E+03  0.12699999809E+01 0.  1.
</event>
<event>
 5   0  0.1033749E-02  0.8998198E+03  0.7818609E-02  0.9425807E-01
        2   -1    0    0  501    0  0.00000000000E+00  0.00000000000E+00  0.12907045528E+04  0.12907045528E+04  0.25500000920E-02 0.  1.
       -2   -1    0    0    0  501  0.00000000000E+00  0.00000000000E+00 -0.15682824678E+03  0.15682824680E+03  0.25500000920E-02 0. -1.
    10030    2    1    2    0    0  0.00000000000E+00  0.00000000000E+00  0.11338763061E+04  0.14475327996E+04  0.89981983119E+03 0.  0.
        5    1    3    3  502    0  0.36602527812E+03 -0.26064774898E+03  0.60236916134E+03  0.75152009275E+03  0.46999998093E+01 0. -1.
       -5    1    3    3    0  502 -0.36602527812E+03  0.26064774898E+03  0.53150714472E+03  0.69601270690E+03  0.46999998093E+01 0.  1.
</event>
<event>
 5   0  0.6092779E-03  0.9033395E+03  0.7818609E-02  0.9421416E-01
       -1   -1    0    0    0  501  0.00000000000E+00  0.00000000000E+00  0.39593362657E+03  0.39593362660E+03  0.50400001928E-02 0.  1.
        1   -1    0    0  501    0  0.00000000000E+00  0.00000000000E+00 -0.51525194661E+03  0.51525194664E+03  0.50400001928E-02 0. -1.
    10030    2    1    2    0    0  0.00000000000E+00  0.00000000000E+00 -0.11931832004E+03  0.91118557324E+03  0.90333951944E+03 0.  0.
        2    1    3    3  502    0 -0.24284468479E+03  0.44967609242E+02 -0.44111032411E+03  0.50554321759E+03  0.25500000920E-02 0. -1.
       -2    1    3    3    0  502  0.24284468479E+03 -0.44967609242E+02  0.32179200406E+03  0.40564235565E+03  0.25500000920E-02 0.  1.
</event>
<event>
 5   0  0.3996375E-03  0.9197622E+03  0.7818609E-02  0.9401209E-01
        4   -1    0    0  501    0  0.00000000000E+00  0.00000000000E+00  0.24105943734E+03  0.24106278276E+03  0.12699999809E+01 0.  1.
       -4   -1    0    0    0  501  0.00000000000E+00  0.00000000000E+00 -0.87732822428E+03  0.87732914349E+03  0.12699999809E+01 0. -1.
    10030    2    1    2    0    0  0.00000000000E+00  0.00000000000E+00 -0.63626878694E+03  0.11183919262E+04  0.91976221463E+03 0.  0.
        1    1    3    3  502    0  0.35954053770E+03 -0.19887871936E+03 -0.56930689673E+03  0.70209150825E+03  0.50400001928E-02 0. -1.
       -1    1    3    3    0  502 -0.35954053770E+03  0.19887871936E+03 -0.66961890206E+02  0.41630041800E+03  0.50400001928E-02 0.  1.
</event>
<event>
 5   0  0.3996375E-03  0.8972885E+03  0.7818609E-02  0.9428977E-01
       -3   -1    0    0    0  501  0.00000000000E+00  0.00000000000E+00  0.31766895831E+03  0.31766897437E+03  0.10100000352E+00 0. -1.
        3   -1    0    0  501    0  0.00000000000E+00  0.00000000000E+00 -0.63362073677E+03  0.63362074482E+03  0.10100000352E+00 0.  1.
    10030    2    1    2    0    0  0.00000000000E+00  0.00000000000E+00 -0.31595177846E+03  0.95128971918E+03  0.89728847285E+03 0.  0.
        4    1    3    3  502    0 -0.16594426542E+03  0.15254455654E+03  0.25327757310E+03  0.33905528000E+03  0.12699999809E+01 0. -1.
       -4    1    3    3    0  502  0.16594426542E+03 -0.15254455654E+03 -0.56922935155E+03  0.61223443919E+03  0.12699999809E+01 0.  1.
</event>
<event>
 5   0  0.3996375E-03  0.9041541E+03  0.7818609E-02  0.9420404E-01
       -3   -1    0    0    0  501  0.00000000000E+00  0.00000000000E+00  0.14243183273E+04  0.14243183309E+04  0.10100000352E+00 0.  1.
        3   -1    0    0  501    0  0.00000000000E+00  0.00000000000E+00 -0.14348871698E+03  0.14348875253E+03  0.10100000352E+00 0. -1.
    10030    2    1    2    0    0  0.00000000000E+00  0.00000000000E+00  0.12808296103E+04  0.15678070834E+04  0.90415405773E+03 0.  0.
        2    1    3    3  502    0  0.35978983738E+03  0.19278468898E+03  0.30346881360E+03  0.50863344780E+03  0.25500000920E-02 0. -1.
       -2    1    3    3    0  502 -0.35978983738E+03 -0.19278468898E+03  0.97736079669E+03  0.10591736356E+04  0.25500000920E-02 0.  1.
</event>
<event>
 5   0  0.6137243E-03  0.8878294E+03  0.7818609E-02  0.9440924E-01
        1   -1    0    0  501    0  0.00000000000E+00  0.00000000000E+00  0.63728132593E+03  0.63728132595E+03  0.50400001928E-02 0.  1.
       -1   -1    0    0    0  501  0.00000000000E+00  0.00000000000E+00 -0.30922019798E+03  0.30922019802E+03  0.50400001928E-02 0. -1.
    10030    2    1    2    0    0  0.00000000000E+00  0.00000000000E+00  0.32806112795E+03  0.94650152397E+03  0.88782939307E+03 0.  0.
        4    1    3    3  502    0  0.25292697834E+03  0.17649037361E+03 -0.17634571928E+03  0.35527501173E+03  0.12699999809E+01 0. -1.
       -4    1    3    3    0  502 -0.25292697834E+03 -0.17649037361E+03  0.50440684723E+03  0.59122651224E+03  0.12699999809E+01 0.  1.
</event>
<event>
 5   0  0.6288003E-03  0.9011895E+03  0.7818609E-02  0.9424096E-01
       -1   -1    0    0    0  501  0.00000000000E+00  0.00000000000E+00  0.25392984171E+03  0.25392984176E+03  0.50400001928E-02 0.  1.
        1   -1    0    0  501    0  0.00000000000E+00  0.00000000000E+00 -0.79957375893E+03  0.79957375894E+03  0.50400001928E-02 0. -1.
    10030    2    1    2    0    0  0.00000000000E+00  0.00000000000E+00 -0.54564391722E+03  0.10535036007E+04  0.90118952074E+03 0.  0.
        1    1    3    3  502    0  0.42142776206E+03  0.15706372712E+03 -0.30516090206E+03  0.54350119520E+03  0.50400001928E-02 0. -1.
       -1    1    3    3    0  502 -0.42142776206E+03 -0.15706372712E+03 -0.24048301516E+03  0.51000240550E+03  0.50400001928E-02 0.  1.
</event>
<event>
 5   0  0.1041727E-02  0.9035041E+03  0.7818609E-02  0.9421212E-01
        2   -1    0    0  501    0  0.00000000000E+00  0.00000000000E+00  0.51921757669E+03  0.51921757669E+03  0.25500000920E-02 0. -1.
       -2   -1    0    0    0  501  0.00000000000E+00  0.00000000000E+00 -0.39305282191E+03  0.39305282192E+03  0.25500000920E-02 0.  1.
    10030    2    1    2    0    0  0.00000000000E+00  0.00000000000E+00  0.12616475478E+03  0.91227039861E+03  0.90350414212E+03 0.  0.
        4    1    3    3  502    0  0.27860693959E+03  0.25171155580E+03  0.31671230512E+03  0.49121159517E+03  0.12699999809E+01 0. -1.
       -4    1    3    3    0  502 -0.27860693959E+03 -0.25171155580E+03 -0.19054755034E+03  0.42105880344E+03  0.12699999809E+01 0.  1.
</event>
<event>
 5   0  0.1033749E-02  0.9024561E+03  0.7818609E-02  0.9422516E-01
       -2   -1    0    0    0  501  0.00000000000E+00  0.00000000000E+00  0.14232742780E+03  0.14232742783E+03  0.25500000920E-02 0.  1.
        2   -1    0    0  501    0  0.00000000000E+00  0.00000000000E+00 -0.14305518402E+04  0.14305518402E+04  0.25500000920E-02 0. -1.
    10030    2    1    2    0    0  0.00000000000E+00  0.00000000000E+00 -0.12882244124E+04  0.15728792681E+04  0.90245612366E+03 0.  0.
        5    1    3    3  502    0  0.21308748539E+03 -0.17345057399E+03 -0.12678937083E+04  0.12973310770E+04  0.46999998093E+01 0. -1.
       -5    1    3    3    0  502 -0.21308748539E+03  0.17345057399E+03 -0.20330704188E+02  0.27554819103E+03  0.46999998093E+01 0.  1.
</event>
<event>
 5   0  0.6211218E-03  0.9064308E+03  0.7818609E-02  0.9417578E-01
       -1   -1    0    0    0  501  0.00000000000E+00  0.00000000000E+00  0.22494690936E+03  0.22494690942E+03  0.50400001928E-02 0.  1.
        1   -1    0    0  501    0  0.00000000000E+00  0.00000000000E+00 -0.91312296033E+03  0.91312296035E+03  0.50400001928E-02 0. -1.
    10030    2    1    2    0    0  0.00000000000E+00  0.00000000000E+00 -0.68817605097E+03  0.11380698698E+04  0.90643077581E+03 0.  0.
        5    1    3    3  502    0 -0.62790570589E+02  0.44411528631E+03 -0.26270882040E+03  0.51982598781E+03  0.46999998093E+01 0.  1.
       -5    1    3    3    0  502  0.62790570589E+02 -0.44411528631E+03 -0.42546723057E+03  0.61824388195E+03  0.46999998093E+01 0. -1.
</event>
<event>
 5   0  0.1017079E-02  0.8991370E+03  0.7818609E-02  0.9426661E-01
       -2   -1    0    0    0  501  0.00000000000E+00  0.00000000000E+00  0.25521186264E+03  0.25521186265E+03  0.25500000920E-02 0. -1.
        2   -1    0    0  501    0  0.00000000000E+00  0.00000000000E+00 -0.79193746332E+03  0.79193746332E+03  0.25500000920E-02 0.  1.
    10030    2    1    2    0    0  0.00000000000E+00  0.00000000000E+00 -0.53672560068E+03  0.10471493260E+04  0.89913699760E+03 0.  0.
        1    1    3    3  502    0  0.27206893441E+03  0.23459004700E+03  0.46423745958E+02  0.36222804894E+03  0.50400001928E-02 0. -1.
       -1    1    3    3    0  502 -0.27206893441E+03 -0.23459004700E+03 -0.58314934664E+03  0.68492127703E+03  0.50400001928E-02 0.  1.
</event>
<event>
 5   0  0.1003252E-02  0.8955764E+03  0.7818609E-02  0.9431128E-01
        2   -1    0    0  501    0  0.00000000000E+00  0.00000000000E+00  0.36198476260E+03  0.36198476261E+03  0.25500000920E-02 0.  1.
       -2   -1    0    0    0  501  0.00000000000E+00  0.00000000000E+00 -0.55393018103E+03  0.55393018103E+03  0.25500000920E-02 0. -1.
    10030    2    1    2    0    0  0.00000000000E+00  0.00000000000E+00 -0.19194541843E+03  0.91591494364E+03  0.89557642908E+03 0.  0.
        2    1    3    3  502    0 -0.56626386921E+02 -0.41607527248E+03  0.63087807902E+02  0.42462365876E+03  0.25500000920E-02 0. -1.
       -2    1    3    3    0  502  0.56626386921E+02  0.41607527248E+03 -0.25503322633E+03  0.49129128488E+03  0.25500000920E-02 0.  1.
</event>
<event>
 5   0  0.1003252E-02  0.9111512E+03  0.7818609E-02  0.9411748E-01
       -2   -1    0    0    0  501  0.00000000000E+00  0.00000000000E+00  0.58274389969E+03  0.58274389970E+03  0.25500000920E-02 0. -1.
        2   -1    0    0  501    0  0.00000000000E+00  0.00000000000E+00 -0.35615837938E+03  0.35615837938E+03  0.25500000920E-02 0.  1.
    10030    2    1    2    0    0  0.00000000000E+00  0.00000000000E+00  0.22658552032E+03  0.93890227908E+03  0.91115119033E+03 0.  0.
        2    1    3    3  502    0  0.23370712675E+03 -0.95143758873E+01 -0.28956140850E+03  0.37223024291E+03  0.25500000920E-02 0.  1.
       -2    1    3    3    0  502 -0.23370712675E+03  0.95143758873E+01  0.51614692882E+03  0.56667203617E+03  0.25500000920E-02 0. -1.
</event>
<event>
 5   0  0.6137243E-03  0.8959972E+03  0.7818609E-02  0.9430599E-01
       -1   -1    0    0    0  501  0.00000000000E+00  0.00000000000E+00  0.14856092534E+03  0.14856092543E+03  0.50400001928E-02 0. -1.
        1   -1    0    0  501    0  0.00000000000E+00  0.00000000000E+00 -0.13509795122E+04  0.13509795122E+04  0.50400001928E-02 0.  1.
    10030    2    1    2    0    0  0.00000000000E+00  0.00000000000E+00 -0.12024185868E+04  0.14995404376E+04  0.89599724669E+03 0.  0.
        4    1    3    3  502    0 -0.13139304101E+03 -0.39136711023E+02  0.11258690574E+03  0.17740698301E+03  0.12699999809E+01 0. -1.
       -4    1    3    3    0  502  0.13139304101E+03  0.39136711023E+02 -0.13150054926E+04  0.13221334546E+04  0.12699999809E+01 0.  1.
</event>
<event>
 5   0  0.6288003E-03  0.8920450E+03  0.7818609E-02  0.9435581E-01
        1   -1    0    0  501    0  0.00000000000E+00  0.00000000000E+00  0.88086654715E+03  0.88086654716E+03  0.50400001928E-02 0. -1.
       -1   -1    0    0    0  501  0.00000000000E+00  0.00000000000E+00 -0.22584132014E+03  0.22584132020E+03  0.50400001928E-02 0.  1.
    10030    2    1    2    0    0  0.00000000000E+00  0.00000000000E+00  0.65502522701E+03  0.11067078674E+04  0.89204498523E+03 0.  0.
        1    1    3    3  502    0  0.33657077951E+03 -0.56900880244E+02  0.68368356761E+03  0.76416020601E+03  0.50400001928E-02 0. -1.
       -1    1    3    3    0  502 -0.33657077951E+03  0.56900880244E+02 -0.28658340608E+02  0.34254766136E+03  0.50400001928E-02 0.  1.
</event>
<event>
 5   0  0.1033749E-02  0.9002637E+03  0.7818609E-02  0.9425252E-01
       -2   -1    0    0    0  501  0.00000000000E+00  0.00000000000E+00  0.38354170052E+03  0.38354170053E+03  0.25500000920E-02 0. -1.
        2   -1    0    0  501    0  0.00000000000E+00  0.00000000000E+00 -0.52828329324E+03  0.52828329324E+03  0.25500000920E-02 0.  1.
    10030    2    1    2    0    0  0.00000000000E+00  0.00000000000E+00 -0.14474159272E+03  0.91182499377E+03  0.90026367837E+03 0.  0.
        5    1    3    3  502    0  0.90823774944E+02  0.16184206320E+03  0.34296212884E+03  0.38998323468E+03  0.46999998093E+01 0. -1.
       -5    1    3    3    0  502 -0.90823774944E+02 -0.16184206320E+03 -0.48770372156E+03  0.52184175909E+03  0.46999998093E+01 0.  1.
</event>
<event>
 5   0  0.6211218E-03  0.8901451E+03  0.7818609E-02  0.9437985E-01
       -1   -1    0    0    0  501  0.00000000000E+00  0.00000000000E+00  0.66218970458E+03  0.66218970460E+03  0.50400001928E-02 0.  1.
        1   -1    0    0  501    0  0.00000000000E+00  0.00000000000E+00 -0.29914326081E+03  0.29914326085E+03  0.50400001928E-02 0. -1.
    10030    2    1    2    0    0  0.00000000000E+00  0.00000000000E+00  0.36304644377E+03  0.96133296545E+03  0.89014512869E+03 0.  0.
        5    1    3    3  502    0 -0.23137144543E+03 -0.37742029204E+03  0.13216625737E+03  0.46202687388E+03  0.46999998093E+01 0. -1.
       -5    1    3    3    0  502  0.23137144543E+03  0.37742029204E+03  0.23088018641E+03  0.49930609157E+03  0.46999998093E+01 0.  1.
</event>
<event>
 5   0  0.1003252E-02  0.9542207E+03  0.7818609E-02  0.9360231E-01
        2   -1    0    0  501    0  0.00000000000E+00  0.00000000000E+00  0.37961879758E+03  0.37961879759E+03  0.25500000920E-02 0. -1.
       -2   -1    0    0    0  501  0.00000000000E+00  0.00000000000E+00 -0.59963913727E+03  0.59963913727E+03  0.25500000920E-02 0.  1.
    10030    2    1    2    0    0  0.00000000000E+00  0.00000000000E+00 -0.22002033968E+03  0.97925793486E+03  0.95422070461E+03 0.  0.
        2    1    3    3  502    0  0.39483014009E+03  0.78363594438E+00  0.16486627794E+03  0.42786953995E+03  0.25500000920E-02 0. -1.
       -2    1    3    3    0  502 -0.39483014009E+03 -0.78363594438E+00 -0.38488661763E+03  0.55138839491E+03  0.25500000920E-02 0.  1.
</event>
<event>
 5   0  0.1041727E-02  0.9055774E+03  0.7818609E-02  0.9418636E-01
        2   -1    0    0  501    0  0.00000000000E+00  0.00000000000E+00  0.10464260893E+04  0.10464260893E+04  0.25500000920E-02 0.  1.
       -2   -1    0    0    0  501  0.00000000000E+00  0.00000000000E+00 -0.19592172512E+03  0.19592172513E+03  0.25500000920E-02 0. -1.
    10030    2    1    2    0    0  0.00000000000E+00  0.00000000000E+00  0.85050436414E+03  0.12423478144E+04  0.90557739509E+03 0.  0.
        4    1    3    3  502    0 -0.25108459410E+03  0.29465473704E+03  0.74742933059E+03  0.84173458084E+03  0.12699999809E+01 0.  1.
       -4    1    3    3    0  502  0.25108459410E+03 -0.29465473704E+03  0.10307503355E+03  0.40061323355E+03  0.12699999809E+01 0. -1.
</event>
<event>
 5   0  0.6137243E-03  0.9017987E+03  0.7818609E-02  0.9423336E-01
        1   -1    0    0  501    0  0.00000000000E+00  0.00000000000E+00  0.10848623297E+04  0.10848623297E+04  0.50400001928E-02 0.  1.
       -1   -1    0    0    0  501  0.00000000000E+00  0.00000000000E+00 -0.18740648533E+03  0.18740648539E+03  0.50400001928E-02 0. -1.
    10030    2    1    2    0    0  0.00000000000E+00  0.00000000000E+00  0.89745584435E+03  0.12722688151E+04  0.90179872769E+03 0.  0.
        4    1    3    3  502    0 -0.41510028692E+02  0.24417377568E+03 -0.82840851588E+02  0.26116687157E+03  0.12699999809E+01 0. -1.
       -4    1    3    3    0  502  0.41510028692E+02 -0.24417377568E+03  0.98029669593E+03  0.10111019435E+04  0.12699999809E+01 0.  1.
</event>
<event>
 5   0  0.1033749E-02  0.8950653E+03  0.7818609E-02  0.9431771E-01
       -2   -1    0    0    0  501  0.00000000000E+00  0.00000000000E+00  0.19919417225E+03  0.19919417227E+03  0.25500000920E-02 0. -1.
        2   -1    0    0  501    0  0.00000000000E+00  0.00000000000E+00 -0.10054785537E+04  0.10054785537E+04  0.25500000920E-02 0.  1.
    10030    2    1    2    0    0  0.00000000000E+00  0.00000000000E+00 -0.80628438150E+03  0.12046727260E+04  0.89506528978E+03 0.  0.
        5    1    3    3  502    0 -0.71453985282E+01  0.44208825912E+03 -0.31018416860E+03  0.54011979599E+03  0.46999998093E+01 0.  1.
       -5    1    3    3    0  502  0.71453985282E+01 -0.44208825912E+03 -0.49610021290E+03  0.66455293003E+03  0.46999998093E+01 0. -1.
</event>
<event>
 5   0  0.1028978E-02  0.9037527E+03  0.7818609E-02  0.9420903E-01
       -2   -1    0    0    0  501  0.00000000000E+00  0.00000000000E+00  0.39095436524E+03  0.39095436525E+03  0.25500000920E-02 0. -1.
        2   -1    0    0  501    0  0.00000000000E+00  0.00000000000E+00 -0.52229169603E+03  0.52229169604E+03  0.25500000920E-02 0.  1.
    10030    2    1    2    0    0  0.00000000000E+00  0.00000000000E+00 -0.13133733079E+03  0.91324606128E+03  0.90375266195E+03 0.  0.
        3    1    3    3  502    0  0.14003016169E+03  0.91636064031E+02 -0.48982372133E+03  0.51762235519E+03  0.10100000352E+00 0.  1.
       -3    1    3    3    0  502 -0.14003016169E+03 -0.91636064031E+02  0.35848639054E+03  0.39562370609E+03  0.10100000352E+00 0. -1.
</event>
<event>
 5   0  0.1041727E-02  0.9019850E+03  0.7818609E-02  0.9423103E-01
       -2   -1    0    0    0  501  0.00000000000E+00  0.00000000000E+00  0.15717431465E+03  0.15717431467E+03  0.25500000920E-02 0.  1.
        2   -1    0    0  501    0  0.00000000000E+00  0.00000000000E+00 -0.12940679527E+04  0.12940679527E+04  0.25500000920E-02 0. -1.
    10030    2    1    2    0    0  0.00000000000E+00  0.00000000000E+00 -0.11368936381E+04  0.14512422674E+04  0.90198501893E+03 0.  0.
        4    1    3    3  502    0  0.33294418298E+03 -0.73788622237E+02 -0.93615013656E+02  0.35364102340E+03  0.12699999809E+01 0.  1.
       -4    1    3    3    0  502 -0.33294418298E+03  0.73788622237E+02 -0.10432786244E+04  0.10976012440E+04  0.12699999809E+01 0. -1.
</event>
<event>
 5   0  0.6092779E-03  0.9659939E+03  0.7818609E-02  0.9346649E-01
        1   -1    0    0  501    0  0.00000000000E+00  0.00000000000E+00  0.45390369847E+03  0.45390369850E+03  0.50400001928E-02 0. -1.
       -1   -1    0    0    0  501  0.00000000000E+00  0.00000000000E+00 -0.51395500044E+03  0.51395500047E+03  0.50400001928E-02 0.  1.
    10030    2    1    2    0    0  0.00000000000E+00  0.00000000000E+00 -0.60051301969E+02  0.96785869897E+03  0.96599394527E+03 0.  0.
        2    1    3    3  502    0  0.35352128437E+03 -0.51934679453E+02  0.29558102064E+03  0.46372691231E+03  0.25500000920E-02 0. -1.
       -2    1    3    3    0  502 -0.35352128437E+03  0.51934679453E+02 -0.35563232261E+03  0.50413178666E+03  0.25500000920E-02 0.  1.
</event>
<event>
 5   0  0.1033749E-02  0.9092584E+03  0.7818609E-02  0.9414081E-01
       -2   -1    0    0    0  501  0.00000000000E+00  0.00000000000E+00  0.13999798200E+03  0.13999798203E+03  0.25500000920E-02 0. -1.
        2   -1    0    0  501    0  0.00000000000E+00  0.00000000000E+00 -0.14763621899E+04  0.14763621899E+04  0.25500000920E-02 0.  1.
    10030    2    1    2    0    0  0.00000000000E+00  0.00000000000E+00 -0.13363642079E+04  0.16163601720E+04  0.90925843920E+03 0.  0.
        5    1    3    3  502    0 -0.41965691902E+02  0.26097902514E+03 -0.13256659167E+04  0.13517704626E+04  0.46999998093E+01 0.  1.
       -5    1    3    3    0  502  0.41965691902E+02 -0.26097902514E+03 -0.10698291220E+02  0.26458970935E+03  0.46999998093E+01 0. -1.
</event>
<event>
 5   0  0.6015709E-03  0.8926617E+03  0.7818609E-02  0.9434801E-01
       -1   -1    0    0    0  501  0.00000000000E+00  0.00000000000E+00  0.36593584967E+03  0.36593584970E+03  0.50400001928E-02 0. -1.
        1   -1    0    0  501    0  0.00000000000E+00  0.00000000000E+00 -0.54438841393E+03  0.54438841395E+03  0.50400001928E-02 0.  1.
    10030    2    1    2    0    0  0.00000000000E+00  0.00000000000E+00 -0.17845256426E+03  0.91032426365E+03  0.89266172053E+03 0.  0.
        3    1    3    3  502    0  0.21469912984E+03  0.38702128623E+03 -0.30378031310E+02  0.44362599939E+03  0.10100000352E+00 0.  1.
       -3    1    3    3    0  502 -0.21469912984E+03 -0.38702128623E+03 -0.14807453295E+03  0.46669826426E+03  0.10100000352E+00 0. -1.
</event>
<event>
 5   0  0.1041727E-02  0.9347453E+03  0.7818609E-02  0.9383161E-01
        2   -1    0    0  501    0  0.00000000000E+00  0.00000000000E+00  0.18065743503E+04  0.18065743503E+04  0.25500000920E-02 0.  1.
       -2   -1    0    0    0  501  0.00000000000E+00  0.00000000000E+00 -0.12091238392E+03  0.12091238394E+03  0.25500000920E-02 0. -1.
    10030    2    1    2    0    0  0.00000000000E+00  0.00000000000E+00  0.16856619664E+04  0.19274867343E+04  0.93474533740E+03 0.  0.
        4    1    3    3  502    0  0.46369514336E+03  0.32924361660E+02  0.74311669422E+03  0.87653935091E+03  0.12699999809E+01 0. -1.
       -4    1    3    3    0  502 -0.46369514336E+03 -0.32924361660E+02  0.94254527219E+03  0.10509473834E+04  0.12699999809E+01 0.  1.
</event>
<event>
 5   0  0.6288003E-03  0.8901992E+03  0.7818609E-02  0.9437916E-01
        1   -1    0    0  501    0  0.00000000000E+00  0.00000000000E+00  0.80530227382E+03  0.80530227384E+03  0.50400001928E-02 0. -1.
       -1   -1    0    0    0  501  0.00000000000E+00  0.00000000000E+00 -0.24601154243E+03  0.24601154248E+03  0.50400001928E-02 0.  1.
    10030    2    1    2    0    0  0.00000000000E+00  0.00000000000E+00  0.55929073139E+03  0.10513138163E+04  0.89019920139E+03 0.  0.
        1    1    3    3  502    0  0.40940539669E+03  0.16899678409E+03  0.22761537355E+03  0.49797735910E+03  0.50400001928E-02 0. -1.
       -1    1    3    3    0  502 -0.40940539669E+03 -0.16899678409E+03  0.33167535784E+03  0.55333645723E+03  0.50400001928E-02 0.  1.
</event>
<event>
 5   0  0.1033749E-02  0.8981157E+03  0.7818609E-02  0.9427940E-01
       -2   -1    0    0    0  501  0.00000000000E+00  0.00000000000E+00  0.25003796550E+03  0.25003796551E+03  0.25500000920E-02 0.  1.
        2   -1    0    0  501    0  0.00000000000E+00  0.00000000000E+00 -0.80648932139E+03  0.80648932140E+03  0.25500000920E-02 0. -1.
    10030    2    1    2    0    0  0.00000000000E+00  0.00000000000E+00 -0.55645135589E+03  0.10565272869E+04  0.89811569216E+03 0.  0.
        5    1    3    3  502    0 -0.21415406908E+03  0.37492596483E+03 -0.13319433582E+03  0.45187859597E+03  0.46999998093E+01 0.  1.
       -5    1    3    3    0  502  0.21415406908E+03 -0.37492596483E+03 -0.42325702008E+03  0.60464869094E+03  0.46999998093E+01 0. -1.
</event>
<event>
 5   0  0.6211218E-03  0.8936123E+03  0.7818609E-02  0.9433602E-01
        1   -1    0    0  501    0  0.00000000000E+00  0.00000000000E+00  0.41669022980E+03  0.41669022983E+03  0.50400001928E-02 0.  1.
       -1   -1    0    0    0  501  0.00000000000E+00  0.00000000000E+00 -0.47909867513E+03  0.47909867516E+03  0.50400001928E-02 0. -1.
    10030    2    1    2    0    0  0.00000000000E+00  0.00000000000E+00 -0.62408445333E+02  0.89578890499E+03  0.89361230310E+03 0.  0.
        5    1    3    3  502    0  0.17745034299E+03  0.55372184104E+02 -0.43846826810E+03  0.47626800767E+03  0.46999998093E+01 0. -1.
       -5    1    3    3    0  502 -0.17745034299E+03 -0.55372184104E+02  0.37605982276E+03  0.41952089733E+03  0.46999998093E+01 0.  1.
</event>
<event>
 5   0  0.6211218E-03  0.9002680E+03  0.7818609E-02  0.9425247E-01
       -1   -1    0    0    0  501  0.00000000000E+00  0.00000000000E+00  0.25775863423E+03  0.25775863428E+03  0.50400001928E-02 0. -1.
        1   -1    0    0  501    0  0.00000000000E+00  0.00000000000E+00 -0.78608659253E+03  0.78608659255E+03  0.50400001928E-02 0.  1.
    10030    2    1    2    0    0  0.00000000000E+00  0.00000000000E+00 -0.52832795830E+03  0.10438452268E+04  0.90026797458E+03 0.  0.
        5    1    3    3  502    0  0.27907229592E+03 -0.23790718789E+03 -0.56678085892E+03  0.67508800051E+03  0.46999998093E+01 0.  1.
       -5    1    3    3    0  502 -0.27907229592E+03  0.23790718789E+03  0.38452900621E+02  0.36875722632E+03  0.46999998093E+01 0. -1.
</event>
<event>
 5   0  0.1033749E-02  0.8972589E+03  0.7818609E-02  0.9429014E-01
        2   -1    0    0  501    0  0.00000000000E+00  0.00000000000E+00  0.11972436630E+04  0.11972436630E+04  0.25500000920E-02 0. -1.
       -2   -1    0    0    0  501  0.00000000000E+00  0.00000000000E+00 -0.16810978837E+03  0.16810978839E+03  0.25500000920E-02 0.  1.
    10030    2    1    2    0    0  0.00000000000E+00  0.00000000000E+00  0.10291338747E+04  0.13653534514E+04  0.89725888981E+03 0.  0.
        5    1    3    3  502    0  0.30115900796E+02  0.44592243868E+03  0.57335437043E+03  0.72698769790E+03  0.46999998093E+01 0.  1.
       -5    1    3    3    0  502 -0.30115900796E+02 -0.44592243868E+03  0.45577950422E+03  0.63836575352E+03  0.46999998093E+01 0. -1.
</event>
<event>
 5   0  0.6137243E-03  0.9013804E+03  0.7818609E-02  0.9423858E-01
       -1   -1    0    0    0  501  0.00000000000E+00  0.00000000000E+00  0.18971861249E+03  0.18971861255E+03  0.50400001928E-02 0. -1.
        1   -1    0    0  501    0  0.00000000000E+00  0.00000000000E+00 -0.10706468582E+04  0.10706468582E+04  0.50400001928E-02 0.  1.
    10030    2    1    2    0    0  0.00000000000E+00  0.00000000000E+00 -0.88092824573E+03  0.12603654708E+04  0.90138035579E+03 0.  0.
        4    1    3    3  502    0  0.11026837506E+03  0.28963829755E+03  0.17069964991E+02  0.31039080938E+03  0.12699999809E+01 0. -1.
       -4    1    3    3    0  502 -0.11026837506E+03 -0.28963829755E+03 -0.89799821072E+03  0.94997466140E+03  0.12699999809E+01 0.  1.
</event>
<event>
 5   0  0.6137243E-03  0.9064547E+03  0.7818609E-02  0.9417548E-01
        1   -1    0    0  501    0  0.00000000000E+00  0.00000000000E+00  0.23008920390E+04  0.23008920390E+04  0.50400001928E-02 0.  1.
       -1   -1    0    0    0  501  0.00000000000E+00  0.00000000000E+00 -0.89276261431E+02  0.89276261574E+02  0.50400001928E-02 0. -1.
    10030    2    1    2    0    0  0.00000000000E+00  0.00000000000E+00  0.22116157775E+04  0.23901683005E+04  0.90645471894E+03 0.  0.
        4    1    3    3  502    0 -0.15081355251E+02 -0.17879235794E+03  0.22032470978E+04  0.22105414589E+04  0.12699999809E+01 0.  1.
       -4    1    3    3    0  502  0.15081355251E+02  0.17879235794E+03  0.83686796974E+01  0.17962684163E+03  0.12699999809E+01 0. -1.
</event>
<event>
 5   0  0.6211218E-03  0.9312903E+03  0.7818609E-02  0.9387291E-01
       -1   -1    0    0    0  501  0.00000000000E+00  0.00000000000E+00  0.17355929087E+03  0.17355929094E+03  0.50400001928E-02 0.  1.
        1   -1    0    0  501    0  0.00000000000E+00  0.00000000000E+00 -0.12492873488E+04  0.12492873488E+04  0.50400001928E-02 0. -1.
    10030    2    1    2    0    0  0.00000000000E+00  0.00000000000E+00 -0.10757280579E+04  0.14228466398E+04  0.93129034443E+03 0.  0.
        5    1    3    3  502    0  0.12587767757E+03 -0.28538105452E+03 -0.10660485316E+04  0.11107515914E+04  0.46999998093E+01 0. -1.
       -5    1    3    3    0  502 -0.12587767757E+03  0.28538105452E+03 -0.96795263145E+01  0.31209504837E+03  0.46999998093E+01 0.  1.
</event>
<event>
 5   0  0.6092779E-03  0.8984048E+03  0.7818609E-02  0.9427578E-01
        1   -1    0    0  501    0  0.00000000000E+00  0.00000000000E+00  0.14971892582E+04  0.14971892582E+04  0.50400001928E-02 0.  1.
       -1   -1    0    0    0  501  0.00000000000E+00  0.00000000000E+00 -0.13477440981E+03  0.13477440990E+03  0.50400001928E-02 0. -1.
    10030    2    1    2    0    0  0.00000000000E+00  0.00000000000E+00  0.13624148484E+04  0.16319636681E+04  0.89840480571E+03 0.  0.
        2    1    3    3  502    0 -0.38182125961E+03  0.23030352785E+03  0.58245177553E+03  0.73353749738E+03  0.25500000920E-02 0. -1.
       -2    1    3    3    0  502  0.38182125961E+03 -0.23030352785E+03  0.77996307286E+03  0.89842617074E+03  0.25500000920E-02 0.  1.
</event>
<event>
 5   0  0.6137243E-03  0.8971010E+03  0.7818609E-02  0.9429213E-01
        1   -1    0    0  501    0  0.00000000000E+00  0.00000000000E+00  0.11674404924E+04  0.11674404924E+04  0.50400001928E-02 0. -1.
       -1   -1    0    0    0  501  0.00000000000E+00  0.00000000000E+00 -0.17234074839E+03  0.17234074846E+03  0.50400001928E-02 0.  1.
    10030    2    1    2    0    0  0.00000000000E+00  0.00000000000E+00  0.99509974404E+03  0.13397812409E+04  0.89710103828E+03 0.  0.
        4    1    3    3  502    0 -0.47899115330E+02  0.27291485407E+03  0.10243381262E+04  0.10611536423E+04  0.12699999809E+01 0. -1.
       -4    1    3    3    0  502  0.47899115330E+02 -0.27291485407E+03 -0.29238382167E+02  0.27862759862E+03  0.12699999809E+01 0.  1.
</event>
<event>
 5   0  0.6137243E-03  0.9098886E+03  0.7818609E-02  0.9413304E-01
       -1   -1    0    0    0  501  0.00000000000E+00  0.00000000000E+00  0.23500510232E+03  0.23500510238E+03  0.50400001928E-02 0.  1.
        1   -1    0    0  501    0  0.00000000000E+00  0.00000000000E+00 -0.88072255616E+03  0.88072255618E+03  0.50400001928E-02 0. -1.
    10030    2    1    2    0    0  0.00000000000E+00  0.00000000000E+00 -0.64571745384E+03  0.11157276586E+04  0.90988855245E+03 0.  0.
        4    1    3    3  502    0  0.52185828143E+02  0.14944152306E+03  0.20014659272E+03  0.25517915462E+03  0.12699999809E+01 0.  1.
       -4    1    3    3    0  502 -0.52185828143E+02 -0.14944152306E+03 -0.84586404656E+03  0.86054850394E+03  0.12699999809E+01 0. -1.
</event>
<event>
 5   0  0.6288003E-03  0.9065969E+03  0.7818609E-02  0.9417372E-01
       -1   -1    0    0    0  501  0.00000000000E+00  0.00000000000E+00  0.15471067805E+04  0.15471067805E+04  0.50400001928E-02 0.  1.
        1   -1    0    0  501    0  0.00000000000E+00  0.00000000000E+00 -0.13281533530E+03  0.13281533539E+03  0.50400001928E-02 0. -1.
    10030    2    1    2    0    0  0.00000000000E+00  0.00000000000E+00  0.14142914452E+04  0.16799221159E+04  0.90659694656E+03 0.  0.
        1    1    3    3  502    0  0.19175179727E+03  0.39221967899E+03  0.93313912215E+03  0.10302201947E+04  0.50400001928E-02 0.  1.
       -1    1    3    3    0  502 -0.19175179727E+03 -0.39221967899E+03  0.48115232305E+03  0.64970192115E+03  0.50400001928E-02 0. -1.
</event>
<event>
 5   0  0.1003252E-02  0.9120954E+03  0.7818609E-02  0.9410587E-01
       -2   -1    0    0    0  501  0.00000000000E+00  0.00000000000E+00  0.74931839988E+02  0.74931840031E+02  0.25500000920E-02 0.  1.
        2   -1    0    0  501    0  0.00000000000E+00  0.00000000000E+00 -0.27755827701E+04  0.27755827701E+04  0.25500000920E-02 0. -1.
    10030    2    1    2    0    0  0.00000000000E+00  0.00000000000E+00 -0.27006509301E+04  0.28505146102E+04  0.91209544252E+03 0.  0.
        2    1    3    3  502    0 -0.13426768739E+03 -0.10038122608E+03 -0.26757920309E+04  0.26810384546E+04  0.25500000920E-02 0. -1.
       -2    1    3    3    0  502  0.13426768739E+03  0.10038122608E+03 -0.24858899246E+02  0.16947615556E+03  0.25500000920E-02 0.  1.
</event>
<event>
 5   0  0.6288003E-03  0.9277243E+03  0.7818609E-02  0.9391573E-01
       -1   -1    0    0    0  501  0.00000000000E+00  0.00000000000E+00  0.18881552858E+03  0.18881552865E+03  0.50400001928E-02 0. -1.
        1   -1    0    0  501    0  0.00000000000E+00  0.00000000000E+00 -0.11395678584E+04  0.11395678584E+04  0.50400001928E-02 0.  1.
    10030    2    1    2    0    0  0.00000000000E+00  0.00000000000E+00 -0.95075232983E+03  0.13283833871E+04  0.92772432887E+03 0.  0.
        1    1    3    3  502    0 -0.11053610985E+03  0.33243434421E+03 -0.40036663817E+02  0.35260992508E+03  0.50400001928E-02 0. -1.
       -1    1    3    3    0  502  0.11053610985E+03 -0.33243434421E+03 -0.91071566602E+03  0.97577346200E+03  0.50400001928E-02 0.  1.
</event>
<event>
 5   0  0.6137243E-03  0.8991976E+03  0.7818609E-02  0.9426585E-01
        1   -1    0    0  501    0  0.00000000000E+00  0.00000000000E+00  0.11656225506E+04  0.11656225506E+04  0.50400001928E-02 0.  1.
       -1   -1    0    0    0  501  0.00000000000E+00  0.00000000000E+00 -0.17341725220E+03  0.17341725227E+03  0.50400001928E-02 0. -1.
    10030    2    1    2    0    0  0.00000000000E+00  0.00000000000E+00  0.99220529841E+03  0.13390398029E+04  0.89919755311E+03 0.  0.
        4    1    3    3  502    0 -0.44742692191E+03  0.97430346692E+01  0.56018230092E+03  0.71700181335E+03  0.12699999809E+01 0. -1.
       -4    1    3    3    0  502  0.44742692191E+03 -0.97430346692E+01  0.43202299749E+03  0.62203798954E+03  0.12699999809E+01 0.  1.
</event>
<event>
 5   0  0.1033749E-02  0.8839288E+03  0.7818609E-02  0.9445897E-01
        2   -1    0    0  501    0  0.00000000000E+00  0.00000000000E+00  0.18670167099E+04  0.18670167099E+04  0.25500000920E-02 0.  1.
       -2   -1    0    0    0  501  0.00000000000E+00  0.00000000000E+00 -0.10462281953E+03  0.10462281956E+03  0.25500000920E-02 0. -1.
    10030    2    1    2    0    0  0.00000000000E+00  0.00000000000E+00  0.17623938903E+04  0.19716395294E+04  0.88392884855E+03 0.  0.
        5    1    3    3  502    0  0.30274443840E+03 -0.26943410837E+03  0.12743137604E+04  0.13372159824E+04  0.46999998093E+01 0.  1.
       -5    1    3    3    0  502 -0.30274443840E+03  0.26943410837E+03  0.48808012994E+03  0.63442354699E+03  0.46999998093E+01 0. -1.
</event>
<event>
 5   0  0.3996375E-03  0.9019458E+03  0.7818609E-02  0.9423152E-01
       -4   -1    0    0    0  501  0.00000000000E+00  0.00000000000E+00  0.15697620189E+04  0.15697625326E+04  0.12699999809E+01 0. -1.
        4   -1    0    0  501    0  0.00000000000E+00  0.00000000000E+00 -0.12955521040E+03  0.12956143501E+03  0.12699999809E+01 0.  1.
    10030    2    1    2    0    0  0.00000000000E+00  0.00000000000E+00  0.14402068085E+04  0.16993239676E+04  0.90194583861E+03 0.  0.
        4    1    3    3  502    0 -0.32898944584E+03  0.27454103718E+03  0.45520553971E+03  0.62515640671E+03  0.12699999809E+01 0.  1.
       -4    1    3    3    0  502  0.32898944584E+03 -0.27454103718E+03  0.98500126874E+03  0.10741675609E+04  0.12699999809E+01 0. -1.
</event>
<event>
 5   0  0.6015709E-03  0.8961037E+03  0.7818609E-02  0.9430465E-01
       -1   -1    0    0    0  501  0.00000000000E+00  0.00000000000E+00  0.11165724853E+03  0.11165724865E+03  0.50400001928E-02 0. -1.
        1   -1    0    0  501    0  0.00000000000E+00  0.00000000000E+00 -0.17979168643E+04  0.17979168643E+04  0.50400001928E-02 0.  1.
    10030    2    1    2    0    0  0.00000000000E+00  0.00000000000E+00 -0.16862596158E+04  0.19095741130E+04  0.89610367764E+03 0.  0.
        3    1    3    3  502    0  0.71872117114E+02 -0.42660510441E+03 -0.10915773468E+04  0.11741799822E+04  0.10100000352E+00 0.  1.
       -3    1    3    3    0  502 -0.71872117114E+02  0.42660510441E+03 -0.59468226894E+03  0.73539413074E+03  0.10100000352E+00 0. -1.
</event>
<event>
 5   0  0.6137243E-03  0.8886769E+03  0.7818609E-02  0.9439848E-01
       -1   -1    0    0    0  501  0.00000000000E+00  0.00000000000E+00  0.18487508336E+03  0.18487508342E+03  0.50400001928E-02 0. -1.
        1   -1    0    0  501    0  0.00000000000E+00  0.00000000000E+00 -0.10679462024E+04  0.10679462024E+04  0.50400001928E-02 0.  1.
    10030    2    1    2    0    0  0.00000000000E+00  0.00000000000E+00 -0.88307111903E+03  0.12528212858E+04  0.88867686644E+03 0.  0.
        4    1    3    3  502    0 -0.44079497046E+03  0.55360597278E+02 -0.45333287110E+03  0.63472616665E+03  0.12699999809E+01 0. -1.
       -4    1    3    3    0  502  0.44079497046E+03 -0.55360597278E+02 -0.42973824793E+03  0.61809511917E+03  0.12699999809E+01 0.  1.
</event>
<event>
 5   0  0.6137243E-03  0.9043192E+03  0.7818609E-02  0.9420198E-01
        1   -1    0    0  501    0  0.00000000000E+00  0.00000000000E+00  0.11717836685E+04  0.11717836685E+04  0.50400001928E-02 0. -1.
       -1   -1    0    0    0  501  0.00000000000E+00  0.00000000000E+00 -0.17447616684E+03  0.17447616691E+03  0.50400001928E-02 0.  1.
    10030    2    1    2    0    0  0.00000000000E+00  0.00000000000E+00  0.99730750164E+03  0.13462598354E+04  0.90431924207E+03 0.  0.
        4    1    3    3  502    0 -0.18835531820E+03 -0.17163275568E+03 -0.57393407105E+02  0.26121092013E+03  0.12699999809E+01 0.  1.
       -4    1    3    3    0  502  0.18835531820E+03  0.17163275568E+03  0.10547009087E+04  0.10850489153E+04  0.12699999809E+01 0. -1.
</event>
<event>
 5   0  0.1041727E-02  0.8974747E+03  0.7818609E-02  0.9428744E-01
       -2   -1    0    0    0  501  0.00000000000E+00  0.00000000000E+00  0.13078803131E+03  0.13078803133E+03  0.25500000920E-02 0.  1.
        2   -1    0    0  501    0  0.00000000000E+00  0.00000000000E+00 -0.15396303191E+04  0.15396303191E+04  0.25500000920E-02 0. -1.
    10030    2    1    2    0    0  0.00000000000E+00  0.00000000000E+00 -0.14088422877E+04  0.16704183504E+04  0.89747472030E+03 0.  0.
        4    1    3    3  502    0 -0.27215602579E+03 -0.33537809358E+03 -0.47786700902E+03  0.64413186479E+03  0.12699999809E+01 0.  1.
       -4    1    3    3    0  502  0.27215602579E+03  0.33537809358E+03 -0.93097527873E+03  0.10262864856E+04  0.12699999809E+01 0. -1.
</event>
<event>
 5   0  0.3996375E-03  0.8898243E+03  0.7818609E-02  0.9438392E-01
       -3   -1    0    0    0  501  0.00000000000E+00  0.00000000000E+00  0.20778268950E+03  0.20778271405E+03  0.10100000352E+00 0.  1.
        3   -1    0    0  501    0  0.00000000000E+00  0.00000000000E+00 -0.95266254030E+03  0.95266254565E+03  0.10100000352E+00 0. -1.
    10030    2    1    2    0    0  0.00000000000E+00  0.00000000000E+00 -0.74487985080E+03  0.11604452597E+04  0.88982425717E+03 0.  0.
        4    1    3    3  502    0  0.36855571409E+02 -0.23759765273E+03 -0.86063400151E+03  0.89359021659E+03  0.12699999809E+01 0.  1.
       -4    1    3    3    0  502 -0.36855571409E+02  0.23759765273E+03  0.11575415071E+03  0.26685504311E+03  0.12699999809E+01 0. -1.
</event>
<event>
 5   0  0.6015709E-03  0.8811363E+03  0.7818609E-02  0.9449474E-01
        1   -1    0    0  501    0  0.00000000000E+00  0.00000000000E+00  0.59332631138E+03  0.59332631140E+03  0.50400001928E-02 0. -1.
       -1   -1    0    0    0  501  0.00000000000E+00  0.00000000000E+00 -0.32713922755E+03  0.32713922759E+03  0.50400001928E-02 0.  1.
    10030    2    1    2    0    0  0.00000000000E+00  0.00000000000E+00  0.26618708383E+03  0.92046553900E+03  0.88113633728E+03 0.  0.
        3    1    3    3  502    0 -0.14678113746E+03  0.12283041905E+03 -0.28144123740E+03  0.34035451293E+03  0.10100000352E+00 0.  1.
       -3    1    3    3    0  502  0.14678113746E+03 -0.12283041905E+03  0.54762832123E+03  0.58011102607E+03  0.10100000352E+00 0. -1.
</event>
<event>
 5   0  0.1003252E-02  0.8861861E+03  0.7818609E-02  0.9443016E-01
        2   -1    0    0  501    0  0.00000000000E+00  0.00000000000E+00  0.50920746599E+03  0.50920746600E+03  0.25500000920E-02 0.  1.
       -2   -1    0    0    0  501  0.00000000000E+00  0.00000000000E+00 -0.38556276873E+03  0.38556276874E+03  0.25500000920E-02 0. -1.
    10030    2    1    2    0    0  0.00000000000E+00  0.00000000000E+00  0.12364469726E+03  0.89477023474E+03  0.88618607630E+03 0.  0.
        2    1    3    3  502    0  0.25440677331E+02 -0.13555919934E+03  0.48698065549E+03  0.50613603252E+03  0.25500000920E-02 0.  1.
       -2    1    3    3    0  502 -0.25440677331E+02  0.13555919934E+03 -0.36333595823E+03  0.38863420222E+03  0.25500000920E-02 0. -1.
</event>
<event>
 5   0  0.1033749E-02  0.8728705E+03  0.7818609E-02  0.9460145E-01
       -2   -1    0    0    0  501  0.00000000000E+00  0.00000000000E+00  0.21679062076E+03  0.21679062077E+03  0.25500000920E-02 0. -1.
        2   -1    0    0  501    0  0.00000000000E+00  0.00000000000E+00 -0.87861615861E+03  0.87861615861E+03  0.25500000920E-02 0.  1.
    10030    2    1    2    0    0  0.00000000000E+00  0.00000000000E+00 -0.66182553785E+03  0.10954067794E+04  0.87287053437E+03 0.  0.
        5    1    3    3  502    0  0.34551475587E+03  0.25033553686E+03 -0.21585847169E+03  0.47818960396E+03  0.46999998093E+01 0.  1.
       -5    1    3    3    0  502 -0.34551475587E+03 -0.25033553686E+03 -0.44596706616E+03  0.61721717542E+03  0.46999998093E+01 0. -1.
</event>
<event>
 5   0  0.1028978E-02  0.8892517E+03  0.7818609E-02  0.9439118E-01
        2   -1    0    0  501    0  0.00000000000E+00  0.00000000000E+00  0.50823991921E+03  0.50823991922E+03  0.25500000920E-02 0.  1.
       -2   -1    0    0    0  501  0.00000000000E+00  0.00000000000E+00 -0.38897404187E+03  0.38897404188E+03  0.25500000920E-02 0. -1.
    10030    2    1    2    0    0  0.00000000000E+00  0.00000000000E+00  0.11926587734E+03  0.89721396110E+03  0.88925167556E+03 0.  0.
        3    1    3    3  502    0 -0.17860413446E+03  0.75777342536E+01 -0.35111821901E+03  0.39400618374E+03  0.10100000352E+00 0. -1.
       -3    1    3    3    0  502  0.17860413446E+03 -0.75777342536E+01  0.47038409635E+03  0.50320777736E+03  0.10100000352E+00 0.  1.
</event>
<event>
 5   0  0.6092779E-03  0.7972657E+03  0.7818609E-02  0.9563983E-01
        1   -1    0    0  501    0  0.00000000000E+00  0.00000000000E+00  0.14606986373E+04  0.14606986373E+04  0.50400001928E-02 0. -1.
       -1   -1    0    0    0  501  0.00000000000E+00  0.00000000000E+00 -0.10878913607E+03  0.10878913619E+03  0.50400001928E-02 0.  1.
    10030    2    1    2    0    0  0.00000000000E+00  0.00000000000E+00  0.13519095012E+04  0.15694877735E+04  0.79726568447E+03 0.  0.
        2    1    3    3  502    0 -0.17078038626E+02  0.39325602775E+03  0.55197776217E+03  0.67795384261E+03  0.25500000920E-02 0. -1.
       -2    1    3    3    0  502  0.17078038626E+02 -0.39325602775E+03  0.79993173906E+03  0.89153393089E+03  0.25500000920E-02 0.  1.
</event>
<event>
 5   0  0.1028978E-02  0.9007549E+03  0.7818609E-02  0.9424638E-01
        2   -1    0    0  501    0  0.00000000000E+00  0.00000000000E+00  0.96988803882E+03  0.96988803883E+03  0.25500000920E-02 0. -1.
       -2   -1    0    0    0  501  0.00000000000E+00  0.00000000000E+00 -0.20913738048E+03  0.20913738049E+03  0.25500000920E-02 0.  1.
    10030    2    1    2    0    0  0.00000000000E+00  0.00000000000E+00  0.76075065835E+03  0.11790254193E+04  0.90075489187E+03 0.  0.
        3    1    3    3  502    0 -0.34177880315E+03  0.16726676331E+03  0.69574039680E+03  0.79299787536E+03  0.10100000352E+00 0. -1.
       -3    1    3    3    0  502  0.34177880315E+03 -0.16726676331E+03  0.65010261548E+02  0.38602754396E+03  0.10100000352E+00 0.  1.
</event>
<event>
 5   0  0.6211218E-03  0.8993652E+03  0.7818609E-02  0.9426375E-01
        1   -1    0    0  501    0  0.00000000000E+00  0.00000000000E+00  0.40605770873E+03  0.40605770876E+03  0.50400001928E-02 0. -1.
       -1   -1    0    0    0  501  0.00000000000E+00  0.00000000000E+00 -0.49799439334E+03  0.49799439336E+03  0.50400001928E-02 0.  1.
    10030    2    1    2    0    0  0.00000000000E+00  0.00000000000E+00 -0.91936684609E+02  0.90405210213E+03  0.89936524804E+03 0.  0.
        5    1    3    3  502    0  0.15507848729E+03 -0.13763641605E+03 -0.44704544567E+03  0.49281319051E+03  0.46999998093E+01 0.  1.
       -5    1    3    3    0  502 -0.15507848729E+03  0.13763641605E+03  0.35510876106E+03  0.41123891162E+03  0.46999998093E+01 0. -1.
</event>
<event>
 5   0  0.6015709E-03  0.8988289E+03  0.7818609E-02  0.9427047E-01
        1   -1    0    0  501    0  0.00000000000E+00  0.00000000000E+00  0.78841260621E+03  0.78841260623E+03  0.50400001928E-02 0.  1.
       -1   -1    0    0    0  501  0.00000000000E+00  0.00000000000E+00 -0.25617721249E+03  0.25617721254E+03  0.50400001928E-02 0. -1.
    10030    2    1    2    0    0  0.00000000000E+00  0.00000000000E+00  0.53223539373E+03  0.10445898188E+04  0.89882889091E+03 0.  0.
        3    1    3    3  502    0 -0.29106071413E+03  0.33172398385E+03  0.16739367729E+03  0.47199342598E+03  0.10100000352E+00 0. -1.
       -3    1    3    3    0  502  0.29106071413E+03 -0.33172398385E+03  0.36484171644E+03  0.57259639278E+03  0.10100000352E+00 0.  1.
</event>
<event>
 5   0  0.3996375E-03  0.8966339E+03  0.7818609E-02  0.9429799E-01
       -3   -1    0    0    0  501  0.00000000000E+00  0.00000000000E+00  0.34734436000E+03  0.34734437468E+03  0.10100000352E+00 0. -1.
        3   -1    0    0  501    0  0.00000000000E+00  0.00000000000E+00 -0.57864212195E+03  0.57864213077E+03  0.10100000352E+00 0.  1.
    10030    2    1    2    0    0  0.00000000000E+00  0.00000000000E+00 -0.23129776195E+03  0.92598650545E+03  0.89663390165E+03 0.  0.
        5    1    3    3  502    0  0.26271009469E+03 -0.25504198362E+03 -0.38277248752E+03  0.52971678703E+03  0.46999998093E+01 0.  1.
       -5    1    3    3    0  502 -0.26271009469E+03  0.25504198362E+03  0.15147472557E+03  0.39626971843E+03  0.46999998093E+01 0. -1.
</event>
<event>
 5   0  0.6137243E-03  0.8981443E+03  0.7818609E-02  0.9427904E-01
       -1   -1    0    0    0  501  0.00000000000E+00  0.00000000000E+00  0.30211610115E+03  0.30211610119E+03  0.50400001928E-02 0.  1.
        1   -1    0    0  501    0  0.00000000000E+00  0.00000000000E+00 -0.66751090364E+03  0.66751090366E+03  0.50400001928E-02 0. -1.
    10030    2    1    2    0    0  0.00000000000E+00  0.00000000000E+00 -0.36539480249E+03  0.96962700485E+03  0.89814429066E+03 0.  0.
        4    1    3    3  502    0 -0.43240684814E+03 -0.30849481996E+02 -0.56165081362E+02  0.43713098966E+03  0.12699999809E+01 0.  1.
       -4    1    3    3    0  502  0.43240684814E+03  0.30849481996E+02 -0.30922972113E+03  0.53249601519E+03  0.12699999809E+01 0. -1.
</event>
<event>
 5   0  0.1041727E-02  0.8600946E+03  0.7818609E-02  0.9476888E-01
        2   -1    0    0  501    0  0.00000000000E+00  0.00000000000E+00  0.11558164926E+04  0.11558164926E+04  0.25500000920E-02 0.  1.
       -2   -1    0    0    0  501  0.00000000000E+00  0.00000000000E+00 -0.16000870499E+03  0.16000870501E+03  0.25500000920E-02 0. -1.
    10030    2    1    2    0    0  0.00000000000E+00  0.00000000000E+00  0.99580778762E+03  0.13158251976E+04  0.86009464642E+03 0.  0.
        4    1    3    3  502    0  0.27593377001E+03 -0.32983031626E+03  0.49269240110E+03  0.65396857567E+03  0.12699999809E+01 0. -1.
       -4    1    3    3    0  502 -0.27593377001E+03  0.32983031626E+03  0.50311538652E+03  0.66185662195E+03  0.12699999809E+01 0.  1.
</event>
<event>
 5   0  0.6137243E-03  0.9073971E+03  0.7818609E-02  0.9416382E-01
        1   -1    0    0  501    0  0.00000000000E+00  0.00000000000E+00  0.37140912960E+03  0.37140912964E+03  0.50400001928E-02 0. -1.
       -1   -1    0    0    0  501  0.00000000000E+00  0.00000000000E+00 -0.55422003711E+03  0.55422003713E+03  0.50400001928E-02 0.  1.
    10030    2    1    2    0    0  0.00000000000E+00  0.00000000000E+00 -0.18281090750E+03  0.92562916677E+03  0.90739711619E+03 0.  0.
        4    1    3    3  502    0  0.25931509407E+03  0.12639548446E+03 -0.44861364696E+03  0.53336287239E+03  0.12699999809E+01 0.  1.
       -4    1    3    3    0  502 -0.25931509407E+03 -0.12639548446E+03  0.26580273946E+03  0.39226629438E+03  0.12699999809E+01 0. -1.
</event>
<event>
 5   0  0.3996375E-03  0.8941071E+03  0.7818609E-02  0.9432978E-01
        4   -1    0    0  501    0  0.00000000000E+00  0.00000000000E+00  0.35197309286E+03  0.35197538408E+03  0.12699999809E+01 0.  1.
       -4   -1    0    0    0  501  0.00000000000E+00  0.00000000000E+00 -0.56781375691E+03  0.56781517718E+03  0.12699999809E+01 0. -1.
    10030    2    1    2    0    0  0.00000000000E+00  0.00000000000E+00 -0.21584066405E+03  0.91979056126E+03  0.89410708773E+03 0.  0.
        2    1    3    3  502    0  0.36224119688E+02  0.28286153069E+03 -0.46209781884E+03  0.54300757507E+03  0.25500000920E-02 0. -1.
       -2    1    3    3    0  502 -0.36224119688E+02 -0.28286153069E+03  0.24625715480E+03  0.37678298620E+03  0.25500000920E-02 0.  1.
</event>
<event>
 5   0  0.6015709E-03  0.8918918E+03  0.7818609E-02  0.9435774E-01
       -1   -1    0    0    0  501  0.00000000000E+00  0.00000000000E+00  0.54293398160E+03  0.54293398163E+03  0.50400001928E-02 0.  1.
        1   -1    0    0  501    0  0.00000000000E+00  0.00000000000E+00 -0.36628346354E+03  0.36628346358E+03  0.50400001928E-02 0. -1.
    10030    2    1    2    0    0  0.00000000000E+00  0.00000000000E+00  0.17665051806E+03  0.90921744521E+03  0.89189178555E+03 0.  0.
        3    1    3    3  502    0  0.27532609208E+03 -0.17140522560E+03 -0.22369816461E+03  0.39398615127E+03  0.10100000352E+00 0. -1.
       -3    1    3    3    0  502 -0.27532609208E+03  0.17140522560E+03  0.40034868267E+03  0.51523129394E+03  0.10100000352E+00 0.  1.
</event>
<event>
 5   0  0.1003252E-02  0.9153881E+03  0.7818609E-02  0.9406547E-01
        2   -1    0    0  501    0  0.00000000000E+00  0.00000000000E+00  0.10743004301E+04  0.10743004301E+04  0.25500000920E-02 0.  1.
       -2   -1    0    0    0  501  0.00000000000E+00  0.00000000000E+00 -0.19499559132E+03  0.19499559134E+03  0.25500000920E-02 0. -1.
    10030    2    1    2    0    0  0.00000000000E+00  0.00000000000E+00  0.87930483876E+03  0.12692960214E+04  0.91538810923E+03 0.  0.
        2    1    3    3  502    0 -0.27560262156E+03 -0.18522794781E+01 -0.67030993985E+02  0.28364306815E+03  0.25500000920E-02 0. -1.
       -2    1    3    3    0  502  0.27560262156E+03  0.18522794781E+01  0.94633583275E+03  0.98565295327E+03  0.25500000920E-02 0.  1.
</event>
<event>
 5   0  0.1041727E-02  0.9263353E+03  0.7818609E-02  0.9393247E-01
        2   -1    0    0  501    0  0.00000000000E+00  0.00000000000E+00  0.17661511363E+04  0.17661511364E+04  0.25500000920E-02 0. -1.
       -2   -1    0    0    0  501  0.00000000000E+00  0.00000000000E+00 -0.12146427882E+03  0.12146427885E+03  0.25500000920E-02 0.  1.
    10030    2    1    2    0    0  0.00000000000E+00  0.00000000000E+00  0.16446868575E+04  0.18876154152E+04  0.92633530450E+03 0.  0.
        4    1    3    3  502    0 -0.21914776566E+03  0.29111228549E+03  0.14049704930E+04  0.14514529979E+04  0.12699999809E+01 0. -1.
       -4    1    3    3    0  502  0.21914776566E+03 -0.29111228549E+03  0.23971636451E+03  0.43616241731E+03  0.12699999809E+01 0.  1.
</event>
<event>
 5   0  0.1003252E-02  0.9008114E+03  0.7818609E-02  0.9424568E-01
        2   -1    0    0  501    0  0.00000000000E+00  0.00000000000E+00  0.12498826718E+04  0.12498826718E+04  0.25500000920E-02 0.  1.
       -2   -1    0    0    0  501  0.00000000000E+00  0.00000000000E+00 -0.16230745538E+03  0.16230745540E+03  0.25500000920E-02 0. -1.
    10030    2    1    2    0    0  0.00000000000E+00  0.00000000000E+00  0.10875752164E+04  0.14121901272E+04  0.90081135871E+03 0.  0.
        2    1    3    3  502    0 -0.90757544049E+02  0.37378066823E+03  0.17641212183E+03  0.42316681874E+03  0.25500000920E-02 0. -1.
       -2    1    3    3    0  502  0.90757544049E+02 -0.37378066823E+03  0.91116309454E+03  0.98902330842E+03  0.25500000920E-02 0.  1.
</event>
<event>
 5   0  0.6137243E-03  0.8965700E+03  0.7818609E-02  0.9429879E-01
       -1   -1    0    0    0  501  0.00000000000E+00  0.00000000000E+00  0.22997809283E+03  0.22997809289E+03  0.50400001928E-02 0. -1.
        1   -1    0    0  501    0  0.00000000000E+00  0.00000000000E+00 -0.87381995303E+03  0.87381995304E+03  0.50400001928E-02 0.  1.
    10030    2    1    2    0    0  0.00000000000E+00  0.00000000000E+00 -0.64384186019E+03  0.11037980459E+04  0.89657001135E+03 0.  0.
        4    1    3    3  502    0 -0.42068644267E+03 -0.14888065905E+03 -0.37437504750E+03  0.58249534142E+03  0.12699999809E+01 0.  1.
       -4    1    3    3    0  502  0.42068644267E+03  0.14888065905E+03 -0.26946681269E+03  0.52130270451E+03  0.12699999809E+01 0. -1.
</event>
<event>
 5   0  0.1033749E-02  0.9067566E+03  0.7818609E-02  0.9417174E-01
        2   -1    0    0  501    0  0.00000000000E+00  0.00000000000E+00  0.76341787932E+03  0.76341787932E+03  0.25500000920E-02 0. -1.
       -2   -1    0    0    0  501  0.00000000000E+00  0.00000000000E+00 -0.26925214508E+03  0.26925214510E+03  0.25500000920E-02 0.  1.
    10030    2    1    2    0    0  0.00000000000E+00  0.00000000000E+00  0.49416573423E+03  0.10326700244E+04  0.90675664124E+03 0.  0.
        5    1    3    3  502    0  0.20576295291E+03  0.15785198844E+03  0.67057110599E+03  0.71898771981E+03  0.46999998093E+01 0. -1.
       -5    1    3    3    0  502 -0.20576295291E+03 -0.15785198844E+03 -0.17640537176E+03  0.31368230461E+03  0.46999998093E+01 0.  1.
</event>
<event>
 5   0  0.6092779E-03  0.9029664E+03  0.7818609E-02  0.9421881E-01
        1   -1    0    0  501    0  0.00000000000E+00  0.00000000000E+00  0.10594216157E+04  0.10594216157E+04  0.50400001928E-02 0. -1.
       -1   -1    0    0    0  501  0.00000000000E+00  0.00000000000E+00 -0.19240410165E+03  0.19240410172E+03  0.50400001928E-02 0.  1.
    10030    2    1    2    0    0  0.00000000000E+00  0.00000000000E+00  0.86701751403E+03  0.12518257174E+04  0.90296636545E+03 0.  0.
        2    1    3    3  502    0 -0.40533412174E+03 -0.15243849176E+03  0.61052657588E+03  0.74851582741E+03  0.25500000920E-02 0. -1.
       -2    1    3    3    0  502  0.40533412174E+03  0.15243849176E+03  0.25649093815E+03  0.50330989000E+03  0.25500000920E-02 0.  1.
</event>
<event>
 5   0  0.6288003E-03  0.9061060E+03  0.7818609E-02  0.9417981E-01
       -1   -1    0    0    0  501  0.00000000000E+00  0.00000000000E+00  0.34629031345E+03  0.34629031349E+03  0.50400001928E-02 0.  1.
        1   -1    0    0  501    0  0.00000000000E+00  0.00000000000E+00 -0.59273098733E+03  0.59273098735E+03  0.50400001928E-02 0. -1.
    10030    2    1    2    0    0  0.00000000000E+00  0.00000000000E+00 -0.24644067388E+03  0.93902130084E+03  0.90610595280E+03 0.  0.
        1    1    3    3  502    0 -0.32336592092E+03  0.25080782570E+02 -0.45103773115E+03  0.55554441714E+03  0.50400001928E-02 0. -1.
       -1    1    3    3    0  502  0.32336592092E+03 -0.25080782570E+02  0.20459705727E+03  0.38347688370E+03  0.50400001928E-02 0.  1.
</event>
<event>
 5   0  0.6211218E-03  0.9043983E+03  0.7818609E-02  0.9420100E-01
       -1   -1    0    0    0  501  0.00000000000E+00  0.00000000000E+00  0.23247512656E+03  0.23247512662E+03  0.50400001928E-02 0. -1.
        1   -1    0    0  501    0  0.00000000000E+00  0.00000000000E+00 -0.87959543244E+03  0.87959543245E+03  0.50400001928E-02 0.  1.
    10030    2    1    2    0    0  0.00000000000E+00  0.00000000000E+00 -0.64712030588E+03  0.11120705591E+04  0.90439827403E+03 0.  0.
        5    1    3    3  502    0  0.36653834700E+03  0.17400109626E+03 -0.56897807420E+03  0.69884539080E+03  0.46999998093E+01 0.  1.
       -5    1    3    3    0  502 -0.36653834700E+03 -0.17400109626E+03 -0.78142231675E+02  0.41322516827E+03  0.46999998093E+01 0. -1.
</event>
<event>
 5   0  0.6137243E-03  0.8599570E+03  0.7818609E-02  0.9477070E-01
       -1   -1    0    0    0  501  0.00000000000E+00  0.00000000000E+00  0.29740003784E+03  0.29740003789E+03  0.50400001928E-02 0.  1.
        1   -1    0    0  501    0  0.00000000000E+00  0.00000000000E+00 -0.62165933412E+03  0.62165933414E+03  0.50400001928E-02 0. -1.
    10030    2    1    2    0    0  0.00000000000E+00  0.00000000000E+00 -0.32425929627E+03  0.91905937203E+03  0.85995699781E+03 0.  0.
        4    1    3    3  502    0  0.76831690777E+02 -0.12661972358E+03 -0.59353579722E+03  0.61173688673E+03  0.12699999809E+01 0. -1.
       -4    1    3    3    0  502 -0.76831690777E+02  0.12661972358E+03  0.26927650094E+03  0.30732248530E+03  0.12699999809E+01 0.  1.
</event>
<event>
 5   0  0.1017079E-02  0.9061347E+03  0.7818609E-02  0.9417945E-01
       -2   -1    0    0    0  501  0.00000000000E+00  0.00000000000E+00  0.50940915180E+03  0.50940915181E+03  0.25500000920E-02 0.  1.
        2   -1    0    0  501    0  0.00000000000E+00  0.00000000000E+00 -0.40295710184E+03  0.40295710185E+03  0.25500000920E-02 0. -1.
    10030    2    1    2    0    0  0.00000000000E+00  0.00000000000E+00  0.10645204996E+03  0.91236625366E+03  0.90613472612E+03 0.  0.
        1    1    3    3  502    0 -0.30542549467E+03 -0.56148944954E+02 -0.27894055772E+03  0.41742696557E+03  0.50400001928E-02 0. -1.
       -1    1    3    3    0  502  0.30542549467E+03  0.56148944954E+02  0.38539260768E+03  0.49493928809E+03  0.50400001928E-02 0.  1.
</event>
<event>
 5   0  0.6288003E-03  0.8888391E+03  0.7818609E-02  0.9439642E-01
       -1   -1    0    0    0  501  0.00000000000E+00  0.00000000000E+00  0.37177577914E+03  0.37177577918E+03  0.50400001928E-02 0. -1.
        1   -1    0    0  501    0  0.00000000000E+00  0.00000000000E+00 -0.53125770222E+03  0.53125770225E+03  0.50400001928E-02 0.  1.
    10030    2    1    2    0    0  0.00000000000E+00  0.00000000000E+00 -0.15948192308E+03  0.90303348142E+03  0.88883912199E+03 0.  0.
        1    1    3    3  502    0 -0.87354880525E+02  0.87944672059E+02 -0.51333934644E+03  0.52809319739E+03  0.50400001928E-02 0.  1.
       -1    1    3    3    0  502  0.87354880525E+02 -0.87944672059E+02  0.35385742336E+03  0.37494028403E+03  0.50400001928E-02 0. -1.
</event>
<event>
 5   0  0.1028978E-02  0.8962183E+03  0.7818609E-02  0.9430321E-01
        2   -1    0    0  501    0  0.00000000000E+00  0.00000000000E+00  0.41891663487E+03  0.41891663488E+03  0.25500000920E-02 0. -1.
       -2   -1    0    0    0  501  0.00000000000E+00  0.00000000000E+00 -0.47933596859E+03  0.47933596859E+03  0.25500000920E-02 0.  1.
    10030    2    1    2    0    0  0.00000000000E+00  0.00000000000E+00 -0.60419333718E+02  0.89825260347E+03  0.89621830140E+03 0.  0.
        3    1    3    3  502    0 -0.16836255181E+03  0.30726360246E+03 -0.31020901833E+03  0.46795995075E+03  0.10100000352E+00 0.  1.
       -3    1    3    3    0  502  0.16836255181E+03 -0.30726360246E+03  0.24978968461E+03  0.43029265273E+03  0.10100000352E+00 0. -1.
</event>
<event>
 5   0  0.1017079E-02  0.9046612E+03  0.7818609E-02  0.9419773E-01
       -2   -1    0    0    0  501  0.00000000000E+00  0.00000000000E+00  0.84442436742E+03  0.84442436742E+03  0.25500000920E-02 0. -1.
        2   -1    0    0  501    0  0.00000000000E+00  0.00000000000E+00 -0.24229875468E+03  0.24229875470E+03  0.25500000920E-02 0.  1.
    10030    2    1    2    0    0  0.00000000000E+00  0.00000000000E+00  0.60212561274E+03  0.10867231221E+04  0.90466120213E+03 0.  0.
        1    1    3    3  502    0 -0.17092837769E+03  0.32434528900E+03  0.61930666518E+03  0.71969238037E+03  0.50400001928E-02 0. -1.
       -1    1    3    3    0  502  0.17092837769E+03 -0.32434528900E+03 -0.17181052447E+02  0.36703074175E+03  0.50400001928E-02 0.  1.
</event>
<event>
 5   0  0.1017079E-02  0.9004679E+03  0.7818609E-02  0.9424997E-01
        2   -1    0    0  501    0  0.00000000000E+00  0.00000000000E+00  0.15813100918E+04  0.15813100918E+04  0.25500000920E-02 0.  1.
       -2   -1    0    0    0  501  0.00000000000E+00  0.00000000000E+00 -0.12819156574E+03  0.12819156577E+03  0.25500000920E-02 0. -1.
    10030    2    1    2    0    0  0.00000000000E+00  0.00000000000E+00  0.14531185260E+04  0.17095016576E+04  0.90046791529E+03 0.  0.
        1    1    3    3  502    0 -0.13928987340E+03 -0.32955661917E+03  0.12454376760E+04  0.12958102634E+04  0.50400001928E-02 0. -1.
       -1    1    3    3    0  502  0.13928987340E+03  0.32955661917E+03  0.20768085009E+03  0.41369139414E+03  0.50400001928E-02 0.  1.
</event>
<event>
 5   0  0.1033749E-02  0.9017647E+03  0.7818609E-02  0.9423378E-01
        2   -1    0    0  501    0  0.00000000000E+00  0.00000000000E+00  0.70592461743E+03  0.70592461744E+03  0.25500000920E-02 0.  1.
       -2   -1    0    0    0  501  0.00000000000E+00  0.00000000000E+00 -0.28798388659E+03  0.28798388660E+03  0.25500000920E-02 0. -1.
    10030    2    1    2    0    0  0.00000000000E+00  0.00000000000E+00  0.41794073084E+03  0.99390850404E+03  0.90176474754E+03 0.  0.
        5    1    3    3  502    0 -0.46375089388E+02 -0.14531003703E+03 -0.25865499301E+03  0.30031675142E+03  0.46999998093E+01 0. -1.
       -5    1    3    3    0  502  0.46375089388E+02  0.14531003703E+03  0.67659572385E+03  0.69359175262E+03  0.46999998093E+01 0.  1.
</event>
<event>
 5   0  0.6211218E-03  0.8950944E+03  0.7818609E-02  0.9431734E-01
        1   -1    0    0  501    0  0.00000000000E+00  0.00000000000E+00  0.65194592308E+03  0.65194592310E+03  0.50400001928E-02 0. -1.
       -1   -1    0    0    0  501  0.00000000000E+00  0.00000000000E+00 -0.30723178776E+03  0.30723178780E+03  0.50400001928E-02 0.  1.
    10030    2    1    2    0    0  0.00000000000E+00  0.00000000000E+00  0.34471413532E+03  0.95917771090E+03  0.89509443412E+03 0.  0.
        5    1    3    3  502    0 -0.40618614420E+03  0.16988841183E+03  0.25826632327E+03  0.51046335809E+03  0.46999998093E+01 0. -1.
       -5    1    3    3    0  502  0.40618614420E+03 -0.16988841183E+03  0.86447812056E+02  0.44871435282E+03  0.46999998093E+01 0.  1.
</event>
<event>
 5   0  0.1028978E-02  0.9056960E+03  0.7818609E-02  0.9418489E-01
        2   -1    0    0  501    0  0.00000000000E+00  0.00000000000E+00  0.20839887049E+03  0.20839887051E+03  0.25500000920E-02 0.  1.
       -2   -1    0    0    0  501  0.00000000000E+00  0.00000000000E+00 -0.98403276767E+03  0.98403276768E+03  0.25500000920E-02 0. -1.
    10030    2    1    2    0    0  0.00000000000E+00  0.00000000000E+00 -0.77563389718E+03  0.11924316382E+04  0.90569601373E+03 0.  0.
        3    1    3    3  502    0 -0.92207251102E+02 -0.34505522830E+03 -0.75435473310E+03  0.83463546610E+03  0.10100000352E+00 0. -1.
       -3    1    3    3    0  502  0.92207251102E+02  0.34505522830E+03 -0.21279164084E+02  0.35779617208E+03  0.10100000352E+00 0.  1.
</event>
<event>
 5   0  0.6092779E-03  0.9363862E+03  0.7818609E-02  0.9381206E-01
       -1   -1    0    0    0  501  0.00000000000E+00  0.00000000000E+00  0.20162437610E+03  0.20162437616E+03  0.50400001928E-02 0.  1.
        1   -1    0    0  501    0  0.00000000000E+00  0.00000000000E+00 -0.10871938978E+04  0.10871938979E+04  0.50400001928E-02 0. -1.
    10030    2    1    2    0    0  0.00000000000E+00  0.00000000000E+00 -0.88556952174E+03  0.12888182740E+04  0.93638622671E+03 0.  0.
        2    1    3    3  502    0 -0.45034583093E+03 -0.11376978759E+03 -0.36194270207E+03  0.58886114797E+03  0.25500000920E-02 0. -1.
       -2    1    3    3    0  502  0.45034583093E+03  0.11376978759E+03 -0.52362681967E+03  0.69995712604E+03  0.25500000920E-02 0.  1.
</event>
<event>
 5   0  0.6288003E-03  0.9059457E+03  0.7818609E-02  0.9418179E-01
        1   -1    0    0  501    0  0.00000000000E+00  0.00000000000E+00  0.81375600068E+03  0.81375600070E+03  0.50400001928E-02 0.  1.
       -1   -1    0    0    0  501  0.00000000000E+00  0.00000000000E+00 -0.25214488666E+03  0.25214488671E+03  0.50400001928E-02 0. -1.
    10030    2    1    2    0    0  0.00000000000E+00  0.00000000000E+00  0.56161111402E+03  0.10659008874E+04  0.90594572595E+03 0.  0.
        1    1    3    3  502    0  0.36300876655E+03 -0.17018448447E+03  0.52885165932E+03  0.66364312770E+03  0.50400001928E-02 0.  1.
       -1    1    3    3    0  502 -0.36300876655E+03  0.17018448447E+03  0.32759454701E+02  0.40225775971E+03  0.50400001928E-02 0. -1.
</event>
<event>
 5   0  0.6015709E-03  0.9029837E+03  0.7818609E-02  0.9421859E-01
        1   -1    0    0  501    0  0.00000000000E+00  0.00000000000E+00  0.65753037074E+03  0.65753037075E+03  0.50400001928E-02 0.  1.
       -1   -1    0    0    0  501  0.00000000000E+00  0.00000000000E+00 -0.31001596421E+03  0.31001596425E+03  0.50400001928E-02 0. -1.
    10030    2    1    2    0    0  0.00000000000E+00  0.00000000000E+00  0.34751440653E+03  0.96754633501E+03  0.90298374716E+03 0.  0.
        3    1    3    3  502    0 -0.28276003916E+02  0.21617853290E+03  0.59738874869E+03  0.63592925530E+03  0.10100000352E+00 0. -1.
       -3    1    3    3    0  502  0.28276003916E+02 -0.21617853290E+03 -0.24987434216E+03  0.33161707971E+03  0.10100000352E+00 0.  1.
</event>
<event>
 5   0  0.6015709E-03  0.9364209E+03  0.7818609E-02  0.9381165E-01
        1   -1    0    0  501    0  0.00000000000E+00  0.00000000000E+00  0.98747508607E+03  0.98747508608E+03  0.50400001928E-02 0. -1.
       -1   -1    0    0    0  501  0.00000000000E+00  0.00000000000E+00 -0.22200156068E+03  0.22200156073E+03  0.50400001928E-02 0.  1.
    10030    2    1    2    0    0  0.00000000000E+00  0.00000000000E+00  0.76547352539E+03  0.12094766468E+04  0.93642086751E+03 0.  0.
        3    1    3    3  502    0 -0.22712797402E+03  0.33646117146E+03  0.68406279218E+03  0.79544651003E+03  0.10100000352E+00 0. -1.
       -3    1    3    3    0  502  0.22712797402E+03 -0.33646117146E+03  0.81410733214E+02  0.41403013678E+03  0.10100000352E+00 0.  1.
</event>
<event>
 5   0  0.1003252E-02  0.8983020E+03  0.7818609E-02  0.9427706E-01
        2   -1    0    0  501    0  0.00000000000E+00  0.00000000000E+00  0.83202247118E+03  0.83202247119E+03  0.25500000920E-02 0.  1.
       -2   -1    0    0    0  501  0.00000000000E+00  0.00000000000E+00 -0.24246535910E+03  0.24246535912E+03  0.25500000920E-02 0. -1.
    10030    2    1    2    0    0  0.00000000000E+00  0.00000000000E+00  0.58955711208E+03  0.10744878303E+04  0.89830201439E+03 0.  0.
        2    1    3    3  502    0  0.25598195218E+03 -0.34246121868E+03  0.13020634195E+03  0.44694534077E+03  0.25500000920E-02 0.  1.
       -2    1    3    3    0  502 -0.25598195218E+03  0.34246121868E+03  0.45935077013E+03  0.62754248954E+03  0.25500000920E-02 0. -1.
</event>
<event>
 5   0  0.6211218E-03  0.8823577E+03  0.7818609E-02  0.9447908E-01
        1   -1    0    0  501    0  0.00000000000E+00  0.00000000000E+00  0.11843505209E+04  0.11843505209E+04  0.50400001928E-02 0.  1.
       -1   -1    0    0    0  501  0.00000000000E+00  0.00000000000E+00 -0.16434219997E+03  0.16434220005E+03  0.50400001928E-02 0. -1.
    10030    2    1    2    0    0  0.00000000000E+00  0.00000000000E+00  0.10200083210E+04  0.13486927210E+04  0.88235768305E+03 0.  0.
        5    1    3    3  502    0 -0.28672586863E+03 -0.29503083096E+03  0.75342518232E+03  0.85844423832E+03  0.46999998093E+01 0. -1.
       -5    1    3    3    0  502  0.28672586863E+03  0.29503083096E+03  0.26658313864E+03  0.49024848268E+03  0.46999998093E+01 0.  1.
</event>
<event>
 5   0  0.1033749E-02  0.9001584E+03  0.7818609E-02  0.9425383E-01
       -2   -1    0    0    0  501  0.00000000000E+00  0.00000000000E+00  0.11829630166E+03  0.11829630169E+03  0.25500000920E-02 0. -1.
        2   -1    0    0  501    0  0.00000000000E+00  0.00000000000E+00 -0.17124060940E+04  0.17124060940E+04  0.25500000920E-02 0.  1.
    10030    2    1    2    0    0  0.00000000000E+00  0.00000000000E+00 -0.15941097924E+04  0.18307023957E+04  0.90015844803E+03 0.  0.
        5    1    3    3  502    0  0.13485315496E+03 -0.28381816530E+03 -0.14523254783E+04  0.14859372495E+04  0.46999998093E+01 0.  1.
       -5    1    3    3    0  502 -0.13485315496E+03  0.28381816530E+03 -0.14178431402E+03  0.34476514623E+03  0.46999998093E+01 0. -1.
</event>
<event>
 5   0  0.6092779E-03  0.8844929E+03  0.7818609E-02  0.9445176E-01
        1   -1    0    0  501    0  0.00000000000E+00  0.00000000000E+00  0.20425865653E+03  0.20425865660E+03  0.50400001928E-02 0.  1.
       -1   -1    0    0    0  501  0.00000000000E+00  0.00000000000E+00 -0.95752093477E+03  0.95752093478E+03  0.50400001928E-02 0. -1.
    10030    2    1    2    0    0  0.00000000000E+00  0.00000000000E+00 -0.75326227823E+03  0.11617795914E+04  0.88449293899E+03 0.  0.
        2    1    3    3  502    0  0.12606298332E+03 -0.12660505013E+03 -0.90800755112E+03  0.92541797442E+03  0.25500000920E-02 0. -1.
       -2    1    3    3    0  502 -0.12606298332E+03  0.12660505013E+03  0.15474527289E+03  0.23636161696E+03  0.25500000920E-02 0.  1.
</event>
<event>
 5   0  0.3996375E-03  0.9007542E+03  0.7818609E-02  0.9424639E-01
        4   -1    0    0  501    0  0.00000000000E+00  0.00000000000E+00  0.43323554527E+03  0.43323740672E+03  0.12699999809E+01 0. -1.
       -4   -1    0    0    0  501  0.00000000000E+00  0.00000000000E+00 -0.46819316815E+03  0.46819489062E+03  0.12699999809E+01 0.  1.
    10030    2    1    2    0    0  0.00000000000E+00  0.00000000000E+00 -0.34957622883E+02  0.90143229734E+03  0.90075421248E+03 0.  0.
        4    1    3    3  502    0  0.27688696835E+03 -0.20627527623E+03  0.27191363886E+03  0.43949348428E+03  0.12699999809E+01 0. -1.
       -4    1    3    3    0  502 -0.27688696835E+03  0.20627527623E+03 -0.30687126174E+03  0.46193881306E+03  0.12699999809E+01 0.  1.
</event>
<event>
 5   0  0.6288003E-03  0.8925012E+03  0.7818609E-02  0.9435004E-01
       -1   -1    0    0    0  501  0.00000000000E+00  0.00000000000E+00  0.30482541528E+03  0.30482541532E+03  0.50400001928E-02 0.  1.
        1   -1    0    0  501    0  0.00000000000E+00  0.00000000000E+00 -0.65329065073E+03  0.65329065075E+03  0.50400001928E-02 0. -1.
    10030    2    1    2    0    0  0.00000000000E+00  0.00000000000E+00 -0.34846523545E+03  0.95811606607E+03  0.89250119089E+03 0.  0.
        1    1    3    3  502    0  0.14066647048E+03  0.19072252454E+03  0.23168986115E+03  0.33142469592E+03  0.50400001928E-02 0.  1.
       -1    1    3    3    0  502 -0.14066647048E+03 -0.19072252454E+03 -0.58015509660E+03  0.62669137015E+03  0.50400001928E-02 0. -1.
</event>
<event>
 5   0  0.6092779E-03  0.9068923E+03  0.7818609E-02  0.9417006E-01
       -1   -1    0    0    0  501  0.00000000000E+00  0.00000000000E+00  0.44504778667E+03  0.44504778670E+03  0.50400001928E-02 0. -1.
        1   -1    0    0  501    0  0.00000000000E+00  0.00000000000E+00 -0.46200303386E+03  0.46200303389E+03  0.50400001928E-02 0.  1.
    10030    2    1    2    0    0  0.00000000000E+00  0.00000000000E+00 -0.16955247186E+02  0.90705082059E+03  0.90689233690E+03 0.  0.
        2    1    3    3  502    0  0.11150973087E+03 -0.21776465746E+03  0.37337118110E+03  0.44638761743E+03  0.25500000920E-02 0. -1.
       -2    1    3    3    0  502 -0.11150973087E+03  0.21776465746E+03 -0.39032642828E+03  0.46066320315E+03  0.25500000920E-02 0.  1.
</event>
<event>
 5   0  0.1017079E-02  0.8984514E+03  0.7818609E-02  0.9427519E-01
       -2   -1    0    0    0  501  0.00000000000E+00  0.00000000000E+00  0.18887737845E+04  0.18887737845E+04  0.25500000920E-02 0.  1.
        2   -1    0    0  501    0  0.00000000000E+00  0.00000000000E+00 -0.10684378726E+03  0.10684378729E+03  0.25500000920E-02 0. -1.
    10030    2    1    2    0    0  0.00000000000E+00  0.00000000000E+00  0.17819299972E+04  0.19956175718E+04  0.89845143317E+03 0.  0.
        1    1    3    3  502    0 -0.37336590325E+03 -0.22339467579E+03  0.64266523199E+03  0.77609656572E+03  0.50400001928E-02 0.  1.
       -1    1    3    3    0  502  0.37336590325E+03  0.22339467579E+03  0.11392647652E+04  0.12195210060E+04  0.50400001928E-02 0. -1.
</event>
<event>
 5   0  0.1017079E-02  0.8959420E+03  0.7818609E-02  0.9430668E-01
        2   -1    0    0  501    0  0.00000000000E+00  0.00000000000E+00  0.42937700326E+03  0.42937700327E+03  0.25500000920E-02 0. -1.
       -2   -1    0    0    0  501  0.00000000000E+00  0.00000000000E+00 -0.46737018270E+03  0.46737018270E+03  0.25500000920E-02 0.  1.
    10030    2    1    2    0    0  0.00000000000E+00  0.00000000000E+00 -0.37993179436E+02  0.89674718597E+03  0.89594198130E+03 0.  0.
        1    1    3    3  502    0  0.19278001138E+03  0.25294359148E+03 -0.33476929553E+03  0.46175217868E+03  0.50400001928E-02 0.  1.
       -1    1    3    3    0  502 -0.19278001138E+03 -0.25294359148E+03  0.29677611610E+03  0.43499500729E+03  0.50400001928E-02 0. -1.
</event>
<event>
 5   0  0.3996375E-03  0.8988376E+03  0.7818609E-02  0.9427036E-01
        3   -1    0    0  501    0  0.00000000000E+00  0.00000000000E+00  0.17199880561E+04  0.17199880591E+04  0.10100000352E+00 0. -1.
       -3   -1    0    0    0  501  0.00000000000E+00  0.00000000000E+00 -0.11742942886E+03  0.11742947230E+03  0.10100000352E+00 0.  1.
    10030    2    1    2    0    0  0.00000000000E+00  0.00000000000E+00  0.16025586272E+04  0.18374175313E+04  0.89883759980E+03 0.  0.
        4    1    3    3  502    0  0.93651210350E+02  0.43704819081E+03  0.70552851312E+03  0.83519684268E+03  0.12699999809E+01 0.  1.
       -4    1    3    3    0  502 -0.93651210350E+02 -0.43704819081E+03  0.89703011411E+03  0.10022206887E+04  0.12699999809E+01 0. -1.
</event>
<event>
 5   0  0.6137243E-03  0.9098493E+03  0.7818609E-02  0.9413352E-01
        1   -1    0    0  501    0  0.00000000000E+00  0.00000000000E+00  0.65401481987E+03  0.65401481989E+03  0.50400001928E-02 0. -1.
       -1   -1    0    0    0  501  0.00000000000E+00  0.00000000000E+00 -0.31643997718E+03  0.31643997722E+03  0.50400001928E-02 0.  1.
    10030    2    1    2    0    0  0.00000000000E+00  0.00000000000E+00  0.33757484270E+03  0.97045479711E+03  0.90984929456E+03 0.  0.
        4    1    3    3  502    0  0.24461105924E+02  0.45135855264E+03  0.11406777668E+03  0.46619304941E+03  0.12699999809E+01 0. -1.
       -4    1    3    3    0  502 -0.24461105924E+02 -0.45135855264E+03  0.22350706601E+03  0.50426174770E+03  0.12699999809E+01 0.  1.
</event>
<event>
 5   0  0.1033749E-02  0.8977189E+03  0.7818609E-02  0.9428437E-01
        2   -1    0    0  501    0  0.00000000000E+00  0.00000000000E+00  0.26484331677E+03  0.26484331678E+03  0.25500000920E-02 0.  1.
       -2   -1    0    0    0  501  0.00000000000E+00  0.00000000000E+00 -0.76073207060E+03  0.76073207061E+03  0.25500000920E-02 0. -1.
    10030    2    1    2    0    0  0.00000000000E+00  0.00000000000E+00 -0.49588875384E+03  0.10255753874E+04  0.89771889756E+03 0.  0.
        5    1    3    3  502    0 -0.67978728142E+02  0.14275429997E+03  0.23194542454E+03  0.28075018719E+03  0.46999998093E+01 0.  1.
       -5    1    3    3    0  502  0.67978728142E+02 -0.14275429997E+03 -0.72783417838E+03  0.74482520020E+03  0.46999998093E+01 0. -1.
</event>
<event>
 5   0  0.6211218E-03  0.9078499E+03  0.7818609E-02  0.9415822E-01
        1   -1    0    0  501    0  0.00000000000E+00  0.00000000000E+00  0.11355165129E+04  0.11355165129E+04  0.50400001928E-02 0.  1.
       -1   -1    0    0    0  501  0.00000000000E+00  0.00000000000E+00 -0.18145737572E+03  0.18145737579E+03  0.50400001928E-02 0. -1.
    10030    2    1    2    0    0  0.00000000000E+00  0.00000000000E+00  0.95405913716E+03  0.13169738887E+04  0.90784986991E+03 0.  0.
        5    1    3    3  502    0  0.33815977761E+03 -0.30032446528E+03  0.53281720435E+03  0.69890133988E+03  0.46999998093E+01 0.  1.
       -5    1    3    3    0  502 -0.33815977761E+03  0.30032446528E+03  0.42124193281E+03  0.61807254881E+03  0.46999998093E+01 0. -1.
</event>
<event>
 5   0  0.6092779E-03  0.8940358E+03  0.7818609E-02  0.9433068E-01
       -1   -1    0    0    0  501  0.00000000000E+00  0.00000000000E+00  0.17696722305E+03  0.17696722312E+03  0.50400001928E-02 0. -1.
        1   -1    0    0  501    0  0.00000000000E+00  0.00000000000E+00 -0.11291638747E+04  0.11291638747E+04  0.50400001928E-02 0.  1.
    10030    2    1    2    0    0  0.00000000000E+00  0.00000000000E+00 -0.95219665169E+03  0.13061310979E+04  0.89403578303E+03 0.  0.
        2    1    3    3  502    0  0.34533967744E+03 -0.28348732420E+03 -0.49678180340E+03  0.66814423292E+03  0.25500000920E-02 0.  1.
       -2    1    3    3    0  502 -0.34533967744E+03  0.28348732420E+03 -0.45541484829E+03  0.63798686495E+03  0.25500000920E-02 0. -1.
</event>
<event>
 5   0  0.1033749E-02  0.9021448E+03  0.7818609E-02  0.9422904E-01
        2   -1    0    0  501    0  0.00000000000E+00  0.00000000000E+00  0.57455252675E+03  0.57455252675E+03  0.25500000920E-02 0. -1.
       -2   -1    0    0    0  501  0.00000000000E+00  0.00000000000E+00 -0.35413004996E+03  0.35413004997E+03  0.25500000920E-02 0.  1.
    10030    2    1    2    0    0  0.00000000000E+00  0.00000000000E+00  0.22042247678E+03  0.92868257672E+03  0.90214481101E+03 0.  0.
        5    1    3    3  502    0  0.15612176691E+03  0.21281130550E+03  0.48673221959E+03  0.55370840832E+03  0.46999998093E+01 0. -1.
       -5    1    3    3    0  502 -0.15612176691E+03 -0.21281130550E+03 -0.26630974281E+03  0.37497416840E+03  0.46999998093E+01 0.  1.
</event>
<event>
 5   0  0.1017079E-02  0.9123114E+03  0.7818609E-02  0.9410321E-01
        2   -1    0    0  501    0  0.00000000000E+00  0.00000000000E+00  0.35467686944E+03  0.35467686945E+03  0.25500000920E-02 0. -1.
       -2   -1    0    0    0  501  0.00000000000E+00  0.00000000000E+00 -0.58666923443E+03  0.58666923444E+03  0.25500000920E-02 0.  1.
    10030    2    1    2    0    0  0.00000000000E+00  0.00000000000E+00 -0.23199236499E+03  0.94134610389E+03  0.91231136675E+03 0.  0.
        1    1    3    3  502    0  0.19564046240E+02  0.37181725724E+02  0.35267613642E+03  0.35516994504E+03  0.50400001928E-02 0. -1.
       -1    1    3    3    0  502 -0.19564046240E+02 -0.37181725724E+02 -0.58466850141E+03  0.58617615885E+03  0.50400001928E-02 0.  1.
</event>
<event>
 5   0  0.6092779E-03  0.9088947E+03  0.7818609E-02  0.9414530E-01
        1   -1    0    0  501    0  0.00000000000E+00  0.00000000000E+00  0.14502896182E+03  0.14502896191E+03  0.50400001928E-02 0. -1.
       -1   -1    0    0    0  501  0.00000000000E+00  0.00000000000E+00 -0.14240079104E+04  0.14240079104E+04  0.50400001928E-02 0.  1.
    10030    2    1    2    0    0  0.00000000000E+00  0.00000000000E+00 -0.12789789486E+04  0.15690368723E+04  0.90889468907E+03 0.  0.
        2    1    3    3  502    0  0.24999914319E+03 -0.29784311055E+03 -0.23348535658E+03  0.45356973206E+03  0.25500000920E-02 0.  1.
       -2    1    3    3    0  502 -0.24999914319E+03  0.29784311055E+03 -0.10454935920E+04  0.11154671403E+04  0.25500000920E-02 0. -1.
</event>
<event>
 5   0  0.6211218E-03  0.8926557E+03  0.7818609E-02  0.9434809E-01
       -1   -1    0    0    0  501  0.00000000000E+00  0.00000000000E+00  0.23468510351E+03  0.23468510357E+03  0.50400001928E-02 0.  1.
        1   -1    0    0  501    0  0.00000000000E+00  0.00000000000E+00 -0.84883342713E+03  0.84883342715E+03  0.50400001928E-02 0. -1.
    10030    2    1    2    0    0  0.00000000000E+00  0.00000000000E+00 -0.61414832362E+03  0.10835185307E+04  0.89265572479E+03 0.  0.
        5    1    3    3  502    0  0.38182435220E+03 -0.22321897826E+03 -0.23455016230E+03  0.50065199173E+03  0.46999998093E+01 0.  1.
       -5    1    3    3    0  502 -0.38182435220E+03  0.22321897826E+03 -0.37959816133E+03  0.58286653899E+03  0.46999998093E+01 0. -1.
</event>
<event>
 5   0  0.6015709E-03  0.9022906E+03  0.7818609E-02  0.9422723E-01
       -1   -1    0    0    0  501  0.00000000000E+00  0.00000000000E+00  0.64224531474E+03  0.64224531476E+03  0.50400001928E-02 0. -1.
        1   -1    0    0  501    0  0.00000000000E+00  0.00000000000E+00 -0.31690705515E+03  0.31690705519E+03  0.50400001928E-02 0.  1.
    10030    2    1    2    0    0  0.00000000000E+00  0.00000000000E+00  0.32533825959E+03  0.95915236996E+03  0.90229057717E+03 0.  0.
        3    1    3    3  502    0 -0.13143585779E+03  0.37344062373E+03 -0.67294118386E+02  0.40157414351E+03  0.10100000352E+00 0.  1.
       -3    1    3    3    0  502  0.13143585779E+03 -0.37344062373E+03  0.39263237798E+03  0.55757822644E+03  0.10100000352E+00 0. -1.
</event>
<event>
 5   0  0.6015709E-03  0.8995263E+03  0.7818609E-02  0.9426174E-01
       -1   -1    0    0    0  501  0.00000000000E+00  0.00000000000E+00  0.46514707738E+03  0.46514707741E+03  0.50400001928E-02 0.  1.
        1   -1    0    0  501    0  0.00000000000E+00  0.00000000000E+00 -0.43488800565E+03  0.43488800568E+03  0.50400001928E-02 0. -1.
    10030    2    1    2    0    0  0.00000000000E+00  0.00000000000E+00  0.30259071729E+02  0.90003508309E+03  0.89952628609E+03 0.  0.
        3    1    3    3  502    0 -0.69294289589E+01 -0.38976736953E+03  0.23957818582E+03  0.45756347828E+03  0.10100000352E+00 0.  1.
       -3    1    3    3    0  502  0.69294289589E+01  0.38976736953E+03 -0.20931911409E+03  0.44247160481E+03  0.10100000352E+00 0. -1.
</event>
<event>
 5   0  0.6211218E-03  0.8962769E+03  0.7818609E-02  0.9430248E-01
       -1   -1    0    0    0  501  0.00000000000E+00  0.00000000000E+00  0.32611537542E+03  0.32611537546E+03  0.50400001928E-02 0.  1.
        1   -1    0    0  501    0  0.00000000000E+00  0.00000000000E+00 -0.61581902909E+03  0.61581902911E+03  0.50400001928E-02 0. -1.
    10030    2    1    2    0    0  0.00000000000E+00  0.00000000000E+00 -0.28970365367E+03  0.94193440457E+03  0.89627686324E+03 0.  0.
        5    1    3    3  502    0 -0.33920683157E+03 -0.27249829745E+03 -0.25750061636E+03  0.50561374004E+03  0.46999998093E+01 0. -1.
       -5    1    3    3    0  502  0.33920683157E+03  0.27249829745E+03 -0.32203037317E+02  0.43632066454E+03  0.46999998093E+01 0.  1.
</event>
<event>
 5   0  0.6137243E-03  0.9096675E+03  0.7818609E-02  0.9413577E-01
        1   -1    0    0  501    0  0.00000000000E+00  0.00000000000E+00  0.39034373923E+03  0.39034373927E+03  0.50400001928E-02 0. -1.
       -1   -1    0    0    0  501  0.00000000000E+00  0.00000000000E+00 -0.52997838593E+03  0.52997838596E+03  0.50400001928E-02 0.  1.
    10030    2    1    2    0    0  0.00000000000E+00  0.00000000000E+00 -0.13963464670E+03  0.92032212522E+03  0.90966751048E+03 0.  0.
        4    1    3    3  502    0 -0.36529212830E+03 -0.25085907551E+03 -0.17350438216E+03  0.47589284329E+03  0.12699999809E+01 0. -1.
       -4    1    3    3    0  502  0.36529212830E+03  0.25085907551E+03  0.33869735465E+02  0.44442928194E+03  0.12699999809E+01 0.  1.
</event>
<event>
 5   0  0.6211218E-03  0.9017557E+03  0.7818609E-02  0.9423389E-01
       -1   -1    0    0    0  501  0.00000000000E+00  0.00000000000E+00  0.12982188404E+03  0.12982188414E+03  0.50400001928E-02 0.  1.
        1   -1    0    0  501    0  0.00000000000E+00  0.00000000000E+00 -0.15659210617E+04  0.15659210617E+04  0.50400001928E-02 0. -1.
    10030    2    1    2    0    0  0.00000000000E+00  0.00000000000E+00 -0.14360991776E+04  0.16957429458E+04  0.90175567107E+03 0.  0.
        5    1    3    3  502    0  0.15521478657E+03 -0.95121652187E+02  0.57590554941E+02  0.19099350958E+03  0.46999998093E+01 0.  1.
       -5    1    3    3    0  502 -0.15521478657E+03  0.95121652187E+02 -0.14936897326E+04  0.15047494362E+04  0.46999998093E+01 0. -1.
</event>
<event>
 5   0  0.1041727E-02  0.8989045E+03  0.7818609E-02  0.9426952E-01
       -2   -1    0    0    0  501  0.00000000000E+00  0.00000000000E+00  0.61839922673E+03  0.61839922673E+03  0.25500000920E-02 0. -1.
        2   -1    0    0  501    0  0.00000000000E+00  0.00000000000E+00 -0.32666170122E+03  0.32666170123E+03  0.25500000920E-02 0.  1.
    10030    2    1    2    0    0  0.00000000000E+00  0.00000000000E+00  0.29173752551E+03  0.94506092796E+03  0.89890454096E+03 0.  0.
        4    1    3    3  502    0 -0.23125621346E+03 -0.12168341614E+02  0.55084665973E+03  0.59754594822E+03  0.12699999809E+01 0. -1.
       -4    1    3    3    0  502  0.23125621346E+03  0.12168341614E+02 -0.25910913422E+03  0.34751497973E+03  0.12699999809E+01 0.  1.
</event>
<event>
 5   0  0.6015709E-03  0.9101038E+03  0.7818609E-02  0.9413039E-01
        1   -1    0    0  501    0  0.00000000000E+00  0.00000000000E+00  0.93623362275E+03  0.93623362276E+03  0.50400001928E-02 0.  1.
       -1   -1    0    0    0  501  0.00000000000E+00  0.00000000000E+00 -0.22117579463E+03  0.22117579469E+03  0.50400001928E-02 0. -1.
    10030    2    1    2    0    0  0.00000000000E+00  0.00000000000E+00  0.71505782812E+03  0.11574094174E+04  0.91010376444E+03 0.  0.
        3    1    3    3  502    0 -0.20799983476E+03  0.24197869346E+03  0.77011693508E+03  0.83360525625E+03  0.10100000352E+00 0.  1.
       -3    1    3    3    0  502  0.20799983476E+03 -0.24197869346E+03 -0.55059106958E+02  0.32380416120E+03  0.10100000352E+00 0. -1.
</event>
<event>
 5   0  0.1028978E-02  0.9015829E+03  0.7818609E-02  0.9423605E-01
        2   -1    0    0  501    0  0.00000000000E+00  0.00000000000E+00  0.43481195880E+03  0.43481195881E+03  0.25500000920E-02 0. -1.
       -2   -1    0    0    0  501  0.00000000000E+00  0.00000000000E+00 -0.46735815183E+03  0.46735815184E+03  0.25500000920E-02 0.  1.
    10030    2    1    2    0    0  0.00000000000E+00  0.00000000000E+00 -0.32546193024E+02  0.90217011065E+03  0.90158286023E+03 0.  0.
        3    1    3    3  502    0 -0.93502749193E+02 -0.39248747903E+03  0.18491436703E+03  0.44382712697E+03  0.10100000352E+00 0. -1.
       -3    1    3    3    0  502  0.93502749193E+02  0.39248747903E+03 -0.21746056006E+03  0.45834298367E+03  0.10100000352E+00 0.  1.
</event>
<event>
 5   0  0.1028978E-02  0.8981037E+03  0.7818609E-02  0.9427955E-01
       -2   -1    0    0    0  501  0.00000000000E+00  0.00000000000E+00  0.24448334579E+03  0.24448334580E+03  0.25500000920E-02 0.  1.
        2   -1    0    0  501    0  0.00000000000E+00  0.00000000000E+00 -0.82479067561E+03  0.82479067561E+03  0.25500000920E-02 0. -1.
    10030    2    1    2    0    0  0.00000000000E+00  0.00000000000E+00 -0.58030732982E+03  0.10692740214E+04  0.89810374447E+03 0.  0.
        3    1    3    3  502    0  0.68871292314E+02 -0.25424071237E+03  0.14284502654E+03  0.29964363257E+03  0.10100000352E+00 0.  1.
       -3    1    3    3    0  502 -0.68871292314E+02  0.25424071237E+03 -0.72315235636E+03  0.76963038885E+03  0.10100000352E+00 0. -1.
</event>
<event>
 5   0  0.3996375E-03  0.9031521E+03  0.7818609E-02  0.9421650E-01
        4   -1    0    0  501    0  0.00000000000E+00  0.00000000000E+00  0.22662505352E+03  0.22662861202E+03  0.12699999809E+01 0. -1.
       -4   -1    0    0    0  501  0.00000000000E+00  0.00000000000E+00 -0.89980531084E+03  0.89980620709E+03  0.12699999809E+01 0.  1.
    10030    2    1    2    0    0  0.00000000000E+00  0.00000000000E+00 -0.67318025732E+03  0.11264348191E+04  0.90315211502E+03 0.  0.
        1    1    3    3  502    0  0.58428325573E+02 -0.36584001579E+03 -0.65862608355E+03  0.75567261717E+03  0.50400001928E-02 0.  1.
       -1    1    3    3    0  502 -0.58428325573E+02  0.36584001579E+03 -0.14554173767E+02  0.37076220194E+03  0.50400001928E-02 0. -1.
</event>
<event>
 5   0  0.1033749E-02  0.8906371E+03  0.7818609E-02  0.9437362E-01
       -2   -1    0    0    0  501  0.00000000000E+00  0.00000000000E+00  0.88026056181E+03  0.88026056181E+03  0.25500000920E-02 0.  1.
        2   -1    0    0  501    0  0.00000000000E+00  0.00000000000E+00 -0.22528399558E+03  0.22528399560E+03  0.25500000920E-02 0. -1.
    10030    2    1    2    0    0  0.00000000000E+00  0.00000000000E+00  0.65497656622E+03  0.11055445574E+04  0.89063711247E+03 0.  0.
        5    1    3    3  502    0  0.30451819750E+03  0.30789799059E+03  0.45621269290E+03  0.62903467025E+03  0.46999998093E+01 0.  1.
       -5    1    3    3    0  502 -0.30451819750E+03 -0.30789799059E+03  0.19876387333E+03  0.47650988716E+03  0.46999998093E+01 0. -1.
</event>
<event>
 5   0  0.6211218E-03  0.9118770E+03  0.7818609E-02  0.9410855E-01
        1   -1    0    0  501    0  0.00000000000E+00  0.00000000000E+00  0.41006004153E+03  0.41006004156E+03  0.50400001928E-02 0.  1.
       -1   -1    0    0    0  501  0.00000000000E+00  0.00000000000E+00 -0.50694998383E+03  0.50694998385E+03  0.50400001928E-02 0. -1.
    10030    2    1    2    0    0  0.00000000000E+00  0.00000000000E+00 -0.96889942297E+02  0.91701002541E+03  0.91187703436E+03 0.  0.
        5    1    3    3  502    0  0.24873013336E+03 -0.38140146792E+03 -0.25423258667E+02  0.45607257213E+03  0.46999998093E+01 0.  1.
       -5    1    3    3    0  502 -0.24873013336E+03  0.38140146792E+03 -0.71466683630E+02  0.46093745328E+03  0.46999998093E+01 0. -1.
</event>
<event>
 5   0  0.6092779E-03  0.9042847E+03  0.7818609E-02  0.9420241E-01
        1   -1    0    0  501    0  0.00000000000E+00  0.00000000000E+00  0.50066561428E+03  0.50066561431E+03  0.50400001928E-02 0. -1.
       -1   -1    0    0    0  501  0.00000000000E+00  0.00000000000E+00 -0.40832188148E+03  0.40832188151E+03  0.50400001928E-02 0.  1.
    10030    2    1    2    0    0  0.00000000000E+00  0.00000000000E+00  0.92343732807E+02  0.90898749582E+03  0.90428474639E+03 0.  0.
        2    1    3    3  502    0  0.42238168134E+03  0.55590642427E+02  0.19840622893E+03  0.46995918540E+03  0.25500000920E-02 0. -1.
       -2    1    3    3    0  502 -0.42238168134E+03 -0.55590642427E+02 -0.10606249612E+03  0.43902831042E+03  0.25500000920E-02 0.  1.
</event>
<event>
 5   0  0.1033749E-02  0.8930118E+03  0.7818609E-02  0.9434359E-01
        2   -1    0    0  501    0  0.00000000000E+00  0.00000000000E+00  0.96452211352E+03  0.96452211353E+03  0.25500000920E-02 0. -1.
       -2   -1    0    0    0  501  0.00000000000E+00  0.00000000000E+00 -0.20670084007E+03  0.20670084008E+03  0.25500000920E-02 0.  1.
    10030    2    1    2    0    0  0.00000000000E+00  0.00000000000E+00  0.75782127346E+03  0.11712229536E+04  0.89301182779E+03 0.  0.
        5    1    3    3  502    0  0.32092225937E+03 -0.25229567372E+03  0.14173806729E+03  0.43215271983E+03  0.46999998093E+01 0.  1.
       -5    1    3    3    0  502 -0.32092225937E+03  0.25229567372E+03  0.61608320617E+03  0.73907023378E+03  0.46999998093E+01 0. -1.
</event>
<event>
 5   0  0.1017079E-02  0.8807972E+03  0.7818609E-02  0.9449909E-01
       -2   -1    0    0    0  501  0.00000000000E+00  0.00000000000E+00  0.11707294295E+03  0.11707294298E+03  0.25500000920E-02 0.  1.
        2   -1    0    0  501    0  0.00000000000E+00  0.00000000000E+00 -0.16566673305E+04  0.16566673305E+04  0.25500000920E-02 0. -1.
    10030    2    1    2    0    0  0.00000000000E+00  0.00000000000E+00 -0.15395943876E+04  0.17737402735E+04  0.88079718416E+03 0.  0.
        1    1    3    3  502    0 -0.19706211166E+03  0.34807225336E+03 -0.39867400252E+03  0.56473775305E+03  0.50400001928E-02 0.  1.
       -1    1    3    3    0  502  0.19706211166E+03 -0.34807225336E+03 -0.11409203851E+04  0.12090025205E+04  0.50400001928E-02 0. -1.
</event>
<event>
 5   0  0.6092779E-03  0.9052549E+03  0.7818609E-02  0.9419036E-01
        1   -1    0    0  501    0  0.00000000000E+00  0.00000000000E+00  0.10264804702E+04  0.10264804702E+04  0.50400001928E-02 0. -1.
       -1   -1    0    0    0  501  0.00000000000E+00  0.00000000000E+00 -0.19958647471E+03  0.19958647478E+03  0.50400001928E-02 0.  1.
    10030    2    1    2    0    0  0.00000000000E+00  0.00000000000E+00  0.82689399546E+03  0.12260669450E+04  0.90525492200E+03 0.  0.
        2    1    3    3  502    0  0.35004244129E+03  0.16339270772E+03  0.73293555777E+03  0.82850553378E+03  0.25500000920E-02 0. -1.
       -2    1    3    3    0  502 -0.35004244129E+03 -0.16339270772E+03  0.93958437681E+02  0.39756141118E+03  0.25500000920E-02 0.  1.
</event>
<event>
 5   0  0.1017079E-02  0.8989696E+03  0.7818609E-02  0.9426870E-01
       -2   -1    0    0    0  501  0.00000000000E+00  0.00000000000E+00  0.12964336433E+03  0.12964336436E+03  0.25500000920E-02 0. -1.
        2   -1    0    0  501    0  0.00000000000E+00  0.00000000000E+00 -0.15584028689E+04  0.15584028689E+04  0.25500000920E-02 0.  1.
    10030    2    1    2    0    0  0.00000000000E+00  0.00000000000E+00 -0.14287595046E+04  0.16880462333E+04  0.89896961225E+03 0.  0.
        1    1    3    3  502    0  0.28169052767E+02  0.44268018415E+03 -0.85079008619E+03  0.95948059478E+03  0.50400001928E-02 0.  1.
       -1    1    3    3    0  502 -0.28169052767E+02 -0.44268018415E+03 -0.57796941839E+03  0.72856563850E+03  0.50400001928E-02 0. -1.
</event>
<event>
 5   0  0.6137243E-03  0.8976922E+03  0.7818609E-02  0.9428471E-01
       -1   -1    0    0    0  501  0.00000000000E+00  0.00000000000E+00  0.18182933606E+03  0.18182933613E+03  0.50400001928E-02 0. -1.
        1   -1    0    0  501    0  0.00000000000E+00  0.00000000000E+00 -0.11079775714E+04  0.11079775714E+04  0.50400001928E-02 0.  1.
    10030    2    1    2    0    0  0.00000000000E+00  0.00000000000E+00 -0.92614823532E+03  0.12898069075E+04  0.89769221056E+03 0.  0.
        4    1    3    3  502    0 -0.94028737751E+02 -0.11860998102E+03  0.14405207773E+03  0.20895536633E+03  0.12699999809E+01 0. -1.
       -4    1    3    3    0  502  0.94028737751E+02  0.11860998102E+03 -0.10702003131E+04  0.10808515412E+04  0.12699999809E+01 0.  1.
</event>
<event>
 5   0  0.3996375E-03  0.9004640E+03  0.7818609E-02  0.9425002E-01
        3   -1    0    0  501    0  0.00000000000E+00  0.00000000000E+00  0.40123214333E+03  0.40123215604E+03  0.10100000352E+00 0.  1.
       -3   -1    0    0    0  501  0.00000000000E+00  0.00000000000E+00 -0.50521582866E+03  0.50521583875E+03  0.10100000352E+00 0. -1.
    10030    2    1    2    0    0  0.00000000000E+00  0.00000000000E+00 -0.10398368533E+03  0.90644799480E+03  0.90046396955E+03 0.  0.
        5    1    3    3  502    0 -0.71429073661E+01 -0.24900870049E+02  0.40045658967E+03  0.40132112411E+03  0.46999998093E+01 0.  1.
       -5    1    3    3    0  502  0.71429073661E+01  0.24900870049E+02 -0.50444027499E+03  0.50512687069E+03  0.46999998093E+01 0. -1.
</event>
<event>
 5   0  0.1028978E-02  0.8934246E+03  0.7818609E-02  0.9433839E-01
        2   -1    0    0  501    0  0.00000000000E+00  0.00000000000E+00  0.50526961192E+03  0.50526961193E+03  0.25500000920E-02 0. -1.
       -2   -1    0    0    0  501  0.00000000000E+00  0.00000000000E+00 -0.39494135505E+03  0.39494135506E+03  0.25500000920E-02 0.  1.
    10030    2    1    2    0    0  0.00000000000E+00  0.00000000000E+00  0.11032825687E+03  0.90021096698E+03  0.89342456918E+03 0.  0.
        3    1    3    3  502    0  0.23618820105E+03  0.36530472643E+03 -0.47192174183E+02  0.43756087688E+03  0.10100000352E+00 0. -1.
       -3    1    3    3    0  502 -0.23618820105E+03 -0.36530472643E+03  0.15752043106E+03  0.46265009010E+03  0.10100000352E+00 0.  1.
</event>
<event>
 5   0  0.6137243E-03  0.8704109E+03  0.7818609E-02  0.9463344E-01
       -1   -1    0    0    0  501  0.00000000000E+00  0.00000000000E+00  0.46629140651E+03  0.46629140654E+03  0.50400001928E-02 0. -1.
        1   -1    0    0  501    0  0.00000000000E+00  0.00000000000E+00 -0.40619187492E+03  0.40619187495E+03  0.50400001928E-02 0.  1.
    10030    2    1    2    0    0  0.00000000000E+00  0.00000000000E+00  0.60099531591E+02  0.87248328149E+03  0.87041089308E+03 0.  0.
        4    1    3    3  502    0  0.19206800094E+02  0.29789518469E+03  0.34749246848E+03  0.45810814311E+03  0.12699999809E+01 0. -1.
       -4    1    3    3    0  502 -0.19206800094E+02 -0.29789518469E+03 -0.28739293689E+03  0.41437513838E+03  0.12699999809E+01 0.  1.
</event>
<event>
 5   0  0.1028978E-02  0.9055228E+03  0.7818609E-02  0.9418704E-01
       -2   -1    0    0    0  501  0.00000000000E+00  0.00000000000E+00  0.26024580028E+03  0.26024580029E+03  0.25500000920E-02 0.  1.
        2   -1    0    0  501    0  0.00000000000E+00  0.00000000000E+00 -0.78768953905E+03  0.78768953906E+03  0.25500000920E-02 0. -1.
    10030    2    1    2    0    0  0.00000000000E+00  0.00000000000E+00 -0.52744373878E+03  0.10479353393E+04  0.90552282019E+03 0.  0.
        3    1    3    3  502    0  0.18156825066E+03 -0.36683032648E+03 -0.48771097347E+03  0.63670520802E+03  0.10100000352E+00 0. -1.
       -3    1    3    3    0  502 -0.18156825066E+03  0.36683032648E+03 -0.39732765307E+02  0.41123013133E+03  0.10100000352E+00 0.  1.
</event>
<event>
 5   0  0.1041727E-02  0.9028401E+03  0.7818609E-02  0.9422038E-01
        2   -1    0    0  501    0  0.00000000000E+00  0.00000000000E+00  0.45185249664E+03  0.45185249665E+03  0.25500000920E-02 0. -1.
       -2   -1    0    0    0  501  0.00000000000E+00  0.00000000000E+00 -0.45098799661E+03  0.45098799661E+03  0.25500000920E-02 0.  1.
    10030    2    1    2    0    0  0.00000000000E+00  0.00000000000E+00  0.86450003588E+00  0.90284049326E+03  0.90284007937E+03 0.  0.
        4    1    3    3  502    0 -0.44239253903E+03 -0.86234143164E+02 -0.24686545071E+02  0.45139619454E+03  0.12699999809E+01 0.  1.
       -4    1    3    3    0  502  0.44239253903E+03  0.86234143164E+02  0.25551045107E+02  0.45144429872E+03  0.12699999809E+01 0. -1.
</event>
<event>
 5   0  0.1003252E-02  0.9511756E+03  0.7818609E-02  0.9363778E-01
        2   -1    0    0  501    0  0.00000000000E+00  0.00000000000E+00  0.11192289876E+04  0.11192289876E+04  0.25500000920E-02 0.  1.
       -2   -1    0    0    0  501  0.00000000000E+00  0.00000000000E+00 -0.20208889381E+03  0.20208889383E+03  0.25500000920E-02 0. -1.
    10030    2    1    2    0    0  0.00000000000E+00  0.00000000000E+00  0.91714009379E+03  0.13213178814E+04  0.95117558429E+03 0.  0.
        2    1    3    3  502    0 -0.34284625391E+02  0.22938407352E+03 -0.11820204691E+03  0.26031560196E+03  0.25500000920E-02 0. -1.
       -2    1    3    3    0  502  0.34284625391E+02 -0.22938407352E+03  0.10353421407E+04  0.10610022795E+04  0.25500000920E-02 0.  1.
</event>
<event>
 5   0  0.1003252E-02  0.8972877E+03  0.7818609E-02  0.9428978E-01
       -2   -1    0    0    0  501  0.00000000000E+00  0.00000000000E+00  0.22487903338E+03  0.22487903340E+03  0.25500000920E-02 0.  1.
        2   -1    0    0  501    0  0.00000000000E+00  0.00000000000E+00 -0.89506484828E+03  0.89506484829E+03  0.25500000920E-02 0. -1.
    10030    2    1    2    0    0  0.00000000000E+00  0.00000000000E+00 -0.67018581490E+03  0.11199438817E+04  0.89728773068E+03 0.  0.
        2    1    3    3  502    0  0.11679231134E+03 -0.40812180609E+02  0.20316707872E+03  0.23787168800E+03  0.25500000920E-02 0.  1.
       -2    1    3    3    0  502 -0.11679231134E+03  0.40812180609E+02 -0.87335289362E+03  0.88207219368E+03  0.25500000920E-02 0. -1.
</event>
<event>
 5   0  0.6092779E-03  0.9042016E+03  0.7818609E-02  0.9420344E-01
        1   -1    0    0  501    0  0.00000000000E+00  0.00000000000E+00  0.20615669303E+04  0.20615669303E+04  0.50400001928E-02 0. -1.
       -1   -1    0    0    0  501  0.00000000000E+00  0.00000000000E+00 -0.99145516134E+02  0.99145516262E+02  0.50400001928E-02 0.  1.
    10030    2    1    2    0    0  0.00000000000E+00  0.00000000000E+00  0.19624214142E+04  0.21607124466E+04  0.90420156491E+03 0.  0.
        2    1    3    3  502    0 -0.44280559228E+01 -0.41140358519E+03  0.14290529412E+04  0.14870994675E+04  0.25500000920E-02 0. -1.
       -2    1    3    3    0  502  0.44280559228E+01  0.41140358519E+03  0.53336847305E+03  0.67361297912E+03  0.25500000920E-02 0.  1.
</event>
<event>
 5   0  0.1003252E-02  0.9185445E+03  0.7818609E-02  0.9402692E-01
       -2   -1    0    0    0  501  0.00000000000E+00  0.00000000000E+00  0.22408822152E+03  0.22408822153E+03  0.25500000920E-02 0.  1.
        2   -1    0    0  501    0  0.00000000000E+00  0.00000000000E+00 -0.94128553230E+03  0.94128553231E+03  0.25500000920E-02 0. -1.
    10030    2    1    2    0    0  0.00000000000E+00  0.00000000000E+00 -0.71719731079E+03  0.11653737538E+04  0.91854450275E+03 0.  0.
        2    1    3    3  502    0 -0.36082010764E+03  0.19655160916E+03 -0.61894039883E+03  0.74290706178E+03  0.25500000920E-02 0. -1.
       -2    1    3    3    0  502  0.36082010764E+03 -0.19655160916E+03 -0.98256911960E+02  0.42246669205E+03  0.25500000920E-02 0.  1.
</event>
<event>
 5   0  0.1033749E-02  0.8138162E+03  0.7818609E-02  0.9540231E-01
       -2   -1    0    0    0  501  0.00000000000E+00  0.00000000000E+00  0.25073257443E+03  0.25073257445E+03  0.25500000920E-02 0.  1.
        2   -1    0    0  501    0  0.00000000000E+00  0.00000000000E+00 -0.66036177039E+03  0.66036177039E+03  0.25500000920E-02 0. -1.
    10030    2    1    2    0    0  0.00000000000E+00  0.00000000000E+00 -0.40962919595E+03  0.91109434484E+03  0.81381621206E+03 0.  0.
        5    1    3    3  502    0 -0.40610901531E+03 -0.24872345281E+02 -0.20816401957E+03  0.45705307670E+03  0.46999998093E+01 0. -1.
       -5    1    3    3    0  502  0.40610901531E+03  0.24872345281E+02 -0.20146517639E+03  0.45404126814E+03  0.46999998093E+01 0.  1.
</event>
<event>
 5   0  0.1033749E-02  0.8966203E+03  0.7818609E-02  0.9429816E-01
        2   -1    0    0  501    0  0.00000000000E+00  0.00000000000E+00  0.59695203003E+03  0.59695203004E+03  0.25500000920E-02 0. -1.
       -2   -1    0    0    0  501  0.00000000000E+00  0.00000000000E+00 -0.33668028657E+03  0.33668028658E+03  0.25500000920E-02 0.  1.
    10030    2    1    2    0    0  0.00000000000E+00  0.00000000000E+00  0.26027174346E+03  0.93363231661E+03  0.89662027758E+03 0.  0.
        5    1    3    3  502    0  0.15532120389E+03 -0.21094714987E+03  0.50893342471E+03  0.57241479471E+03  0.46999998093E+01 0. -1.
       -5    1    3    3    0  502 -0.15532120389E+03  0.21094714987E+03 -0.24866168124E+03  0.36121752191E+03  0.46999998093E+01 0.  1.
</event>
<event>
 5   0  0.1028978E-02  0.9151848E+03  0.7818609E-02  0.9406796E-01
        2   -1    0    0  501    0  0.00000000000E+00  0.00000000000E+00  0.18412194917E+04  0.18412194917E+04  0.25500000920E-02 0.  1.
       -2   -1    0    0    0  501  0.00000000000E+00  0.00000000000E+00 -0.11372398538E+03  0.11372398541E+03  0.25500000920E-02 0. -1.
    10030    2    1    2    0    0  0.00000000000E+00  0.00000000000E+00  0.17274955063E+04  0.19549434771E+04  0.91518483071E+03 0.  0.
        3    1    3    3  502    0 -0.15939393417E+03  0.39355413988E+02 -0.48641387799E+02  0.17123454578E+03  0.10100000352E+00 0. -1.
       -3    1    3    3    0  502  0.15939393417E+03 -0.39355413988E+02  0.17761368941E+04  0.17837089313E+04  0.10100000352E+00 0.  1.
</event>
<event>
 5   0  0.6211218E-03  0.8972888E+03  0.7818609E-02  0.9428977E-01
        1   -1    0    0  501    0  0.00000000000E+00  0.00000000000E+00  0.58145914944E+03  0.58145914947E+03  0.50400001928E-02 0. -1.
       -1   -1    0    0    0  501  0.00000000000E+00  0.00000000000E+00 -0.34616671304E+03  0.34616671308E+03  0.50400001928E-02 0.  1.
    10030    2    1    2    0    0  0.00000000000E+00  0.00000000000E+00  0.23529243640E+03  0.92762586254E+03  0.89728881093E+03 0.  0.
        5    1    3    3  502    0 -0.27741739810E+03  0.87261610428E+02  0.47078675589E+03  0.55338708057E+03  0.46999998093E+01 0. -1.
       -5    1    3    3    0  502  0.27741739810E+03 -0.87261610428E+02 -0.23549431948E+03  0.37423878197E+03  0.46999998093E+01 0.  1.
</event>
<event>
 5   0  0.6288003E-03  0.8828857E+03  0.7818609E-02  0.9447232E-01
       -1   -1    0    0    0  501  0.00000000000E+00  0.00000000000E+00  0.10593348474E+03  0.10593348486E+03  0.50400001928E-02 0.  1.
        1   -1    0    0  501    0  0.00000000000E+00  0.00000000000E+00 -0.18395673151E+04  0.18395673151E+04  0.50400001928E-02 0. -1.
    10030    2    1    2    0    0  0.00000000000E+00  0.00000000000E+00 -0.17336338303E+04  0.19455007999E+04  0.88288566921E+03 0.  0.
        1    1    3    3  502    0 -0.17421685020E+03 -0.36953551864E+03 -0.49832770639E+03  0.64439003205E+03  0.50400001928E-02 0.  1.
       -1    1    3    3    0  502  0.17421685020E+03  0.36953551864E+03 -0.12353061239E+04  0.13011107679E+04  0.50400001928E-02 0. -1.
</event>
<event>
 5   0  0.1028978E-02  0.8980619E+03  0.7818609E-02  0.9428007E-01
        2   -1    0    0  501    0  0.00000000000E+00  0.00000000000E+00  0.49030244068E+03  0.49030244068E+03  0.25500000920E-02 0.  1.
       -2   -1    0    0    0  501  0.00000000000E+00  0.00000000000E+00 -0.41123351442E+03  0.41123351443E+03  0.25500000920E-02 0. -1.
    10030    2    1    2    0    0  0.00000000000E+00  0.00000000000E+00  0.79068926258E+02  0.90153595511E+03  0.89806190391E+03 0.  0.
        3    1    3    3  502    0 -0.28935647865E+03 -0.17970156546E+03  0.33325640572E+03  0.47652876778E+03  0.10100000352E+00 0.  1.
       -3    1    3    3    0  502  0.28935647865E+03  0.17970156546E+03 -0.25418747946E+03  0.42500718733E+03  0.10100000352E+00 0. -1.
</event>
<event>
 5   0  0.3996375E-03  0.8970629E+03  0.7818609E-02  0.9429260E-01
        4   -1    0    0  501    0  0.00000000000E+00  0.00000000000E+00  0.30277955284E+03  0.30278221632E+03  0.12699999809E+01 0. -1.
       -4   -1    0    0    0  501  0.00000000000E+00  0.00000000000E+00 -0.66443914921E+03  0.66444036294E+03  0.12699999809E+01 0.  1.
    10030    2    1    2    0    0  0.00000000000E+00  0.00000000000E+00 -0.36165959637E+03  0.96722257926E+03  0.89706290425E+03 0.  0.
        5    1    3    3  502    0 -0.86711833886E+02 -0.42837793007E+03 -0.28935895111E+03  0.52419203131E+03  0.46999998093E+01 0. -1.
       -5    1    3    3    0  502  0.86711833886E+02  0.42837793007E+03 -0.72300645266E+02  0.44303054795E+03  0.46999998093E+01 0.  1.
</event>
<event>
 5   0  0.1041727E-02  0.9062026E+03  0.7818609E-02  0.9417861E-01
        2   -1    0    0  501    0  0.00000000000E+00  0.00000000000E+00  0.33257895988E+03  0.33257895989E+03  0.25500000920E-02 0. -1.
       -2   -1    0    0    0  501  0.00000000000E+00  0.00000000000E+00 -0.61729937057E+03  0.61729937058E+03  0.25500000920E-02 0.  1.
    10030    2    1    2    0    0  0.00000000000E+00  0.00000000000E+00 -0.28472041069E+03  0.94987833047E+03  0.90620258797E+03 0.  0.
        4    1    3    3  502    0 -0.37151705629E+03  0.17823282925E+03 -0.33987586726E+03  0.53414331652E+03  0.12699999809E+01 0.  1.
       -4    1    3    3    0  502  0.37151705629E+03 -0.17823282925E+03  0.55155456575E+02  0.41573501395E+03  0.12699999809E+01 0. -1.
</event>
<event>
 5   0  0.3996375E-03  0.9047540E+03  0.7818609E-02  0.9419658E-01
        3   -1    0    0  501    0  0.00000000000E+00  0.00000000000E+00  0.37812702061E+03  0.37812703410E+03  0.10100000352E+00 0.  1.
       -3   -1    0    0    0  501  0.00000000000E+00  0.00000000000E+00 -0.54120681128E+03  0.54120682071E+03  0.10100000352E+00 0. -1.
    10030    2    1    2    0    0  0.00000000000E+00  0.00000000000E+00 -0.16307979067E+03  0.91933385481E+03  0.90475395466E+03 0.  0.
        3    1    3    3  502    0  0.17949434190E+03  0.38874212029E+03 -0.22985876977E+03  0.48597707673E+03  0.10100000352E+00 0. -1.
       -3    1    3    3    0  502 -0.17949434190E+03 -0.38874212029E+03  0.66778979108E+02  0.43335677808E+03  0.10100000352E+00 0.  1.
</event>
<event>
 5   0  0.6137243E-03  0.8974667E+03  0.7818609E-02  0.9428754E-01
        1   -1    0    0  501    0  0.00000000000E+00  0.00000000000E+00  0.49670474639E+03  0.49670474642E+03  0.50400001928E-02 0. -1.
       -1   -1    0    0    0  501  0.00000000000E+00  0.00000000000E+00 -0.40539500433E+03  0.40539500436E+03  0.50400001928E-02 0.  1.
    10030    2    1    2    0    0  0.00000000000E+00  0.00000000000E+00  0.91309742060E+02  0.90209975078E+03  0.89746670766E+03 0.  0.
        4    1    3    3  502    0  0.23454226548E+03  0.32271635107E+03 -0.16084201097E+03  0.43014844291E+03  0.12699999809E+01 0.  1.
       -4    1    3    3    0  502 -0.23454226548E+03 -0.32271635107E+03  0.25215175303E+03  0.47195130787E+03  0.12699999809E+01 0. -1.
</event>
<event>
 5   0  0.1041727E-02  0.8608962E+03  0.7818609E-02  0.9475828E-01
        2   -1    0    0  501    0  0.00000000000E+00  0.00000000000E+00  0.12611159848E+04  0.12611159848E+04  0.25500000920E-02 0. -1.
       -2   -1    0    0    0  501  0.00000000000E+00  0.00000000000E+00 -0.14692189786E+03  0.14692189788E+03  0.25500000920E-02 0.  1.
    10030    2    1    2    0    0  0.00000000000E+00  0.00000000000E+00  0.11141940870E+04  0.14080378827E+04  0.86089617012E+03 0.  0.
        4    1    3    3  502    0  0.29088447467E+03 -0.31559669790E+03  0.61056943455E+03  0.74633216508E+03  0.12699999809E+01 0.  1.
       -4    1    3    3    0  502 -0.29088447467E+03  0.31559669790E+03  0.50362465243E+03  0.66170571765E+03  0.12699999809E+01 0. -1.
</event>
<event>
 5   0  0.1017079E-02  0.9005042E+03  0.7818609E-02  0.9424951E-01
        2   -1    0    0  501    0  0.00000000000E+00  0.00000000000E+00  0.48747720344E+03  0.48747720345E+03  0.25500000920E-02 0. -1.
       -2   -1    0    0    0  501  0.00000000000E+00  0.00000000000E+00 -0.41586959045E+03  0.41586959046E+03  0.25500000920E-02 0.  1.
    10030    2    1    2    0    0  0.00000000000E+00  0.00000000000E+00  0.71607612990E+02  0.90334679391E+03  0.90050418091E+03 0.  0.
        1    1    3    3  502    0 -0.40931539230E+03  0.66493303998E+02  0.21176130781E+03  0.46562141420E+03  0.50400001928E-02 0.  1.
       -1    1    3    3    0  502  0.40931539230E+03 -0.66493303998E+02 -0.14015369482E+03  0.43772537971E+03  0.50400001928E-02 0. -1.
</event>
<event>
 5   0  0.1003252E-02  0.9030060E+03  0.7818609E-02  0.9421832E-01
       -2   -1    0    0    0  501  0.00000000000E+00  0.00000000000E+00  0.44174516631E+03  0.44174516632E+03  0.25500000920E-02 0. -1.
        2   -1    0    0  501    0  0.00000000000E+00  0.00000000000E+00 -0.46147634795E+03  0.46147634796E+03  0.25500000920E-02 0.  1.
    10030    2    1    2    0    0  0.00000000000E+00  0.00000000000E+00 -0.19731181638E+02  0.90322151428E+03  0.90300597137E+03 0.  0.
        2    1    3    3  502    0 -0.41824454520E+03  0.16897931678E+03 -0.29168823880E+02  0.45203244284E+03  0.25500000920E-02 0.  1.
       -2    1    3    3    0  502  0.41824454520E+03 -0.16897931678E+03  0.94376422416E+01  0.45118907144E+03  0.25500000920E-02 0. -1.
</event>
<event>
 5   0  0.6015709E-03  0.8966730E+03  0.7818609E-02  0.9429750E-01
       -1   -1    0    0    0  501  0.00000000000E+00  0.00000000000E+00  0.27844617105E+03  0.27844617109E+03  0.50400001928E-02 0. -1.
        1   -1    0    0  501    0  0.00000000000E+00  0.00000000000E+00 -0.72188324186E+03  0.72188324187E+03  0.50400001928E-02 0.  1.
    10030    2    1    2    0    0  0.00000000000E+00  0.00000000000E+00 -0.44343707081E+03  0.10003294130E+04  0.89667301659E+03 0.  0.
        3    1    3    3  502    0 -0.13231217981E+03 -0.31734265023E+03  0.99281496739E+02  0.35786826679E+03  0.10100000352E+00 0. -1.
       -3    1    3    3    0  502  0.13231217981E+03  0.31734265023E+03 -0.54271856755E+03  0.64246114617E+03  0.10100000352E+00 0.  1.
</event>
<event>
 5   0  0.3996375E-03  0.9358501E+03  0.7818609E-02  0.9381844E-01
       -3   -1    0    0    0  501  0.00000000000E+00  0.00000000000E+00  0.38609386676E+03  0.38609387997E+03  0.10100000352E+00 0. -1.
        3   -1    0    0  501    0  0.00000000000E+00  0.00000000000E+00 -0.56710002283E+03  0.56710003182E+03  0.10100000352E+00 0.  1.
    10030    2    1    2    0    0  0.00000000000E+00  0.00000000000E+00 -0.18100615606E+03  0.95319391179E+03  0.93585009747E+03 0.  0.
        1    1    3    3  502    0  0.43847263742E+03 -0.15970528506E+03 -0.55370057749E+02  0.46992539319E+03  0.50400001928E-02 0.  1.
       -1    1    3    3    0  502 -0.43847263742E+03  0.15970528506E+03 -0.12563609831E+03  0.48326851860E+03  0.50400001928E-02 0. -1.
</event>
<event>
 5   0  0.6288003E-03  0.9099840E+03  0.7818609E-02  0.9413186E-01
        1   -1    0    0  501    0  0.00000000000E+00  0.00000000000E+00  0.84243880180E+03  0.84243880181E+03  0.50400001928E-02 0. -1.
       -1   -1    0    0    0  501  0.00000000000E+00  0.00000000000E+00 -0.24573623353E+03  0.24573623358E+03  0.50400001928E-02 0.  1.
    10030    2    1    2    0    0  0.00000000000E+00  0.00000000000E+00  0.59670256826E+03  0.10881750354E+04  0.90998403980E+03 0.  0.
        1    1    3    3  502    0  0.15626884260E+03  0.22419401927E+03 -0.13666154261E+03  0.30554751954E+03  0.50400001928E-02 0.  1.
       -1    1    3    3    0  502 -0.15626884260E+03 -0.22419401927E+03  0.73336411087E+03  0.78262751586E+03  0.50400001928E-02 0. -1.
</event>
<event>
 5   0  0.6092779E-03  0.9037591E+03  0.7818609E-02  0.9420895E-01
        1   -1    0    0  501    0  0.00000000000E+00  0.00000000000E+00  0.35928630156E+03  0.35928630160E+03  0.50400001928E-02 0. -1.
       -1   -1    0    0    0  501  0.00000000000E+00  0.00000000000E+00 -0.56833535304E+03  0.56833535306E+03  0.50400001928E-02 0.  1.
    10030    2    1    2    0    0  0.00000000000E+00  0.00000000000E+00 -0.20904905148E+03  0.92762165466E+03  0.90375905432E+03 0.  0.
        2    1    3    3  502    0 -0.25994312939E+03  0.73016887468E+02  0.26738675500E+03  0.37999680673E+03  0.25500000920E-02 0. -1.
       -2    1    3    3    0  502  0.25994312939E+03 -0.73016887468E+02 -0.47643580647E+03  0.54762484793E+03  0.25500000920E-02 0.  1.
</event>
<event>
 5   0  0.1003252E-02  0.8938933E+03  0.7818609E-02  0.9433247E-01
       -2   -1    0    0    0  501  0.00000000000E+00  0.00000000000E+00  0.89123301300E+03  0.89123301300E+03  0.25500000920E-02 0.  1.
        2   -1    0    0  501    0  0.00000000000E+00  0.00000000000E+00 -0.22414040028E+03  0.22414040030E+03  0.25500000920E-02 0. -1.
    10030    2    1    2    0    0  0.00000000000E+00  0.00000000000E+00  0.66709261271E+03  0.11153734133E+04  0.89389333657E+03 0.  0.
        2    1    3    3  502    0 -0.11538721830E+03  0.21779624366E+03  0.79876868143E+03  0.83593110981E+03  0.25500000920E-02 0.  1.
       -2    1    3    3    0  502  0.11538721830E+03 -0.21779624366E+03 -0.13167606872E+03  0.27944230349E+03  0.25500000920E-02 0. -1.
</event>
<event>
 5   0  0.1033749E-02  0.7395058E+03  0.7818609E-02  0.9651959E-01
        2   -1    0    0  501    0  0.00000000000E+00  0.00000000000E+00  0.14412802378E+04  0.14412802378E+04  0.25500000920E-02 0. -1.
       -2   -1    0    0    0  501  0.00000000000E+00  0.00000000000E+00 -0.94858172850E+02  0.94858172884E+02  0.25500000920E-02 0.  1.
    10030    2    1    2    0    0  0.00000000000E+00  0.00000000000E+00  0.13464220650E+04  0.15361384107E+04  0.73950580782E+03 0.  0.
        5    1    3    3  502    0  0.26482479542E+03  0.10585011608E+03  0.11619553302E+04  0.11964525476E+04  0.46999998093E+01 0. -1.
       -5    1    3    3    0  502 -0.26482479542E+03 -0.10585011608E+03  0.18446673477E+03  0.33968586308E+03  0.46999998093E+01 0.  1.
</event>
<event>
 5   0  0.6288003E-03  0.8952339E+03  0.7818609E-02  0.9431559E-01
        1   -1    0    0  501    0  0.00000000000E+00  0.00000000000E+00  0.78145683157E+03  0.78145683159E+03  0.50400001928E-02 0.  1.
       -1   -1    0    0    0  501  0.00000000000E+00  0.00000000000E+00 -0.25639409109E+03  0.25639409114E+03  0.50400001928E-02 0. -1.
    10030    2    1    2    0    0  0.00000000000E+00  0.00000000000E+00  0.52506274048E+03  0.10378509227E+04  0.89523385568E+03 0.  0.
        1    1    3    3  502    0  0.17530759447E+03  0.26643210338E+03  0.62663886887E+03  0.70313234202E+03  0.50400001928E-02 0.  1.
       -1    1    3    3    0  502 -0.17530759447E+03 -0.26643210338E+03 -0.10157612838E+03  0.33471858071E+03  0.50400001928E-02 0. -1.
</event>
<event>
 5   0  0.1017079E-02  0.8985526E+03  0.7818609E-02  0.9427393E-01
        2   -1    0    0  501    0  0.00000000000E+00  0.00000000000E+00  0.47830770189E+03  0.47830770189E+03  0.25500000920E-02 0.  1.
       -2   -1    0    0    0  501  0.00000000000E+00  0.00000000000E+00 -0.42200695987E+03  0.42200695987E+03  0.25500000920E-02 0. -1.
    10030    2    1    2    0    0  0.00000000000E+00  0.00000000000E+00  0.56300742018E+02  0.90031466177E+03  0.89855256754E+03 0.  0.
        1    1    3    3  502    0 -0.41487627088E+03 -0.17237444877E+03  0.31887082178E+02  0.45039100431E+03  0.50400001928E-02 0.  1.
       -1    1    3    3    0  502  0.41487627088E+03  0.17237444877E+03  0.24413659840E+02  0.44992365746E+03  0.50400001928E-02 0. -1.
</event>
<event>
 5   0  0.6288003E-03  0.9001540E+03  0.7818609E-02  0.9425389E-01
        1   -1    0    0  501    0  0.00000000000E+00  0.00000000000E+00  0.56683378727E+03  0.56683378729E+03  0.50400001928E-02 0.  1.
       -1   -1    0    0    0  501  0.00000000000E+00  0.00000000000E+00 -0.35736984731E+03  0.35736984735E+03  0.50400001928E-02 0. -1.
    10030    2    1    2    0    0  0.00000000000E+00  0.00000000000E+00  0.20946393995E+03  0.92420363464E+03  0.90015399579E+03 0.  0.
        1    1    3    3  502    0 -0.91868083113E+01  0.17531168333E+03 -0.32076859588E+03  0.36566525114E+03  0.50400001928E-02 0. -1.
       -1    1    3    3    0  502  0.91868083113E+01 -0.17531168333E+03  0.53023253583E+03  0.55853838350E+03  0.50400001928E-02 0.  1.
</event>
<event>
 5   0  0.1033749E-02  0.9063520E+03  0.7818609E-02  0.9417676E-01
       -2   -1    0    0    0  501  0.00000000000E+00  0.00000000000E+00  0.24813068622E+03  0.24813068623E+03  0.25500000920E-02 0.  1.
        2   -1    0    0  501    0  0.00000000000E+00  0.00000000000E+00 -0.82766264051E+03  0.82766264051E+03  0.25500000920E-02 0. -1.
    10030    2    1    2    0    0  0.00000000000E+00  0.00000000000E+00 -0.57953195429E+03  0.10757933267E+04  0.90635202644E+03 0.  0.
        5    1    3    3  502    0  0.74411139649E+02  0.38862472419E+03 -0.55191834874E+03  0.67911865504E+03  0.46999998093E+01 0. -1.
       -5    1    3    3    0  502 -0.74411139649E+02 -0.38862472419E+03 -0.27613605553E+02  0.39667467170E+03  0.46999998093E+01 0.  1.
</event>
<event>
 5   0  0.1017079E-02  0.8932834E+03  0.7818609E-02  0.9434017E-01
        2   -1    0    0  501    0  0.00000000000E+00  0.00000000000E+00  0.12233917099E+04  0.12233917099E+04  0.25500000920E-02 0. -1.
       -2   -1    0    0    0  501  0.00000000000E+00  0.00000000000E+00 -0.16306209342E+03  0.16306209344E+03  0.25500000920E-02 0.  1.
    10030    2    1    2    0    0  0.00000000000E+00  0.00000000000E+00  0.10603296165E+04  0.13864538033E+04  0.89328341148E+03 0.  0.
        1    1    3    3  502    0 -0.24139144528E+03  0.14935465154E+03  0.10653810564E+04  0.11025486099E+04  0.50400001928E-02 0. -1.
       -1    1    3    3    0  502  0.24139144528E+03 -0.14935465154E+03 -0.50514399435E+01  0.28390519344E+03  0.50400001928E-02 0.  1.
</event>
<event>
 5   0  0.1033749E-02  0.9011696E+03  0.7818609E-02  0.9424121E-01
       -2   -1    0    0    0  501  0.00000000000E+00  0.00000000000E+00  0.14983265989E+03  0.14983265991E+03  0.25500000920E-02 0.  1.
        2   -1    0    0  501    0  0.00000000000E+00  0.00000000000E+00 -0.13550227400E+04  0.13550227400E+04  0.25500000920E-02 0. -1.
    10030    2    1    2    0    0  0.00000000000E+00  0.00000000000E+00 -0.12051900801E+04  0.15048553999E+04  0.90116959861E+03 0.  0.
        5    1    3    3  502    0  0.67705890954E+02  0.92586403281E+02 -0.13301930932E+04  0.13351374780E+04  0.46999998093E+01 0. -1.
       -5    1    3    3    0  502 -0.67705890954E+02 -0.92586403281E+02  0.12500301313E+03  0.16971792196E+03  0.46999998093E+01 0.  1.
</event>
<event>
 5   0  0.1033749E-02  0.9001580E+03  0.7818609E-02  0.9425384E-01
       -2   -1    0    0    0  501  0.00000000000E+00  0.00000000000E+00  0.32831781222E+03  0.32831781223E+03  0.25500000920E-02 0. -1.
        2   -1    0    0  501    0  0.00000000000E+00  0.00000000000E+00 -0.61699695345E+03  0.61699695345E+03  0.25500000920E-02 0.  1.
    10030    2    1    2    0    0  0.00000000000E+00  0.00000000000E+00 -0.28867914122E+03  0.94531476568E+03  0.90015796372E+03 0.  0.
        5    1    3    3  502    0 -0.10439284202E+03  0.38046087574E+03  0.83090127231E+02  0.40320516201E+03  0.46999998093E+01 0. -1.
       -5    1    3    3    0  502  0.10439284202E+03 -0.38046087574E+03 -0.37176926845E+03  0.54210960367E+03  0.46999998093E+01 0.  1.
</event>
<event>
 5   0  0.3996375E-03  0.9128092E+03  0.7818609E-02  0.9409709E-01
       -4   -1    0    0    0  501  0.00000000000E+00  0.00000000000E+00  0.10401044404E+04  0.10401052158E+04  0.12699999809E+01 0.  1.
        4   -1    0    0  501    0  0.00000000000E+00  0.00000000000E+00 -0.20027043541E+03  0.20027446217E+03  0.12699999809E+01 0. -1.
    10030    2    1    2    0    0  0.00000000000E+00  0.00000000000E+00  0.83983400501E+03  0.12403796779E+04  0.91280917474E+03 0.  0.
        1    1    3    3  502    0  0.84454963404E+02  0.36939511402E+02  0.10273257740E+04  0.10314530597E+04  0.50400001928E-02 0.  1.
       -1    1    3    3    0  502 -0.84454963404E+02 -0.36939511402E+02 -0.18749176901E+03  0.20892661826E+03  0.50400001928E-02 0. -1.
</event>
<event>
 5   0  0.1017079E-02  0.9307572E+03  0.7818609E-02  0.9387930E-01
        2   -1    0    0  501    0  0.00000000000E+00  0.00000000000E+00  0.10498977955E+04  0.10498977955E+04  0.25500000920E-02 0.  1.
       -2   -1    0    0    0  501  0.00000000000E+00  0.00000000000E+00 -0.20628412315E+03  0.20628412316E+03  0.25500000920E-02 0. -1.
    10030    2    1    2    0    0  0.00000000000E+00  0.00000000000E+00  0.84361367234E+03  0.12561819186E+04  0.93075721033E+03 0.  0.
        1    1    3    3  502    0 -0.46119394632E+03  0.45102904545E+02  0.47974873174E+03  0.66700297882E+03  0.50400001928E-02 0.  1.
       -1    1    3    3    0  502  0.46119394632E+03 -0.45102904545E+02  0.36386494060E+03  0.58917893983E+03  0.50400001928E-02 0. -1.
</event>
<event>
 5   0  0.6092779E-03  0.8950099E+03  0.7818609E-02  0.9431841E-01
        1   -1    0    0  501    0  0.00000000000E+00  0.00000000000E+00  0.46337073202E+03  0.46337073204E+03  0.50400001928E-02 0.  1.
       -1   -1    0    0    0  501  0.00000000000E+00  0.00000000000E+00 -0.43218240113E+03  0.43218240116E+03  0.50400001928E-02 0. -1.
    10030    2    1    2    0    0  0.00000000000E+00  0.00000000000E+00  0.31188330890E+02  0.89555313320E+03  0.89500988956E+03 0.  0.
        2    1    3    3  502    0  0.18744205500E+03 -0.76791189855E+02  0.41487178569E+03  0.46168171871E+03  0.25500000920E-02 0.  1.
       -2    1    3    3    0  502 -0.18744205500E+03  0.76791189855E+02 -0.38368345480E+03  0.43387141449E+03  0.25500000920E-02 0. -1.
</event>
<event>
 5   0  0.1041727E-02  0.9064521E+03  0.7818609E-02  0.9417552E-01
        2   -1    0    0  501    0  0.00000000000E+00  0.00000000000E+00  0.10037673203E+04  0.10037673203E+04  0.25500000920E-02 0.  1.
       -2   -1    0    0    0  501  0.00000000000E+00  0.00000000000E+00 -0.20464287752E+03  0.20464287754E+03  0.25500000920E-02 0. -1.
    10030    2    1    2    0    0  0.00000000000E+00  0.00000000000E+00  0.79912444275E+03  0.12084101978E+04  0.90645205675E+03 0.  0.
        4    1    3    3  502    0 -0.15814088493E+03  0.14437184098E+03  0.93207762136E+03  0.95635875752E+03  0.12699999809E+01 0.  1.
       -4    1    3    3    0  502  0.15814088493E+03 -0.14437184098E+03 -0.13295317861E+03  0.25205144030E+03  0.12699999809E+01 0. -1.
</event>
<event>
 5   0  0.6015709E-03  0.8989699E+03  0.7818609E-02  0.9426870E-01
       -1   -1    0    0    0  501  0.00000000000E+00  0.00000000000E+00  0.45014014128E+03  0.45014014131E+03  0.50400001928E-02 0. -1.
        1   -1    0    0  501    0  0.00000000000E+00  0.00000000000E+00 -0.44883074743E+03  0.44883074746E+03  0.50400001928E-02 0.  1.
    10030    2    1    2    0    0  0.00000000000E+00  0.00000000000E+00  0.13093938512E+01  0.89897088876E+03  0.89896993516E+03 0.  0.
        3    1    3    3  502    0 -0.22834164134E+03 -0.32602447065E+03  0.20947269845E+03  0.44978959773E+03  0.10100000352E+00 0. -1.
       -3    1    3    3    0  502  0.22834164134E+03  0.32602447065E+03 -0.20816330459E+03  0.44918129103E+03  0.10100000352E+00 0.  1.
</event>
<event>
 5   0  0.1028978E-02  0.8986952E+03  0.7818609E-02  0.9427214E-01
        2   -1    0    0  501    0  0.00000000000E+00  0.00000000000E+00  0.10399177829E+04  0.10399177829E+04  0.25500000920E-02 0.  1.
       -2   -1    0    0    0  501  0.00000000000E+00  0.00000000000E+00 -0.19416270544E+03  0.19416270546E+03  0.25500000920E-02 0. -1.
    10030    2    1    2    0    0  0.00000000000E+00  0.00000000000E+00  0.84575507744E+03  0.12340804883E+04  0.89869516562E+03 0.  0.
        3    1    3    3  502    0 -0.59936166605E+02  0.39853234420E+03  0.69576929047E+03  0.80406174465E+03  0.10100000352E+00 0.  1.
       -3    1    3    3    0  502  0.59936166605E+02 -0.39853234420E+03  0.14998578697E+03  0.43001874370E+03  0.10100000352E+00 0. -1.
</event>
<event>
 5   0  0.6137243E-03  0.9014963E+03  0.7818609E-02  0.9423713E-01
       -1   -1    0    0    0  501  0.00000000000E+00  0.00000000000E+00  0.15730092884E+03  0.15730092892E+03  0.50400001928E-02 0.  1.
        1   -1    0    0  501    0  0.00000000000E+00  0.00000000000E+00 -0.12916254478E+04  0.12916254478E+04  0.50400001928E-02 0. -1.
    10030    2    1    2    0    0  0.00000000000E+00  0.00000000000E+00 -0.11343245189E+04  0.14489263767E+04  0.90149627334E+03 0.  0.
        4    1    3    3  502    0  0.27593433009E+03 -0.50195538000E+02 -0.11343013697E+04  0.11684607638E+04  0.12699999809E+01 0. -1.
       -4    1    3    3    0  502 -0.27593433009E+03  0.50195538000E+02 -0.23149272333E-01  0.28046561285E+03  0.12699999809E+01 0.  1.
</event>
<event>
 5   0  0.1017079E-02  0.9012252E+03  0.7818609E-02  0.9424051E-01
        2   -1    0    0  501    0  0.00000000000E+00  0.00000000000E+00  0.45142223397E+03  0.45142223398E+03  0.25500000920E-02 0. -1.
       -2   -1    0    0    0  501  0.00000000000E+00  0.00000000000E+00 -0.44980443499E+03  0.44980443500E+03  0.25500000920E-02 0.  1.
    10030    2    1    2    0    0  0.00000000000E+00  0.00000000000E+00  0.16177989816E+01  0.90122666898E+03  0.90122521691E+03 0.  0.
        1    1    3    3  502    0  0.43810353544E+03  0.71333800593E+02  0.78452466080E+02  0.45075271306E+03  0.50400001928E-02 0. -1.
       -1    1    3    3    0  502 -0.43810353544E+03 -0.71333800593E+02 -0.76834667098E+02  0.45047395592E+03  0.50400001928E-02 0.  1.
</event>
<event>
 5   0  0.6211218E-03  0.9807277E+03  0.7818609E-02  0.9329939E-01
       -1   -1    0    0    0  501  0.00000000000E+00  0.00000000000E+00  0.17021022192E+03  0.17021022199E+03  0.50400001928E-02 0.  1.
        1   -1    0    0  501    0  0.00000000000E+00  0.00000000000E+00 -0.14127043054E+04  0.14127043054E+04  0.50400001928E-02 0. -1.
    10030    2    1    2    0    0  0.00000000000E+00  0.00000000000E+00 -0.12424940835E+04  0.15829145274E+04  0.98072771634E+03 0.  0.
        5    1    3    3  502    0 -0.48350513102E+01 -0.43723721272E+03 -0.26311317339E+03  0.51034340392E+03  0.46999998093E+01 0.  1.
       -5    1    3    3    0  502  0.48350513102E+01  0.43723721272E+03 -0.97938091012E+03  0.10725711235E+04  0.46999998093E+01 0. -1.
</event>
<event>
 5   0  0.6137243E-03  0.8894775E+03  0.7818609E-02  0.9438831E-01
       -1   -1    0    0    0  501  0.00000000000E+00  0.00000000000E+00  0.20716360912E+03  0.20716360918E+03  0.50400001928E-02 0. -1.
        1   -1    0    0  501    0  0.00000000000E+00  0.00000000000E+00 -0.95476506184E+03  0.95476506185E+03  0.50400001928E-02 0.  1.
    10030    2    1    2    0    0  0.00000000000E+00  0.00000000000E+00 -0.74760145272E+03  0.11619286710E+04  0.88947754578E+03 0.  0.
        4    1    3    3  502    0 -0.13836511282E+03 -0.42216787278E+03 -0.34701842353E+03  0.56373222050E+03  0.12699999809E+01 0. -1.
       -4    1    3    3    0  502  0.13836511282E+03  0.42216787278E+03 -0.40058302919E+03  0.59819645053E+03  0.12699999809E+01 0.  1.
</event>
<event>
 5   0  0.1028978E-02  0.9015766E+03  0.7818609E-02  0.9423613E-01
        2   -1    0    0  501    0  0.00000000000E+00  0.00000000000E+00  0.20871340588E+04  0.20871340588E+04  0.25500000920E-02 0.  1.
       -2   -1    0    0    0  501  0.00000000000E+00  0.00000000000E+00 -0.97363220426E+02  0.97363220459E+02  0.25500000920E-02 0. -1.
    10030    2    1    2    0    0  0.00000000000E+00  0.00000000000E+00  0.19897708384E+04  0.21844972793E+04  0.90157660454E+03 0.  0.
        3    1    3    3  502    0 -0.32709068625E+03  0.19507437881E+03  0.41051258547E+03  0.55996689485E+03  0.10100000352E+00 0. -1.
       -3    1    3    3    0  502  0.32709068625E+03 -0.19507437881E+03  0.15792582529E+04  0.16245303844E+04  0.10100000352E+00 0.  1.
</event>
<event>
 5   0  0.6211218E-03  0.9008437E+03  0.7818609E-02  0.9424527E-01
        1   -1    0    0  501    0  0.00000000000E+00  0.00000000000E+00  0.49176573825E+03  0.49176573827E+03  0.50400001928E-02 0.  1.
       -1   -1    0    0    0  501  0.00000000000E+00  0.00000000000E+00 -0.41255386259E+03  0.41255386262E+03  0.50400001928E-02 0. -1.
    10030    2    1    2    0    0  0.00000000000E+00  0.00000000000E+00  0.79211875655E+02  0.90431960089E+03  0.90084372636E+03 0.  0.
        5    1    3    3  502    0  0.19131404657E+03 -0.44194922082E+02  0.44651363531E+03  0.48780198038E+03  0.46999998093E+01 0.  1.
       -5    1    3    3    0  502 -0.19131404657E+03  0.44194922082E+02 -0.36730175965E+03  0.41651762051E+03  0.46999998093E+01 0. -1.
</event>
<event>
 5   0  0.6015709E-03  0.9137094E+03  0.7818609E-02  0.9408604E-01
       -1   -1    0    0    0  501  0.00000000000E+00  0.00000000000E+00  0.11589550212E+03  0.11589550223E+03  0.50400001928E-02 0.  1.
        1   -1    0    0  501    0  0.00000000000E+00  0.00000000000E+00 -0.18009000744E+04  0.18009000744E+04  0.50400001928E-02 0. -1.
    10030    2    1    2    0    0  0.00000000000E+00  0.00000000000E+00 -0.16850045723E+04  0.19167955767E+04  0.91370940349E+03 0.  0.
        3    1    3    3  502    0  0.13184867523E+03  0.35199775735E+03 -0.13872474241E+04  0.14372689102E+04  0.10100000352E+00 0. -1.
       -3    1    3    3    0  502 -0.13184867523E+03 -0.35199775735E+03 -0.29775714818E+03  0.47952666645E+03  0.10100000352E+00 0.  1.
</event>
<event>
 5   0  0.6092779E-03  0.8952835E+03  0.7818609E-02  0.9431497E-01
        1   -1    0    0  501    0  0.00000000000E+00  0.00000000000E+00  0.10235060092E+04  0.10235060092E+04  0.50400001928E-02 0. -1.
       -1   -1    0    0    0  501  0.00000000000E+00  0.00000000000E+00 -0.19578110585E+03  0.19578110592E+03  0.50400001928E-02 0.  1.
    10030    2    1    2    0    0  0.00000000000E+00  0.00000000000E+00  0.82772490332E+03  0.12192871151E+04  0.89528350452E+03 0.  0.
        2    1    3    3  502    0  0.25880320240E+03  0.25297216374E+03  0.77266348647E+03  0.85321912574E+03  0.25500000920E-02 0. -1.
       -2    1    3    3    0  502 -0.25880320240E+03 -0.25297216374E+03  0.55061416843E+02  0.36606798935E+03  0.25500000920E-02 0.  1.
</event>
<event>
 5   0  0.1003252E-02  0.9106086E+03  0.7818609E-02  0.9412417E-01
       -2   -1    0    0    0  501  0.00000000000E+00  0.00000000000E+00  0.63174413234E+03  0.63174413235E+03  0.25500000920E-02 0. -1.
        2   -1    0    0  501    0  0.00000000000E+00  0.00000000000E+00 -0.32814232969E+03  0.32814232970E+03  0.25500000920E-02 0.  1.
    10030    2    1    2    0    0  0.00000000000E+00  0.00000000000E+00  0.30360180265E+03  0.95988646205E+03  0.91060856874E+03 0.  0.
        2    1    3    3  502    0 -0.31163078826E+03 -0.15808292217E+03 -0.15588168512E+03  0.38262652579E+03  0.25500000920E-02 0.  1.
       -2    1    3    3    0  502  0.31163078826E+03  0.15808292217E+03  0.45948348777E+03  0.57725993626E+03  0.25500000920E-02 0. -1.
</event>
<event>
 5   0  0.6092779E-03  0.9056874E+03  0.7818609E-02  0.9418500E-01
        1   -1    0    0  501    0  0.00000000000E+00  0.00000000000E+00  0.85224903213E+03  0.85224903215E+03  0.50400001928E-02 0.  1.
       -1   -1    0    0    0  501  0.00000000000E+00  0.00000000000E+00 -0.24061914687E+03  0.24061914692E+03  0.50400001928E-02 0. -1.
    10030    2    1    2    0    0  0.00000000000E+00  0.00000000000E+00  0.61162988526E+03  0.10928681791E+04  0.90568744072E+03 0.  0.
        2    1    3    3  502    0 -0.87167842434E+02 -0.31732161806E+02 -0.22903138327E+03  0.24710430465E+03  0.25500000920E-02 0. -1.
       -2    1    3    3    0  502  0.87167842434E+02  0.31732161806E+02  0.84066126853E+03  0.84576387442E+03  0.25500000920E-02 0.  1.
</event>
<event>
 5   0  0.6092779E-03  0.9113331E+03  0.7818609E-02  0.9411524E-01
        1   -1    0    0  501    0  0.00000000000E+00  0.00000000000E+00  0.31188408092E+03  0.31188408096E+03  0.50400001928E-02 0.  1.
       -1   -1    0    0    0  501  0.00000000000E+00  0.00000000000E+00 -0.66573452051E+03  0.66573452053E+03  0.50400001928E-02 0. -1.
    10030    2    1    2    0    0  0.00000000000E+00  0.00000000000E+00 -0.35385043959E+03  0.97761860149E+03  0.91133308751E+03 0.  0.
        2    1    3    3  502    0 -0.21203762507E+03  0.39821306145E+03 -0.10825007037E+03  0.46395223300E+03  0.25500000920E-02 0.  1.
       -2    1    3    3    0  502  0.21203762507E+03 -0.39821306145E+03 -0.24560036922E+03  0.51366636850E+03  0.25500000920E-02 0. -1.
</event>
<event>
 5   0  0.6015709E-03  0.9050246E+03  0.7818609E-02  0.9419322E-01
        1   -1    0    0  501    0  0.00000000000E+00  0.00000000000E+00  0.34039382406E+03  0.34039382410E+03  0.50400001928E-02 0.  1.
       -1   -1    0    0    0  501  0.00000000000E+00  0.00000000000E+00 -0.60156025126E+03  0.60156025129E+03  0.50400001928E-02 0. -1.
    10030    2    1    2    0    0  0.00000000000E+00  0.00000000000E+00 -0.26116642720E+03  0.94195407539E+03  0.90502462808E+03 0.  0.
        3    1    3    3  502    0  0.38746824950E+03  0.10341277288E+03  0.87592778538E+02  0.41048550646E+03  0.10100000352E+00 0. -1.
       -3    1    3    3    0  502 -0.38746824950E+03 -0.10341277288E+03 -0.34875920574E+03  0.53146856892E+03  0.10100000352E+00 0.  1.
</event>
<event>
 5   0  0.1017079E-02  0.8774096E+03  0.7818609E-02  0.9454270E-01
       -2   -1    0    0    0  501  0.00000000000E+00  0.00000000000E+00  0.26553660389E+03  0.26553660390E+03  0.25500000920E-02 0. -1.
        2   -1    0    0  501    0  0.00000000000E+00  0.00000000000E+00 -0.72480373201E+03  0.72480373202E+03  0.25500000920E-02 0.  1.
    10030    2    1    2    0    0  0.00000000000E+00  0.00000000000E+00 -0.45926712813E+03  0.99034033592E+03  0.87740964547E+03 0.  0.
        1    1    3    3  502    0  0.22777520285E+03  0.59922583183E+02 -0.64739270497E+03  0.68890461856E+03  0.50400001928E-02 0.  1.
       -1    1    3    3    0  502 -0.22777520285E+03 -0.59922583183E+02  0.18812557684E+03  0.30143571735E+03  0.50400001928E-02 0. -1.
</event>
<event>
 5   0  0.1041727E-02  0.9027100E+03  0.7818609E-02  0.9422200E-01
        2   -1    0    0  501    0  0.00000000000E+00  0.00000000000E+00  0.27430423529E+03  0.27430423531E+03  0.25500000920E-02 0.  1.
       -2   -1    0    0    0  501  0.00000000000E+00  0.00000000000E+00 -0.74268394629E+03  0.74268394630E+03  0.25500000920E-02 0. -1.
    10030    2    1    2    0    0  0.00000000000E+00  0.00000000000E+00 -0.46837971100E+03  0.10169881816E+04  0.90271003531E+03 0.  0.
        4    1    3    3  502    0  0.17199321062E+03  0.17713155760E+03 -0.65986146577E+03  0.70453958022E+03  0.12699999809E+01 0. -1.
       -4    1    3    3    0  502 -0.17199321062E+03 -0.17713155760E+03  0.19148175477E+03  0.31244860138E+03  0.12699999809E+01 0.  1.
</event>
<event>
 5   0  0.6288003E-03  0.8980748E+03  0.7818609E-02  0.9427991E-01
       -1   -1    0    0    0  501  0.00000000000E+00  0.00000000000E+00  0.16856920287E+03  0.16856920294E+03  0.50400001928E-02 0. -1.
        1   -1    0    0  501    0  0.00000000000E+00  0.00000000000E+00 -0.11961531646E+04  0.11961531646E+04  0.50400001928E-02 0.  1.
    10030    2    1    2    0    0  0.00000000000E+00  0.00000000000E+00 -0.10275839618E+04  0.13647223676E+04  0.89807479761E+03 0.  0.
        1    1    3    3  502    0 -0.67661568742E+02 -0.20116125404E+03 -0.11151245277E+04  0.11351416874E+04  0.50400001928E-02 0.  1.
       -1    1    3    3    0  502  0.67661568742E+02  0.20116125404E+03  0.87540565971E+02  0.22958068022E+03  0.50400001928E-02 0. -1.
</event>
<event>
 5   0  0.1017079E-02  0.8992811E+03  0.7818609E-02  0.9426481E-01
       -2   -1    0    0    0  501  0.00000000000E+00  0.00000000000E+00  0.19485502057E+03  0.19485502059E+03  0.25500000920E-02 0.  1.
        2   -1    0    0  501    0  0.00000000000E+00  0.00000000000E+00 -0.10375745742E+04  0.10375745742E+04  0.25500000920E-02 0. -1.
    10030    2    1    2    0    0  0.00000000000E+00  0.00000000000E+00 -0.84271955366E+03  0.12324295948E+04  0.89928107956E+03 0.  0.
        1    1    3    3  502    0 -0.66381974403E+02  0.28991884033E+03  0.40786627128E+02  0.30020501242E+03  0.50400001928E-02 0.  1.
       -1    1    3    3    0  502  0.66381974403E+02 -0.28991884033E+03 -0.88350618079E+03  0.93222458240E+03  0.50400001928E-02 0. -1.
</event>
<event>
 5   0  0.1041727E-02  0.9108105E+03  0.7818609E-02  0.9412168E-01
       -2   -1    0    0    0  501  0.00000000000E+00  0.00000000000E+00  0.15106297684E+03  0.15106297686E+03  0.25500000920E-02 0.  1.
        2   -1    0    0  501    0  0.00000000000E+00  0.00000000000E+00 -0.13728970758E+04  0.13728970758E+04  0.25500000920E-02 0. -1.
    10030    2    1    2    0    0  0.00000000000E+00  0.00000000000E+00 -0.12218340989E+04  0.15239600526E+04  0.91081045047E+03 0.  0.
        4    1    3    3  502    0 -0.14472425703E+03 -0.13551030777E+03 -0.12968931135E+04  0.13119609426E+04  0.12699999809E+01 0. -1.
       -4    1    3    3    0  502  0.14472425703E+03  0.13551030777E+03  0.75059014589E+02  0.21199911004E+03  0.12699999809E+01 0.  1.
</event>
<event>
 5   0  0.1033749E-02  0.9028540E+03  0.7818609E-02  0.9422021E-01
       -2   -1    0    0    0  501  0.00000000000E+00  0.00000000000E+00  0.11911289924E+03  0.11911289926E+03  0.25500000920E-02 0.  1.
        2   -1    0    0  501    0  0.00000000000E+00  0.00000000000E+00 -0.17108671841E+04  0.17108671841E+04  0.25500000920E-02 0. -1.
    10030    2    1    2    0    0  0.00000000000E+00  0.00000000000E+00 -0.15917542849E+04  0.18299800834E+04  0.90285403146E+03 0.  0.
        5    1    3    3  502    0  0.20556144301E+03 -0.36004085144E+03 -0.43398139877E+03  0.60020568644E+03  0.46999998093E+01 0.  1.
       -5    1    3    3    0  502 -0.20556144301E+03  0.36004085144E+03 -0.11577728861E+04  0.12297743969E+04  0.46999998093E+01 0. -1.
</event>
<event>
 5   0  0.1017079E-02  0.8970432E+03  0.7818609E-02  0.9429285E-01
       -2   -1    0    0    0  501  0.00000000000E+00  0.00000000000E+00  0.85334327464E+03  0.85334327465E+03  0.25500000920E-02 0.  1.
        2   -1    0    0  501    0  0.00000000000E+00  0.00000000000E+00 -0.23574525909E+03  0.23574525910E+03  0.25500000920E-02 0. -1.
    10030    2    1    2    0    0  0.00000000000E+00  0.00000000000E+00  0.61759801555E+03  0.10890885338E+04  0.89704321274E+03 0.  0.
        1    1    3    3  502    0 -0.15676171161E+03  0.41645164575E+03  0.37710609376E+03  0.58327970430E+03  0.50400001928E-02 0. -1.
       -1    1    3    3    0  502  0.15676171161E+03 -0.41645164575E+03  0.24049192180E+03  0.50580882945E+03  0.50400001928E-02 0.  1.
</event>
<event>
 5   0  0.1033749E-02  0.9127434E+03  0.7818609E-02  0.9409790E-01
        2   -1    0    0  501    0  0.00000000000E+00  0.00000000000E+00  0.17626480670E+04  0.17626480670E+04  0.25500000920E-02 0. -1.
       -2   -1    0    0    0  501  0.00000000000E+00  0.00000000000E+00 -0.11816036599E+03  0.11816036602E+03  0.25500000920E-02 0.  1.
    10030    2    1    2    0    0  0.00000000000E+00  0.00000000000E+00  0.16444877011E+04  0.18808084331E+04  0.91274342669E+03 0.  0.
        5    1    3    3  502    0 -0.15199799827E+03 -0.41980537310E+03  0.10167845322E+04  0.11105011561E+04  0.46999998093E+01 0. -1.
       -5    1    3    3    0  502  0.15199799827E+03  0.41980537310E+03  0.62770316881E+03  0.77030727693E+03  0.46999998093E+01 0.  1.
</event>
<event>
 5   0  0.1017079E-02  0.8979623E+03  0.7818609E-02  0.9428132E-01
        2   -1    0    0  501    0  0.00000000000E+00  0.00000000000E+00  0.48374392238E+03  0.48374392239E+03  0.25500000920E-02 0.  1.
       -2   -1    0    0    0  501  0.00000000000E+00  0.00000000000E+00 -0.41671651105E+03  0.41671651106E+03  0.25500000920E-02 0. -1.
    10030    2    1    2    0    0  0.00000000000E+00  0.00000000000E+00  0.67027411326E+02  0.90046043345E+03  0.89796231454E+03 0.  0.
        1    1    3    3  502    0  0.85057564977E+02  0.20456343588E+03 -0.35808914701E+03  0.42108054561E+03  0.50400001928E-02 0. -1.
       -1    1    3    3    0  502 -0.85057564977E+02 -0.20456343588E+03  0.42511655834E+03  0.47937988783E+03  0.50400001928E-02 0.  1.
</event>
<event>
 5   0  0.6137243E-03  0.8975227E+03  0.7818609E-02  0.9428683E-01
        1   -1    0    0  501    0  0.00000000000E+00  0.00000000000E+00  0.26735805818E+03  0.26735805823E+03  0.50400001928E-02 0.  1.
       -1   -1    0    0    0  501  0.00000000000E+00  0.00000000000E+00 -0.75324736644E+03  0.75324736646E+03  0.50400001928E-02 0. -1.
    10030    2    1    2    0    0  0.00000000000E+00  0.00000000000E+00 -0.48588930826E+03  0.10206054247E+04  0.89752270891E+03 0.  0.
        4    1    3    3  502    0 -0.26800613365E+02 -0.34794879062E+03 -0.56376720409E+03  0.66303974774E+03  0.12699999809E+01 0. -1.
       -4    1    3    3    0  502  0.26800613365E+02  0.34794879062E+03  0.77877895835E+02  0.35756567694E+03  0.12699999809E+01 0.  1.
</event>
<event>
 5   0  0.6015709E-03  0.9002132E+03  0.7818609E-02  0.9425315E-01
        1   -1    0    0  501    0  0.00000000000E+00  0.00000000000E+00  0.22729133700E+04  0.22729133700E+04  0.50400001928E-02 0. -1.
       -1   -1    0    0    0  501  0.00000000000E+00  0.00000000000E+00 -0.89134913306E+02  0.89134913449E+02  0.50400001928E-02 0.  1.
    10030    2    1    2    0    0  0.00000000000E+00  0.00000000000E+00  0.21837784567E+04  0.23620482834E+04  0.90021316667E+03 0.  0.
        3    1    3    3  502    0  0.11692306315E+03 -0.43277871778E+03  0.11977425675E+04  0.12788884586E+04  0.10100000352E+00 0. -1.
       -3    1    3    3    0  502 -0.11692306315E+03  0.43277871778E+03  0.98603588912E+03  0.10831598248E+04  0.10100000352E+00 0.  1.
</event>
<event>
 5   0  0.1017079E-02  0.9119939E+03  0.7818609E-02  0.9410711E-01
        2   -1    0    0  501    0  0.00000000000E+00  0.00000000000E+00  0.37872277554E+03  0.37872277555E+03  0.25500000920E-02 0. -1.
       -2   -1    0    0    0  501  0.00000000000E+00  0.00000000000E+00 -0.54903806933E+03  0.54903806934E+03  0.25500000920E-02 0.  1.
    10030    2    1    2    0    0  0.00000000000E+00  0.00000000000E+00 -0.17031529379E+03  0.92776084489E+03  0.91199390678E+03 0.  0.
        1    1    3    3  502    0 -0.27785227296E+02  0.44301209140E+03 -0.19137293298E+03  0.48337907638E+03  0.50400001928E-02 0.  1.
       -1    1    3    3    0  502  0.27785227296E+02 -0.44301209140E+03  0.21057639186E+02  0.44438176850E+03  0.50400001928E-02 0. -1.
</event>
<event>
 5   0  0.6092779E-03  0.9199603E+03  0.7818609E-02  0.9400968E-01
       -1   -1    0    0    0  501  0.00000000000E+00  0.00000000000E+00  0.34575068967E+03  0.34575068971E+03  0.50400001928E-02 0.  1.
        1   -1    0    0  501    0  0.00000000000E+00  0.00000000000E+00 -0.61194887644E+03  0.61194887646E+03  0.50400001928E-02 0. -1.
    10030    2    1    2    0    0  0.00000000000E+00  0.00000000000E+00 -0.26619818677E+03  0.95769956617E+03  0.91996031676E+03 0.  0.
        2    1    3    3  502    0 -0.22441778699E+03  0.34299505680E+03 -0.35040318363E+03  0.53925072389E+03  0.25500000920E-02 0. -1.
       -2    1    3    3    0  502  0.22441778699E+03 -0.34299505680E+03  0.84204996856E+02  0.41844884229E+03  0.25500000920E-02 0.  1.
</event>
<event>
 5   0  0.1003252E-02  0.9050160E+03  0.7818609E-02  0.9419333E-01
        2   -1    0    0  501    0  0.00000000000E+00  0.00000000000E+00  0.31959109509E+03  0.31959109510E+03  0.25500000920E-02 0.  1.
       -2   -1    0    0    0  501  0.00000000000E+00  0.00000000000E+00 -0.64070467845E+03  0.64070467845E+03  0.25500000920E-02 0. -1.
    10030    2    1    2    0    0  0.00000000000E+00  0.00000000000E+00 -0.32111358335E+03  0.96029577355E+03  0.90501604367E+03 0.  0.
        2    1    3    3  502    0  0.41065483285E+03 -0.18838789781E+03 -0.18731873173E+03  0.48909681970E+03  0.25500000920E-02 0. -1.
       -2    1    3    3    0  502 -0.41065483285E+03  0.18838789781E+03 -0.13379485162E+03  0.47119895385E+03  0.25500000920E-02 0.  1.
</event>
<event>
 5   0  0.6137243E-03  0.8851766E+03  0.7818609E-02  0.9444303E-01
        1   -1    0    0  501    0  0.00000000000E+00  0.00000000000E+00  0.32246580237E+03  0.32246580241E+03  0.50400001928E-02 0. -1.
       -1   -1    0    0    0  501  0.00000000000E+00  0.00000000000E+00 -0.60745788831E+03  0.60745788833E+03  0.50400001928E-02 0.  1.
    10030    2    1    2    0    0  0.00000000000E+00  0.00000000000E+00 -0.28499208594E+03  0.92992369074E+03  0.88517658213E+03 0.  0.
        4    1    3    3  502    0 -0.99008740705E+02  0.18283089679E+03 -0.55295519809E+03  0.59075454425E+03  0.12699999809E+01 0.  1.
       -4    1    3    3    0  502  0.99008740705E+02 -0.18283089679E+03  0.26796311215E+03  0.33916914649E+03  0.12699999809E+01 0. -1.
</event>
<event>
 5   0  0.1033749E-02  0.8323174E+03  0.7818609E-02  0.9514382E-01
       -2   -1    0    0    0  501  0.00000000000E+00  0.00000000000E+00  0.37310919577E+03  0.37310919578E+03  0.25500000920E-02 0.  1.
        2   -1    0    0  501    0  0.00000000000E+00  0.00000000000E+00 -0.46417527760E+03  0.46417527761E+03  0.25500000920E-02 0. -1.
    10030    2    1    2    0    0  0.00000000000E+00  0.00000000000E+00 -0.91066081834E+02  0.83728447339E+03  0.83231740227E+03 0.  0.
        5    1    3    3  502    0  0.25326148419E+03 -0.32222386744E+03 -0.11804911438E+03  0.42652934662E+03  0.46999998093E+01 0.  1.
       -5    1    3    3    0  502 -0.25326148419E+03  0.32222386744E+03  0.26983032547E+02  0.41075512677E+03  0.46999998093E+01 0. -1.
</event>
<event>
 5   0  0.6137243E-03  0.9019379E+03  0.7818609E-02  0.9423162E-01
       -1   -1    0    0    0  501  0.00000000000E+00  0.00000000000E+00  0.46405591382E+03  0.46405591385E+03  0.50400001928E-02 0.  1.
        1   -1    0    0  501    0  0.00000000000E+00  0.00000000000E+00 -0.43825108307E+03  0.43825108310E+03  0.50400001928E-02 0. -1.
    10030    2    1    2    0    0  0.00000000000E+00  0.00000000000E+00  0.25804830753E+02  0.90230699695E+03  0.90193792882E+03 0.  0.
        4    1    3    3  502    0 -0.31805698565E+03 -0.27950803515E+03 -0.14235904866E+03  0.44671321837E+03  0.12699999809E+01 0. -1.
       -4    1    3    3    0  502  0.31805698565E+03  0.27950803515E+03  0.16816387942E+03  0.45559377857E+03  0.12699999809E+01 0.  1.
</event>
<event>
 5   0  0.1017079E-02  0.8974187E+03  0.7818609E-02  0.9428814E-01
       -2   -1    0    0    0  501  0.00000000000E+00  0.00000000000E+00  0.38792345126E+03  0.38792345126E+03  0.25500000920E-02 0.  1.
        2   -1    0    0  501    0  0.00000000000E+00  0.00000000000E+00 -0.51902011098E+03  0.51902011098E+03  0.25500000920E-02 0. -1.
    10030    2    1    2    0    0  0.00000000000E+00  0.00000000000E+00 -0.13109665972E+03  0.90694356225E+03  0.89741868206E+03 0.  0.
        1    1    3    3  502    0 -0.34491123795E+03  0.83671123700E+02 -0.34300816620E+03  0.49357797876E+03  0.50400001928E-02 0. -1.
       -1    1    3    3    0  502  0.34491123795E+03 -0.83671123700E+02  0.21191150648E+03  0.41336558349E+03  0.50400001928E-02 0.  1.
</event>
<event>
 5   0  0.6092779E-03  0.8957376E+03  0.7818609E-02  0.9430925E-01
        1   -1    0    0  501    0  0.00000000000E+00  0.00000000000E+00  0.46604378449E+03  0.46604378452E+03  0.50400001928E-02 0. -1.
       -1   -1    0    0    0  501  0.00000000000E+00  0.00000000000E+00 -0.43040259077E+03  0.43040259079E+03  0.50400001928E-02 0.  1.
    10030    2    1    2    0    0  0.00000000000E+00  0.00000000000E+00  0.35641193724E+02  0.89644637531E+03  0.89573757827E+03 0.  0.
        2    1    3    3  502    0 -0.28294180543E+03 -0.23512351410E+03 -0.23781707911E+03  0.43805946545E+03  0.25500000920E-02 0.  1.
       -2    1    3    3    0  502  0.28294180543E+03  0.23512351410E+03  0.27345827284E+03  0.45838690986E+03  0.25500000920E-02 0. -1.
</event>
<event>
 5   0  0.6092779E-03  0.9024759E+03  0.7818609E-02  0.9422492E-01
        1   -1    0    0  501    0  0.00000000000E+00  0.00000000000E+00  0.10554584896E+04  0.10554584896E+04  0.50400001928E-02 0.  1.
       -1   -1    0    0    0  501  0.00000000000E+00  0.00000000000E+00 -0.19291683026E+03  0.19291683033E+03  0.50400001928E-02 0. -1.
    10030    2    1    2    0    0  0.00000000000E+00  0.00000000000E+00  0.86254165929E+03  0.12483753199E+04  0.90247594168E+03 0.  0.
        2    1    3    3  502    0 -0.13733296237E+03  0.28234165975E+03  0.87958648186E+03  0.93394300386E+03  0.25500000920E-02 0.  1.
       -2    1    3    3    0  502  0.13733296237E+03 -0.28234165975E+03 -0.17044822567E+02  0.31443231604E+03  0.25500000920E-02 0. -1.
</event>
<event>
 5   0  0.6015709E-03  0.8974396E+03  0.7818609E-02  0.9428788E-01
        1   -1    0    0  501    0  0.00000000000E+00  0.00000000000E+00  0.33491780501E+03  0.33491780505E+03  0.50400001928E-02 0. -1.
       -1   -1    0    0    0  501  0.00000000000E+00  0.00000000000E+00 -0.60119065680E+03  0.60119065682E+03  0.50400001928E-02 0.  1.
    10030    2    1    2    0    0  0.00000000000E+00  0.00000000000E+00 -0.26627285179E+03  0.93610846187E+03  0.89743959172E+03 0.  0.
        3    1    3    3  502    0  0.42543813426E+03  0.86601751877E+02 -0.14885135095E+02  0.43441805552E+03  0.10100000352E+00 0. -1.
       -3    1    3    3    0  502 -0.42543813426E+03 -0.86601751877E+02 -0.25138771670E+03  0.50169040635E+03  0.10100000352E+00 0.  1.
</event>
<event>
 5   0  0.6211218E-03  0.9274358E+03  0.7818609E-02  0.9391921E-01
        1   -1    0    0  501    0  0.00000000000E+00  0.00000000000E+00  0.74059068053E+03  0.74059068055E+03  0.50400001928E-02 0.  1.
       -1   -1    0    0    0  501  0.00000000000E+00  0.00000000000E+00 -0.29035511598E+03  0.29035511602E+03  0.50400001928E-02 0. -1.
    10030    2    1    2    0    0  0.00000000000E+00  0.00000000000E+00  0.45023556455E+03  0.10309457966E+04  0.92743580472E+03 0.  0.
        5    1    3    3  502    0 -0.12830812964E+03 -0.18826948952E+03  0.67405338505E+03  0.71153245373E+03  0.46999998093E+01 0.  1.
       -5    1    3    3    0  502  0.12830812964E+03  0.18826948952E+03 -0.22381782050E+03  0.31941334284E+03  0.46999998093E+01 0. -1.
</event>
<event>
 5   0  0.6137243E-03  0.9005167E+03  0.7818609E-02  0.9424936E-01
        1   -1    0    0  501    0  0.00000000000E+00  0.00000000000E+00  0.45079861360E+03  0.45079861363E+03  0.50400001928E-02 0. -1.
       -1   -1    0    0    0  501  0.00000000000E+00  0.00000000000E+00 -0.44971874727E+03  0.44971874730E+03  0.50400001928E-02 0.  1.
    10030    2    1    2    0    0  0.00000000000E+00  0.00000000000E+00  0.10798663296E+01  0.90051736093E+03  0.90051671346E+03 0.  0.
        4    1    3    3  502    0 -0.33832502454E+03 -0.22098377108E+03 -0.19803847025E+03  0.45002055276E+03  0.12699999809E+01 0.  1.
       -4    1    3    3    0  502  0.33832502454E+03  0.22098377108E+03  0.19911833658E+03  0.45049680817E+03  0.12699999809E+01 0. -1.
</event>
<event>
 5   0  0.1041727E-02  0.8872695E+03  0.7818609E-02  0.9441637E-01
       -2   -1    0    0    0  501  0.00000000000E+00  0.00000000000E+00  0.30205948400E+03  0.30205948401E+03  0.25500000920E-02 0. -1.
        2   -1    0    0  501    0  0.00000000000E+00  0.00000000000E+00 -0.65156633731E+03  0.65156633732E+03  0.25500000920E-02 0.  1.
    10030    2    1    2    0    0  0.00000000000E+00  0.00000000000E+00 -0.34950685332E+03  0.95362582133E+03  0.88726950054E+03 0.  0.
        4    1    3    3  502    0  0.49301844841E+02 -0.26368799651E+03 -0.55451717026E+03  0.61599751333E+03  0.12699999809E+01 0.  1.
       -4    1    3    3    0  502 -0.49301844841E+02  0.26368799651E+03  0.20501031695E+03  0.33762830800E+03  0.12699999809E+01 0. -1.
</event>
<event>
 5   0  0.1017079E-02  0.8930079E+03  0.7818609E-02  0.9434364E-01
       -2   -1    0    0    0  501  0.00000000000E+00  0.00000000000E+00  0.12148156124E+03  0.12148156127E+03  0.25500000920E-02 0.  1.
        2   -1    0    0  501    0  0.00000000000E+00  0.00000000000E+00 -0.16411197280E+04  0.16411197280E+04  0.25500000920E-02 0. -1.
    10030    2    1    2    0    0  0.00000000000E+00  0.00000000000E+00 -0.15196381668E+04  0.17626012893E+04  0.89300792106E+03 0.  0.
        1    1    3    3  502    0  0.33813977424E+03 -0.21015972054E+03 -0.36084115972E+03  0.53731923252E+03  0.50400001928E-02 0.  1.
       -1    1    3    3    0  502 -0.33813977424E+03  0.21015972054E+03 -0.11587970071E+04  0.12252820568E+04  0.50400001928E-02 0. -1.
</event>
<event>
 5   0  0.1033749E-02  0.8982727E+03  0.7818609E-02  0.9427743E-01
       -2   -1    0    0    0  501  0.00000000000E+00  0.00000000000E+00  0.86416593854E+02  0.86416593891E+02  0.25500000920E-02 0. -1.
        2   -1    0    0  501    0  0.00000000000E+00  0.00000000000E+00 -0.23343141985E+04  0.23343141985E+04  0.25500000920E-02 0.  1.
    10030    2    1    2    0    0  0.00000000000E+00  0.00000000000E+00 -0.22478976046E+04  0.24207307924E+04  0.89827274715E+03 0.  0.
        5    1    3    3  502    0  0.97573592873E+02 -0.33467892478E+02  0.53993280232E+02  0.11652497656E+03  0.46999998093E+01 0. -1.
       -5    1    3    3    0  502 -0.97573592873E+02  0.33467892478E+02 -0.23018908849E+04  0.23042058158E+04  0.46999998093E+01 0.  1.
</event>
<event>
 5   0  0.1003252E-02  0.9031805E+03  0.7818609E-02  0.9421614E-01
        2   -1    0    0  501    0  0.00000000000E+00  0.00000000000E+00  0.10555921232E+04  0.10555921232E+04  0.25500000920E-02 0. -1.
       -2   -1    0    0    0  501  0.00000000000E+00  0.00000000000E+00 -0.19319370956E+03  0.19319370958E+03  0.25500000920E-02 0.  1.
    10030    2    1    2    0    0  0.00000000000E+00  0.00000000000E+00  0.86239841367E+03  0.12487858328E+04  0.90318050928E+03 0.  0.
        2    1    3    3  502    0 -0.30663646564E+03  0.20130538268E+03  0.79540177756E+03  0.87590739631E+03  0.25500000920E-02 0. -1.
       -2    1    3    3    0  502  0.30663646564E+03 -0.20130538268E+03  0.66996636111E+02  0.37287843651E+03  0.25500000920E-02 0.  1.
</event>
<event>
 5   0  0.6092779E-03  0.8959468E+03  0.7818609E-02  0.9430662E-01
        1   -1    0    0  501    0  0.00000000000E+00  0.00000000000E+00  0.12781602873E+04  0.12781602873E+04  0.50400001928E-02 0. -1.
       -1   -1    0    0    0  501  0.00000000000E+00  0.00000000000E+00 -0.15700703196E+03  0.15700703204E+03  0.50400001928E-02 0.  1.
    10030    2    1    2    0    0  0.00000000000E+00  0.00000000000E+00  0.11211532553E+04  0.14351673194E+04  0.89594676883E+03 0.  0.
        2    1    3    3  502    0  0.37612723606E+03 -0.16860620328E+03  0.27954352108E+03  0.49804048999E+03  0.25500000920E-02 0.  1.
       -2    1    3    3    0  502 -0.37612723606E+03  0.16860620328E+03  0.84160973427E+03  0.93712682936E+03  0.25500000920E-02 0. -1.
</event>
<event>
 5   0  0.6288003E-03  0.9485137E+03  0.7818609E-02  0.9366889E-01
        1   -1    0    0  501    0  0.00000000000E+00  0.00000000000E+00  0.11539333530E+03  0.11539333541E+03  0.50400001928E-02 0. -1.
       -1   -1    0    0    0  501  0.00000000000E+00  0.00000000000E+00 -0.19491557148E+04  0.19491557148E+04  0.50400001928E-02 0.  1.
    10030    2    1    2    0    0  0.00000000000E+00  0.00000000000E+00 -0.18337623795E+04  0.20645490502E+04  0.94851374068E+03 0.  0.
        1    1    3    3  502    0  0.30199861470E+02 -0.47315005296E+03 -0.89144413356E+03  0.10096809632E+04  0.50400001928E-02 0. -1.
       -1    1    3    3    0  502 -0.30199861470E+02  0.47315005296E+03 -0.94231824597E+03  0.10548680870E+04  0.50400001928E-02 0.  1.
</event>
<event>
 5   0  0.1033749E-02  0.9122792E+03  0.7818609E-02  0.9410361E-01
       -2   -1    0    0    0  501  0.00000000000E+00  0.00000000000E+00  0.42646337786E+03  0.42646337787E+03  0.25500000920E-02 0. -1.
        2   -1    0    0  501    0  0.00000000000E+00  0.00000000000E+00 -0.48788092680E+03  0.48788092681E+03  0.25500000920E-02 0.  1.
    10030    2    1    2    0    0  0.00000000000E+00  0.00000000000E+00 -0.61417548942E+02  0.91434430467E+03  0.91227922928E+03 0.  0.
        5    1    3    3  502    0  0.18430777694E+03 -0.39373721598E+03  0.10759963617E+03  0.44788181878E+03  0.46999998093E+01 0. -1.
       -5    1    3    3    0  502 -0.18430777694E+03  0.39373721598E+03 -0.16901718511E+03  0.46646248590E+03  0.46999998093E+01 0.  1.
</event>
<event>
 5   0  0.1017079E-02  0.9023201E+03  0.7818609E-02  0.9422686E-01
       -2   -1    0    0    0  501  0.00000000000E+00  0.00000000000E+00  0.29561953553E+03  0.29561953554E+03  0.25500000920E-02 0.  1.
        2   -1    0    0  501    0  0.00000000000E+00  0.00000000000E+00 -0.68853839784E+03  0.68853839784E+03  0.25500000920E-02 0. -1.
    10030    2    1    2    0    0  0.00000000000E+00  0.00000000000E+00 -0.39291886231E+03  0.98415793338E+03  0.90232012361E+03 0.  0.
        1    1    3    3  502    0  0.38446970568E+03  0.23040008754E+03 -0.25254551500E+03  0.51447098276E+03  0.50400001928E-02 0.  1.
       -1    1    3    3    0  502 -0.38446970568E+03 -0.23040008754E+03 -0.14037334731E+03  0.46968695062E+03  0.50400001928E-02 0. -1.
</event>
<event>
 5   0  0.6211218E-03  0.8398923E+03  0.7818609E-02  0.9504004E-01
       -1   -1    0    0    0  501  0.00000000000E+00  0.00000000000E+00  0.23263101053E+03  0.23263101058E+03  0.50400001928E-02 0.  1.
        1   -1    0    0  501    0  0.00000000000E+00  0.00000000000E+00 -0.75808794574E+03  0.75808794576E+03  0.50400001928E-02 0. -1.
    10030    2    1    2    0    0  0.00000000000E+00  0.00000000000E+00 -0.52545693521E+03  0.99071895634E+03  0.83989229053E+03 0.  0.
        5    1    3    3  502    0  0.89102371182E+02  0.28896680277E+03 -0.60641246610E+03  0.67764239441E+03  0.46999998093E+01 0. -1.
       -5    1    3    3    0  502 -0.89102371182E+02 -0.28896680277E+03  0.80955530888E+02  0.31307656194E+03  0.46999998093E+01 0.  1.
</event>
<event>
 5   0  0.6015709E-03  0.9013240E+03  0.7818609E-02  0.9423928E-01
        1   -1    0    0  501    0  0.00000000000E+00  0.00000000000E+00  0.15382066939E+04  0.15382066939E+04  0.50400001928E-02 0.  1.
       -1   -1    0    0    0  501  0.00000000000E+00  0.00000000000E+00 -0.13203443326E+03  0.13203443335E+03  0.50400001928E-02 0. -1.
    10030    2    1    2    0    0  0.00000000000E+00  0.00000000000E+00  0.14061722607E+04  0.16702411273E+04  0.90132402420E+03 0.  0.
        3    1    3    3  502    0 -0.29580308476E+03  0.70979161085E+02  0.86924355560E+02  0.31637534679E+03  0.10100000352E+00 0. -1.
       -3    1    3    3    0  502  0.29580308476E+03 -0.70979161085E+02  0.13192479051E+04  0.13538657805E+04  0.10100000352E+00 0.  1.
</event>
<event>
 5   0  0.1033749E-02  0.8917422E+03  0.7818609E-02  0.9435963E-01
        2   -1    0    0  501    0  0.00000000000E+00  0.00000000000E+00  0.11798108034E+04  0.11798108034E+04  0.25500000920E-02 0. -1.
       -2   -1    0    0    0  501  0.00000000000E+00  0.00000000000E+00 -0.16850247416E+03  0.16850247418E+03  0.25500000920E-02 0.  1.
    10030    2    1    2    0    0  0.00000000000E+00  0.00000000000E+00  0.10113083292E+04  0.13483132776E+04  0.89174220361E+03 0.  0.
        5    1    3    3  502    0 -0.13331519804E+02  0.46093804163E+02 -0.16454963634E+03  0.17146731765E+03  0.46999998093E+01 0.  1.
       -5    1    3    3    0  502  0.13331519804E+02 -0.46093804163E+02  0.11758579656E+04  0.11768459599E+04  0.46999998093E+01 0. -1.
</event>
<event>
 5   0  0.6015709E-03  0.9068591E+03  0.7818609E-02  0.9417048E-01
        1   -1    0    0  501    0  0.00000000000E+00  0.00000000000E+00  0.44643852296E+03  0.44643852299E+03  0.50400001928E-02 0. -1.
       -1   -1    0    0    0  501  0.00000000000E+00  0.00000000000E+00 -0.46053007261E+03  0.46053007264E+03  0.50400001928E-02 0.  1.
    10030    2    1    2    0    0  0.00000000000E+00  0.00000000000E+00 -0.14091549650E+02  0.90696859563E+03  0.90685911899E+03 0.  0.
        3    1    3    3  502    0 -0.35403223335E+02 -0.28410594268E+03  0.34460551728E+03  0.44802070000E+03  0.10100000352E+00 0. -1.
       -3    1    3    3    0  502  0.35403223335E+02  0.28410594268E+03 -0.35869706693E+03  0.45894789564E+03  0.10100000352E+00 0.  1.
</event>
<event>
 5   0  0.1033749E-02  0.9011372E+03  0.7818609E-02  0.9424161E-01
       -2   -1    0    0    0  501  0.00000000000E+00  0.00000000000E+00  0.26767346043E+03  0.26767346044E+03  0.25500000920E-02 0. -1.
        2   -1    0    0  501    0  0.00000000000E+00  0.00000000000E+00 -0.75843181716E+03  0.75843181717E+03  0.25500000920E-02 0.  1.
    10030    2    1    2    0    0  0.00000000000E+00  0.00000000000E+00 -0.49075835674E+03  0.10261052776E+04  0.90113721265E+03 0.  0.
        5    1    3    3  502    0  0.36343393322E+03 -0.44033153896E+02 -0.54441357751E+03  0.65607269097E+03  0.46999998093E+01 0.  1.
       -5    1    3    3    0  502 -0.36343393322E+03  0.44033153896E+02  0.53655220770E+02  0.37003258664E+03  0.46999998093E+01 0. -1.
</event>
<event>
 5   0  0.6092779E-03  0.9044349E+03  0.7818609E-02  0.9420054E-01
       -1   -1    0    0    0  501  0.00000000000E+00  0.00000000000E+00  0.27949529730E+03  0.27949529734E+03  0.50400001928E-02 0. -1.
        1   -1    0    0  501    0  0.00000000000E+00  0.00000000000E+00 -0.73167828903E+03  0.73167828904E+03  0.50400001928E-02 0.  1.
    10030    2    1    2    0    0  0.00000000000E+00  0.00000000000E+00 -0.45218299173E+03  0.10111735864E+04  0.90443494172E+03 0.  0.
        2    1    3    3  502    0  0.44068713032E+02  0.34261604315E+03 -0.55237787116E+03  0.65149759558E+03  0.25500000920E-02 0.  1.
       -2    1    3    3    0  502 -0.44068713032E+02 -0.34261604315E+03  0.10019487943E+03  0.35967599081E+03  0.25500000920E-02 0. -1.
</event>
<event>
 5   0  0.1017079E-02  0.8887636E+03  0.7818609E-02  0.9439738E-01
       -2   -1    0    0    0  501  0.00000000000E+00  0.00000000000E+00  0.17916572300E+03  0.17916572301E+03  0.25500000920E-02 0. -1.
        2   -1    0    0  501    0  0.00000000000E+00  0.00000000000E+00 -0.11021927624E+04  0.11021927624E+04  0.25500000920E-02 0.  1.
    10030    2    1    2    0    0  0.00000000000E+00  0.00000000000E+00 -0.92302703940E+03  0.12813584854E+04  0.88876355274E+03 0.  0.
        1    1    3    3  502    0  0.36950384792E+03 -0.12335856791E+03 -0.76980392104E+03  0.86275634265E+03  0.50400001928E-02 0.  1.
       -1    1    3    3    0  502 -0.36950384792E+03  0.12335856791E+03 -0.15322311836E+03  0.41860214276E+03  0.50400001928E-02 0. -1.
</event>
<event>
 5   0  0.6092779E-03  0.8900344E+03  0.7818609E-02  0.9438125E-01
       -1   -1    0    0    0  501  0.00000000000E+00  0.00000000000E+00  0.35849287873E+03  0.35849287876E+03  0.50400001928E-02 0. -1.
        1   -1    0    0  501    0  0.00000000000E+00  0.00000000000E+00 -0.55242462837E+03  0.55242462839E+03  0.50400001928E-02 0.  1.
    10030    2    1    2    0    0  0.00000000000E+00  0.00000000000E+00 -0.19393174964E+03  0.91091750715E+03  0.89003437086E+03 0.  0.
        2    1    3    3  502    0 -0.14565449162E+03 -0.38891511121E+03 -0.26062434587E+03  0.49030117716E+03  0.25500000920E-02 0. -1.
       -2    1    3    3    0  502  0.14565449162E+03  0.38891511121E+03  0.66692596229E+02  0.42061632999E+03  0.25500000920E-02 0.  1.
</event>
<event>
 5   0  0.1041727E-02  0.9059065E+03  0.7818609E-02  0.9418228E-01
       -2   -1    0    0    0  501  0.00000000000E+00  0.00000000000E+00  0.39787961323E+03  0.39787961324E+03  0.25500000920E-02 0.  1.
        2   -1    0    0  501    0  0.00000000000E+00  0.00000000000E+00 -0.51565010560E+03  0.51565010560E+03  0.25500000920E-02 0. -1.
    10030    2    1    2    0    0  0.00000000000E+00  0.00000000000E+00 -0.11777049237E+03  0.91352971885E+03  0.90590653952E+03 0.  0.
        4    1    3    3  502    0 -0.13824363250E+03 -0.14349140933E+02  0.37584319957E+03  0.40072050526E+03  0.12699999809E+01 0.  1.
       -4    1    3    3    0  502  0.13824363250E+03  0.14349140933E+02 -0.49361369194E+03  0.51280921359E+03  0.12699999809E+01 0. -1.
</event>
<event>
 5   0  0.6137243E-03  0.8975835E+03  0.7818609E-02  0.9428607E-01
       -1   -1    0    0    0  501  0.00000000000E+00  0.00000000000E+00  0.22939806170E+03  0.22939806175E+03  0.50400001928E-02 0.  1.
        1   -1    0    0  501    0  0.00000000000E+00  0.00000000000E+00 -0.87801096999E+03  0.87801097000E+03  0.50400001928E-02 0. -1.
    10030    2    1    2    0    0  0.00000000000E+00  0.00000000000E+00 -0.64861290829E+03  0.11074090318E+04  0.89758345507E+03 0.  0.
        4    1    3    3  502    0  0.16444482767E+02 -0.22242089797E+03 -0.80479649457E+03  0.83512902443E+03  0.12699999809E+01 0. -1.
       -4    1    3    3    0  502 -0.16444482767E+02  0.22242089797E+03  0.15618358628E+03  0.27228000733E+03  0.12699999809E+01 0.  1.
</event>
<event>
 5   0  0.3996375E-03  0.9048536E+03  0.7818609E-02  0.9419534E-01
       -4   -1    0    0    0  501  0.00000000000E+00  0.00000000000E+00  0.34528648328E+03  0.34528881887E+03  0.12699999809E+01 0. -1.
        4   -1    0    0  501    0  0.00000000000E+00  0.00000000000E+00 -0.59280704818E+03  0.59280840857E+03  0.12699999809E+01 0.  1.
    10030    2    1    2    0    0  0.00000000000E+00  0.00000000000E+00 -0.24752056490E+03  0.93809722745E+03  0.90485356721E+03 0.  0.
        1    1    3    3  502    0 -0.72486569146E+02 -0.26054531321E+03 -0.49978638995E+03  0.56826454979E+03  0.50400001928E-02 0.  1.
       -1    1    3    3    0  502  0.72486569146E+02  0.26054531321E+03  0.25226582505E+03  0.36983267765E+03  0.50400001928E-02 0. -1.
</event>
<event>
 5   0  0.6211218E-03  0.9046666E+03  0.7818609E-02  0.9419767E-01
       -1   -1    0    0    0  501  0.00000000000E+00  0.00000000000E+00  0.27137038385E+03  0.27137038390E+03  0.50400001928E-02 0.  1.
        1   -1    0    0  501    0  0.00000000000E+00  0.00000000000E+00 -0.75397107470E+03  0.75397107472E+03  0.50400001928E-02 0. -1.
    10030    2    1    2    0    0  0.00000000000E+00  0.00000000000E+00 -0.48260069085E+03  0.10253414586E+04  0.90466661259E+03 0.  0.
        5    1    3    3  502    0 -0.73063490925E+02 -0.51550786226E+02  0.26122501710E+03  0.27614553559E+03  0.46999998093E+01 0.  1.
       -5    1    3    3    0  502  0.73063490925E+02  0.51550786226E+02 -0.74382570795E+03  0.74919592302E+03  0.46999998093E+01 0. -1.
</event>
<event>
 5   0  0.6092779E-03  0.8996430E+03  0.7818609E-02  0.9426028E-01
       -1   -1    0    0    0  501  0.00000000000E+00  0.00000000000E+00  0.78213066818E+03  0.78213066820E+03  0.50400001928E-02 0.  1.
        1   -1    0    0  501    0  0.00000000000E+00  0.00000000000E+00 -0.25870277933E+03  0.25870277938E+03  0.50400001928E-02 0. -1.
    10030    2    1    2    0    0  0.00000000000E+00  0.00000000000E+00  0.52342788886E+03  0.10408334476E+04  0.89964299072E+03 0.  0.
        2    1    3    3  502    0 -0.10321619774E+03 -0.32709035802E+03  0.59841682129E+03  0.68974225461E+03  0.25500000920E-02 0.  1.
       -2    1    3    3    0  502  0.10321619774E+03  0.32709035802E+03 -0.74988932436E+02  0.35109119297E+03  0.25500000920E-02 0. -1.
</event>
<event>
 5   0  0.6015709E-03  0.8823941E+03  0.7818609E-02  0.9447861E-01
        1   -1    0    0  501    0  0.00000000000E+00  0.00000000000E+00  0.30373801487E+03  0.30373801491E+03  0.50400001928E-02 0.  1.
       -1   -1    0    0    0  501  0.00000000000E+00  0.00000000000E+00 -0.64086426621E+03  0.64086426623E+03  0.50400001928E-02 0. -1.
    10030    2    1    2    0    0  0.00000000000E+00  0.00000000000E+00 -0.33712625135E+03  0.94460228114E+03  0.88239410707E+03 0.  0.
        3    1    3    3  502    0  0.33554651895E+03  0.24399175843E+03 -0.78762753980E+01  0.41495239544E+03  0.10100000352E+00 0.  1.
       -3    1    3    3    0  502 -0.33554651895E+03 -0.24399175843E+03 -0.32924997595E+03  0.52964988571E+03  0.10100000352E+00 0. -1.
</event>
<event>
 5   0  0.6211218E-03  0.8943384E+03  0.7818609E-02  0.9432686E-01
       -1   -1    0    0    0  501  0.00000000000E+00  0.00000000000E+00  0.17895513410E+03  0.17895513417E+03  0.50400001928E-02 0. -1.
        1   -1    0    0  501    0  0.00000000000E+00  0.00000000000E+00 -0.11173767479E+04  0.11173767479E+04  0.50400001928E-02 0.  1.
    10030    2    1    2    0    0  0.00000000000E+00  0.00000000000E+00 -0.93842161380E+03  0.12963318821E+04  0.89433842769E+03 0.  0.
        5    1    3    3  502    0 -0.53050133886E+02  0.21249044844E+03  0.95850647936E+02  0.23911491817E+03  0.46999998093E+01 0. -1.
       -5    1    3    3    0  502  0.53050133886E+02 -0.21249044844E+03 -0.10342722617E+04  0.10572169639E+04  0.46999998093E+01 0.  1.
</event>
<event>
 5   0  0.6211218E-03  0.8955059E+03  0.7818609E-02  0.9431217E-01
       -1   -1    0    0    0  501  0.00000000000E+00  0.00000000000E+00  0.77445635610E+03  0.77445635612E+03  0.50400001928E-02 0.  1.
        1   -1    0    0  501    0  0.00000000000E+00  0.00000000000E+00 -0.25886894981E+03  0.25886894986E+03  0.50400001928E-02 0. -1.
    10030    2    1    2    0    0  0.00000000000E+00  0.00000000000E+00  0.51558740630E+03  0.10333253060E+04  0.89550589861E+03 0.  0.
        5    1    3    3  502    0 -0.16039895416E+03  0.40124662588E+03  0.12256586727E+03  0.44918944900E+03  0.46999998093E+01 0. -1.
       -5    1    3    3    0  502  0.16039895416E+03 -0.40124662588E+03  0.39302153903E+03  0.58413585698E+03  0.46999998093E+01 0.  1.
</event>
<event>
 5   0  0.6211218E-03  0.8976554E+03  0.7818609E-02  0.9428517E-01
       -1   -1    0    0    0  501  0.00000000000E+00  0.00000000000E+00  0.19882839853E+03  0.19882839859E+03  0.50400001928E-02 0. -1.
        1   -1    0    0  501    0  0.00000000000E+00  0.00000000000E+00 -0.10131667263E+04  0.10131667263E+04  0.50400001928E-02 0.  1.
    10030    2    1    2    0    0  0.00000000000E+00  0.00000000000E+00 -0.81433832775E+03  0.12119951249E+04  0.89765542982E+03 0.  0.
        5    1    3    3  502    0 -0.37654725070E+03  0.12186871485E+03 -0.12143994827E+03  0.41401638459E+03  0.46999998093E+01 0. -1.
       -5    1    3    3    0  502  0.37654725070E+03 -0.12186871485E+03 -0.69289837948E+03  0.79797874029E+03  0.46999998093E+01 0.  1.
</event>
<event>
 5   0  0.1041727E-02  0.8991258E+03  0.7818609E-02  0.9426675E-01
        2   -1    0    0  501    0  0.00000000000E+00  0.00000000000E+00  0.35500992397E+03  0.35500992397E+03  0.25500000920E-02 0.  1.
       -2   -1    0    0    0  501  0.00000000000E+00  0.00000000000E+00 -0.56929905612E+03  0.56929905613E+03  0.25500000920E-02 0. -1.
    10030    2    1    2    0    0  0.00000000000E+00  0.00000000000E+00 -0.21428913216E+03  0.92430898010E+03  0.89912583020E+03 0.  0.
        4    1    3    3  502    0  0.27295169999E+03 -0.31352995597E+03  0.68826759589E+02  0.42135780466E+03  0.12699999809E+01 0.  1.
       -4    1    3    3    0  502 -0.27295169999E+03  0.31352995597E+03 -0.28311589175E+03  0.50295117544E+03  0.12699999809E+01 0. -1.
</event>
<event>
 5   0  0.6137243E-03  0.8902210E+03  0.7818609E-02  0.9437889E-01
        1   -1    0    0  501    0  0.00000000000E+00  0.00000000000E+00  0.18843572012E+04  0.18843572012E+04  0.50400001928E-02 0.  1.
       -1   -1    0    0    0  501  0.00000000000E+00  0.00000000000E+00 -0.10514108541E+03  0.10514108553E+03  0.50400001928E-02 0. -1.
    10030    2    1    2    0    0  0.00000000000E+00  0.00000000000E+00  0.17792161158E+04  0.19894982867E+04  0.89022100978E+03 0.  0.
        4    1    3    3  502    0  0.22463538573E+02  0.22727123322E+03  0.35780862436E+02  0.23116813584E+03  0.12699999809E+01 0. -1.
       -4    1    3    3    0  502 -0.22463538573E+02 -0.22727123322E+03  0.17434352533E+04  0.17583301509E+04  0.12699999809E+01 0.  1.
</event>
<event>
 5   0  0.1028978E-02  0.8895687E+03  0.7818609E-02  0.9438716E-01
       -2   -1    0    0    0  501  0.00000000000E+00  0.00000000000E+00  0.10828998110E+03  0.10828998113E+03  0.25500000920E-02 0.  1.
        2   -1    0    0  501    0  0.00000000000E+00  0.00000000000E+00 -0.18268829869E+04  0.18268829869E+04  0.25500000920E-02 0. -1.
    10030    2    1    2    0    0  0.00000000000E+00  0.00000000000E+00 -0.17185930058E+04  0.19351729680E+04  0.88956871382E+03 0.  0.
        3    1    3    3  502    0 -0.12650563498E+03  0.28073456805E+03 -0.15575222786E+04  0.15876684893E+04  0.10100000352E+00 0. -1.
       -3    1    3    3    0  502  0.12650563498E+03 -0.28073456805E+03 -0.16107072720E+03  0.34750447874E+03  0.10100000352E+00 0.  1.
</event>
<event>
 5   0  0.1017079E-02  0.8415763E+03  0.7818609E-02  0.9501713E-01
        2   -1    0    0  501    0  0.00000000000E+00  0.00000000000E+00  0.10640473833E+04  0.10640473833E+04  0.25500000920E-02 0. -1.
       -2   -1    0    0    0  501  0.00000000000E+00  0.00000000000E+00 -0.16640487123E+03  0.16640487125E+03  0.25500000920E-02 0.  1.
    10030    2    1    2    0    0  0.00000000000E+00  0.00000000000E+00  0.89764251208E+03  0.12304522546E+04  0.84157630151E+03 0.  0.
        1    1    3    3  502    0  0.20366121234E+03 -0.84675694723E+02  0.97275795250E+03  0.99744969641E+03  0.50400001928E-02 0. -1.
       -1    1    3    3    0  502 -0.20366121234E+03  0.84675694723E+02 -0.75115440425E+02  0.23300255815E+03  0.50400001928E-02 0.  1.
</event>
<event>
 5   0  0.6137243E-03  0.8849667E+03  0.7818609E-02  0.9444571E-01
        1   -1    0    0  501    0  0.00000000000E+00  0.00000000000E+00  0.53882045753E+03  0.53882045755E+03  0.50400001928E-02 0. -1.
       -1   -1    0    0    0  501  0.00000000000E+00  0.00000000000E+00 -0.36337062395E+03  0.36337062399E+03  0.50400001928E-02 0.  1.
    10030    2    1    2    0    0  0.00000000000E+00  0.00000000000E+00  0.17544983358E+03  0.90219108154E+03  0.88496672452E+03 0.  0.
        4    1    3    3  502    0  0.42404897347E+03  0.62232961460E+02  0.19986328087E+03  0.47290317966E+03  0.12699999809E+01 0.  1.
       -4    1    3    3    0  502 -0.42404897347E+03 -0.62232961460E+02 -0.24413447295E+02  0.42928790188E+03  0.12699999809E+01 0. -1.
</event>
<event>
 5   0  0.1017079E-02  0.8987428E+03  0.7818609E-02  0.9427154E-01
       -2   -1    0    0    0  501  0.00000000000E+00  0.00000000000E+00  0.20922828419E+03  0.20922828420E+03  0.25500000920E-02 0.  1.
        2   -1    0    0  501    0  0.00000000000E+00  0.00000000000E+00 -0.96514028303E+03  0.96514028304E+03  0.25500000920E-02 0. -1.
    10030    2    1    2    0    0  0.00000000000E+00  0.00000000000E+00 -0.75591199885E+03  0.11743685672E+04  0.89874277840E+03 0.  0.
        1    1    3    3  502    0  0.37395811431E+03  0.23691582635E+03 -0.47884031719E+03  0.65212102360E+03  0.50400001928E-02 0. -1.
       -1    1    3    3    0  502 -0.37395811431E+03 -0.23691582635E+03 -0.27707168166E+03  0.52224754364E+03  0.50400001928E-02 0.  1.
</event>
<event>
 5   0  0.1028978E-02  0.9037319E+03  0.7818609E-02  0.9420928E-01
       -2   -1    0    0    0  501  0.00000000000E+00  0.00000000000E+00  0.41762474474E+03  0.41762474474E+03  0.25500000920E-02 0.  1.
        2   -1    0    0  501    0  0.00000000000E+00  0.00000000000E+00 -0.48891460945E+03  0.48891460946E+03  0.25500000920E-02 0. -1.
    10030    2    1    2    0    0  0.00000000000E+00  0.00000000000E+00 -0.71289864714E+02  0.90653935420E+03  0.90373190488E+03 0.  0.
        3    1    3    3  502    0  0.24794537560E+03  0.30608787976E+02 -0.41333687373E+03  0.48297120884E+03  0.10100000352E+00 0. -1.
       -3    1    3    3    0  502 -0.24794537560E+03 -0.30608787976E+02  0.34204700902E+03  0.42356814536E+03  0.10100000352E+00 0.  1.
</event>
<event>
 5   0  0.6092779E-03  0.9105198E+03  0.7818609E-02  0.9412526E-01
        1   -1    0    0  501    0  0.00000000000E+00  0.00000000000E+00  0.11205292888E+04  0.11205292888E+04  0.50400001928E-02 0. -1.
       -1   -1    0    0    0  501  0.00000000000E+00  0.00000000000E+00 -0.18496755487E+03  0.18496755494E+03  0.50400001928E-02 0.  1.
    10030    2    1    2    0    0  0.00000000000E+00  0.00000000000E+00  0.93556173395E+03  0.13054968438E+04  0.91051976973E+03 0.  0.
        2    1    3    3  502    0  0.25021978271E+03  0.37995125927E+03  0.49214116056E+03  0.67020580496E+03  0.25500000920E-02 0.  1.
       -2    1    3    3    0  502 -0.25021978271E+03 -0.37995125927E+03  0.44342057339E+03  0.63529103881E+03  0.25500000920E-02 0. -1.
</event>
<event>
 5   0  0.1028978E-02  0.9002527E+03  0.7818609E-02  0.9425266E-01
        2   -1    0    0  501    0  0.00000000000E+00  0.00000000000E+00  0.35549867278E+03  0.35549867279E+03  0.25500000920E-02 0. -1.
       -2   -1    0    0    0  501  0.00000000000E+00  0.00000000000E+00 -0.56994232215E+03  0.56994232216E+03  0.25500000920E-02 0.  1.
    10030    2    1    2    0    0  0.00000000000E+00  0.00000000000E+00 -0.21444364937E+03  0.92544099495E+03  0.90025271806E+03 0.  0.
        3    1    3    3  502    0 -0.15433733644E+03 -0.32650021410E+01  0.32743596772E+03  0.36200137682E+03  0.10100000352E+00 0. -1.
       -3    1    3    3    0  502  0.15433733644E+03  0.32650021410E+01 -0.54187961709E+03  0.56343961813E+03  0.10100000352E+00 0.  1.
</event>
<event>
 5   0  0.6137243E-03  0.8807283E+03  0.7818609E-02  0.9449998E-01
        1   -1    0    0  501    0  0.00000000000E+00  0.00000000000E+00  0.24885076779E+03  0.24885076784E+03  0.50400001928E-02 0.  1.
       -1   -1    0    0    0  501  0.00000000000E+00  0.00000000000E+00 -0.77926448577E+03  0.77926448579E+03  0.50400001928E-02 0. -1.
    10030    2    1    2    0    0  0.00000000000E+00  0.00000000000E+00 -0.53041371798E+03  0.10281152536E+04  0.88072825691E+03 0.  0.
        4    1    3    3  502    0  0.25833198531E+03 -0.95468136973E+02  0.13590776935E+03  0.30711905587E+03  0.12699999809E+01 0.  1.
       -4    1    3    3    0  502 -0.25833198531E+03  0.95468136973E+02 -0.66632148732E+03  0.72099619776E+03  0.12699999809E+01 0. -1.
</event>
<event>
 5   0  0.3996375E-03  0.9032085E+03  0.7818609E-02  0.9421580E-01
       -4   -1    0    0    0  501  0.00000000000E+00  0.00000000000E+00  0.93150251846E+03  0.93150338421E+03  0.12699999809E+01 0.  1.
        4   -1    0    0  501    0  0.00000000000E+00  0.00000000000E+00 -0.21894064458E+03  0.21894432797E+03  0.12699999809E+01 0. -1.
    10030    2    1    2    0    0  0.00000000000E+00  0.00000000000E+00  0.71256187388E+03  0.11504477122E+04  0.90320845565E+03 0.  0.
        5    1    3    3  502    0 -0.43239350932E+03  0.89127495602E+02  0.23533362316E+03  0.50031176436E+03  0.46999998093E+01 0.  1.
       -5    1    3    3    0  502  0.43239350932E+03 -0.89127495602E+02  0.47722825072E+03  0.65013594782E+03  0.46999998093E+01 0. -1.
</event>
<event>
 5   0  0.6137243E-03  0.9125622E+03  0.7818609E-02  0.9410013E-01
       -1   -1    0    0    0  501  0.00000000000E+00  0.00000000000E+00  0.70319800769E+03  0.70319800771E+03  0.50400001928E-02 0.  1.
        1   -1    0    0  501    0  0.00000000000E+00  0.00000000000E+00 -0.29606514476E+03  0.29606514480E+03  0.50400001928E-02 0. -1.
    10030    2    1    2    0    0  0.00000000000E+00  0.00000000000E+00  0.40713286294E+03  0.99926315251E+03  0.91256215124E+03 0.  0.
        4    1    3    3  502    0  0.40724801966E+03  0.10995894014E+03  0.39401255417E+03  0.57722562641E+03  0.12699999809E+01 0.  1.
       -4    1    3    3    0  502 -0.40724801966E+03 -0.10995894014E+03  0.13120308764E+02  0.42203752610E+03  0.12699999809E+01 0. -1.
</event>
<event>
 5   0  0.1017079E-02  0.8923062E+03  0.7818609E-02  0.9435251E-01
       -2   -1    0    0    0  501  0.00000000000E+00  0.00000000000E+00  0.29291532236E+03  0.29291532237E+03  0.25500000920E-02 0.  1.
        2   -1    0    0  501    0  0.00000000000E+00  0.00000000000E+00 -0.67955668840E+03  0.67955668841E+03  0.25500000920E-02 0. -1.
    10030    2    1    2    0    0  0.00000000000E+00  0.00000000000E+00 -0.38664136605E+03  0.97247201078E+03  0.89230615027E+03 0.  0.
        1    1    3    3  502    0  0.58162436550E+02  0.26780467222E+03  0.19037517540E+03  0.33368386075E+03  0.50400001928E-02 0.  1.
       -1    1    3    3    0  502 -0.58162436550E+02 -0.26780467222E+03 -0.57701654145E+03  0.63878815003E+03  0.50400001928E-02 0. -1.
</event>
<event>
 5   0  0.6288003E-03  0.8691201E+03  0.7818609E-02  0.9465028E-01
       -1   -1    0    0    0  501  0.00000000000E+00  0.00000000000E+00  0.49370462658E+03  0.49370462661E+03  0.50400001928E-02 0.  1.
        1   -1    0    0  501    0  0.00000000000E+00  0.00000000000E+00 -0.38250087686E+03  0.38250087690E+03  0.50400001928E-02 0. -1.
    10030    2    1    2    0    0  0.00000000000E+00  0.00000000000E+00  0.11120374972E+03  0.87620550351E+03  0.86912013578E+03 0.  0.
        1    1    3    3  502    0  0.17876582391E+03  0.40912492927E+02  0.45278242591E+03  0.48851097952E+03  0.50400001928E-02 0.  1.
       -1    1    3    3    0  502 -0.17876582391E+03 -0.40912492927E+02 -0.34157867619E+03  0.38769452399E+03  0.50400001928E-02 0. -1.
</event>
<event>
 5   0  0.6092779E-03  0.8948467E+03  0.7818609E-02  0.9432046E-01
        1   -1    0    0  501    0  0.00000000000E+00  0.00000000000E+00  0.40628281550E+03  0.40628281553E+03  0.50400001928E-02 0.  1.
       -1   -1    0    0    0  501  0.00000000000E+00  0.00000000000E+00 -0.49272977520E+03  0.49272977523E+03  0.50400001928E-02 0. -1.
    10030    2    1    2    0    0  0.00000000000E+00  0.00000000000E+00 -0.86446959700E+02  0.89901259076E+03  0.89484666927E+03 0.  0.
        2    1    3    3  502    0  0.41084759872E+03  0.16723220846E+03 -0.10202183166E+03  0.45516020813E+03  0.25500000920E-02 0. -1.
       -2    1    3    3    0  502 -0.41084759872E+03 -0.16723220846E+03  0.15574871958E+02  0.44385238263E+03  0.25500000920E-02 0.  1.
</event>
<event>
 5   0  0.1003252E-02  0.9032239E+03  0.7818609E-02  0.9421560E-01
       -2   -1    0    0    0  501  0.00000000000E+00  0.00000000000E+00  0.11065826139E+03  0.11065826142E+03  0.25500000920E-02 0.  1.
        2   -1    0    0  501    0  0.00000000000E+00  0.00000000000E+00 -0.18430917780E+04  0.18430917780E+04  0.25500000920E-02 0. -1.
    10030    2    1    2    0    0  0.00000000000E+00  0.00000000000E+00 -0.17324335166E+04  0.19537500394E+04  0.90322385212E+03 0.  0.
        2    1    3    3  502    0 -0.16301814177E+03 -0.39964396413E+03 -0.11536965365E+04  0.12317897186E+04  0.25500000920E-02 0. -1.
       -2    1    3    3    0  502  0.16301814177E+03  0.39964396413E+03 -0.57873698010E+03  0.72196032076E+03  0.25500000920E-02 0.  1.
</event>
<event>
 5   0  0.1003252E-02  0.9022321E+03  0.7818609E-02  0.9422795E-01
        2   -1    0    0  501    0  0.00000000000E+00  0.00000000000E+00  0.38084218652E+03  0.38084218653E+03  0.25500000920E-02 0.  1.
       -2   -1    0    0    0  501  0.00000000000E+00  0.00000000000E+00 -0.53435703612E+03  0.53435703613E+03  0.25500000920E-02 0. -1.
    10030    2    1    2    0    0  0.00000000000E+00  0.00000000000E+00 -0.15351484960E+03  0.91519922266E+03  0.90223212540E+03 0.  0.
        2    1    3    3  502    0  0.65034005957E+02 -0.16396987914E+03  0.34440885313E+03  0.38695348728E+03  0.25500000920E-02 0.  1.
       -2    1    3    3    0  502 -0.65034005957E+02  0.16396987914E+03 -0.49792370273E+03  0.52824573538E+03  0.25500000920E-02 0. -1.
</event>
<event>
 5   0  0.3996375E-03  0.8963835E+03  0.7818609E-02  0.9430114E-01
        4   -1    0    0  501    0  0.00000000000E+00  0.00000000000E+00  0.38367816843E+03  0.38368027031E+03  0.12699999809E+01 0.  1.
       -4   -1    0    0    0  501  0.00000000000E+00  0.00000000000E+00 -0.52354869934E+03  0.52355023969E+03  0.12699999809E+01 0. -1.
    10030    2    1    2    0    0  0.00000000000E+00  0.00000000000E+00 -0.13987053091E+03  0.90723051000E+03  0.89638353000E+03 0.  0.
        2    1    3    3  502    0  0.36529411864E+02 -0.41309660032E+03  0.10210002116E+03  0.42709204330E+03  0.25500000920E-02 0. -1.
       -2    1    3    3    0  502 -0.36529411864E+02  0.41309660032E+03 -0.24197055207E+03  0.48013846670E+03  0.25500000920E-02 0.  1.
</event>
<event>
 5   0  0.1017079E-02  0.9077074E+03  0.7818609E-02  0.9415998E-01
        2   -1    0    0  501    0  0.00000000000E+00  0.00000000000E+00  0.49032622235E+03  0.49032622236E+03  0.25500000920E-02 0. -1.
       -2   -1    0    0    0  501  0.00000000000E+00  0.00000000000E+00 -0.42009418116E+03  0.42009418117E+03  0.25500000920E-02 0.  1.
    10030    2    1    2    0    0  0.00000000000E+00  0.00000000000E+00  0.70232041189E+02  0.91042040353E+03  0.90770742619E+03 0.  0.
        1    1    3    3  502    0  0.25630468434E+03  0.28687908698E+03  0.27664999712E+03  0.47384271936E+03  0.50400001928E-02 0. -1.
       -1    1    3    3    0  502 -0.25630468434E+03 -0.28687908698E+03 -0.20641795593E+03  0.43657768417E+03  0.50400001928E-02 0.  1.
</event>
<event>
 5   0  0.6015709E-03  0.9158227E+03  0.7818609E-02  0.9406016E-01
        1   -1    0    0  501    0  0.00000000000E+00  0.00000000000E+00  0.13459206016E+04  0.13459206016E+04  0.50400001928E-02 0.  1.
       -1   -1    0    0    0  501  0.00000000000E+00  0.00000000000E+00 -0.15579135876E+03  0.15579135884E+03  0.50400001928E-02 0. -1.
    10030    2    1    2    0    0  0.00000000000E+00  0.00000000000E+00  0.11901292428E+04  0.15017119604E+04  0.91582268888E+03 0.  0.
        3    1    3    3  502    0  0.22481696051E+03  0.39298367749E+03  0.48260238582E+03  0.66172797243E+03  0.10100000352E+00 0. -1.
       -3    1    3    3    0  502 -0.22481696051E+03 -0.39298367749E+03  0.70752685700E+03  0.83998398799E+03  0.10100000352E+00 0.  1.
</event>
<event>
 5   0  0.1041727E-02  0.9030155E+03  0.7818609E-02  0.9421820E-01
        2   -1    0    0  501    0  0.00000000000E+00  0.00000000000E+00  0.10723390305E+04  0.10723390305E+04  0.25500000920E-02 0. -1.
       -2   -1    0    0    0  501  0.00000000000E+00  0.00000000000E+00 -0.19010710672E+03  0.19010710674E+03  0.25500000920E-02 0.  1.
    10030    2    1    2    0    0  0.00000000000E+00  0.00000000000E+00  0.88223192376E+03  0.12624461372E+04  0.90301554920E+03 0.  0.
        4    1    3    3  502    0  0.20605823296E+03 -0.37040377565E+02 -0.11814236616E+03  0.24039803768E+03  0.12699999809E+01 0.  1.
       -4    1    3    3    0  502 -0.20605823296E+03  0.37040377565E+02  0.10003742899E+04  0.10220480995E+04  0.12699999809E+01 0. -1.
</event>
<event>
 5   0  0.1033749E-02  0.8910849E+03  0.7818609E-02  0.9436795E-01
       -2   -1    0    0    0  501  0.00000000000E+00  0.00000000000E+00  0.14531474731E+03  0.14531474733E+03  0.25500000920E-02 0. -1.
        2   -1    0    0  501    0  0.00000000000E+00  0.00000000000E+00 -0.13660560491E+04  0.13660560491E+04  0.25500000920E-02 0.  1.
    10030    2    1    2    0    0  0.00000000000E+00  0.00000000000E+00 -0.12207413018E+04  0.15113707965E+04  0.89108493334E+03 0.  0.
        5    1    3    3  502    0 -0.36101739538E+02  0.29001227906E+03 -0.40027455125E+02  0.29501651609E+03  0.46999998093E+01 0. -1.
       -5    1    3    3    0  502  0.36101739538E+02 -0.29001227906E+03 -0.11807138467E+04  0.12163542804E+04  0.46999998093E+01 0.  1.
</event>
<event>
 5   0  0.1028978E-02  0.9085677E+03  0.7818609E-02  0.9414934E-01
        2   -1    0    0  501    0  0.00000000000E+00  0.00000000000E+00  0.65194419830E+03  0.65194419831E+03  0.25500000920E-02 0.  1.
       -2   -1    0    0    0  501  0.00000000000E+00  0.00000000000E+00 -0.31655133984E+03  0.31655133985E+03  0.25500000920E-02 0. -1.
    10030    2    1    2    0    0  0.00000000000E+00  0.00000000000E+00  0.33539285847E+03  0.96849553816E+03  0.90856768483E+03 0.  0.
        3    1    3    3  502    0  0.14615972560E+03  0.41838441103E+03  0.61283973231E+02  0.44739682203E+03  0.10100000352E+00 0. -1.
       -3    1    3    3    0  502 -0.14615972560E+03 -0.41838441103E+03  0.27410888523E+03  0.52109871613E+03  0.10100000352E+00 0.  1.
</event>
<event>
 5   0  0.6288003E-03  0.8785728E+03  0.7818609E-02  0.9452770E-01
        1   -1    0    0  501    0  0.00000000000E+00  0.00000000000E+00  0.21305758995E+04  0.21305758995E+04  0.50400001928E-02 0. -1.
       -1   -1    0    0    0  501  0.00000000000E+00  0.00000000000E+00 -0.90572942625E+02  0.90572942766E+02  0.50400001928E-02 0.  1.
    10030    2    1    2    0    0  0.00000000000E+00  0.00000000000E+00  0.20400029569E+04  0.22211488422E+04  0.87857277186E+03 0.  0.
        1    1    3    3  502    0 -0.86065035303E+02 -0.13192818119E+03  0.20567218937E+04  0.20627450602E+04  0.50400001928E-02 0. -1.
       -1    1    3    3    0  502  0.86065035303E+02  0.13192818119E+03 -0.16718936854E+02  0.15840378205E+03  0.50400001928E-02 0.  1.
</event>
<event>
 5   0  0.3996375E-03  0.9007177E+03  0.7818609E-02  0.9424685E-01
       -4   -1    0    0    0  501  0.00000000000E+00  0.00000000000E+00  0.24000098781E+03  0.24000434798E+03  0.12699999809E+01 0.  1.
        4   -1    0    0  501    0  0.00000000000E+00  0.00000000000E+00 -0.84508307242E+03  0.84508402670E+03  0.12699999809E+01 0. -1.
    10030    2    1    2    0    0  0.00000000000E+00  0.00000000000E+00 -0.60508208461E+03  0.10850883747E+04  0.90071774256E+03 0.  0.
        1    1    3    3  502    0  0.18243267021E+03  0.25817327559E+03  0.83878197584E+02  0.32706371160E+03  0.50400001928E-02 0.  1.
       -1    1    3    3    0  502 -0.18243267021E+03 -0.25817327559E+03 -0.68896028219E+03  0.75802466309E+03  0.50400001928E-02 0. -1.
</event>
<event>
 5   0  0.6092779E-03  0.9001569E+03  0.7818609E-02  0.9425385E-01
       -1   -1    0    0    0  501  0.00000000000E+00  0.00000000000E+00  0.43498820958E+03  0.43498820961E+03  0.50400001928E-02 0.  1.
        1   -1    0    0  501    0  0.00000000000E+00  0.00000000000E+00 -0.46569221243E+03  0.46569221246E+03  0.50400001928E-02 0. -1.
    10030    2    1    2    0    0  0.00000000000E+00  0.00000000000E+00 -0.30704002851E+02  0.90068042206E+03  0.90015692349E+03 0.  0.
        2    1    3    3  502    0  0.65673326263E+02 -0.29921834418E+03 -0.34528005029E+03  0.46158738762E+03  0.25500000920E-02 0. -1.
       -2    1    3    3    0  502 -0.65673326263E+02  0.29921834418E+03  0.31457604743E+03  0.43909303445E+03  0.25500000920E-02 0.  1.
</event>
<event>
 5   0  0.1003252E-02  0.1071208E+04  0.7818609E-02  0.9233718E-01
       -2   -1    0    0    0  501  0.00000000000E+00  0.00000000000E+00  0.26099052616E+03  0.26099052617E+03  0.25500000920E-02 0. -1.
        2   -1    0    0  501    0  0.00000000000E+00  0.00000000000E+00 -0.10991645406E+04  0.10991645406E+04  0.25500000920E-02 0.  1.
    10030    2    1    2    0    0  0.00000000000E+00  0.00000000000E+00 -0.83817401445E+03  0.13601550668E+04  0.10712077890E+04 0.  0.
        2    1    3    3  502    0 -0.40171134841E+03  0.59168701096E+02 -0.86258545686E+03  0.95337642777E+03  0.25500000920E-02 0.  1.
       -2    1    3    3    0  502  0.40171134841E+03 -0.59168701096E+02  0.24411442412E+02  0.40677863901E+03  0.25500000920E-02 0. -1.
</event>
<event>
 5   0  0.1041727E-02  0.9015600E+03  0.7818609E-02  0.9423633E-01
       -2   -1    0    0    0  501  0.00000000000E+00  0.00000000000E+00  0.12149395385E+03  0.12149395388E+03  0.25500000920E-02 0. -1.
        2   -1    0    0  501    0  0.00000000000E+00  0.00000000000E+00 -0.16725327424E+04  0.16725327424E+04  0.25500000920E-02 0.  1.
    10030    2    1    2    0    0  0.00000000000E+00  0.00000000000E+00 -0.15510387885E+04  0.17940266963E+04  0.90156001652E+03 0.  0.
        4    1    3    3  502    0  0.30855833055E+03  0.32047501892E+03 -0.63080843920E+03  0.77190244265E+03  0.12699999809E+01 0. -1.
       -4    1    3    3    0  502 -0.30855833055E+03 -0.32047501892E+03 -0.92023034934E+03  0.10221242536E+04  0.12699999809E+01 0.  1.
</event>
<event>
 5   0  0.1033749E-02  0.9068072E+03  0.7818609E-02  0.9417112E-01
       -2   -1    0    0    0  501  0.00000000000E+00  0.00000000000E+00  0.17345859760E+03  0.17345859762E+03  0.25500000920E-02 0. -1.
        2   -1    0    0  501    0  0.00000000000E+00  0.00000000000E+00 -0.11851520633E+04  0.11851520633E+04  0.25500000920E-02 0.  1.
    10030    2    1    2    0    0  0.00000000000E+00  0.00000000000E+00 -0.10116934657E+04  0.13586106609E+04  0.90680717874E+03 0.  0.
        5    1    3    3  502    0  0.89099775975E+02  0.21748043557E+03  0.75028666771E+02  0.24675473809E+03  0.46999998093E+01 0. -1.
       -5    1    3    3    0  502 -0.89099775975E+02 -0.21748043557E+03 -0.10867221324E+04  0.11118559228E+04  0.46999998093E+01 0.  1.
</event>
<event>
 5   0  0.6137243E-03  0.8969272E+03  0.7818609E-02  0.9429431E-01
        1   -1    0    0  501    0  0.00000000000E+00  0.00000000000E+00  0.10602134558E+04  0.10602134558E+04  0.50400001928E-02 0.  1.
       -1   -1    0    0    0  501  0.00000000000E+00  0.00000000000E+00 -0.18969728317E+03  0.18969728323E+03  0.50400001928E-02 0. -1.
    10030    2    1    2    0    0  0.00000000000E+00  0.00000000000E+00  0.87051617261E+03  0.12499107390E+04  0.89692722600E+03 0.  0.
        4    1    3    3  502    0  0.29603125100E+03 -0.12919722004E+03  0.17067061324E+01  0.32300301698E+03  0.12699999809E+01 0. -1.
       -4    1    3    3    0  502 -0.29603125100E+03  0.12919722004E+03  0.86880946648E+03  0.92690772204E+03  0.12699999809E+01 0.  1.
</event>
<event>
 5   0  0.6137243E-03  0.9047367E+03  0.7818609E-02  0.9419680E-01
       -1   -1    0    0    0  501  0.00000000000E+00  0.00000000000E+00  0.26106997845E+03  0.26106997850E+03  0.50400001928E-02 0. -1.
        1   -1    0    0  501    0  0.00000000000E+00  0.00000000000E+00 -0.78384020893E+03  0.78384020895E+03  0.50400001928E-02 0.  1.
    10030    2    1    2    0    0  0.00000000000E+00  0.00000000000E+00 -0.52277023048E+03  0.10449101875E+04  0.90473674954E+03 0.  0.
        4    1    3    3  502    0  0.31042781634E+03  0.11119988489E+03  0.96280059024E+02  0.34351463757E+03  0.12699999809E+01 0. -1.
       -4    1    3    3    0  502 -0.31042781634E+03 -0.11119988489E+03 -0.61905028951E+03  0.70139554988E+03  0.12699999809E+01 0.  1.
</event>
<event>
 5   0  0.1003252E-02  0.8808616E+03  0.7818609E-02  0.9449827E-01
        2   -1    0    0  501    0  0.00000000000E+00  0.00000000000E+00  0.12689032360E+04  0.12689032360E+04  0.25500000920E-02 0. -1.
       -2   -1    0    0    0  501  0.00000000000E+00  0.00000000000E+00 -0.15287163089E+03  0.15287163091E+03  0.25500000920E-02 0.  1.
    10030    2    1    2    0    0  0.00000000000E+00  0.00000000000E+00  0.11160316051E+04  0.14217748669E+04  0.88086163985E+03 0.  0.
        2    1    3    3  502    0 -0.40801363971E+03  0.15198196642E+03  0.66515011001E+03  0.79498321816E+03  0.25500000920E-02 0. -1.
       -2    1    3    3    0  502  0.40801363971E+03 -0.15198196642E+03  0.45088149510E+03  0.62679164875E+03  0.25500000920E-02 0.  1.
</event>
<event>
 5   0  0.1017079E-02  0.8983253E+03  0.7818609E-02  0.9427677E-01
        2   -1    0    0  501    0  0.00000000000E+00  0.00000000000E+00  0.86698170270E+03  0.86698170270E+03  0.25500000920E-02 0.  1.
       -2   -1    0    0    0  501  0.00000000000E+00  0.00000000000E+00 -0.23270049481E+03  0.23270049482E+03  0.25500000920E-02 0. -1.
    10030    2    1    2    0    0  0.00000000000E+00  0.00000000000E+00  0.63428120789E+03  0.10996821975E+04  0.89832526674E+03 0.  0.
        1    1    3    3  502    0  0.83909613245E+02 -0.48663452856E+02 -0.21972583849E+03  0.24018409390E+03  0.50400001928E-02 0. -1.
       -1    1    3    3    0  502 -0.83909613245E+02  0.48663452856E+02  0.85400704638E+03  0.85949810362E+03  0.50400001928E-02 0.  1.
</event>
<event>
 5   0  0.1017079E-02  0.8877969E+03  0.7818609E-02  0.9440966E-01
        2   -1    0    0  501    0  0.00000000000E+00  0.00000000000E+00  0.73743815898E+03  0.73743815899E+03  0.25500000920E-02 0.  1.
       -2   -1    0    0    0  501  0.00000000000E+00  0.00000000000E+00 -0.26720321000E+03  0.26720321001E+03  0.25500000920E-02 0. -1.
    10030    2    1    2    0    0  0.00000000000E+00  0.00000000000E+00  0.47023494898E+03  0.10046413690E+04  0.88779692107E+03 0.  0.
        1    1    3    3  502    0 -0.33465883075E+03 -0.28415417345E+03  0.30937151849E+03  0.53707621784E+03  0.50400001928E-02 0.  1.
       -1    1    3    3    0  502  0.33465883075E+03  0.28415417345E+03  0.16086343049E+03  0.46756515116E+03  0.50400001928E-02 0. -1.
</event>
<event>
 5   0  0.6092779E-03  0.8992372E+03  0.7818609E-02  0.9426535E-01
       -1   -1    0    0    0  501  0.00000000000E+00  0.00000000000E+00  0.71323883083E+03  0.71323883085E+03  0.50400001928E-02 0.  1.
        1   -1    0    0  501    0  0.00000000000E+00  0.00000000000E+00 -0.28343507495E+03  0.28343507500E+03  0.50400001928E-02 0. -1.
    10030    2    1    2    0    0  0.00000000000E+00  0.00000000000E+00  0.42980375588E+03  0.99667390585E+03  0.89923723568E+03 0.  0.
        2    1    3    3  502    0  0.11884982429E+03  0.32104855324E+03 -0.10815920549E+03  0.35902070694E+03  0.25500000920E-02 0. -1.
       -2    1    3    3    0  502 -0.11884982429E+03 -0.32104855324E+03  0.53796296137E+03  0.63765319891E+03  0.25500000920E-02 0.  1.
</event>
<event>
 5   0  0.1033749E-02  0.9039829E+03  0.7818609E-02  0.9420616E-01
        2   -1    0    0  501    0  0.00000000000E+00  0.00000000000E+00  0.10096111049E+04  0.10096111049E+04  0.25500000920E-02 0. -1.
       -2   -1    0    0    0  501  0.00000000000E+00  0.00000000000E+00 -0.20235146470E+03  0.20235146472E+03  0.25500000920E-02 0.  1.
    10030    2    1    2    0    0  0.00000000000E+00  0.00000000000E+00  0.80725964016E+03  0.12119625696E+04  0.90398293315E+03 0.  0.
        5    1    3    3  502    0 -0.35995376022E+03 -0.22682420495E+03  0.19916544645E+03  0.46979239511E+03  0.46999998093E+01 0. -1.
       -5    1    3    3    0  502  0.35995376022E+03  0.22682420495E+03  0.60809419371E+03  0.74217017447E+03  0.46999998093E+01 0.  1.
</event>
<event>
 5   0  0.6137243E-03  0.8954468E+03  0.7818609E-02  0.9431291E-01
        1   -1    0    0  501    0  0.00000000000E+00  0.00000000000E+00  0.62528692658E+03  0.62528692660E+03  0.50400001928E-02 0.  1.
       -1   -1    0    0    0  501  0.00000000000E+00  0.00000000000E+00 -0.32058284318E+03  0.32058284322E+03  0.50400001928E-02 0. -1.
    10030    2    1    2    0    0  0.00000000000E+00  0.00000000000E+00  0.30470408340E+03  0.94586976981E+03  0.89544683986E+03 0.  0.
        4    1    3    3  502    0 -0.14463692901E+03  0.97330059927E+02  0.58795894351E+03  0.61326202716E+03  0.12699999809E+01 0.  1.
       -4    1    3    3    0  502  0.14463692901E+03 -0.97330059927E+02 -0.28325486011E+03  0.33260774266E+03  0.12699999809E+01 0. -1.
</event>
<event>
 5   0  0.6288003E-03  0.8968649E+03  0.7818609E-02  0.9429509E-01
       -1   -1    0    0    0  501  0.00000000000E+00  0.00000000000E+00  0.16747472350E+03  0.16747472357E+03  0.50400001928E-02 0.  1.
        1   -1    0    0  501    0  0.00000000000E+00  0.00000000000E+00 -0.12007285477E+04  0.12007285477E+04  0.50400001928E-02 0. -1.
    10030    2    1    2    0    0  0.00000000000E+00  0.00000000000E+00 -0.10332538242E+04  0.13682032713E+04  0.89686494320E+03 0.  0.
        1    1    3    3  502    0 -0.21616378822E+03  0.36028144705E+03 -0.27753933806E+03  0.50354502145E+03  0.50400001928E-02 0.  1.
       -1    1    3    3    0  502  0.21616378822E+03 -0.36028144705E+03 -0.75571448617E+03  0.86465824987E+03  0.50400001928E-02 0. -1.
</event>
<event>
 5   0  0.6288003E-03  0.9153081E+03  0.7818609E-02  0.9406645E-01
       -1   -1    0    0    0  501  0.00000000000E+00  0.00000000000E+00  0.19071206053E+03  0.19071206059E+03  0.50400001928E-02 0.  1.
        1   -1    0    0  501    0  0.00000000000E+00  0.00000000000E+00 -0.10982379595E+04  0.10982379595E+04  0.50400001928E-02 0. -1.
    10030    2    1    2    0    0  0.00000000000E+00  0.00000000000E+00 -0.90752589900E+03  0.12889500201E+04  0.91530808860E+03 0.  0.
        1    1    3    3  502    0  0.37130520978E+03  0.25911999941E+03 -0.35996602550E+03  0.57843432855E+03  0.50400001928E-02 0. -1.
       -1    1    3    3    0  502 -0.37130520978E+03 -0.25911999941E+03 -0.54755987350E+03  0.71051569159E+03  0.50400001928E-02 0.  1.
</event>
<event>
 5   0  0.6092779E-03  0.9187739E+03  0.7818609E-02  0.9402413E-01
        1   -1    0    0  501    0  0.00000000000E+00  0.00000000000E+00  0.46380902623E+03  0.46380902626E+03  0.50400001928E-02 0.  1.
       -1   -1    0    0    0  501  0.00000000000E+00  0.00000000000E+00 -0.45500707618E+03  0.45500707620E+03  0.50400001928E-02 0. -1.
    10030    2    1    2    0    0  0.00000000000E+00  0.00000000000E+00  0.88019500585E+01  0.91881610247E+03  0.91877394163E+03 0.  0.
        2    1    3    3  502    0 -0.13006241812E+03  0.25029811137E+03 -0.35820497912E+03  0.45593440782E+03  0.25500000920E-02 0. -1.
       -2    1    3    3    0  502  0.13006241812E+03 -0.25029811137E+03  0.36700692918E+03  0.46288169464E+03  0.25500000920E-02 0.  1.
</event>
<event>
 5   0  0.6288003E-03  0.8791530E+03  0.7818609E-02  0.9452023E-01
        1   -1    0    0  501    0  0.00000000000E+00  0.00000000000E+00  0.39189772259E+03  0.39189772262E+03  0.50400001928E-02 0. -1.
       -1   -1    0    0    0  501  0.00000000000E+00  0.00000000000E+00 -0.49305598995E+03  0.49305598998E+03  0.50400001928E-02 0.  1.
    10030    2    1    2    0    0  0.00000000000E+00  0.00000000000E+00 -0.10115826736E+03  0.88495371260E+03  0.87915304606E+03 0.  0.
        1    1    3    3  502    0 -0.75488598725E+00  0.36497932919E+03 -0.29717929308E+03  0.47066549996E+03  0.50400001928E-02 0.  1.
       -1    1    3    3    0  502  0.75488598725E+00 -0.36497932919E+03  0.19602102572E+03  0.41428821265E+03  0.50400001928E-02 0. -1.
</event>
<event>
 5   0  0.1028978E-02  0.8951350E+03  0.7818609E-02  0.9431683E-01
       -2   -1    0    0    0  501  0.00000000000E+00  0.00000000000E+00  0.23888935476E+03  0.23888935478E+03  0.25500000920E-02 0. -1.
        2   -1    0    0  501    0  0.00000000000E+00  0.00000000000E+00 -0.83853322785E+03  0.83853322785E+03  0.25500000920E-02 0.  1.
    10030    2    1    2    0    0  0.00000000000E+00  0.00000000000E+00 -0.59964387309E+03  0.10774225826E+04  0.89513498816E+03 0.  0.
        3    1    3    3  502    0  0.27648655465E+03 -0.15522340729E+03  0.80379642953E+02  0.32710857260E+03  0.10100000352E+00 0. -1.
       -3    1    3    3    0  502 -0.27648655465E+03  0.15522340729E+03 -0.68002351604E+03  0.75031401002E+03  0.10100000352E+00 0.  1.
</event>
<event>
 5   0  0.6015709E-03  0.8873686E+03  0.7818609E-02  0.9441510E-01
        1   -1    0    0  501    0  0.00000000000E+00  0.00000000000E+00  0.49665498967E+03  0.49665498969E+03  0.50400001928E-02 0.  1.
       -1   -1    0    0    0  501  0.00000000000E+00  0.00000000000E+00 -0.39636321429E+03  0.39636321432E+03  0.50400001928E-02 0. -1.
    10030    2    1    2    0    0  0.00000000000E+00  0.00000000000E+00  0.10029177538E+03  0.89301820401E+03  0.88736862266E+03 0.  0.
        3    1    3    3  502    0  0.16299129223E+03 -0.11252727587E+03 -0.34940475777E+03  0.40163695561E+03  0.10100000352E+00 0. -1.
       -3    1    3    3    0  502 -0.16299129223E+03  0.11252727587E+03  0.44969653315E+03  0.49138124840E+03  0.10100000352E+00 0.  1.
</event>
<event>
 5   0  0.1041727E-02  0.8464760E+03  0.7818609E-02  0.9495079E-01
        2   -1    0    0  501    0  0.00000000000E+00  0.00000000000E+00  0.24910062281E+03  0.24910062282E+03  0.25500000920E-02 0.  1.
       -2   -1    0    0    0  501  0.00000000000E+00  0.00000000000E+00 -0.71910864830E+03  0.71910864831E+03  0.25500000920E-02 0. -1.
    10030    2    1    2    0    0  0.00000000000E+00  0.00000000000E+00 -0.47000802549E+03  0.96820927113E+03  0.84647601777E+03 0.  0.
        4    1    3    3  502    0  0.33965648718E+03  0.24782762207E+03 -0.29037844277E+03  0.51098562844E+03  0.12699999809E+01 0.  1.
       -4    1    3    3    0  502 -0.33965648718E+03 -0.24782762207E+03 -0.17962958272E+03  0.45722364269E+03  0.12699999809E+01 0. -1.
</event>
<event>
 5   0  0.1028978E-02  0.8987633E+03  0.7818609E-02  0.9427129E-01
       -2   -1    0    0    0  501  0.00000000000E+00  0.00000000000E+00  0.38523870420E+03  0.38523870421E+03  0.25500000920E-02 0. -1.
        2   -1    0    0  501    0  0.00000000000E+00  0.00000000000E+00 -0.52420449252E+03  0.52420449252E+03  0.25500000920E-02 0.  1.
    10030    2    1    2    0    0  0.00000000000E+00  0.00000000000E+00 -0.13896578831E+03  0.90944319674E+03  0.89876328239E+03 0.  0.
        3    1    3    3  502    0 -0.60860663701E+02  0.18750705540E+03  0.33914861404E+03  0.39228141533E+03  0.10100000352E+00 0. -1.
       -3    1    3    3    0  502  0.60860663701E+02 -0.18750705540E+03 -0.47811440235E+03  0.51716178140E+03  0.10100000352E+00 0.  1.
</event>
<event>
 5   0  0.1003252E-02  0.9089030E+03  0.7818609E-02  0.9414520E-01
        2   -1    0    0  501    0  0.00000000000E+00  0.00000000000E+00  0.39251078347E+03  0.39251078348E+03  0.25500000920E-02 0.  1.
       -2   -1    0    0    0  501  0.00000000000E+00  0.00000000000E+00 -0.52616682264E+03  0.52616682265E+03  0.25500000920E-02 0. -1.
    10030    2    1    2    0    0  0.00000000000E+00  0.00000000000E+00 -0.13365603917E+03  0.91867760613E+03  0.90890296908E+03 0.  0.
        2    1    3    3  502    0 -0.20883299476E+03 -0.40145216234E+03 -0.10912411429E+03  0.46549235297E+03  0.25500000920E-02 0. -1.
       -2    1    3    3    0  502  0.20883299476E+03  0.40145216234E+03 -0.24531924875E+02  0.45318525317E+03  0.25500000920E-02 0.  1.
</event>
<event>
 5   0  0.6211218E-03  0.9021442E+03  0.7818609E-02  0.9422905E-01
       -1   -1    0    0    0  501  0.00000000000E+00  0.00000000000E+00  0.24690865528E+03  0.24690865533E+03  0.50400001928E-02 0. -1.
        1   -1    0    0  501    0  0.00000000000E+00  0.00000000000E+00 -0.82405384796E+03  0.82405384798E+03  0.50400001928E-02 0.  1.
    10030    2    1    2    0    0  0.00000000000E+00  0.00000000000E+00 -0.57714519268E+03  0.10709625033E+04  0.90214417365E+03 0.  0.
        5    1    3    3  502    0 -0.86159150022E+02 -0.42315431098E+03 -0.44317762928E+03  0.61879840912E+03  0.46999998093E+01 0.  1.
       -5    1    3    3    0  502  0.86159150022E+02  0.42315431098E+03 -0.13396756340E+03  0.45216409419E+03  0.46999998093E+01 0. -1.
</event>
<event>
 5   0  0.6288003E-03  0.8946496E+03  0.7818609E-02  0.9432295E-01
        1   -1    0    0  501    0  0.00000000000E+00  0.00000000000E+00  0.90141426676E+03  0.90141426677E+03  0.50400001928E-02 0.  1.
       -1   -1    0    0    0  501  0.00000000000E+00  0.00000000000E+00 -0.22198392339E+03  0.22198392345E+03  0.50400001928E-02 0. -1.
    10030    2    1    2    0    0  0.00000000000E+00  0.00000000000E+00  0.67943034337E+03  0.11233981902E+04  0.89464959749E+03 0.  0.
        1    1    3    3  502    0  0.30483513874E+03  0.26149081411E+03  0.92381639447E+02  0.41211196902E+03  0.50400001928E-02 0. -1.
       -1    1    3    3    0  502 -0.30483513874E+03 -0.26149081411E+03  0.58704870392E+03  0.71128622120E+03  0.50400001928E-02 0.  1.
</event>
<event>
 5   0  0.1041727E-02  0.8937667E+03  0.7818609E-02  0.9433407E-01
       -2   -1    0    0    0  501  0.00000000000E+00  0.00000000000E+00  0.34339558389E+03  0.34339558390E+03  0.25500000920E-02 0. -1.
        2   -1    0    0  501    0  0.00000000000E+00  0.00000000000E+00 -0.58155877904E+03  0.58155877905E+03  0.25500000920E-02 0.  1.
    10030    2    1    2    0    0  0.00000000000E+00  0.00000000000E+00 -0.23816319515E+03  0.92495436295E+03  0.89376667314E+03 0.  0.
        4    1    3    3  502    0 -0.22715967425E+03  0.12621556624E+03  0.25715807937E+03  0.36560057091E+03  0.12699999809E+01 0. -1.
       -4    1    3    3    0  502  0.22715967425E+03 -0.12621556624E+03 -0.49532127453E+03  0.55935379204E+03  0.12699999809E+01 0.  1.
</event>
<event>
 5   0  0.1041727E-02  0.9010391E+03  0.7818609E-02  0.9424283E-01
        2   -1    0    0  501    0  0.00000000000E+00  0.00000000000E+00  0.10292712665E+04  0.10292712665E+04  0.25500000920E-02 0.  1.
       -2   -1    0    0    0  501  0.00000000000E+00  0.00000000000E+00 -0.19719571091E+03  0.19719571093E+03  0.25500000920E-02 0. -1.
    10030    2    1    2    0    0  0.00000000000E+00  0.00000000000E+00  0.83207555558E+03  0.12264669774E+04  0.90103913151E+03 0.  0.
        4    1    3    3  502    0  0.39968785319E+03  0.82091518049E+02  0.15606912533E+03  0.43686220036E+03  0.12699999809E+01 0. -1.
       -4    1    3    3    0  502 -0.39968785319E+03 -0.82091518049E+02  0.67600643025E+03  0.78960477706E+03  0.12699999809E+01 0.  1.
</event>
<event>
 5   0  0.1033749E-02  0.8767289E+03  0.7818609E-02  0.9455148E-01
       -2   -1    0    0    0  501  0.00000000000E+00  0.00000000000E+00  0.10794673842E+03  0.10794673845E+03  0.25500000920E-02 0.  1.
        2   -1    0    0  501    0  0.00000000000E+00  0.00000000000E+00 -0.17801686048E+04  0.17801686048E+04  0.25500000920E-02 0. -1.
    10030    2    1    2    0    0  0.00000000000E+00  0.00000000000E+00 -0.16722218664E+04  0.18881153432E+04  0.87672890849E+03 0.  0.
        5    1    3    3  502    0  0.40001975702E+03 -0.55871617245E+02 -0.46934321521E+03  0.61922741160E+03  0.46999998093E+01 0. -1.
       -5    1    3    3    0  502 -0.40001975702E+03  0.55871617245E+02 -0.12028786512E+04  0.12688879316E+04  0.46999998093E+01 0.  1.
</event>
<event>
 5   0  0.1028978E-02  0.8828188E+03  0.7818609E-02  0.9447317E-01
        2   -1    0    0  501    0  0.00000000000E+00  0.00000000000E+00  0.72776568264E+03  0.72776568265E+03  0.25500000920E-02 0.  1.
       -2   -1    0    0    0  501  0.00000000000E+00  0.00000000000E+00 -0.26772664598E+03  0.26772664599E+03  0.25500000920E-02 0. -1.
    10030    2    1    2    0    0  0.00000000000E+00  0.00000000000E+00  0.46003903666E+03  0.99549232864E+03  0.88281881557E+03 0.  0.
        3    1    3    3  502    0  0.38424648654E+03  0.11096090164E+03  0.44063147844E+03  0.59507461221E+03  0.10100000352E+00 0. -1.
       -3    1    3    3    0  502 -0.38424648654E+03 -0.11096090164E+03  0.19407558225E+02  0.40041771642E+03  0.10100000352E+00 0.  1.
</event>
<event>
 5   0  0.1041727E-02  0.8960963E+03  0.7818609E-02  0.9430474E-01
        2   -1    0    0  501    0  0.00000000000E+00  0.00000000000E+00  0.67687669720E+03  0.67687669721E+03  0.25500000920E-02 0. -1.
       -2   -1    0    0    0  501  0.00000000000E+00  0.00000000000E+00 -0.29657863372E+03  0.29657863373E+03  0.25500000920E-02 0.  1.
    10030    2    1    2    0    0  0.00000000000E+00  0.00000000000E+00  0.38029806348E+03  0.97345533094E+03  0.89609634764E+03 0.  0.
        4    1    3    3  502    0 -0.78486859817E+02 -0.26114537204E+02  0.66850811983E+03  0.67360735996E+03  0.12699999809E+01 0. -1.
       -4    1    3    3    0  502  0.78486859817E+02  0.26114537204E+02 -0.28821005635E+03  0.29984797098E+03  0.12699999809E+01 0.  1.
</event>
<event>
 5   0  0.6211218E-03  0.9218979E+03  0.7818609E-02  0.9398614E-01
        1   -1    0    0  501    0  0.00000000000E+00  0.00000000000E+00  0.75836962292E+03  0.75836962294E+03  0.50400001928E-02 0. -1.
       -1   -1    0    0    0  501  0.00000000000E+00  0.00000000000E+00 -0.28017202515E+03  0.28017202520E+03  0.50400001928E-02 0.  1.
    10030    2    1    2    0    0  0.00000000000E+00  0.00000000000E+00  0.47819759778E+03  0.10385416481E+04  0.92189794034E+03 0.  0.
        5    1    3    3  502    0  0.16552172737E+03  0.42389722109E+03  0.32161683374E+03  0.55726634029E+03  0.46999998093E+01 0. -1.
       -5    1    3    3    0  502 -0.16552172737E+03 -0.42389722109E+03  0.15658076404E+03  0.48127530785E+03  0.46999998093E+01 0.  1.
</event>
<event>
 5   0  0.6092779E-03  0.9115496E+03  0.7818609E-02  0.9411258E-01
       -1   -1    0    0    0  501  0.00000000000E+00  0.00000000000E+00  0.10506265290E+04  0.10506265290E+04  0.50400001928E-02 0.  1.
        1   -1    0    0  501    0  0.00000000000E+00  0.00000000000E+00 -0.19772076159E+03  0.19772076166E+03  0.50400001928E-02 0. -1.
    10030    2    1    2    0    0  0.00000000000E+00  0.00000000000E+00  0.85290576743E+03  0.12483472907E+04  0.91154962018E+03 0.  0.
        2    1    3    3  502    0  0.36060408412E+03  0.24130080851E+03  0.61753946305E+03  0.75472933831E+03  0.25500000920E-02 0.  1.
       -2    1    3    3    0  502 -0.36060408412E+03 -0.24130080851E+03  0.23536630437E+03  0.49361795238E+03  0.25500000920E-02 0. -1.
</event>
<event>
 5   0  0.3996375E-03  0.8990579E+03  0.7818609E-02  0.9426760E-01
       -3   -1    0    0    0  501  0.00000000000E+00  0.00000000000E+00  0.65297421010E+03  0.65297421791E+03  0.10100000352E+00 0. -1.
        3   -1    0    0  501    0  0.00000000000E+00  0.00000000000E+00 -0.30947052143E+03  0.30947053791E+03  0.10100000352E+00 0.  1.
    10030    2    1    2    0    0  0.00000000000E+00  0.00000000000E+00  0.34350368866E+03  0.96244475582E+03  0.89905790908E+03 0.  0.
        5    1    3    3  502    0  0.23408111656E+03  0.15336541695E+03 -0.20481486272E+03  0.34682292057E+03  0.46999998093E+01 0.  1.
       -5    1    3    3    0  502 -0.23408111656E+03 -0.15336541695E+03  0.54831855138E+03  0.61562183525E+03  0.46999998093E+01 0. -1.
</event>
<event>
 5   0  0.1041727E-02  0.8943999E+03  0.7818609E-02  0.9432609E-01
        2   -1    0    0  501    0  0.00000000000E+00  0.00000000000E+00  0.13378428178E+04  0.13378428178E+04  0.25500000920E-02 0.  1.
       -2   -1    0    0    0  501  0.00000000000E+00  0.00000000000E+00 -0.14948526517E+03  0.14948526519E+03  0.25500000920E-02 0. -1.
    10030    2    1    2    0    0  0.00000000000E+00  0.00000000000E+00  0.11883575526E+04  0.14873280830E+04  0.89439988459E+03 0.  0.
        4    1    3    3  502    0  0.39368383810E+02  0.36535231275E+03  0.10179953851E+04  0.10822885008E+04  0.12699999809E+01 0.  1.
       -4    1    3    3    0  502 -0.39368383810E+02 -0.36535231275E+03  0.17036216752E+03  0.40503958214E+03  0.12699999809E+01 0. -1.
</event>
<event>
 5   0  0.1028978E-02  0.9040870E+03  0.7818609E-02  0.9420487E-01
        2   -1    0    0  501    0  0.00000000000E+00  0.00000000000E+00  0.11774792818E+04  0.11774792818E+04  0.25500000920E-02 0. -1.
       -2   -1    0    0    0  501  0.00000000000E+00  0.00000000000E+00 -0.17354304211E+03  0.17354304213E+03  0.25500000920E-02 0.  1.
    10030    2    1    2    0    0  0.00000000000E+00  0.00000000000E+00  0.10039362397E+04  0.13510223240E+04  0.90408702371E+03 0.  0.
        3    1    3    3  502    0  0.25062749649E+03 -0.22994794032E+03  0.94690594130E+03  0.10061416745E+04  0.10100000352E+00 0. -1.
       -3    1    3    3    0  502 -0.25062749649E+03  0.22994794032E+03  0.57030298425E+02  0.34488064949E+03  0.10100000352E+00 0.  1.
</event>
<event>
 5   0  0.3996375E-03  0.9364802E+03  0.7818609E-02  0.9381094E-01
       -3   -1    0    0    0  501  0.00000000000E+00  0.00000000000E+00  0.18676439107E+03  0.18676441838E+03  0.10100000352E+00 0.  1.
        3   -1    0    0  501    0  0.00000000000E+00  0.00000000000E+00 -0.11739324871E+04  0.11739324914E+04  0.10100000352E+00 0. -1.
    10030    2    1    2    0    0  0.00000000000E+00  0.00000000000E+00 -0.98716809603E+03  0.13606969098E+04  0.93648023503E+03 0.  0.
        2    1    3    3  502    0  0.97796908596E+02 -0.15302641713E+03  0.13350802588E+03  0.22540122593E+03  0.25500000920E-02 0.  1.
       -2    1    3    3    0  502 -0.97796908596E+02  0.15302641713E+03 -0.11206761219E+04  0.11352956839E+04  0.25500000920E-02 0. -1.
</event>
<event>
 5   0  0.1003252E-02  0.8998141E+03  0.7818609E-02  0.9425814E-01
        2   -1    0    0  501    0  0.00000000000E+00  0.00000000000E+00  0.84601161874E+03  0.84601161874E+03  0.25500000920E-02 0. -1.
       -2   -1    0    0    0  501  0.00000000000E+00  0.00000000000E+00 -0.23925955508E+03  0.23925955509E+03  0.25500000920E-02 0.  1.
    10030    2    1    2    0    0  0.00000000000E+00  0.00000000000E+00  0.60675206366E+03  0.10852711738E+04  0.89981412191E+03 0.  0.
        2    1    3    3  502    0 -0.13946683668E+03  0.17708341141E+03 -0.16624208963E+03  0.28008206923E+03  0.25500000920E-02 0.  1.
       -2    1    3    3    0  502  0.13946683668E+03 -0.17708341141E+03  0.77299415329E+03  0.80518910460E+03  0.25500000920E-02 0. -1.
</event>
<event>
 5   0  0.1041727E-02  0.9046300E+03  0.7818609E-02  0.9419812E-01
        2   -1    0    0  501    0  0.00000000000E+00  0.00000000000E+00  0.14358585051E+03  0.14358585053E+03  0.25500000920E-02 0. -1.
       -2   -1    0    0    0  501  0.00000000000E+00  0.00000000000E+00 -0.14248538315E+04  0.14248538315E+04  0.25500000920E-02 0.  1.
    10030    2    1    2    0    0  0.00000000000E+00  0.00000000000E+00 -0.12812679810E+04  0.15684396820E+04  0.90462997797E+03 0.  0.
        4    1    3    3  502    0  0.26900984346E+03 -0.36308702148E+03 -0.67481894559E+03  0.81214574017E+03  0.12699999809E+01 0. -1.
       -4    1    3    3    0  502 -0.26900984346E+03  0.36308702148E+03 -0.60644903537E+03  0.75629394183E+03  0.12699999809E+01 0.  1.
</event>
<event>
 5   0  0.6288003E-03  0.8043603E+03  0.7818609E-02  0.9553727E-01
       -1   -1    0    0    0  501  0.00000000000E+00  0.00000000000E+00  0.60512486417E+03  0.60512486419E+03  0.50400001928E-02 0.  1.
        1   -1    0    0  501    0  0.00000000000E+00  0.00000000000E+00 -0.26729832773E+03  0.26729832777E+03  0.50400001928E-02 0. -1.
    10030    2    1    2    0    0  0.00000000000E+00  0.00000000000E+00  0.33782653644E+03  0.87242319196E+03  0.80436027820E+03 0.  0.
        1    1    3    3  502    0  0.15453076069E+03  0.34910491880E+03  0.31740829004E+02  0.38309461048E+03  0.50400001928E-02 0. -1.
       -1    1    3    3    0  502 -0.15453076069E+03 -0.34910491880E+03  0.30608570744E+03  0.48932858148E+03  0.50400001928E-02 0.  1.
</event>
<event>
 5   0  0.1003252E-02  0.9181848E+03  0.7818609E-02  0.9403131E-01
        2   -1    0    0  501    0  0.00000000000E+00  0.00000000000E+00  0.78020547101E+03  0.78020547101E+03  0.25500000920E-02 0.  1.
       -2   -1    0    0    0  501  0.00000000000E+00  0.00000000000E+00 -0.27014141727E+03  0.27014141728E+03  0.25500000920E-02 0. -1.
    10030    2    1    2    0    0  0.00000000000E+00  0.00000000000E+00  0.51006405374E+03  0.10503468883E+04  0.91818475637E+03 0.  0.
        2    1    3    3  502    0 -0.10015325927E+03  0.17480727351E+03  0.72693619436E+03  0.75433711886E+03  0.25500000920E-02 0.  1.
       -2    1    3    3    0  502  0.10015325927E+03 -0.17480727351E+03 -0.21687214062E+03  0.29600976943E+03  0.25500000920E-02 0. -1.
</event>
<event>
 5   0  0.6211218E-03  0.8948572E+03  0.7818609E-02  0.9432033E-01
       -1   -1    0    0    0  501  0.00000000000E+00  0.00000000000E+00  0.68695412884E+03  0.68695412886E+03  0.50400001928E-02 0.  1.
        1   -1    0    0  501    0  0.00000000000E+00  0.00000000000E+00 -0.29142029245E+03  0.29142029249E+03  0.50400001928E-02 0. -1.
    10030    2    1    2    0    0  0.00000000000E+00  0.00000000000E+00  0.39553383640E+03  0.97837442135E+03  0.89485724706E+03 0.  0.
        5    1    3    3  502    0  0.10160521106E+02  0.81864731576E+02 -0.28300656120E+03  0.29482176674E+03  0.46999998093E+01 0. -1.
       -5    1    3    3    0  502 -0.10160521106E+02 -0.81864731576E+02  0.67854039759E+03  0.68355265461E+03  0.46999998093E+01 0.  1.
</event>
<event>
 5   0  0.3996375E-03  0.8953910E+03  0.7818609E-02  0.9431361E-01
        3   -1    0    0  501    0  0.00000000000E+00  0.00000000000E+00  0.26101592403E+03  0.26101594357E+03  0.10100000352E+00 0.  1.
       -3   -1    0    0    0  501  0.00000000000E+00  0.00000000000E+00 -0.76788894494E+03  0.76788895158E+03  0.10100000352E+00 0. -1.
    10030    2    1    2    0    0  0.00000000000E+00  0.00000000000E+00 -0.50687302091E+03  0.10289048951E+04  0.89539098942E+03 0.  0.
        3    1    3    3  502    0  0.29551207305E+03 -0.24784849018E+03 -0.51465426941E+03  0.64313706675E+03  0.10100000352E+00 0. -1.
       -3    1    3    3    0  502 -0.29551207305E+03  0.24784849018E+03  0.77812485031E+01  0.38576782840E+03  0.10100000352E+00 0.  1.
</event>
<event>
 5   0  0.6015709E-03  0.9017248E+03  0.7818609E-02  0.9423428E-01
       -1   -1    0    0    0  501  0.00000000000E+00  0.00000000000E+00  0.22482085655E+03  0.22482085660E+03  0.50400001928E-02 0.  1.
        1   -1    0    0  501    0  0.00000000000E+00  0.00000000000E+00 -0.90417273315E+03  0.90417273316E+03  0.50400001928E-02 0. -1.
    10030    2    1    2    0    0  0.00000000000E+00  0.00000000000E+00 -0.67935187660E+03  0.11289935898E+04  0.90172476593E+03 0.  0.
        3    1    3    3  502    0 -0.16371217420E+03  0.82072906115E+02  0.17615644762E+03  0.25410380190E+03  0.10100000352E+00 0.  1.
       -3    1    3    3    0  502  0.16371217420E+03 -0.82072906115E+02 -0.85550832423E+03  0.87488978787E+03  0.10100000352E+00 0. -1.
</event>
<event>
 5   0  0.1033749E-02  0.8855034E+03  0.7818609E-02  0.9443886E-01
        2   -1    0    0  501    0  0.00000000000E+00  0.00000000000E+00  0.25080787660E+03  0.25080787661E+03  0.25500000920E-02 0. -1.
       -2   -1    0    0    0  501  0.00000000000E+00  0.00000000000E+00 -0.78159064164E+03  0.78159064164E+03  0.25500000920E-02 0.  1.
    10030    2    1    2    0    0  0.00000000000E+00  0.00000000000E+00 -0.53078276504E+03  0.10323985182E+04  0.88550344822E+03 0.  0.
        5    1    3    3  502    0 -0.23421291417E+03  0.37543590713E+03 -0.24893666123E+03  0.50773946156E+03  0.46999998093E+01 0.  1.
       -5    1    3    3    0  502  0.23421291417E+03 -0.37543590713E+03 -0.28184610381E+03  0.52465905668E+03  0.46999998093E+01 0. -1.
</event>
<event>
 5   0  0.6211218E-03  0.9010630E+03  0.7818609E-02  0.9424254E-01
       -1   -1    0    0    0  501  0.00000000000E+00  0.00000000000E+00  0.27381791374E+03  0.27381791378E+03  0.50400001928E-02 0.  1.
        1   -1    0    0  501    0  0.00000000000E+00  0.00000000000E+00 -0.74129047137E+03  0.74129047138E+03  0.50400001928E-02 0. -1.
    10030    2    1    2    0    0  0.00000000000E+00  0.00000000000E+00 -0.46747255763E+03  0.10151083852E+04  0.90106295091E+03 0.  0.
        5    1    3    3  502    0  0.29239836390E+02 -0.29033619230E+03 -0.62040746665E+03  0.68562204404E+03  0.46999998093E+01 0. -1.
       -5    1    3    3    0  502 -0.29239836390E+02  0.29033619230E+03  0.15293490902E+03  0.32948634113E+03  0.46999998093E+01 0.  1.
</event>
<event>
 5   0  0.1028978E-02  0.8933345E+03  0.7818609E-02  0.9433952E-01
       -2   -1    0    0    0  501  0.00000000000E+00  0.00000000000E+00  0.31971121861E+03  0.31971121862E+03  0.25500000920E-02 0.  1.
        2   -1    0    0  501    0  0.00000000000E+00  0.00000000000E+00 -0.62403699047E+03  0.62403699048E+03  0.25500000920E-02 0. -1.
    10030    2    1    2    0    0  0.00000000000E+00  0.00000000000E+00 -0.30432577186E+03  0.94374820910E+03  0.89333448761E+03 0.  0.
        3    1    3    3  502    0 -0.67428200472E+02 -0.38251243976E+03  0.80850184692E+02  0.39673554334E+03  0.10100000352E+00 0.  1.
       -3    1    3    3    0  502  0.67428200472E+02  0.38251243976E+03 -0.38517595655E+03  0.54701266575E+03  0.10100000352E+00 0. -1.
</event>
<event>
 5   0  0.6288003E-03  0.8996922E+03  0.7818609E-02  0.9425966E-01
        1   -1    0    0  501    0  0.00000000000E+00  0.00000000000E+00  0.17318759697E+04  0.17318759697E+04  0.50400001928E-02 0.  1.
       -1   -1    0    0    0  501  0.00000000000E+00  0.00000000000E+00 -0.11684526893E+03  0.11684526904E+03  0.50400001928E-02 0. -1.
    10030    2    1    2    0    0  0.00000000000E+00  0.00000000000E+00  0.16150307008E+04  0.18487212388E+04  0.89969219969E+03 0.  0.
        1    1    3    3  502    0  0.29316483369E+03  0.58906592012E+02  0.14980933277E+04  0.15276449931E+04  0.50400001928E-02 0.  1.
       -1    1    3    3    0  502 -0.29316483369E+03 -0.58906592012E+02  0.11693737306E+03  0.32107624568E+03  0.50400001928E-02 0. -1.
</event>
<event>
 5   0  0.6015709E-03  0.8984404E+03  0.7818609E-02  0.9427533E-01
        1   -1    0    0  501    0  0.00000000000E+00  0.00000000000E+00  0.97896457271E+03  0.97896457272E+03  0.50400001928E-02 0.  1.
       -1   -1    0    0    0  501  0.00000000000E+00  0.00000000000E+00 -0.20613493032E+03  0.20613493038E+03  0.50400001928E-02 0. -1.
    10030    2    1    2    0    0  0.00000000000E+00  0.00000000000E+00  0.77282964238E+03  0.11850995031E+04  0.89844041322E+03 0.  0.
        3    1    3    3  502    0 -0.30956852013E+03  0.12694340735E+03  0.78180708740E+03  0.85039380844E+03  0.10100000352E+00 0.  1.
       -3    1    3    3    0  502  0.30956852013E+03 -0.12694340735E+03 -0.89774450101E+01  0.33470569467E+03  0.10100000352E+00 0. -1.
</event>
<event>
 5   0  0.1028978E-02  0.9200310E+03  0.7818609E-02  0.9400882E-01
       -2   -1    0    0    0  501  0.00000000000E+00  0.00000000000E+00  0.23594868677E+03  0.23594868678E+03  0.25500000920E-02 0.  1.
        2   -1    0    0  501    0  0.00000000000E+00  0.00000000000E+00 -0.89686565247E+03  0.89686565247E+03  0.25500000920E-02 0. -1.
    10030    2    1    2    0    0  0.00000000000E+00  0.00000000000E+00 -0.66091696570E+03  0.11328143393E+04  0.92003102756E+03 0.  0.
        3    1    3    3  502    0  0.15923602703E+02 -0.20459671759E+03  0.17646481141E+03  0.27065331670E+03  0.10100000352E+00 0.  1.
       -3    1    3    3    0  502 -0.15923602703E+02  0.20459671759E+03 -0.83738177712E+03  0.86216102256E+03  0.10100000352E+00 0. -1.
</event>
<event>
 5   0  0.1033749E-02  0.9050301E+03  0.7818609E-02  0.9419315E-01
       -2   -1    0    0    0  501  0.00000000000E+00  0.00000000000E+00  0.17819254993E+03  0.17819254995E+03  0.25500000920E-02 0.  1.
        2   -1    0    0  501    0  0.00000000000E+00  0.00000000000E+00 -0.11491495693E+04  0.11491495693E+04  0.25500000920E-02 0. -1.
    10030    2    1    2    0    0  0.00000000000E+00  0.00000000000E+00 -0.97095701933E+03  0.13273421192E+04  0.90503014759E+03 0.  0.
        5    1    3    3  502    0 -0.35702202060E+03 -0.19620853596E+03 -0.19664116314E+03  0.45238517860E+03  0.46999998093E+01 0.  1.
       -5    1    3    3    0  502  0.35702202060E+03  0.19620853596E+03 -0.77431585620E+03  0.87495694062E+03  0.46999998093E+01 0. -1.
</event>
<event>
 5   0  0.1033749E-02  0.9023151E+03  0.7818609E-02  0.9422692E-01
       -2   -1    0    0    0  501  0.00000000000E+00  0.00000000000E+00  0.17903561551E+03  0.17903561552E+03  0.25500000920E-02 0. -1.
        2   -1    0    0  501    0  0.00000000000E+00  0.00000000000E+00 -0.11368862815E+04  0.11368862815E+04  0.25500000920E-02 0.  1.
    10030    2    1    2    0    0  0.00000000000E+00  0.00000000000E+00 -0.95785066599E+03  0.13159218970E+04  0.90231510057E+03 0.  0.
        5    1    3    3  502    0 -0.10517018590E+03 -0.22048876416E+02 -0.11179141178E+04  0.11230765716E+04  0.46999998093E+01 0.  1.
       -5    1    3    3    0  502  0.10517018590E+03  0.22048876416E+02  0.16006345177E+03  0.19284532544E+03  0.46999998093E+01 0. -1.
</event>
<event>
 5   0  0.6137243E-03  0.9005781E+03  0.7818609E-02  0.9424859E-01
        1   -1    0    0  501    0  0.00000000000E+00  0.00000000000E+00  0.11427382304E+04  0.11427382304E+04  0.50400001928E-02 0. -1.
       -1   -1    0    0    0  501  0.00000000000E+00  0.00000000000E+00 -0.17743365104E+03  0.17743365111E+03  0.50400001928E-02 0.  1.
    10030    2    1    2    0    0  0.00000000000E+00  0.00000000000E+00  0.96530457933E+03  0.13201718815E+04  0.90057807314E+03 0.  0.
        4    1    3    3  502    0  0.37626967202E+03  0.43461697710E+02  0.12570603299E+03  0.39908821691E+03  0.12699999809E+01 0.  1.
       -4    1    3    3    0  502 -0.37626967202E+03 -0.43461697710E+02  0.83959854634E+03  0.92108366458E+03  0.12699999809E+01 0. -1.
</event>
<event>
 5   0  0.6211218E-03  0.8779966E+03  0.7818609E-02  0.9453513E-01
        1   -1    0    0  501    0  0.00000000000E+00  0.00000000000E+00  0.25595151270E+03  0.25595151275E+03  0.50400001928E-02 0.  1.
       -1   -1    0    0    0  501  0.00000000000E+00  0.00000000000E+00 -0.75295325140E+03  0.75295325142E+03  0.50400001928E-02 0. -1.
    10030    2    1    2    0    0  0.00000000000E+00  0.00000000000E+00 -0.49700173870E+03  0.10089047642E+04  0.87799663717E+03 0.  0.
        5    1    3    3  502    0  0.14999984407E+03  0.19327947896E+03 -0.66731623760E+03  0.71076716382E+03  0.46999998093E+01 0. -1.
       -5    1    3    3    0  502 -0.14999984407E+03 -0.19327947896E+03  0.17031449889E+03  0.29813760034E+03  0.46999998093E+01 0.  1.
</event>
<event>
 5   0  0.6137243E-03  0.8958491E+03  0.7818609E-02  0.9430785E-01
        1   -1    0    0  501    0  0.00000000000E+00  0.00000000000E+00  0.87496123554E+03  0.87496123555E+03  0.50400001928E-02 0. -1.
       -1   -1    0    0    0  501  0.00000000000E+00  0.00000000000E+00 -0.22930892534E+03  0.22930892540E+03  0.50400001928E-02 0.  1.
    10030    2    1    2    0    0  0.00000000000E+00  0.00000000000E+00  0.64565231020E+03  0.11042701609E+04  0.89584914059E+03 0.  0.
        4    1    3    3  502    0 -0.42025893194E+03 -0.15323917064E+03  0.29431498068E+03  0.53546496995E+03  0.12699999809E+01 0. -1.
       -4    1    3    3    0  502  0.42025893194E+03  0.15323917064E+03  0.35133732952E+03  0.56880519100E+03  0.12699999809E+01 0.  1.
</event>
<event>
 5   0  0.6015709E-03  0.9025832E+03  0.7818609E-02  0.9422358E-01
       -1   -1    0    0    0  501  0.00000000000E+00  0.00000000000E+00  0.25434142951E+03  0.25434142956E+03  0.50400001928E-02 0.  1.
        1   -1    0    0  501    0  0.00000000000E+00  0.00000000000E+00 -0.80075081290E+03  0.80075081292E+03  0.50400001928E-02 0. -1.
    10030    2    1    2    0    0  0.00000000000E+00  0.00000000000E+00 -0.54640938339E+03  0.10550922425E+04  0.90258319610E+03 0.  0.
        3    1    3    3  502    0 -0.33956752529E+03 -0.14382341080E+03  0.30891035995E+02  0.37006154087E+03  0.10100000352E+00 0.  1.
       -3    1    3    3    0  502  0.33956752529E+03  0.14382341080E+03 -0.57730041939E+03  0.68503070161E+03  0.10100000352E+00 0. -1.
</event>
<event>
 5   0  0.3996375E-03  0.8983407E+03  0.7818609E-02  0.9427658E-01
        3   -1    0    0  501    0  0.00000000000E+00  0.00000000000E+00  0.41725026179E+03  0.41725027402E+03  0.10100000352E+00 0.  1.
       -3   -1    0    0    0  501  0.00000000000E+00  0.00000000000E+00 -0.48353231933E+03  0.48353232988E+03  0.10100000352E+00 0. -1.
    10030    2    1    2    0    0  0.00000000000E+00  0.00000000000E+00 -0.66282057536E+02  0.90078260390E+03  0.89834068612E+03 0.  0.
        5    1    3    3  502    0 -0.29729685801E+03 -0.76962980826E+02  0.29550465511E+03  0.42620865007E+03  0.46999998093E+01 0.  1.
       -5    1    3    3    0  502  0.29729685801E+03  0.76962980826E+02 -0.36178671265E+03  0.47457395383E+03  0.46999998093E+01 0. -1.
</event>
<event>
 5   0  0.6137243E-03  0.7761648E+03  0.7818609E-02  0.9595173E-01
       -1   -1    0    0    0  501  0.00000000000E+00  0.00000000000E+00  0.36506867900E+03  0.36506867903E+03  0.50400001928E-02 0. -1.
        1   -1    0    0  501    0  0.00000000000E+00  0.00000000000E+00 -0.41254687368E+03  0.41254687371E+03  0.50400001928E-02 0.  1.
    10030    2    1    2    0    0  0.00000000000E+00  0.00000000000E+00 -0.47478194681E+02  0.77761555274E+03  0.77616478205E+03 0.  0.
        4    1    3    3  502    0 -0.13372017989E+02 -0.38271604556E+03  0.39274784374E+02  0.38496039275E+03  0.12699999809E+01 0. -1.
       -4    1    3    3    0  502  0.13372017989E+02  0.38271604556E+03 -0.86752979055E+02  0.39265516000E+03  0.12699999809E+01 0.  1.
</event>
<event>
 5   0  0.1028978E-02  0.8989529E+03  0.7818609E-02  0.9426891E-01
       -2   -1    0    0    0  501  0.00000000000E+00  0.00000000000E+00  0.10914058125E+03  0.10914058128E+03  0.25500000920E-02 0.  1.
        2   -1    0    0  501    0  0.00000000000E+00  0.00000000000E+00 -0.18510901779E+04  0.18510901779E+04  0.25500000920E-02 0. -1.
    10030    2    1    2    0    0  0.00000000000E+00  0.00000000000E+00 -0.17419495967E+04  0.19602307592E+04  0.89895285304E+03 0.  0.
        3    1    3    3  502    0  0.16750208342E+03  0.36550151417E+03 -0.13091597284E+04  0.13695063013E+04  0.10100000352E+00 0. -1.
       -3    1    3    3    0  502 -0.16750208342E+03 -0.36550151417E+03 -0.43278986828E+03  0.59072445785E+03  0.10100000352E+00 0.  1.
</event>
<event>
 5   0  0.1033749E-02  0.9003966E+03  0.7818609E-02  0.9425086E-01
       -2   -1    0    0    0  501  0.00000000000E+00  0.00000000000E+00  0.17764458166E+03  0.17764458168E+03  0.25500000920E-02 0.  1.
        2   -1    0    0  501    0  0.00000000000E+00  0.00000000000E+00 -0.11409213140E+04  0.11409213140E+04  0.25500000920E-02 0. -1.
    10030    2    1    2    0    0  0.00000000000E+00  0.00000000000E+00 -0.96327673233E+03  0.13185658957E+04  0.90039655606E+03 0.  0.
        5    1    3    3  502    0  0.19185826053E+03 -0.27160747292E+03 -0.92600524299E+03  0.98391463630E+03  0.46999998093E+01 0. -1.
       -5    1    3    3    0  502 -0.19185826053E+03  0.27160747292E+03 -0.37271489339E+02  0.33465125937E+03  0.46999998093E+01 0.  1.
</event>
<event>
 5   0  0.1033749E-02  0.9014801E+03  0.7818609E-02  0.9423733E-01
        2   -1    0    0  501    0  0.00000000000E+00  0.00000000000E+00  0.15780185489E+04  0.15780185489E+04  0.25500000920E-02 0. -1.
       -2   -1    0    0    0  501  0.00000000000E+00  0.00000000000E+00 -0.12874790447E+03  0.12874790450E+03  0.25500000920E-02 0.  1.
    10030    2    1    2    0    0  0.00000000000E+00  0.00000000000E+00  0.14492706444E+04  0.17067664534E+04  0.90148007500E+03 0.  0.
        5    1    3    3  502    0 -0.17979215154E+03  0.40479349420E+03  0.56666721958E+03  0.71924739725E+03  0.46999998093E+01 0. -1.
       -5    1    3    3    0  502  0.17979215154E+03 -0.40479349420E+03  0.88260342479E+03  0.98751905610E+03  0.46999998093E+01 0.  1.
</event>
<event>
 5   0  0.6288003E-03  0.8915744E+03  0.7818609E-02  0.9436176E-01
       -1   -1    0    0    0  501  0.00000000000E+00  0.00000000000E+00  0.10185928713E+04  0.10185928713E+04  0.50400001928E-02 0.  1.
        1   -1    0    0  501    0  0.00000000000E+00  0.00000000000E+00 -0.19509879209E+03  0.19509879216E+03  0.50400001928E-02 0. -1.
    10030    2    1    2    0    0  0.00000000000E+00  0.00000000000E+00  0.82349407924E+03  0.12136916635E+04  0.89157442511E+03 0.  0.
        1    1    3    3  502    0  0.24697535742E+03  0.87074897864E+02  0.90284538543E+03  0.94005779346E+03  0.50400001928E-02 0.  1.
       -1    1    3    3    0  502 -0.24697535742E+03 -0.87074897864E+02 -0.79351306196E+02  0.27363387004E+03  0.50400001928E-02 0. -1.
</event>
<event>
 5   0  0.1017079E-02  0.9031108E+03  0.7818609E-02  0.9421701E-01
       -2   -1    0    0    0  501  0.00000000000E+00  0.00000000000E+00  0.16758341308E+03  0.16758341310E+03  0.25500000920E-02 0.  1.
        2   -1    0    0  501    0  0.00000000000E+00  0.00000000000E+00 -0.12167210397E+04  0.12167210397E+04  0.25500000920E-02 0. -1.
    10030    2    1    2    0    0  0.00000000000E+00  0.00000000000E+00 -0.10491376267E+04  0.13843044528E+04  0.90311076757E+03 0.  0.
        1    1    3    3  502    0  0.10083369923E+03 -0.67331898487E+02 -0.11913027952E+04  0.11974570428E+04  0.50400001928E-02 0. -1.
       -1    1    3    3    0  502 -0.10083369923E+03  0.67331898487E+02  0.14216516857E+03  0.18684741003E+03  0.50400001928E-02 0.  1.
</event>
<event>
 5   0  0.1017079E-02  0.8966777E+03  0.7818609E-02  0.9429744E-01
       -2   -1    0    0    0  501  0.00000000000E+00  0.00000000000E+00  0.17879231715E+03  0.17879231717E+03  0.25500000920E-02 0. -1.
        2   -1    0    0  501    0  0.00000000000E+00  0.00000000000E+00 -0.11242526849E+04  0.11242526849E+04  0.25500000920E-02 0.  1.
    10030    2    1    2    0    0  0.00000000000E+00  0.00000000000E+00 -0.94546036773E+03  0.13030450021E+04  0.89667774057E+03 0.  0.
        1    1    3    3  502    0 -0.15988666137E+03  0.41082293255E+03 -0.35406108872E+03  0.56541885445E+03  0.50400001928E-02 0. -1.
       -1    1    3    3    0  502  0.15988666137E+03 -0.41082293255E+03 -0.59139927901E+03  0.73762614760E+03  0.50400001928E-02 0.  1.
</event>
<event>
 5   0  0.6015709E-03  0.9051603E+03  0.7818609E-02  0.9419154E-01
       -1   -1    0    0    0  501  0.00000000000E+00  0.00000000000E+00  0.99070689987E+02  0.99070690115E+02  0.50400001928E-02 0.  1.
        1   -1    0    0  501    0  0.00000000000E+00  0.00000000000E+00 -0.20675014754E+04  0.20675014754E+04  0.50400001928E-02 0. -1.
    10030    2    1    2    0    0  0.00000000000E+00  0.00000000000E+00 -0.19684307854E+04  0.21665721655E+04  0.90516031256E+03 0.  0.
        3    1    3    3  502    0  0.11756312057E+03  0.79482347777E+02  0.44439386346E+02  0.14870575035E+03  0.10100000352E+00 0.  1.
       -3    1    3    3    0  502 -0.11756312057E+03 -0.79482347777E+02 -0.20128701717E+04  0.20178664151E+04  0.10100000352E+00 0. -1.
</event>
<event>
 5   0  0.1041727E-02  0.8821258E+03  0.7818609E-02  0.9448205E-01
        2   -1    0    0  501    0  0.00000000000E+00  0.00000000000E+00  0.44948791113E+03  0.44948791114E+03  0.25500000920E-02 0.  1.
       -2   -1    0    0    0  501  0.00000000000E+00  0.00000000000E+00 -0.43279581844E+03  0.43279581845E+03  0.25500000920E-02 0. -1.
    10030    2    1    2    0    0  0.00000000000E+00  0.00000000000E+00  0.16692092687E+02  0.88228372959E+03  0.88212581503E+03 0.  0.
        4    1    3    3  502    0  0.26601987126E+03  0.28459250832E+03  0.21520523544E+03  0.44505547290E+03  0.12699999809E+01 0.  1.
       -4    1    3    3    0  502 -0.26601987126E+03 -0.28459250832E+03 -0.19851314276E+03  0.43722825669E+03  0.12699999809E+01 0. -1.
</event>
<event>
 5   0  0.6092779E-03  0.8675749E+03  0.7818609E-02  0.9467047E-01
        1   -1    0    0  501    0  0.00000000000E+00  0.00000000000E+00  0.12157503573E+04  0.12157503573E+04  0.50400001928E-02 0. -1.
       -1   -1    0    0    0  501  0.00000000000E+00  0.00000000000E+00 -0.15477812003E+03  0.15477812011E+03  0.50400001928E-02 0.  1.
    10030    2    1    2    0    0  0.00000000000E+00  0.00000000000E+00  0.10609722373E+04  0.13705284774E+04  0.86757490694E+03 0.  0.
        2    1    3    3  502    0  0.29553017403E+03 -0.25165130516E+02  0.30433911966E+02  0.29815698979E+03  0.25500000920E-02 0.  1.
       -2    1    3    3    0  502 -0.29553017403E+03  0.25165130516E+02  0.10305383253E+04  0.10723714876E+04  0.25500000920E-02 0. -1.
</event>
<event>
 5   0  0.1003252E-02  0.8978577E+03  0.7818609E-02  0.9428263E-01
       -2   -1    0    0    0  501  0.00000000000E+00  0.00000000000E+00  0.22170728149E+03  0.22170728151E+03  0.25500000920E-02 0.  1.
        2   -1    0    0  501    0  0.00000000000E+00  0.00000000000E+00 -0.90902351433E+03  0.90902351433E+03  0.25500000920E-02 0. -1.
    10030    2    1    2    0    0  0.00000000000E+00  0.00000000000E+00 -0.68731623284E+03  0.11307307958E+04  0.89785774416E+03 0.  0.
        2    1    3    3  502    0 -0.17092095332E+03 -0.36145946545E+03 -0.86580326974E+02  0.40910031835E+03  0.25500000920E-02 0.  1.
       -2    1    3    3    0  502  0.17092095332E+03  0.36145946545E+03 -0.60073590586E+03  0.72163047749E+03  0.25500000920E-02 0. -1.
</event>
<event>
 5   0  0.6288003E-03  0.8976517E+03  0.7818609E-02  0.9428522E-01
        1   -1    0    0  501    0  0.00000000000E+00  0.00000000000E+00  0.25764722361E+03  0.25764722366E+03  0.50400001928E-02 0. -1.
       -1   -1    0    0    0  501  0.00000000000E+00  0.00000000000E+00 -0.78186224685E+03  0.78186224687E+03  0.50400001928E-02 0.  1.
    10030    2    1    2    0    0  0.00000000000E+00  0.00000000000E+00 -0.52421502324E+03  0.10395094705E+04  0.89765168564E+03 0.  0.
        1    1    3    3  502    0  0.35744896325E+03 -0.15705728582E+03 -0.57455542084E+01  0.39047376836E+03  0.50400001928E-02 0.  1.
       -1    1    3    3    0  502 -0.35744896325E+03  0.15705728582E+03 -0.51846946903E+03  0.64903570217E+03  0.50400001928E-02 0. -1.
</event>
<event>
 5   0  0.1003252E-02  0.9211296E+03  0.7818609E-02  0.9399547E-01
        2   -1    0    0  501    0  0.00000000000E+00  0.00000000000E+00  0.74399271143E+03  0.74399271143E+03  0.25500000920E-02 0. -1.
       -2   -1    0    0    0  501  0.00000000000E+00  0.00000000000E+00 -0.28511021894E+03  0.28511021896E+03  0.25500000920E-02 0.  1.
    10030    2    1    2    0    0  0.00000000000E+00  0.00000000000E+00  0.45888249249E+03  0.10291029304E+04  0.92112957798E+03 0.  0.
        2    1    3    3  502    0  0.84837997519E+02  0.42843895031E+03  0.39273297029E+03  0.58736411699E+03  0.25500000920E-02 0. -1.
       -2    1    3    3    0  502 -0.84837997519E+02 -0.42843895031E+03  0.66149522196E+02  0.44173881340E+03  0.25500000920E-02 0.  1.
</event>
<event>
 5   0  0.1033749E-02  0.9048033E+03  0.7818609E-02  0.9419597E-01
        2   -1    0    0  501    0  0.00000000000E+00  0.00000000000E+00  0.14149156263E+04  0.14149156263E+04  0.25500000920E-02 0. -1.
       -2   -1    0    0    0  501  0.00000000000E+00  0.00000000000E+00 -0.14464980296E+03  0.14464980298E+03  0.25500000920E-02 0.  1.
    10030    2    1    2    0    0  0.00000000000E+00  0.00000000000E+00  0.12702658233E+04  0.15595654293E+04  0.90480333016E+03 0.  0.
        5    1    3    3  502    0 -0.27183500856E+02 -0.42431759662E+03  0.90138437915E+03  0.99664449755E+03  0.46999998093E+01 0. -1.
       -5    1    3    3    0  502  0.27183500856E+02  0.42431759662E+03  0.36888144420E+03  0.56292093174E+03  0.46999998093E+01 0.  1.
</event>
<event>
 5   0  0.1033749E-02  0.8936628E+03  0.7818609E-02  0.9433538E-01
       -2   -1    0    0    0  501  0.00000000000E+00  0.00000000000E+00  0.14281050060E+03  0.14281050062E+03  0.25500000920E-02 0.  1.
        2   -1    0    0  501    0  0.00000000000E+00  0.00000000000E+00 -0.13980645541E+04  0.13980645541E+04  0.25500000920E-02 0. -1.
    10030    2    1    2    0    0  0.00000000000E+00  0.00000000000E+00 -0.12552540535E+04  0.15408750548E+04  0.89366279741E+03 0.  0.
        5    1    3    3  502    0 -0.35774198281E+03 -0.11150757289E+03 -0.10472301779E+04  0.11122618400E+04  0.46999998093E+01 0. -1.
       -5    1    3    3    0  502  0.35774198281E+03  0.11150757289E+03 -0.20802387560E+03  0.42861321479E+03  0.46999998093E+01 0.  1.
</event>
<event>
 5   0  0.3996375E-03  0.8889196E+03  0.7818609E-02  0.9439539E-01
        4   -1    0    0  501    0  0.00000000000E+00  0.00000000000E+00  0.19269346140E+03  0.19269764650E+03  0.12699999809E+01 0.  1.
       -4   -1    0    0    0  501  0.00000000000E+00  0.00000000000E+00 -0.10251593673E+04  0.10251601540E+04  0.12699999809E+01 0. -1.
    10030    2    1    2    0    0  0.00000000000E+00  0.00000000000E+00 -0.83246590590E+03  0.12178578005E+04  0.88891964634E+03 0.  0.
        2    1    3    3  502    0  0.30095322705E+03 -0.18071584681E+03 -0.42752519393E+02  0.35363659325E+03  0.25500000920E-02 0.  1.
       -2    1    3    3    0  502 -0.30095322705E+03  0.18071584681E+03 -0.78971338651E+03  0.86422120722E+03  0.25500000920E-02 0. -1.
</event>
<event>
 5   0  0.6288003E-03  0.8991381E+03  0.7818609E-02  0.9426660E-01
        1   -1    0    0  501    0  0.00000000000E+00  0.00000000000E+00  0.18477092321E+03  0.18477092328E+03  0.50400001928E-02 0.  1.
       -1   -1    0    0    0  501  0.00000000000E+00  0.00000000000E+00 -0.10938535148E+04  0.10938535149E+04  0.50400001928E-02 0. -1.
    10030    2    1    2    0    0  0.00000000000E+00  0.00000000000E+00 -0.90908259164E+03  0.12786244381E+04  0.89913808472E+03 0.  0.
        1    1    3    3  502    0 -0.44818271290E+03  0.32168269197E+02 -0.43394444331E+03  0.62466816918E+03  0.50400001928E-02 0. -1.
       -1    1    3    3    0  502  0.44818271290E+03 -0.32168269197E+02 -0.47513814833E+03  0.65395626896E+03  0.50400001928E-02 0.  1.
</event>
<event>
 5   0  0.6015709E-03  0.8957797E+03  0.7818609E-02  0.9430872E-01
       -1   -1    0    0    0  501  0.00000000000E+00  0.00000000000E+00  0.20356842333E+03  0.20356842339E+03  0.50400001928E-02 0.  1.
        1   -1    0    0  501    0  0.00000000000E+00  0.00000000000E+00 -0.98544414989E+03  0.98544414990E+03  0.50400001928E-02 0. -1.
    10030    2    1    2    0    0  0.00000000000E+00  0.00000000000E+00 -0.78187572656E+03  0.11890125733E+04  0.89577968702E+03 0.  0.
        3    1    3    3  502    0 -0.19281612252E+02  0.12419927852E+03 -0.96155615803E+03  0.96973578700E+03  0.10100000352E+00 0. -1.
       -3    1    3    3    0  502  0.19281612252E+02 -0.12419927852E+03  0.17968043147E+03  0.21927678630E+03  0.10100000352E+00 0.  1.
</event>
<event>
 5   0  0.6015709E-03  0.8993119E+03  0.7818609E-02  0.9426442E-01
        1   -1    0    0  501    0  0.00000000000E+00  0.00000000000E+00  0.84709499016E+03  0.84709499017E+03  0.50400001928E-02 0. -1.
       -1   -1    0    0    0  501  0.00000000000E+00  0.00000000000E+00 -0.23868689876E+03  0.23868689881E+03  0.50400001928E-02 0.  1.
    10030    2    1    2    0    0  0.00000000000E+00  0.00000000000E+00  0.60840809140E+03  0.10857818890E+04  0.89931190627E+03 0.  0.
        3    1    3    3  502    0  0.63920960130E+02 -0.29053904238E+03  0.71129974927E+03  0.77100335135E+03  0.10100000352E+00 0. -1.
       -3    1    3    3    0  502 -0.63920960130E+02  0.29053904238E+03 -0.10289165787E+03  0.31477853763E+03  0.10100000352E+00 0.  1.
</event>
<event>
 5   0  0.1017079E-02  0.8951311E+03  0.7818609E-02  0.9431688E-01
       -2   -1    0    0    0  501  0.00000000000E+00  0.00000000000E+00  0.13591327160E+03  0.13591327163E+03  0.25500000920E-02 0. -1.
        2   -1    0    0  501    0  0.00000000000E+00  0.00000000000E+00 -0.14738437696E+04  0.14738437696E+04  0.25500000920E-02 0.  1.
    10030    2    1    2    0    0  0.00000000000E+00  0.00000000000E+00 -0.13379304980E+04  0.16097570413E+04  0.89513111573E+03 0.  0.
        1    1    3    3  502    0 -0.26098192124E+03 -0.10966034084E+03 -0.12923929857E+04  0.13230330998E+04  0.50400001928E-02 0.  1.
       -1    1    3    3    0  502  0.26098192124E+03  0.10966034084E+03 -0.45537512317E+02  0.28672394148E+03  0.50400001928E-02 0. -1.
</event>
<event>
 5   0  0.6211218E-03  0.8989630E+03  0.7818609E-02  0.9426879E-01
       -1   -1    0    0    0  501  0.00000000000E+00  0.00000000000E+00  0.29738065757E+03  0.29738065762E+03  0.50400001928E-02 0.  1.
        1   -1    0    0  501    0  0.00000000000E+00  0.00000000000E+00 -0.67937709980E+03  0.67937709982E+03  0.50400001928E-02 0. -1.
    10030    2    1    2    0    0  0.00000000000E+00  0.00000000000E+00 -0.38199644223E+03  0.97675775744E+03  0.89896297746E+03 0.  0.
        5    1    3    3  502    0  0.29191246428E+02 -0.31032027640E+03 -0.54284329261E+03  0.62598061723E+03  0.46999998093E+01 0. -1.
       -5    1    3    3    0  502 -0.29191246428E+02  0.31032027640E+03  0.16084685038E+03  0.35077714021E+03  0.46999998093E+01 0.  1.
</event>
<event>
 5   0  0.1017079E-02  0.8943400E+03  0.7818609E-02  0.9432684E-01
        2   -1    0    0  501    0  0.00000000000E+00  0.00000000000E+00  0.99269651882E+03  0.99269651882E+03  0.25500000920E-02 0.  1.
       -2   -1    0    0    0  501  0.00000000000E+00  0.00000000000E+00 -0.20143216754E+03  0.20143216755E+03  0.25500000920E-02 0. -1.
    10030    2    1    2    0    0  0.00000000000E+00  0.00000000000E+00  0.79126435128E+03  0.11941286864E+04  0.89434000583E+03 0.  0.
        1    1    3    3  502    0  0.17944344527E+03 -0.37511456469E+02 -0.14895202149E+03  0.23620703662E+03  0.50400001928E-02 0. -1.
       -1    1    3    3    0  502 -0.17944344527E+03  0.37511456469E+02  0.94021637277E+03  0.95792164976E+03  0.50400001928E-02 0.  1.
</event>
<event>
 5   0  0.1028978E-02  0.9034722E+03  0.7818609E-02  0.9421251E-01
        2   -1    0    0  501    0  0.00000000000E+00  0.00000000000E+00  0.35461395509E+03  0.35461395510E+03  0.25500000920E-02 0.  1.
       -2   -1    0    0    0  501  0.00000000000E+00  0.00000000000E+00 -0.57545814150E+03  0.57545814151E+03  0.25500000920E-02 0. -1.
    10030    2    1    2    0    0  0.00000000000E+00  0.00000000000E+00 -0.22084418641E+03  0.93007209660E+03  0.90347216349E+03 0.  0.
        3    1    3    3  502    0 -0.39177231453E+02  0.24461818376E+03  0.27844618120E+03  0.37269987566E+03  0.10100000352E+00 0.  1.
       -3    1    3    3    0  502  0.39177231453E+02 -0.24461818376E+03 -0.49929036761E+03  0.55737222094E+03  0.10100000352E+00 0. -1.
</event>
<event>
 5   0  0.1003252E-02  0.9013845E+03  0.7818609E-02  0.9423852E-01
       -2   -1    0    0    0  501  0.00000000000E+00  0.00000000000E+00  0.15404879461E+03  0.15404879464E+03  0.25500000920E-02 0.  1.
        2   -1    0    0  501    0  0.00000000000E+00  0.00000000000E+00 -0.13185661120E+04  0.13185661120E+04  0.25500000920E-02 0. -1.
    10030    2    1    2    0    0  0.00000000000E+00  0.00000000000E+00 -0.11645173174E+04  0.14726149066E+04  0.90138453545E+03 0.  0.
        2    1    3    3  502    0  0.23062076209E+03  0.32233499846E+03 -0.93279742559E+03  0.10135071901E+04  0.25500000920E-02 0. -1.
       -2    1    3    3    0  502 -0.23062076209E+03 -0.32233499846E+03 -0.23171989179E+03  0.45910771655E+03  0.25500000920E-02 0.  1.
</event>
<event>
 5   0  0.6092779E-03  0.9145832E+03  0.7818609E-02  0.9407533E-01
        1   -1    0    0  501    0  0.00000000000E+00  0.00000000000E+00  0.13126480277E+04  0.13126480277E+04  0.50400001928E-02 0.  1.
       -1   -1    0    0    0  501  0.00000000000E+00  0.00000000000E+00 -0.15930820279E+03  0.15930820287E+03  0.50400001928E-02 0. -1.
    10030    2    1    2    0    0  0.00000000000E+00  0.00000000000E+00  0.11533398249E+04  0.14719562306E+04  0.91458317993E+03 0.  0.
        2    1    3    3  502    0  0.29149377533E+03 -0.15263632975E+03  0.65567701138E+02  0.33550796362E+03  0.25500000920E-02 0. -1.
       -2    1    3    3    0  502 -0.29149377533E+03  0.15263632975E+03  0.10877721237E+04  0.11364482669E+04  0.25500000920E-02 0.  1.
</event>
<event>
 5   0  0.1033749E-02  0.8033082E+03  0.7818609E-02  0.9555241E-01
       -2   -1    0    0    0  501  0.00000000000E+00  0.00000000000E+00  0.24969839010E+03  0.24969839011E+03  0.25500000920E-02 0. -1.
        2   -1    0    0  501    0  0.00000000000E+00  0.00000000000E+00 -0.64608345190E+03  0.64608345190E+03  0.25500000920E-02 0.  1.
    10030    2    1    2    0    0  0.00000000000E+00  0.00000000000E+00 -0.39638506180E+03  0.89578184201E+03  0.80330815461E+03 0.  0.
        5    1    3    3  502    0 -0.17883174698E+03 -0.19063277933E+03  0.14183972938E+03  0.29742603973E+03  0.46999998093E+01 0. -1.
       -5    1    3    3    0  502  0.17883174698E+03  0.19063277933E+03 -0.53822479118E+03  0.59835580228E+03  0.46999998093E+01 0.  1.
</event>
<event>
 5   0  0.3996375E-03  0.9135939E+03  0.7818609E-02  0.9408746E-01
       -3   -1    0    0    0  501  0.00000000000E+00  0.00000000000E+00  0.62521258386E+03  0.62521259202E+03  0.10100000352E+00 0.  1.
        3   -1    0    0  501    0  0.00000000000E+00  0.00000000000E+00 -0.33374799627E+03  0.33374801155E+03  0.10100000352E+00 0. -1.
    10030    2    1    2    0    0  0.00000000000E+00  0.00000000000E+00  0.29146458759E+03  0.95896060356E+03  0.91359391054E+03 0.  0.
        4    1    3    3  502    0 -0.26634105735E+03 -0.15394602668E+03 -0.20871154682E+03  0.37175134248E+03  0.12699999809E+01 0. -1.
       -4    1    3    3    0  502  0.26634105735E+03  0.15394602668E+03  0.50017613441E+03  0.58720926108E+03  0.12699999809E+01 0.  1.
</event>
<event>
 5   0  0.1033749E-02  0.8932168E+03  0.7818609E-02  0.9434101E-01
        2   -1    0    0  501    0  0.00000000000E+00  0.00000000000E+00  0.36573806595E+03  0.36573806596E+03  0.25500000920E-02 0.  1.
       -2   -1    0    0    0  501  0.00000000000E+00  0.00000000000E+00 -0.54536038842E+03  0.54536038842E+03  0.25500000920E-02 0. -1.
    10030    2    1    2    0    0  0.00000000000E+00  0.00000000000E+00 -0.17962232247E+03  0.91109845438E+03  0.89321677931E+03 0.  0.
        5    1    3    3  502    0  0.25067228826E+03  0.18618960070E+03 -0.41547350551E+03  0.51975329464E+03  0.46999998093E+01 0. -1.
       -5    1    3    3    0  502 -0.25067228826E+03 -0.18618960070E+03  0.23585118304E+03  0.39134515974E+03  0.46999998093E+01 0.  1.
</event>
<event>
 5   0  0.1017079E-02  0.8989733E+03  0.7818609E-02  0.9426866E-01
        2   -1    0    0  501    0  0.00000000000E+00  0.00000000000E+00  0.35548668035E+03  0.35548668036E+03  0.25500000920E-02 0.  1.
       -2   -1    0    0    0  501  0.00000000000E+00  0.00000000000E+00 -0.56834261768E+03  0.56834261769E+03  0.25500000920E-02 0. -1.
    10030    2    1    2    0    0  0.00000000000E+00  0.00000000000E+00 -0.21285593733E+03  0.92382929804E+03  0.89897325982E+03 0.  0.
        1    1    3    3  502    0  0.24772602340E+02  0.29699996765E+03 -0.45220650533E+03  0.54158414498E+03  0.50400001928E-02 0. -1.
       -1    1    3    3    0  502 -0.24772602340E+02 -0.29699996765E+03  0.23935056800E+03  0.38224515306E+03  0.50400001928E-02 0.  1.
</event>
<event>
 5   0  0.1041727E-02  0.9032436E+03  0.7818609E-02  0.9421536E-01
        2   -1    0    0  501    0  0.00000000000E+00  0.00000000000E+00  0.12636671201E+04  0.12636671201E+04  0.25500000920E-02 0. -1.
       -2   -1    0    0    0  501  0.00000000000E+00  0.00000000000E+00 -0.16140505500E+03  0.16140505502E+03  0.25500000920E-02 0.  1.
    10030    2    1    2    0    0  0.00000000000E+00  0.00000000000E+00  0.11022620651E+04  0.14250721752E+04  0.90324362394E+03 0.  0.
        4    1    3    3  502    0 -0.16841562801E+03  0.29314702106E+03  0.78703374247E+02  0.34712365770E+03  0.12699999809E+01 0.  1.
       -4    1    3    3    0  502  0.16841562801E+03 -0.29314702106E+03  0.10235586909E+04  0.10779485175E+04  0.12699999809E+01 0. -1.
</event>
<event>
 5   0  0.6092779E-03  0.9123418E+03  0.7818609E-02  0.9410284E-01
        1   -1    0    0  501    0  0.00000000000E+00  0.00000000000E+00  0.29466992515E+03  0.29466992519E+03  0.50400001928E-02 0.  1.
       -1   -1    0    0    0  501  0.00000000000E+00  0.00000000000E+00 -0.70618631105E+03  0.70618631107E+03  0.50400001928E-02 0. -1.
    10030    2    1    2    0    0  0.00000000000E+00  0.00000000000E+00 -0.41151638590E+03  0.10008562363E+04  0.91234175054E+03 0.  0.
        2    1    3    3  502    0  0.19595167344E+03 -0.36648105002E+03  0.60519179719E+00  0.41557885487E+03  0.25500000920E-02 0.  1.
       -2    1    3    3    0  502 -0.19595167344E+03  0.36648105002E+03 -0.41212157770E+03  0.58527738139E+03  0.25500000920E-02 0. -1.
</event>
<event>
 5   0  0.6092779E-03  0.9021333E+03  0.7818609E-02  0.9422919E-01
       -1   -1    0    0    0  501  0.00000000000E+00  0.00000000000E+00  0.10610435927E+03  0.10610435939E+03  0.50400001928E-02 0.  1.
        1   -1    0    0  501    0  0.00000000000E+00  0.00000000000E+00 -0.19175568526E+04  0.19175568526E+04  0.50400001928E-02 0. -1.
    10030    2    1    2    0    0  0.00000000000E+00  0.00000000000E+00 -0.18114524933E+04  0.20236612120E+04  0.90213334123E+03 0.  0.
        2    1    3    3  502    0 -0.32407130258E+02 -0.28892213593E+03 -0.16793356919E+04  0.17043164579E+04  0.25500000920E-02 0. -1.
       -2    1    3    3    0  502  0.32407130258E+02  0.28892213593E+03 -0.13211680144E+03  0.31934475406E+03  0.25500000920E-02 0.  1.
</event>
<event>
 5   0  0.1033749E-02  0.9113592E+03  0.7818609E-02  0.9411492E-01
        2   -1    0    0  501    0  0.00000000000E+00  0.00000000000E+00  0.31701817128E+03  0.31701817129E+03  0.25500000920E-02 0.  1.
       -2   -1    0    0    0  501  0.00000000000E+00  0.00000000000E+00 -0.65499051743E+03  0.65499051743E+03  0.25500000920E-02 0. -1.
    10030    2    1    2    0    0  0.00000000000E+00  0.00000000000E+00 -0.33797234614E+03  0.97200868872E+03  0.91135919604E+03 0.  0.
        5    1    3    3  502    0 -0.15008974303E+03  0.42958737510E+02  0.28757804680E+03  0.32725465175E+03  0.46999998093E+01 0.  1.
       -5    1    3    3    0  502  0.15008974303E+03 -0.42958737510E+02 -0.62555039294E+03  0.64475403698E+03  0.46999998093E+01 0. -1.
</event>
<event>
 5   0  0.1028978E-02  0.8901846E+03  0.7818609E-02  0.9437935E-01
       -2   -1    0    0    0  501  0.00000000000E+00  0.00000000000E+00  0.74885758788E+02  0.74885758831E+02  0.25500000920E-02 0. -1.
        2   -1    0    0  501    0  0.00000000000E+00  0.00000000000E+00 -0.26454580977E+04  0.26454580977E+04  0.25500000920E-02 0.  1.
    10030    2    1    2    0    0  0.00000000000E+00  0.00000000000E+00 -0.25705723389E+04  0.27203438565E+04  0.89018455850E+03 0.  0.
        3    1    3    3  502    0 -0.34633580380E+03 -0.23981403954E+03 -0.17244042457E+04  0.17751138767E+04  0.10100000352E+00 0. -1.
       -3    1    3    3    0  502  0.34633580380E+03  0.23981403954E+03 -0.84616809324E+03  0.94522997983E+03  0.10100000352E+00 0.  1.
</event>
<event>
 5   0  0.6092779E-03  0.8955809E+03  0.7818609E-02  0.9431122E-01
       -1   -1    0    0    0  501  0.00000000000E+00  0.00000000000E+00  0.37716901622E+03  0.37716901625E+03  0.50400001928E-02 0. -1.
        1   -1    0    0  501    0  0.00000000000E+00  0.00000000000E+00 -0.53163506260E+03  0.53163506263E+03  0.50400001928E-02 0.  1.
    10030    2    1    2    0    0  0.00000000000E+00  0.00000000000E+00 -0.15446604639E+03  0.90880407888E+03  0.89558086977E+03 0.  0.
        2    1    3    3  502    0 -0.24134496656E+03  0.94565699610E+02 -0.44776289390E+03  0.51737962232E+03  0.25500000920E-02 0.  1.
       -2    1    3    3    0  502  0.24134496656E+03 -0.94565699610E+02  0.29329684752E+03  0.39142445656E+03  0.25500000920E-02 0. -1.
</event>
<event>
 5   0  0.1041727E-02  0.8877234E+03  0.7818609E-02  0.9441059E-01
       -2   -1    0    0    0  501  0.00000000000E+00  0.00000000000E+00  0.78640825159E+03  0.78640825160E+03  0.25500000920E-02 0. -1.
        2   -1    0    0  501    0  0.00000000000E+00  0.00000000000E+00 -0.25052283693E+03  0.25052283694E+03  0.25500000920E-02 0.  1.
    10030    2    1    2    0    0  0.00000000000E+00  0.00000000000E+00  0.53588541467E+03  0.10369310885E+04  0.88772343933E+03 0.  0.
        4    1    3    3  502    0  0.26185172559E+03 -0.35471079160E+03  0.20809029704E+03  0.48753385164E+03  0.12699999809E+01 0.  1.
       -4    1    3    3    0  502 -0.26185172559E+03  0.35471079160E+03  0.32779511762E+03  0.54939723690E+03  0.12699999809E+01 0. -1.
</event>
<event>
 5   0  0.6092779E-03  0.8981123E+03  0.7818609E-02  0.9427944E-01
        1   -1    0    0  501    0  0.00000000000E+00  0.00000000000E+00  0.35124586211E+03  0.35124586215E+03  0.50400001928E-02 0. -1.
       -1   -1    0    0    0  501  0.00000000000E+00  0.00000000000E+00 -0.57410333336E+03  0.57410333339E+03  0.50400001928E-02 0.  1.
    10030    2    1    2    0    0  0.00000000000E+00  0.00000000000E+00 -0.22285747125E+03  0.92534919553E+03  0.89811228762E+03 0.  0.
        2    1    3    3  502    0  0.35290459373E+03 -0.98042116696E+02  0.15625309506E+03  0.39820715545E+03  0.25500000920E-02 0. -1.
       -2    1    3    3    0  502 -0.35290459373E+03  0.98042116696E+02 -0.37911056632E+03  0.52714204009E+03  0.25500000920E-02 0.  1.
</event>
<event>
 5   0  0.6015709E-03  0.8997473E+03  0.7818609E-02  0.9425897E-01
       -1   -1    0    0    0  501  0.00000000000E+00  0.00000000000E+00  0.57165502999E+03  0.57165503001E+03  0.50400001928E-02 0. -1.
        1   -1    0    0  501    0  0.00000000000E+00  0.00000000000E+00 -0.35403568608E+03  0.35403568612E+03  0.50400001928E-02 0.  1.
    10030    2    1    2    0    0  0.00000000000E+00  0.00000000000E+00  0.21761934390E+03  0.92569071613E+03  0.89974725512E+03 0.  0.
        3    1    3    3  502    0  0.18707094192E+03 -0.19199780144E+03  0.48051305745E+03  0.55022859036E+03  0.10100000352E+00 0. -1.
       -3    1    3    3    0  502 -0.18707094192E+03  0.19199780144E+03 -0.26289371354E+03  0.37546212577E+03  0.10100000352E+00 0.  1.
</event>
<event>
 5   0  0.1017079E-02  0.9072052E+03  0.7818609E-02  0.9416619E-01
        2   -1    0    0  501    0  0.00000000000E+00  0.00000000000E+00  0.33476155579E+03  0.33476155580E+03  0.25500000920E-02 0.  1.
       -2   -1    0    0    0  501  0.00000000000E+00  0.00000000000E+00 -0.61463246330E+03  0.61463246331E+03  0.25500000920E-02 0. -1.
    10030    2    1    2    0    0  0.00000000000E+00  0.00000000000E+00 -0.27987090751E+03  0.94939401910E+03  0.90720520205E+03 0.  0.
        1    1    3    3  502    0  0.25637479501E+03  0.18380772919E+02 -0.53106690037E+03  0.58999825510E+03  0.50400001928E-02 0. -1.
       -1    1    3    3    0  502 -0.25637479501E+03 -0.18380772919E+02  0.25119599285E+03  0.35939576400E+03  0.50400001928E-02 0.  1.
</event>
<event>
 5   0  0.6092779E-03  0.9081444E+03  0.7818609E-02  0.9415457E-01
        1   -1    0    0  501    0  0.00000000000E+00  0.00000000000E+00  0.14400754596E+04  0.14400754596E+04  0.50400001928E-02 0.  1.
       -1   -1    0    0    0  501  0.00000000000E+00  0.00000000000E+00 -0.14317412276E+03  0.14317412285E+03  0.50400001928E-02 0. -1.
    10030    2    1    2    0    0  0.00000000000E+00  0.00000000000E+00  0.12969013369E+04  0.15832495825E+04  0.90814435135E+03 0.  0.
        2    1    3    3  502    0  0.34880292209E+03  0.22177607343E+03  0.97615895962E+03  0.10600634036E+04  0.25500000920E-02 0.  1.
       -2    1    3    3    0  502 -0.34880292209E+03 -0.22177607343E+03  0.32074237723E+03  0.52318617887E+03  0.25500000920E-02 0. -1.
</event>
<event>
 5   0  0.1017079E-02  0.8981390E+03  0.7818609E-02  0.9427911E-01
        2   -1    0    0  501    0  0.00000000000E+00  0.00000000000E+00  0.47810936692E+03  0.47810936693E+03  0.25500000920E-02 0. -1.
       -2   -1    0    0    0  501  0.00000000000E+00  0.00000000000E+00 -0.42179343821E+03  0.42179343822E+03  0.25500000920E-02 0.  1.
    10030    2    1    2    0    0  0.00000000000E+00  0.00000000000E+00  0.56315928708E+02  0.89990280515E+03  0.89813895077E+03 0.  0.
        1    1    3    3  502    0 -0.29947317061E+03 -0.46212191925E+02  0.36023553731E+03  0.47073282121E+03  0.50400001928E-02 0. -1.
       -1    1    3    3    0  502  0.29947317061E+03  0.46212191925E+02 -0.30391960860E+03  0.42916998394E+03  0.50400001928E-02 0.  1.
</event>
<event>
 5   0  0.1028978E-02  0.8990697E+03  0.7818609E-02  0.9426745E-01
       -2   -1    0    0    0  501  0.00000000000E+00  0.00000000000E+00  0.39014363354E+03  0.39014363355E+03  0.25500000920E-02 0. -1.
        2   -1    0    0  501    0  0.00000000000E+00  0.00000000000E+00 -0.51796711896E+03  0.51796711896E+03  0.25500000920E-02 0.  1.
    10030    2    1    2    0    0  0.00000000000E+00  0.00000000000E+00 -0.12782348542E+03  0.90811075251E+03  0.89906968329E+03 0.  0.
        3    1    3    3  502    0  0.11443026180E+03 -0.38051357542E+03 -0.27625592907E+03  0.48394443322E+03  0.10100000352E+00 0. -1.
       -3    1    3    3    0  502 -0.11443026180E+03  0.38051357542E+03  0.14843244365E+03  0.42416631930E+03  0.10100000352E+00 0.  1.
</event>
<event>
 5   0  0.6288003E-03  0.8870734E+03  0.7818609E-02  0.9441886E-01
        1   -1    0    0  501    0  0.00000000000E+00  0.00000000000E+00  0.65237884712E+03  0.65237884714E+03  0.50400001928E-02 0.  1.
       -1   -1    0    0    0  501  0.00000000000E+00  0.00000000000E+00 -0.30154995782E+03  0.30154995786E+03  0.50400001928E-02 0. -1.
    10030    2    1    2    0    0  0.00000000000E+00  0.00000000000E+00  0.35082888929E+03  0.95392880500E+03  0.88707342168E+03 0.  0.
        1    1    3    3  502    0 -0.39464543566E+03  0.58856000341E+02 -0.32873099901E+02  0.40036194797E+03  0.50400001928E-02 0. -1.
       -1    1    3    3    0  502  0.39464543566E+03 -0.58856000341E+02  0.38370198919E+03  0.55356685703E+03  0.50400001928E-02 0.  1.
</event>
<event>
 5   0  0.6288003E-03  0.8950084E+03  0.7818609E-02  0.9431843E-01
        1   -1    0    0  501    0  0.00000000000E+00  0.00000000000E+00  0.49790684146E+03  0.49790684149E+03  0.50400001928E-02 0. -1.
       -1   -1    0    0    0  501  0.00000000000E+00  0.00000000000E+00 -0.40220380756E+03  0.40220380759E+03  0.50400001928E-02 0.  1.
    10030    2    1    2    0    0  0.00000000000E+00  0.00000000000E+00  0.95703033901E+02  0.90011064908E+03  0.89500844124E+03 0.  0.
        1    1    3    3  502    0  0.25522237921E+03 -0.24469086611E+03 -0.22802586085E+03  0.42072303960E+03  0.50400001928E-02 0.  1.
       -1    1    3    3    0  502 -0.25522237921E+03  0.24469086611E+03  0.32372889475E+03  0.47938760949E+03  0.50400001928E-02 0. -1.
</event>
<event>
 5   0  0.1017079E-02  0.9124277E+03  0.7818609E-02  0.9410178E-01
        2   -1    0    0  501    0  0.00000000000E+00  0.00000000000E+00  0.13007308373E+04  0.13007308373E+04  0.25500000920E-02 0.  1.
       -2   -1    0    0    0  501  0.00000000000E+00  0.00000000000E+00 -0.16001087851E+03  0.16001087853E+03  0.25500000920E-02 0. -1.
    10030    2    1    2    0    0  0.00000000000E+00  0.00000000000E+00  0.11407199588E+04  0.14607417159E+04  0.91242771550E+03 0.  0.
        1    1    3    3  502    0 -0.42625586040E+03  0.12023907029E+03  0.74558493819E+03  0.86720723742E+03  0.50400001928E-02 0. -1.
       -1    1    3    3    0  502  0.42625586040E+03 -0.12023907029E+03  0.39513502062E+03  0.59353447844E+03  0.50400001928E-02 0.  1.
</event>
<event>
 5   0  0.6092779E-03  0.1038853E+04  0.7818609E-02  0.9266928E-01
       -1   -1    0    0    0  501  0.00000000000E+00  0.00000000000E+00  0.18713183094E+03  0.18713183101E+03  0.50400001928E-02 0.  1.
        1   -1    0    0  501    0  0.00000000000E+00  0.00000000000E+00 -0.14417862741E+04  0.14417862742E+04  0.50400001928E-02 0. -1.
    10030    2    1    2    0    0  0.00000000000E+00  0.00000000000E+00 -0.12546544432E+04  0.16289181052E+04  0.10388534167E+04 0.  0.
        2    1    3    3  502    0  0.34687339187E+03  0.26849699487E+03 -0.10635355050E+04  0.11504432001E+04  0.25500000920E-02 0. -1.
       -2    1    3    3    0  502 -0.34687339187E+03 -0.26849699487E+03 -0.19111893821E+03  0.47847490508E+03  0.25500000920E-02 0.  1.
</event>
<event>
 5   0  0.6288003E-03  0.8484049E+03  0.7818609E-02  0.9492480E-01
       -1   -1    0    0    0  501  0.00000000000E+00  0.00000000000E+00  0.97971739970E+03  0.97971739971E+03  0.50400001928E-02 0.  1.
        1   -1    0    0  501    0  0.00000000000E+00  0.00000000000E+00 -0.18367306494E+03  0.18367306501E+03  0.50400001928E-02 0. -1.
    10030    2    1    2    0    0  0.00000000000E+00  0.00000000000E+00  0.79604433476E+03  0.11633904647E+04  0.84840485060E+03 0.  0.
        1    1    3    3  502    0 -0.31314519997E+03 -0.27540204524E+03  0.50460679220E+03  0.65462524970E+03  0.50400001928E-02 0. -1.
       -1    1    3    3    0  502  0.31314519997E+03  0.27540204524E+03  0.29143754256E+03  0.50876521503E+03  0.50400001928E-02 0.  1.
</event>
<event>
 5   0  0.1028978E-02  0.9247966E+03  0.7818609E-02  0.9395105E-01
       -2   -1    0    0    0  501  0.00000000000E+00  0.00000000000E+00  0.11458613291E+03  0.11458613294E+03  0.25500000920E-02 0. -1.
        2   -1    0    0  501    0  0.00000000000E+00  0.00000000000E+00 -0.18659515906E+04  0.18659515906E+04  0.25500000920E-02 0.  1.
    10030    2    1    2    0    0  0.00000000000E+00  0.00000000000E+00 -0.17513654577E+04  0.19805377236E+04  0.92479657654E+03 0.  0.
        3    1    3    3  502    0  0.40882846902E+03 -0.92584025818E+01 -0.41344715489E+03  0.58151955701E+03  0.10100000352E+00 0. -1.
       -3    1    3    3    0  502 -0.40882846902E+03  0.92584025818E+01 -0.13379183028E+04  0.13990181666E+04  0.10100000352E+00 0.  1.
</event>
<event>
 5   0  0.6137243E-03  0.9025956E+03  0.7818609E-02  0.9422343E-01
        1   -1    0    0  501    0  0.00000000000E+00  0.00000000000E+00  0.24823978999E+03  0.24823979004E+03  0.50400001928E-02 0. -1.
       -1   -1    0    0    0  501  0.00000000000E+00  0.00000000000E+00 -0.82045557931E+03  0.82045557933E+03  0.50400001928E-02 0.  1.
    10030    2    1    2    0    0  0.00000000000E+00  0.00000000000E+00 -0.57221578933E+03  0.10686953694E+04  0.90259563645E+03 0.  0.
        4    1    3    3  502    0  0.40118795584E+03  0.55789455787E+02 -0.50478480668E+02  0.40818369541E+03  0.12699999809E+01 0. -1.
       -4    1    3    3    0  502 -0.40118795584E+03 -0.55789455787E+02 -0.52173730866E+03  0.66051167396E+03  0.12699999809E+01 0.  1.
</event>
<event>
 5   0  0.6137243E-03  0.8206924E+03  0.7818609E-02  0.9530539E-01
       -1   -1    0    0    0  501  0.00000000000E+00  0.00000000000E+00  0.20866716178E+03  0.20866716184E+03  0.50400001928E-02 0.  1.
        1   -1    0    0  501    0  0.00000000000E+00  0.00000000000E+00 -0.80695009809E+03  0.80695009810E+03  0.50400001928E-02 0. -1.
    10030    2    1    2    0    0  0.00000000000E+00  0.00000000000E+00 -0.59828293631E+03  0.10156172599E+04  0.82069235820E+03 0.  0.
        4    1    3    3  502    0  0.17304582167E+03  0.16248170869E+03 -0.71336124406E+03  0.75181848839E+03  0.12699999809E+01 0. -1.
       -4    1    3    3    0  502 -0.17304582167E+03 -0.16248170869E+03  0.11507830775E+03  0.26379877155E+03  0.12699999809E+01 0.  1.
</event>
<event>
 5   0  0.6137243E-03  0.9498955E+03  0.7818609E-02  0.9365273E-01
       -1   -1    0    0    0  501  0.00000000000E+00  0.00000000000E+00  0.30811994534E+03  0.30811994538E+03  0.50400001928E-02 0.  1.
        1   -1    0    0  501    0  0.00000000000E+00  0.00000000000E+00 -0.73210252107E+03  0.73210252109E+03  0.50400001928E-02 0. -1.
    10030    2    1    2    0    0  0.00000000000E+00  0.00000000000E+00 -0.42398257573E+03  0.10402224665E+04  0.94989554964E+03 0.  0.
        4    1    3    3  502    0  0.32472130276E+03  0.14113076514E+03 -0.55865641146E+03  0.66140790462E+03  0.12699999809E+01 0. -1.
       -4    1    3    3    0  502 -0.32472130276E+03 -0.14113076514E+03  0.13467383572E+03  0.37881456185E+03  0.12699999809E+01 0.  1.
</event>
<event>
 5   0  0.1003252E-02  0.8921240E+03  0.7818609E-02  0.9435481E-01
       -2   -1    0    0    0  501  0.00000000000E+00  0.00000000000E+00  0.27753314285E+03  0.27753314286E+03  0.25500000920E-02 0.  1.
        2   -1    0    0  501    0  0.00000000000E+00  0.00000000000E+00 -0.71692802384E+03  0.71692802385E+03  0.25500000920E-02 0. -1.
    10030    2    1    2    0    0  0.00000000000E+00  0.00000000000E+00 -0.43939488099E+03  0.99446116671E+03  0.89212395475E+03 0.  0.
        2    1    3    3  502    0  0.68788726548E+02  0.33238192931E+03 -0.54231295189E+03  0.63977572134E+03  0.25500000920E-02 0. -1.
       -2    1    3    3    0  502 -0.68788726548E+02 -0.33238192931E+03  0.10291807089E+03  0.35468544536E+03  0.25500000920E-02 0.  1.
</event>
<event>
 5   0  0.1041727E-02  0.9040203E+03  0.7818609E-02  0.9420570E-01
       -2   -1    0    0    0  501  0.00000000000E+00  0.00000000000E+00  0.25684180579E+03  0.25684180580E+03  0.25500000920E-02 0.  1.
        2   -1    0    0  501    0  0.00000000000E+00  0.00000000000E+00 -0.79548253013E+03  0.79548253013E+03  0.25500000920E-02 0. -1.
    10030    2    1    2    0    0  0.00000000000E+00  0.00000000000E+00 -0.53864072434E+03  0.10523243359E+04  0.90402028632E+03 0.  0.
        4    1    3    3  502    0  0.14952841338E+03 -0.39394722949E+03 -0.78905241559E+02  0.42869664808E+03  0.12699999809E+01 0.  1.
       -4    1    3    3    0  502 -0.14952841338E+03  0.39394722949E+03 -0.45973548278E+03  0.62362768785E+03  0.12699999809E+01 0. -1.
</event>
<event>
 5   0  0.1028978E-02  0.8986794E+03  0.7818609E-02  0.9427234E-01
       -2   -1    0    0    0  501  0.00000000000E+00  0.00000000000E+00  0.26402833821E+03  0.26402833822E+03  0.25500000920E-02 0.  1.
        2   -1    0    0  501    0  0.00000000000E+00  0.00000000000E+00 -0.76471400485E+03  0.76471400485E+03  0.25500000920E-02 0. -1.
    10030    2    1    2    0    0  0.00000000000E+00  0.00000000000E+00 -0.50068566664E+03  0.10287423431E+04  0.89867940427E+03 0.  0.
        3    1    3    3  502    0 -0.11326439304E+02  0.34909925603E+03 -0.57393337071E+03  0.67186166954E+03  0.10100000352E+00 0. -1.
       -3    1    3    3    0  502  0.11326439304E+02 -0.34909925603E+03  0.73247704070E+02  0.35688067353E+03  0.10100000352E+00 0.  1.
</event>
<event>
 5   0  0.6015709E-03  0.8992606E+03  0.7818609E-02  0.9426506E-01
       -1   -1    0    0    0  501  0.00000000000E+00  0.00000000000E+00  0.11987049863E+03  0.11987049874E+03  0.50400001928E-02 0. -1.
        1   -1    0    0  501    0  0.00000000000E+00  0.00000000000E+00 -0.16865486534E+04  0.16865486535E+04  0.50400001928E-02 0.  1.
    10030    2    1    2    0    0  0.00000000000E+00  0.00000000000E+00 -0.15666781548E+04  0.18064191522E+04  0.89926064778E+03 0.  0.
        3    1    3    3  502    0 -0.23337753453E+03 -0.26437590495E+03 -0.13436696250E+04  0.13891752100E+04  0.10100000352E+00 0.  1.
       -3    1    3    3    0  502  0.23337753453E+03  0.26437590495E+03 -0.22300852986E+03  0.41724394224E+03  0.10100000352E+00 0. -1.
</event>
<event>
 5   0  0.1033749E-02  0.8935658E+03  0.7818609E-02  0.9433660E-01
       -2   -1    0    0    0  501  0.00000000000E+00  0.00000000000E+00  0.37462692569E+03  0.37462692570E+03  0.25500000920E-02 0.  1.
        2   -1    0    0  501    0  0.00000000000E+00  0.00000000000E+00 -0.53283662522E+03  0.53283662523E+03  0.25500000920E-02 0. -1.
    10030    2    1    2    0    0  0.00000000000E+00  0.00000000000E+00 -0.15820969953E+03  0.90746355093E+03  0.89356577107E+03 0.  0.
        5    1    3    3  502    0  0.41718088713E+03  0.10648647206E+03 -0.20017989547E+03  0.47484033303E+03  0.46999998093E+01 0. -1.
       -5    1    3    3    0  502 -0.41718088713E+03 -0.10648647206E+03  0.41970195937E+02  0.43262321790E+03  0.46999998093E+01 0.  1.
</event>
<event>
 5   0  0.1003252E-02  0.9108903E+03  0.7818609E-02  0.9412069E-01
        2   -1    0    0  501    0  0.00000000000E+00  0.00000000000E+00  0.47652228375E+03  0.47652228375E+03  0.25500000920E-02 0.  1.
       -2   -1    0    0    0  501  0.00000000000E+00  0.00000000000E+00 -0.43530030661E+03  0.43530030662E+03  0.25500000920E-02 0. -1.
    10030    2    1    2    0    0  0.00000000000E+00  0.00000000000E+00  0.41221977132E+02  0.91182259037E+03  0.91089032541E+03 0.  0.
        2    1    3    3  502    0  0.32863362256E+03 -0.26237007721E+02 -0.29394278904E+03  0.44169084401E+03  0.25500000920E-02 0. -1.
       -2    1    3    3    0  502 -0.32863362256E+03  0.26237007721E+02  0.33516476617E+03  0.47013174636E+03  0.25500000920E-02 0.  1.
</event>
<event>
 5   0  0.6015709E-03  0.8999544E+03  0.7818609E-02  0.9425638E-01
       -1   -1    0    0    0  501  0.00000000000E+00  0.00000000000E+00  0.90757402201E+02  0.90757402341E+02  0.50400001928E-02 0.  1.
        1   -1    0    0  501    0  0.00000000000E+00  0.00000000000E+00 -0.22309966370E+04  0.22309966370E+04  0.50400001928E-02 0. -1.
    10030    2    1    2    0    0  0.00000000000E+00  0.00000000000E+00 -0.21402392348E+04  0.23217540393E+04  0.89995435276E+03 0.  0.
        3    1    3    3  502    0 -0.40514346584E+02  0.10136439451E+03  0.56079950094E+02  0.12272377014E+03  0.10100000352E+00 0.  1.
       -3    1    3    3    0  502  0.40514346584E+02 -0.10136439451E+03 -0.21963191849E+04  0.21990302692E+04  0.10100000352E+00 0. -1.
</event>
<event>
 5   0  0.1033749E-02  0.9033050E+03  0.7818609E-02  0.9421459E-01
       -2   -1    0    0    0  501  0.00000000000E+00  0.00000000000E+00  0.10912537761E+03  0.10912537764E+03  0.25500000920E-02 0. -1.
        2   -1    0    0  501    0  0.00000000000E+00  0.00000000000E+00 -0.18693176030E+04  0.18693176030E+04  0.25500000920E-02 0.  1.
    10030    2    1    2    0    0  0.00000000000E+00  0.00000000000E+00 -0.17601922253E+04  0.19784429806E+04  0.90330501898E+03 0.  0.
        5    1    3    3  502    0  0.28671094578E+03 -0.22510584351E+03 -0.14640785179E+04  0.15087822254E+04  0.46999998093E+01 0.  1.
       -5    1    3    3    0  502 -0.28671094578E+03  0.22510584351E+03 -0.29611370744E+03  0.46966075517E+03  0.46999998093E+01 0. -1.
</event>
<event>
 5   0  0.3996375E-03  0.8873107E+03  0.7818609E-02  0.9441584E-01
       -3   -1    0    0    0  501  0.00000000000E+00  0.00000000000E+00  0.78265171665E+03  0.78265172316E+03  0.10100000352E+00 0.  1.
        3   -1    0    0  501    0  0.00000000000E+00  0.00000000000E+00 -0.25149126966E+03  0.25149128994E+03  0.10100000352E+00 0. -1.
    10030    2    1    2    0    0  0.00000000000E+00  0.00000000000E+00  0.53116044698E+03  0.10341430131E+04  0.88731074101E+03 0.  0.
        2    1    3    3  502    0  0.13944617784E+03 -0.36911781254E+03  0.50196559666E+03  0.63848465626E+03  0.25500000920E-02 0.  1.
       -2    1    3    3    0  502 -0.13944617784E+03  0.36911781254E+03  0.29194850325E+02  0.39565835684E+03  0.25500000920E-02 0. -1.
</event>
<event>
 5   0  0.1033749E-02  0.8919096E+03  0.7818609E-02  0.9435752E-01
        2   -1    0    0  501    0  0.00000000000E+00  0.00000000000E+00  0.18686819678E+04  0.18686819678E+04  0.25500000920E-02 0. -1.
       -2   -1    0    0    0  501  0.00000000000E+00  0.00000000000E+00 -0.10642563595E+03  0.10642563598E+03  0.25500000920E-02 0.  1.
    10030    2    1    2    0    0  0.00000000000E+00  0.00000000000E+00  0.17622563319E+04  0.19751076038E+04  0.89190956231E+03 0.  0.
        5    1    3    3  502    0 -0.17922012578E+03 -0.32148726293E+03  0.14386282075E+04  0.14849737786E+04  0.46999998093E+01 0. -1.
       -5    1    3    3    0  502  0.17922012578E+03  0.32148726293E+03  0.32362812434E+03  0.49013382517E+03  0.46999998093E+01 0.  1.
</event>
<event>
 5   0  0.1017079E-02  0.9456508E+03  0.7818609E-02  0.9370249E-01
       -2   -1    0    0    0  501  0.00000000000E+00  0.00000000000E+00  0.71894790697E+03  0.71894790697E+03  0.25500000920E-02 0.  1.
        2   -1    0    0  501    0  0.00000000000E+00  0.00000000000E+00 -0.31095971753E+03  0.31095971754E+03  0.25500000920E-02 0. -1.
    10030    2    1    2    0    0  0.00000000000E+00  0.00000000000E+00  0.40798818944E+03  0.10299076245E+04  0.94565075600E+03 0.  0.
        1    1    3    3  502    0  0.30046985454E+03  0.26517851932E+03 -0.69285342644E+02  0.40669674123E+03  0.50400001928E-02 0.  1.
       -1    1    3    3    0  502 -0.30046985454E+03 -0.26517851932E+03  0.47727353208E+03  0.62321088329E+03  0.50400001928E-02 0. -1.
</event>
<event>
 5   0  0.1041727E-02  0.8866943E+03  0.7818609E-02  0.9442369E-01
       -2   -1    0    0    0  501  0.00000000000E+00  0.00000000000E+00  0.25498879211E+03  0.25498879212E+03  0.25500000920E-02 0.  1.
        2   -1    0    0  501    0  0.00000000000E+00  0.00000000000E+00 -0.77084437299E+03  0.77084437300E+03  0.25500000920E-02 0. -1.
    10030    2    1    2    0    0  0.00000000000E+00  0.00000000000E+00 -0.51585558088E+03  0.10258331651E+04  0.88669425527E+03 0.  0.
        4    1    3    3  502    0  0.19545596540E+03 -0.25938960432E+03 -0.60705867704E+03  0.68848228119E+03  0.12699999809E+01 0. -1.
       -4    1    3    3    0  502 -0.19545596540E+03  0.25938960432E+03  0.91203096157E+02  0.33735088393E+03  0.12699999809E+01 0.  1.
</event>
<event>
 5   0  0.6015709E-03  0.8469435E+03  0.7818609E-02  0.9494448E-01
        1   -1    0    0  501    0  0.00000000000E+00  0.00000000000E+00  0.18840708657E+03  0.18840708664E+03  0.50400001928E-02 0.  1.
       -1   -1    0    0    0  501  0.00000000000E+00  0.00000000000E+00 -0.95181308945E+03  0.95181308946E+03  0.50400001928E-02 0. -1.
    10030    2    1    2    0    0  0.00000000000E+00  0.00000000000E+00 -0.76340600288E+03  0.11402201761E+04  0.84694351922E+03 0.  0.
        3    1    3    3  502    0 -0.57023487503E+02 -0.19013042736E+00  0.18321459468E+03  0.19188359018E+03  0.10100000352E+00 0.  1.
       -3    1    3    3    0  502  0.57023487503E+02  0.19013042736E+00 -0.94662059756E+03  0.94833658592E+03  0.10100000352E+00 0. -1.
</event>
<event>
 5   0  0.6137243E-03  0.8888457E+03  0.7818609E-02  0.9439633E-01
       -1   -1    0    0    0  501  0.00000000000E+00  0.00000000000E+00  0.70100110268E+03  0.70100110270E+03  0.50400001928E-02 0.  1.
        1   -1    0    0  501    0  0.00000000000E+00  0.00000000000E+00 -0.28175660001E+03  0.28175660005E+03  0.50400001928E-02 0. -1.
    10030    2    1    2    0    0  0.00000000000E+00  0.00000000000E+00  0.41924450267E+03  0.98275770275E+03  0.88884573988E+03 0.  0.
        4    1    3    3  502    0  0.84503132259E+02 -0.11081413115E+03  0.67621635578E+03  0.69042792799E+03  0.12699999809E+01 0.  1.
       -4    1    3    3    0  502 -0.84503132259E+02  0.11081413115E+03 -0.25697185311E+03  0.29232977476E+03  0.12699999809E+01 0. -1.
</event>
<event>
 5   0  0.1017079E-02  0.9219414E+03  0.7818609E-02  0.9398562E-01
        2   -1    0    0  501    0  0.00000000000E+00  0.00000000000E+00  0.17781469348E+04  0.17781469348E+04  0.25500000920E-02 0.  1.
       -2   -1    0    0    0  501  0.00000000000E+00  0.00000000000E+00 -0.11950305015E+03  0.11950305017E+03  0.25500000920E-02 0. -1.
    10030    2    1    2    0    0  0.00000000000E+00  0.00000000000E+00  0.16586438847E+04  0.18976499850E+04  0.92194139151E+03 0.  0.
        1    1    3    3  502    0  0.32591223036E+03  0.21229621328E+03  0.13385450320E+04  0.13939122163E+04  0.50400001928E-02 0.  1.
       -1    1    3    3    0  502 -0.32591223036E+03 -0.21229621328E+03  0.32009885263E+03  0.50373776864E+03  0.50400001928E-02 0. -1.
</event>
<event>
 5   0  0.6288003E-03  0.9168238E+03  0.7818609E-02  0.9404792E-01
        1   -1    0    0  501    0  0.00000000000E+00  0.00000000000E+00  0.88420525178E+03  0.88420525180E+03  0.50400001928E-02 0. -1.
       -1   -1    0    0    0  501  0.00000000000E+00  0.00000000000E+00 -0.23766140794E+03  0.23766140800E+03  0.50400001928E-02 0.  1.
    10030    2    1    2    0    0  0.00000000000E+00  0.00000000000E+00  0.64654384384E+03  0.11218666598E+04  0.91682378915E+03 0.  0.
        1    1    3    3  502    0 -0.38658451264E+03  0.14744447114E+03  0.56477987679E+03  0.70011696647E+03  0.50400001928E-02 0. -1.
       -1    1    3    3    0  502  0.38658451264E+03 -0.14744447114E+03  0.81763967049E+02  0.42174969332E+03  0.50400001928E-02 0.  1.
</event>
<event>
 5   0  0.1041727E-02  0.9014070E+03  0.7818609E-02  0.9423824E-01
        2   -1    0    0  501    0  0.00000000000E+00  0.00000000000E+00  0.56196313473E+03  0.56196313474E+03  0.25500000920E-02 0.  1.
       -2   -1    0    0    0  501  0.00000000000E+00  0.00000000000E+00 -0.36147147103E+03  0.36147147104E+03  0.25500000920E-02 0. -1.
    10030    2    1    2    0    0  0.00000000000E+00  0.00000000000E+00  0.20049166370E+03  0.92343460577E+03  0.90140699128E+03 0.  0.
        4    1    3    3  502    0 -0.41226362891E+03 -0.74278788384E+01  0.28666958302E+03  0.50219272777E+03  0.12699999809E+01 0.  1.
       -4    1    3    3    0  502  0.41226362891E+03  0.74278788384E+01 -0.86177919312E+02  0.42124187800E+03  0.12699999809E+01 0. -1.
</event>
<event>
 5   0  0.1033749E-02  0.9110166E+03  0.7818609E-02  0.9411914E-01
       -2   -1    0    0    0  501  0.00000000000E+00  0.00000000000E+00  0.34080396875E+03  0.34080396876E+03  0.25500000920E-02 0. -1.
        2   -1    0    0  501    0  0.00000000000E+00  0.00000000000E+00 -0.60881863406E+03  0.60881863407E+03  0.25500000920E-02 0.  1.
    10030    2    1    2    0    0  0.00000000000E+00  0.00000000000E+00 -0.26801466532E+03  0.94962260283E+03  0.91101658984E+03 0.  0.
        5    1    3    3  502    0  0.12813833912E+03  0.42225901410E+03 -0.16335923035E+02  0.44160056762E+03  0.46999998093E+01 0. -1.
       -5    1    3    3    0  502 -0.12813833912E+03 -0.42225901410E+03 -0.25167874228E+03  0.50802203521E+03  0.46999998093E+01 0.  1.
</event>
<event>
 5   0  0.1033749E-02  0.8752721E+03  0.7818609E-02  0.9457032E-01
       -2   -1    0    0    0  501  0.00000000000E+00  0.00000000000E+00  0.83067315178E+03  0.83067315179E+03  0.25500000920E-02 0.  1.
        2   -1    0    0  501    0  0.00000000000E+00  0.00000000000E+00 -0.23056639474E+03  0.23056639475E+03  0.25500000920E-02 0. -1.
    10030    2    1    2    0    0  0.00000000000E+00  0.00000000000E+00  0.60010675704E+03  0.10612395465E+04  0.87527210357E+03 0.  0.
        5    1    3    3  502    0 -0.87227509607E+02  0.24560864221E+02  0.81914177700E+03  0.82415242237E+03  0.46999998093E+01 0.  1.
       -5    1    3    3    0  502  0.87227509607E+02 -0.24560864221E+02 -0.21903501995E+03  0.23708712417E+03  0.46999998093E+01 0. -1.
</event>
<event>
 5   0  0.6137243E-03  0.8933697E+03  0.7818609E-02  0.9433908E-01
        1   -1    0    0  501    0  0.00000000000E+00  0.00000000000E+00  0.16365740085E+04  0.16365740085E+04  0.50400001928E-02 0.  1.
       -1   -1    0    0    0  501  0.00000000000E+00  0.00000000000E+00 -0.12191772037E+03  0.12191772047E+03  0.50400001928E-02 0. -1.
    10030    2    1    2    0    0  0.00000000000E+00  0.00000000000E+00  0.15146562882E+04  0.17584917290E+04  0.89336973854E+03 0.  0.
        4    1    3    3  502    0 -0.39533960635E+03 -0.11226802718E+03  0.11018130129E+04  0.11759638781E+04  0.12699999809E+01 0. -1.
       -4    1    3    3    0  502  0.39533960635E+03  0.11226802718E+03  0.41284327528E+03  0.58252785094E+03  0.12699999809E+01 0.  1.
</event>
<event>
 5   0  0.6137243E-03  0.9057685E+03  0.7818609E-02  0.9418399E-01
       -1   -1    0    0    0  501  0.00000000000E+00  0.00000000000E+00  0.34708087775E+03  0.34708087779E+03  0.50400001928E-02 0.  1.
        1   -1    0    0  501    0  0.00000000000E+00  0.00000000000E+00 -0.59094045372E+03  0.59094045374E+03  0.50400001928E-02 0. -1.
    10030    2    1    2    0    0  0.00000000000E+00  0.00000000000E+00 -0.24385957597E+03  0.93802133153E+03  0.90576847241E+03 0.  0.
        4    1    3    3  502    0 -0.43853301413E+03  0.11279796645E+03 -0.13046541099E+03  0.47122969143E+03  0.12699999809E+01 0.  1.
       -4    1    3    3    0  502  0.43853301413E+03 -0.11279796645E+03 -0.11339416498E+03  0.46679164010E+03  0.12699999809E+01 0. -1.
</event>
<event>
 5   0  0.3996375E-03  0.8966589E+03  0.7818609E-02  0.9429768E-01
       -3   -1    0    0    0  501  0.00000000000E+00  0.00000000000E+00  0.50657638570E+03  0.50657639577E+03  0.10100000352E+00 0.  1.
        3   -1    0    0  501    0  0.00000000000E+00  0.00000000000E+00 -0.39677982636E+03  0.39677983922E+03  0.10100000352E+00 0. -1.
    10030    2    1    2    0    0  0.00000000000E+00  0.00000000000E+00  0.10979655934E+03  0.90335623499E+03  0.89665891110E+03 0.  0.
        5    1    3    3  502    0 -0.31955987547E+02  0.96251975394E+02 -0.38504586232E+03  0.39820601953E+03  0.46999998093E+01 0. -1.
       -5    1    3    3    0  502  0.31955987547E+02 -0.96251975394E+02  0.49484242166E+03  0.50515021546E+03  0.46999998093E+01 0.  1.
</event>
<event>
 5   0  0.6288003E-03  0.9128063E+03  0.7818609E-02  0.9409713E-01
       -1   -1    0    0    0  501  0.00000000000E+00  0.00000000000E+00  0.20865759383E+03  0.20865759389E+03  0.50400001928E-02 0. -1.
        1   -1    0    0  501    0  0.00000000000E+00  0.00000000000E+00 -0.99830455313E+03  0.99830455315E+03  0.50400001928E-02 0.  1.
    10030    2    1    2    0    0  0.00000000000E+00  0.00000000000E+00 -0.78964695931E+03  0.12069621470E+04  0.91280627957E+03 0.  0.
        1    1    3    3  502    0  0.11198254833E+02  0.11142651645E+03 -0.97985578009E+03  0.98623456605E+03  0.50400001928E-02 0.  1.
       -1    1    3    3    0  502 -0.11198254833E+02 -0.11142651645E+03  0.19020882078E+03  0.22072758098E+03  0.50400001928E-02 0. -1.
</event>
<event>
 5   0  0.1033749E-02  0.9073386E+03  0.7818609E-02  0.9416454E-01
        2   -1    0    0  501    0  0.00000000000E+00  0.00000000000E+00  0.74576936622E+03  0.74576936623E+03  0.25500000920E-02 0.  1.
       -2   -1    0    0    0  501  0.00000000000E+00  0.00000000000E+00 -0.27597786205E+03  0.27597786206E+03  0.25500000920E-02 0. -1.
    10030    2    1    2    0    0  0.00000000000E+00  0.00000000000E+00  0.46979150418E+03  0.10217472283E+04  0.90733860335E+03 0.  0.
        5    1    3    3  502    0 -0.35659217340E+03  0.53845918374E+02 -0.75007663859E+02  0.36838241094E+03  0.46999998093E+01 0. -1.
       -5    1    3    3    0  502  0.35659217340E+03 -0.53845918374E+02  0.54479916803E+03  0.65336481735E+03  0.46999998093E+01 0.  1.
</event>
<event>
 5   0  0.1041727E-02  0.9117179E+03  0.7818609E-02  0.9411051E-01
       -2   -1    0    0    0  501  0.00000000000E+00  0.00000000000E+00  0.25079204457E+03  0.25079204458E+03  0.25500000920E-02 0. -1.
        2   -1    0    0  501    0  0.00000000000E+00  0.00000000000E+00 -0.82860430352E+03  0.82860430353E+03  0.25500000920E-02 0.  1.
    10030    2    1    2    0    0  0.00000000000E+00  0.00000000000E+00 -0.57781225895E+03  0.10793963481E+04  0.91171786739E+03 0.  0.
        4    1    3    3  502    0 -0.23172735159E+03  0.29068530746E+03 -0.60126730414E+03  0.70690840805E+03  0.12699999809E+01 0.  1.
       -4    1    3    3    0  502  0.23172735159E+03 -0.29068530746E+03  0.23455045188E+02  0.37248794006E+03  0.12699999809E+01 0. -1.
</event>
<event>
 5   0  0.1017079E-02  0.8999308E+03  0.7818609E-02  0.9425668E-01
        2   -1    0    0  501    0  0.00000000000E+00  0.00000000000E+00  0.10541923100E+04  0.10541923100E+04  0.25500000920E-02 0. -1.
       -2   -1    0    0    0  501  0.00000000000E+00  0.00000000000E+00 -0.19206064917E+03  0.19206064919E+03  0.25500000920E-02 0.  1.
    10030    2    1    2    0    0  0.00000000000E+00  0.00000000000E+00  0.86213166085E+03  0.12462529592E+04  0.89993079607E+03 0.  0.
        1    1    3    3  502    0  0.33738434397E+03 -0.20265137931E+03  0.73311506122E+03  0.83207780291E+03  0.50400001928E-02 0. -1.
       -1    1    3    3    0  502 -0.33738434397E+03  0.20265137931E+03  0.12901659964E+03  0.41417515630E+03  0.50400001928E-02 0.  1.
</event>
<event>
 5   0  0.1017079E-02  0.8992956E+03  0.7818609E-02  0.9426462E-01
        2   -1    0    0  501    0  0.00000000000E+00  0.00000000000E+00  0.20142995633E+03  0.20142995634E+03  0.25500000920E-02 0. -1.
       -2   -1    0    0    0  501  0.00000000000E+00  0.00000000000E+00 -0.10037392846E+04  0.10037392846E+04  0.25500000920E-02 0.  1.
    10030    2    1    2    0    0  0.00000000000E+00  0.00000000000E+00 -0.80230932830E+03  0.12051692410E+04  0.89929563610E+03 0.  0.
        1    1    3    3  502    0 -0.85826875806E+02  0.11005549609E+03  0.17166828274E+03  0.22124299798E+03  0.50400001928E-02 0. -1.
       -1    1    3    3    0  502  0.85826875806E+02 -0.11005549609E+03 -0.97397761104E+03  0.98392624300E+03  0.50400001928E-02 0.  1.
</event>
<event>
 5   0  0.6092779E-03  0.8924786E+03  0.7818609E-02  0.9435033E-01
       -1   -1    0    0    0  501  0.00000000000E+00  0.00000000000E+00  0.23642445868E+03  0.23642445874E+03  0.50400001928E-02 0. -1.
        1   -1    0    0  501    0  0.00000000000E+00  0.00000000000E+00 -0.84225434722E+03  0.84225434723E+03  0.50400001928E-02 0.  1.
    10030    2    1    2    0    0  0.00000000000E+00  0.00000000000E+00 -0.60582988853E+03  0.10786788060E+04  0.89247863426E+03 0.  0.
        2    1    3    3  502    0  0.25785614863E+02  0.38310655785E+03 -0.57771345090E+03  0.69367742068E+03  0.25500000920E-02 0.  1.
       -2    1    3    3    0  502 -0.25785614863E+02 -0.38310655785E+03 -0.28116437632E+02  0.38500138529E+03  0.25500000920E-02 0. -1.
</event>
<event>
 5   0  0.6211218E-03  0.7616539E+03  0.7818609E-02  0.9617242E-01
        1   -1    0    0  501    0  0.00000000000E+00  0.00000000000E+00  0.20421724877E+04  0.20421724877E+04  0.50400001928E-02 0.  1.
       -1   -1    0    0    0  501  0.00000000000E+00  0.00000000000E+00 -0.71017107600E+02  0.71017107779E+02  0.50400001928E-02 0. -1.
    10030    2    1    2    0    0  0.00000000000E+00  0.00000000000E+00  0.19711553801E+04  0.21131895955E+04  0.76165394634E+03 0.  0.
        5    1    3    3  502    0 -0.16658176045E+03  0.33883567941E+03  0.11228509185E+04  0.11846414545E+04  0.46999998093E+01 0.  1.
       -5    1    3    3    0  502  0.16658176045E+03 -0.33883567941E+03  0.84830446162E+03  0.92854814100E+03  0.46999998093E+01 0. -1.
</event>
<event>
 5   0  0.1033749E-02  0.8955367E+03  0.7818609E-02  0.9431178E-01
       -2   -1    0    0    0  501  0.00000000000E+00  0.00000000000E+00  0.12972205834E+03  0.12972205836E+03  0.25500000920E-02 0.  1.
        2   -1    0    0  501    0  0.00000000000E+00  0.00000000000E+00 -0.15455853301E+04  0.15455853301E+04  0.25500000920E-02 0. -1.
    10030    2    1    2    0    0  0.00000000000E+00  0.00000000000E+00 -0.14158632718E+04  0.16753073885E+04  0.89553673376E+03 0.  0.
        5    1    3    3  502    0  0.35665663172E+03  0.27020475803E+03 -0.73808790535E+03  0.86313985555E+03  0.46999998093E+01 0. -1.
       -5    1    3    3    0  502 -0.35665663172E+03 -0.27020475803E+03 -0.67777536643E+03  0.81216753293E+03  0.46999998093E+01 0.  1.
</event>
<event>
 5   0  0.6137243E-03  0.8964141E+03  0.7818609E-02  0.9430075E-01
       -1   -1    0    0    0  501  0.00000000000E+00  0.00000000000E+00  0.93259444188E+02  0.93259444324E+02  0.50400001928E-02 0.  1.
        1   -1    0    0  501    0  0.00000000000E+00  0.00000000000E+00 -0.21540935185E+04  0.21540935185E+04  0.50400001928E-02 0. -1.
    10030    2    1    2    0    0  0.00000000000E+00  0.00000000000E+00 -0.20608340743E+04  0.22473529628E+04  0.89641411060E+03 0.  0.
        4    1    3    3  502    0 -0.38033273666E+03  0.20218150117E+02 -0.43806268048E+03  0.58048452959E+03  0.12699999809E+01 0.  1.
       -4    1    3    3    0  502  0.38033273666E+03 -0.20218150117E+02 -0.16227713938E+04  0.16668684332E+04  0.12699999809E+01 0. -1.
</event>
<event>
 5   0  0.1003252E-02  0.9022073E+03  0.7818609E-02  0.9422826E-01
       -2   -1    0    0    0  501  0.00000000000E+00  0.00000000000E+00  0.19436029569E+03  0.19436029571E+03  0.25500000920E-02 0. -1.
        2   -1    0    0  501    0  0.00000000000E+00  0.00000000000E+00 -0.10469961597E+04  0.10469961597E+04  0.25500000920E-02 0.  1.
    10030    2    1    2    0    0  0.00000000000E+00  0.00000000000E+00 -0.85263586397E+03  0.12413564554E+04  0.90220725599E+03 0.  0.
        2    1    3    3  502    0 -0.16705901968E+02  0.45002324356E+03 -0.46257718892E+03  0.64558319574E+03  0.25500000920E-02 0.  1.
       -2    1    3    3    0  502  0.16705901968E+02 -0.45002324356E+03 -0.39005867504E+03  0.59577325963E+03  0.25500000920E-02 0. -1.
</event>
<event>
 5   0  0.6288003E-03  0.9078453E+03  0.7818609E-02  0.9415827E-01
       -1   -1    0    0    0  501  0.00000000000E+00  0.00000000000E+00  0.43437740857E+03  0.43437740860E+03  0.50400001928E-02 0. -1.
        1   -1    0    0  501    0  0.00000000000E+00  0.00000000000E+00 -0.47434735818E+03  0.47434735821E+03  0.50400001928E-02 0.  1.
    10030    2    1    2    0    0  0.00000000000E+00  0.00000000000E+00 -0.39969949605E+02  0.90872476681E+03  0.90784530893E+03 0.  0.
        1    1    3    3  502    0  0.14675906101E+03 -0.28760598575E+03 -0.33934004622E+03  0.46840910754E+03  0.50400001928E-02 0.  1.
       -1    1    3    3    0  502 -0.14675906101E+03  0.28760598575E+03  0.29937009661E+03  0.44031565927E+03  0.50400001928E-02 0. -1.
</event>
<event>
 5   0  0.1028978E-02  0.9086728E+03  0.7818609E-02  0.9414804E-01
       -2   -1    0    0    0  501  0.00000000000E+00  0.00000000000E+00  0.24219091738E+03  0.24219091740E+03  0.25500000920E-02 0.  1.
        2   -1    0    0  501    0  0.00000000000E+00  0.00000000000E+00 -0.85230927158E+03  0.85230927158E+03  0.25500000920E-02 0. -1.
    10030    2    1    2    0    0  0.00000000000E+00  0.00000000000E+00 -0.61011835419E+03  0.10945001890E+04  0.90867280004E+03 0.  0.
        3    1    3    3  502    0 -0.15498541661E+03  0.88697712414E+02 -0.80826779852E+03  0.82775878604E+03  0.10100000352E+00 0. -1.
       -3    1    3    3    0  502  0.15498541661E+03 -0.88697712414E+02  0.19814944432E+03  0.26674140293E+03  0.10100000352E+00 0.  1.
</event>
<event>
 5   0  0.1033749E-02  0.8924733E+03  0.7818609E-02  0.9435039E-01
        2   -1    0    0  501    0  0.00000000000E+00  0.00000000000E+00  0.57695438839E+03  0.57695438840E+03  0.25500000920E-02 0. -1.
       -2   -1    0    0    0  501  0.00000000000E+00  0.00000000000E+00 -0.34513501704E+03  0.34513501705E+03  0.25500000920E-02 0.  1.
    10030    2    1    2    0    0  0.00000000000E+00  0.00000000000E+00  0.23181937135E+03  0.92208940545E+03  0.89247333333E+03 0.  0.
        5    1    3    3  502    0 -0.29230771245E+03 -0.26216906178E+03 -0.10308798822E+03  0.40598723998E+03  0.46999998093E+01 0.  1.
       -5    1    3    3    0  502  0.29230771245E+03  0.26216906178E+03  0.33490735957E+03  0.51610216547E+03  0.46999998093E+01 0. -1.
</event>
<event>
 5   0  0.6288003E-03  0.8953395E+03  0.7818609E-02  0.9431426E-01
       -1   -1    0    0    0  501  0.00000000000E+00  0.00000000000E+00  0.31954230425E+03  0.31954230429E+03  0.50400001928E-02 0. -1.
        1   -1    0    0  501    0  0.00000000000E+00  0.00000000000E+00 -0.62717263838E+03  0.62717263840E+03  0.50400001928E-02 0.  1.
    10030    2    1    2    0    0  0.00000000000E+00  0.00000000000E+00 -0.30763033414E+03  0.94671494269E+03  0.89533946648E+03 0.  0.
        1    1    3    3  502    0  0.24768889972E+03 -0.33342716323E+03 -0.33038426268E+03  0.53073272490E+03  0.50400001928E-02 0.  1.
       -1    1    3    3    0  502 -0.24768889972E+03  0.33342716323E+03  0.22753928545E+02  0.41598221779E+03  0.50400001928E-02 0. -1.
</event>
<event>
 5   0  0.6137243E-03  0.9031403E+03  0.7818609E-02  0.9421664E-01
       -1   -1    0    0    0  501  0.00000000000E+00  0.00000000000E+00  0.59252245077E+03  0.59252245080E+03  0.50400001928E-02 0.  1.
        1   -1    0    0  501    0  0.00000000000E+00  0.00000000000E+00 -0.34414831125E+03  0.34414831129E+03  0.50400001928E-02 0. -1.
    10030    2    1    2    0    0  0.00000000000E+00  0.00000000000E+00  0.24837413952E+03  0.93667076208E+03  0.90314030104E+03 0.  0.
        4    1    3    3  502    0  0.13390120852E+03  0.30913012746E+03  0.43605537644E+03  0.55103255218E+03  0.12699999809E+01 0.  1.
       -4    1    3    3    0  502 -0.13390120852E+03 -0.30913012746E+03 -0.18768123691E+03  0.38563820990E+03  0.12699999809E+01 0. -1.
</event>
<event>
 5   0  0.6211218E-03  0.9003945E+03  0.7818609E-02  0.9425088E-01
       -1   -1    0    0    0  501  0.00000000000E+00  0.00000000000E+00  0.46068424652E+03  0.46068424655E+03  0.50400001928E-02 0. -1.
        1   -1    0    0  501    0  0.00000000000E+00  0.00000000000E+00 -0.43994901511E+03  0.43994901514E+03  0.50400001928E-02 0.  1.
    10030    2    1    2    0    0  0.00000000000E+00  0.00000000000E+00  0.20735231404E+02  0.90063326169E+03  0.90039453699E+03 0.  0.
        5    1    3    3  502    0 -0.31925841399E+03  0.18020945686E+03 -0.25095652211E+03  0.44430017920E+03  0.46999998093E+01 0.  1.
       -5    1    3    3    0  502  0.31925841399E+03 -0.18020945686E+03  0.27169175352E+03  0.45633308249E+03  0.46999998093E+01 0. -1.
</event>
<event>
 5   0  0.6211218E-03  0.8992600E+03  0.7818609E-02  0.9426507E-01
       -1   -1    0    0    0  501  0.00000000000E+00  0.00000000000E+00  0.19453508124E+03  0.19453508131E+03  0.50400001928E-02 0.  1.
        1   -1    0    0  501    0  0.00000000000E+00  0.00000000000E+00 -0.10392323111E+04  0.10392323111E+04  0.50400001928E-02 0. -1.
    10030    2    1    2    0    0  0.00000000000E+00  0.00000000000E+00 -0.84469722981E+03  0.12337673924E+04  0.89926001158E+03 0.  0.
        5    1    3    3  502    0 -0.69469760505E+02 -0.96518076103E+02 -0.10172304430E+04  0.10241687609E+04  0.46999998093E+01 0. -1.
       -5    1    3    3    0  502  0.69469760505E+02  0.96518076103E+02  0.17253321322E+03  0.20959863144E+03  0.46999998093E+01 0.  1.
</event>
<event>
 5   0  0.1033749E-02  0.9044514E+03  0.7818609E-02  0.9420034E-01
        2   -1    0    0  501    0  0.00000000000E+00  0.00000000000E+00  0.31502095229E+03  0.31502095230E+03  0.25500000920E-02 0.  1.
       -2   -1    0    0    0  501  0.00000000000E+00  0.00000000000E+00 -0.64918877181E+03  0.64918877182E+03  0.25500000920E-02 0. -1.
    10030    2    1    2    0    0  0.00000000000E+00  0.00000000000E+00 -0.33416781952E+03  0.96420972412E+03  0.90445135883E+03 0.  0.
        5    1    3    3  502    0 -0.33607903903E+03  0.18676636866E+03 -0.42083393631E+03  0.57004744442E+03  0.46999998093E+01 0. -1.
       -5    1    3    3    0  502  0.33607903903E+03 -0.18676636866E+03  0.86666116793E+02  0.39416227970E+03  0.46999998093E+01 0.  1.
</event>
<event>
 5   0  0.1033749E-02  0.8967416E+03  0.7818609E-02  0.9429664E-01
        2   -1    0    0  501    0  0.00000000000E+00  0.00000000000E+00  0.24934850259E+04  0.24934850259E+04  0.25500000920E-02 0.  1.
       -2   -1    0    0    0  501  0.00000000000E+00  0.00000000000E+00 -0.80624662889E+02  0.80624662929E+02  0.25500000920E-02 0. -1.
    10030    2    1    2    0    0  0.00000000000E+00  0.00000000000E+00  0.24128603630E+04  0.25741096888E+04  0.89674163433E+03 0.  0.
        5    1    3    3  502    0 -0.86849335385E+02 -0.37243767087E+03  0.18781653294E+04  0.19167106512E+04  0.46999998093E+01 0.  1.
       -5    1    3    3    0  502  0.86849335385E+02  0.37243767087E+03  0.53469503357E+03  0.65739903762E+03  0.46999998093E+01 0. -1.
</event>
<event>
 5   0  0.1028978E-02  0.8999145E+03  0.7818609E-02  0.9425688E-01
        2   -1    0    0  501    0  0.00000000000E+00  0.00000000000E+00  0.40157633822E+03  0.40157633823E+03  0.25500000920E-02 0. -1.
       -2   -1    0    0    0  501  0.00000000000E+00  0.00000000000E+00 -0.50416699092E+03  0.50416699093E+03  0.25500000920E-02 0.  1.
    10030    2    1    2    0    0  0.00000000000E+00  0.00000000000E+00 -0.10259065270E+03  0.90574332916E+03  0.89991451611E+03 0.  0.
        3    1    3    3  502    0  0.31096064570E+03 -0.31948280587E+03  0.98910090004E+01  0.44594128389E+03  0.10100000352E+00 0. -1.
       -3    1    3    3    0  502 -0.31096064570E+03  0.31948280587E+03 -0.11248166170E+03  0.45980204527E+03  0.10100000352E+00 0.  1.
</event>
<event>
 5   0  0.1033749E-02  0.9040173E+03  0.7818609E-02  0.9420574E-01
        2   -1    0    0  501    0  0.00000000000E+00  0.00000000000E+00  0.13803783812E+04  0.13803783812E+04  0.25500000920E-02 0.  1.
       -2   -1    0    0    0  501  0.00000000000E+00  0.00000000000E+00 -0.14801145249E+03  0.14801145251E+03  0.25500000920E-02 0. -1.
    10030    2    1    2    0    0  0.00000000000E+00  0.00000000000E+00  0.12323669288E+04  0.15283898338E+04  0.90401727684E+03 0.  0.
        5    1    3    3  502    0  0.22317053219E+03 -0.30265415534E+03  0.19221722922E+03  0.42234367213E+03  0.46999998093E+01 0. -1.
       -5    1    3    3    0  502 -0.22317053219E+03  0.30265415534E+03  0.10401496995E+04  0.11060461616E+04  0.46999998093E+01 0.  1.
</event>
<event>
 5   0  0.6092779E-03  0.9153369E+03  0.7818609E-02  0.9406610E-01
       -1   -1    0    0    0  501  0.00000000000E+00  0.00000000000E+00  0.22384736152E+03  0.22384736158E+03  0.50400001928E-02 0.  1.
        1   -1    0    0  501    0  0.00000000000E+00  0.00000000000E+00 -0.93572880229E+03  0.93572880230E+03  0.50400001928E-02 0. -1.
    10030    2    1    2    0    0  0.00000000000E+00  0.00000000000E+00 -0.71188144077E+03  0.11595761639E+04  0.91533692930E+03 0.  0.
        2    1    3    3  502    0 -0.16199140641E+03 -0.42302989584E+03 -0.27320872759E+03  0.52899765345E+03  0.25500000920E-02 0.  1.
       -2    1    3    3    0  502  0.16199140641E+03  0.42302989584E+03 -0.43867271317E+03  0.63057851043E+03  0.25500000920E-02 0. -1.
</event>
<event>
 5   0  0.1028978E-02  0.8966594E+03  0.7818609E-02  0.9429767E-01
       -2   -1    0    0    0  501  0.00000000000E+00  0.00000000000E+00  0.17088224562E+03  0.17088224564E+03  0.25500000920E-02 0.  1.
        2   -1    0    0  501    0  0.00000000000E+00  0.00000000000E+00 -0.11762457414E+04  0.11762457414E+04  0.25500000920E-02 0. -1.
    10030    2    1    2    0    0  0.00000000000E+00  0.00000000000E+00 -0.10053634958E+04  0.13471279871E+04  0.89665938619E+03 0.  0.
        3    1    3    3  502    0 -0.12013925591E+03  0.25365490646E+03  0.22563133656E+02  0.28157300578E+03  0.10100000352E+00 0.  1.
       -3    1    3    3    0  502  0.12013925591E+03 -0.25365490646E+03 -0.10279266295E+04  0.10655549813E+04  0.10100000352E+00 0. -1.
</event>
<event>
 5   0  0.1003252E-02  0.8945991E+03  0.7818609E-02  0.9432358E-01
       -2   -1    0    0    0  501  0.00000000000E+00  0.00000000000E+00  0.36727319734E+03  0.36727319735E+03  0.25500000920E-02 0. -1.
        2   -1    0    0  501    0  0.00000000000E+00  0.00000000000E+00 -0.54476315453E+03  0.54476315453E+03  0.25500000920E-02 0.  1.
    10030    2    1    2    0    0  0.00000000000E+00  0.00000000000E+00 -0.17748995718E+03  0.91203635188E+03  0.89459914054E+03 0.  0.
        2    1    3    3  502    0  0.44294383147E+02 -0.14423984834E+03 -0.51803423208E+03  0.53956148106E+03  0.25500000920E-02 0.  1.
       -2    1    3    3    0  502 -0.44294383147E+02  0.14423984834E+03  0.34054427489E+03  0.37247487083E+03  0.25500000920E-02 0. -1.
</event>
<event>
 5   0  0.1028978E-02  0.9025919E+03  0.7818609E-02  0.9422347E-01
       -2   -1    0    0    0  501  0.00000000000E+00  0.00000000000E+00  0.33974491100E+03  0.33974491101E+03  0.25500000920E-02 0.  1.
        2   -1    0    0  501    0  0.00000000000E+00  0.00000000000E+00 -0.59947337689E+03  0.59947337690E+03  0.25500000920E-02 0. -1.
    10030    2    1    2    0    0  0.00000000000E+00  0.00000000000E+00 -0.25972846589E+03  0.93921828791E+03  0.90259188804E+03 0.  0.
        3    1    3    3  502    0 -0.32014382770E+03  0.17037823035E+03  0.14963773891E+03  0.39231654936E+03  0.10100000352E+00 0.  1.
       -3    1    3    3    0  502  0.32014382770E+03 -0.17037823035E+03 -0.40936620480E+03  0.54690173855E+03  0.10100000352E+00 0. -1.
</event>
<event>
 5   0  0.6092779E-03  0.9415495E+03  0.7818609E-02  0.9375083E-01
        1   -1    0    0  501    0  0.00000000000E+00  0.00000000000E+00  0.48561294443E+03  0.48561294446E+03  0.50400001928E-02 0.  1.
       -1   -1    0    0    0  501  0.00000000000E+00  0.00000000000E+00 -0.45638996634E+03  0.45638996636E+03  0.50400001928E-02 0. -1.
    10030    2    1    2    0    0  0.00000000000E+00  0.00000000000E+00  0.29222978097E+02  0.94200291082E+03  0.94154952156E+03 0.  0.
        2    1    3    3  502    0 -0.29582752435E+03 -0.84791214965E+02  0.37104895708E+03  0.48205892052E+03  0.25500000920E-02 0.  1.
       -2    1    3    3    0  502  0.29582752435E+03  0.84791214965E+02 -0.34182597898E+03  0.45994399030E+03  0.25500000920E-02 0. -1.
</event>
<event>
 5   0  0.1003252E-02  0.9012355E+03  0.7818609E-02  0.9424038E-01
       -2   -1    0    0    0  501  0.00000000000E+00  0.00000000000E+00  0.29930994462E+03  0.29930994463E+03  0.25500000920E-02 0. -1.
        2   -1    0    0  501    0  0.00000000000E+00  0.00000000000E+00 -0.67841496137E+03  0.67841496138E+03  0.25500000920E-02 0.  1.
    10030    2    1    2    0    0  0.00000000000E+00  0.00000000000E+00 -0.37910501675E+03  0.97772490601E+03  0.90123547318E+03 0.  0.
        2    1    3    3  502    0  0.36342012848E+03 -0.87247923320E+02 -0.46265150144E+03  0.59475440452E+03  0.25500000920E-02 0.  1.
       -2    1    3    3    0  502 -0.36342012848E+03  0.87247923320E+02  0.83546484688E+02  0.38297050149E+03  0.25500000920E-02 0. -1.
</event>
<event>
 5   0  0.6137243E-03  0.9017674E+03  0.7818609E-02  0.9423375E-01
       -1   -1    0    0    0  501  0.00000000000E+00  0.00000000000E+00  0.11992438599E+03  0.11992438609E+03  0.50400001928E-02 0.  1.
        1   -1    0    0  501    0  0.00000000000E+00  0.00000000000E+00 -0.16952022914E+04  0.16952022914E+04  0.50400001928E-02 0. -1.
    10030    2    1    2    0    0  0.00000000000E+00  0.00000000000E+00 -0.15752779054E+04  0.18151266775E+04  0.90176736250E+03 0.  0.
        4    1    3    3  502    0 -0.25445946162E+03 -0.55184048368E+02 -0.15285761672E+04  0.15505939535E+04  0.12699999809E+01 0. -1.
       -4    1    3    3    0  502  0.25445946162E+03  0.55184048368E+02 -0.46701738195E+02  0.26453272398E+03  0.12699999809E+01 0.  1.
</event>
<event>
 5   0  0.6137243E-03  0.9017087E+03  0.7818609E-02  0.9423448E-01
        1   -1    0    0  501    0  0.00000000000E+00  0.00000000000E+00  0.15117704849E+04  0.15117704849E+04  0.50400001928E-02 0.  1.
       -1   -1    0    0    0  501  0.00000000000E+00  0.00000000000E+00 -0.13445801578E+03  0.13445801588E+03  0.50400001928E-02 0. -1.
    10030    2    1    2    0    0  0.00000000000E+00  0.00000000000E+00  0.13773124691E+04  0.16462285008E+04  0.90170873302E+03 0.  0.
        4    1    3    3  502    0 -0.14628223730E+03  0.37397190868E+03  0.10628734635E+04  0.11362020480E+04  0.12699999809E+01 0.  1.
       -4    1    3    3    0  502  0.14628223730E+03 -0.37397190868E+03  0.31443900557E+03  0.51002645280E+03  0.12699999809E+01 0. -1.
</event>
<event>
 5   0  0.1041727E-02  0.8932967E+03  0.7818609E-02  0.9434000E-01
        2   -1    0    0  501    0  0.00000000000E+00  0.00000000000E+00  0.58791336221E+03  0.58791336222E+03  0.25500000920E-02 0.  1.
       -2   -1    0    0    0  501  0.00000000000E+00  0.00000000000E+00 -0.33932677931E+03  0.33932677932E+03  0.25500000920E-02 0. -1.
    10030    2    1    2    0    0  0.00000000000E+00  0.00000000000E+00  0.24858658290E+03  0.92724014154E+03  0.89329669813E+03 0.  0.
        4    1    3    3  502    0 -0.62447770879E+02  0.34907570161E+03  0.40616194593E+03  0.53918708141E+03  0.12699999809E+01 0.  1.
       -4    1    3    3    0  502  0.62447770879E+02 -0.34907570161E+03 -0.15757536304E+03  0.38805306013E+03  0.12699999809E+01 0. -1.
</event>
<event>
 5   0  0.6015709E-03  0.9988347E+03  0.7818609E-02  0.9309824E-01
       -1   -1    0    0    0  501  0.00000000000E+00  0.00000000000E+00  0.60843541846E+03  0.60843541848E+03  0.50400001928E-02 0. -1.
        1   -1    0    0  501    0  0.00000000000E+00  0.00000000000E+00 -0.40993291472E+03  0.40993291475E+03  0.50400001928E-02 0.  1.
    10030    2    1    2    0    0  0.00000000000E+00  0.00000000000E+00  0.19850250374E+03  0.10183683332E+04  0.99883473015E+03 0.  0.
        3    1    3    3  502    0  0.44282949967E+03 -0.14225765853E+03  0.28469420206E+03  0.54533109766E+03  0.10100000352E+00 0. -1.
       -3    1    3    3    0  502 -0.44282949967E+03  0.14225765853E+03 -0.86191698320E+02  0.47303723558E+03  0.10100000352E+00 0.  1.
</event>
<event>
 5   0  0.3996375E-03  0.8980097E+03  0.7818609E-02  0.9428073E-01
        4   -1    0    0  501    0  0.00000000000E+00  0.00000000000E+00  0.41780027911E+03  0.41780220933E+03  0.12699999809E+01 0.  1.
       -4   -1    0    0    0  501  0.00000000000E+00  0.00000000000E+00 -0.48253617886E+03  0.48253785013E+03  0.12699999809E+01 0. -1.
    10030    2    1    2    0    0  0.00000000000E+00  0.00000000000E+00 -0.64735899750E+02  0.90034005946E+03  0.89800973600E+03 0.  0.
        3    1    3    3  502    0 -0.31438969360E+03  0.28718320935E+03 -0.17518156546E+03  0.46043855861E+03  0.10100000352E+00 0. -1.
       -3    1    3    3    0  502  0.31438969360E+03 -0.28718320935E+03  0.11044566571E+03  0.43990150085E+03  0.10100000352E+00 0.  1.
</event>
<event>
 5   0  0.1028978E-02  0.9045689E+03  0.7818609E-02  0.9419888E-01
        2   -1    0    0  501    0  0.00000000000E+00  0.00000000000E+00  0.13258735598E+04  0.13258735598E+04  0.25500000920E-02 0. -1.
       -2   -1    0    0    0  501  0.00000000000E+00  0.00000000000E+00 -0.15428410032E+03  0.15428410034E+03  0.25500000920E-02 0.  1.
    10030    2    1    2    0    0  0.00000000000E+00  0.00000000000E+00  0.11715894594E+04  0.14801576601E+04  0.90456886819E+03 0.  0.
        3    1    3    3  502    0 -0.24665231297E+03  0.30426345637E+03  0.21572896870E+03  0.44716061154E+03  0.10100000352E+00 0.  1.
       -3    1    3    3    0  502  0.24665231297E+03 -0.30426345637E+03  0.95586049074E+03  0.10329970486E+04  0.10100000352E+00 0. -1.
</event>
<event>
 5   0  0.1028978E-02  0.8919326E+03  0.7818609E-02  0.9435723E-01
        2   -1    0    0  501    0  0.00000000000E+00  0.00000000000E+00  0.12301150055E+04  0.12301150055E+04  0.25500000920E-02 0.  1.
       -2   -1    0    0    0  501  0.00000000000E+00  0.00000000000E+00 -0.16168078388E+03  0.16168078390E+03  0.25500000920E-02 0. -1.
    10030    2    1    2    0    0  0.00000000000E+00  0.00000000000E+00  0.10684342216E+04  0.13917957894E+04  0.89193263952E+03 0.  0.
        3    1    3    3  502    0  0.43439927246E+03 -0.10087813739E+03  0.53014154489E+03  0.69276922156E+03  0.10100000352E+00 0. -1.
       -3    1    3    3    0  502 -0.43439927246E+03  0.10087813739E+03  0.53829267674E+03  0.69902656784E+03  0.10100000352E+00 0.  1.
</event>
<event>
 5   0  0.1003252E-02  0.9218529E+03  0.7818609E-02  0.9398669E-01
       -2   -1    0    0    0  501  0.00000000000E+00  0.00000000000E+00  0.15011686042E+03  0.15011686045E+03  0.25500000920E-02 0. -1.
        2   -1    0    0  501    0  0.00000000000E+00  0.00000000000E+00 -0.14152519020E+04  0.14152519020E+04  0.25500000920E-02 0.  1.
    10030    2    1    2    0    0  0.00000000000E+00  0.00000000000E+00 -0.12651350416E+04  0.15653687625E+04  0.92185285650E+03 0.  0.
        2    1    3    3  502    0 -0.37338461080E+03  0.16441579360E+03 -0.99678053306E+03  0.10770422702E+04  0.25500000920E-02 0.  1.
       -2    1    3    3    0  502  0.37338461080E+03 -0.16441579360E+03 -0.26835450854E+03  0.48832649225E+03  0.25500000920E-02 0. -1.
</event>
<event>
 5   0  0.6288003E-03  0.8885423E+03  0.7818609E-02  0.9440019E-01
       -1   -1    0    0    0  501  0.00000000000E+00  0.00000000000E+00  0.37101913421E+03  0.37101913424E+03  0.50400001928E-02 0. -1.
        1   -1    0    0  501    0  0.00000000000E+00  0.00000000000E+00 -0.53198565722E+03  0.53198565725E+03  0.50400001928E-02 0.  1.
    10030    2    1    2    0    0  0.00000000000E+00  0.00000000000E+00 -0.16096652302E+03  0.90300479149E+03  0.88854230733E+03 0.  0.
        1    1    3    3  502    0 -0.81461138436E+02  0.19502531066E+03  0.31665350220E+03  0.38071016450E+03  0.50400001928E-02 0. -1.
       -1    1    3    3    0  502  0.81461138436E+02 -0.19502531066E+03 -0.47762002521E+03  0.52229462699E+03  0.50400001928E-02 0.  1.
</event>
<event>
 5   0  0.1041727E-02  0.8960547E+03  0.7818609E-02  0.9430527E-01
        2   -1    0    0  501    0  0.00000000000E+00  0.00000000000E+00  0.95770027859E+03  0.95770027860E+03  0.25500000920E-02 0.  1.
       -2   -1    0    0    0  501  0.00000000000E+00  0.00000000000E+00 -0.20959429433E+03  0.20959429434E+03  0.25500000920E-02 0. -1.
    10030    2    1    2    0    0  0.00000000000E+00  0.00000000000E+00  0.74810598426E+03  0.11672945729E+04  0.89605471726E+03 0.  0.
        4    1    3    3  502    0 -0.39867371666E+03  0.61413846647E+02  0.62804533517E+03  0.74642812705E+03  0.12699999809E+01 0.  1.
       -4    1    3    3    0  502  0.39867371666E+03 -0.61413846647E+02  0.12006064909E+03  0.42086644589E+03  0.12699999809E+01 0. -1.
</event>
<event>
 5   0  0.6015709E-03  0.8938481E+03  0.7818609E-02  0.9433304E-01
        1   -1    0    0  501    0  0.00000000000E+00  0.00000000000E+00  0.26860114377E+04  0.26860114377E+04  0.50400001928E-02 0.  1.
       -1   -1    0    0    0  501  0.00000000000E+00  0.00000000000E+00 -0.74363460311E+02  0.74363460482E+02  0.50400001928E-02 0. -1.
    10030    2    1    2    0    0  0.00000000000E+00  0.00000000000E+00  0.26116479774E+04  0.27603748982E+04  0.89384809713E+03 0.  0.
        3    1    3    3  502    0  0.16130891473E+03 -0.49502394829E+01  0.25928854559E+04  0.25979030137E+04  0.10100000352E+00 0.  1.
       -3    1    3    3    0  502 -0.16130891473E+03  0.49502394829E+01  0.18762521481E+02  0.16247188450E+03  0.10100000352E+00 0. -1.
</event>
<event>
 5   0  0.1028978E-02  0.8949809E+03  0.7818609E-02  0.9431877E-01
        2   -1    0    0  501    0  0.00000000000E+00  0.00000000000E+00  0.19510489783E+04  0.19510489783E+04  0.25500000920E-02 0.  1.
       -2   -1    0    0    0  501  0.00000000000E+00  0.00000000000E+00 -0.10263590738E+03  0.10263590741E+03  0.25500000920E-02 0. -1.
    10030    2    1    2    0    0  0.00000000000E+00  0.00000000000E+00  0.18484130709E+04  0.20536848857E+04  0.89498085400E+03 0.  0.
        3    1    3    3  502    0  0.36205246085E+03 -0.51265805944E+02  0.33229975169E+03  0.49409847444E+03  0.10100000352E+00 0. -1.
       -3    1    3    3    0  502 -0.36205246085E+03  0.51265805944E+02  0.15161133192E+04  0.15595864113E+04  0.10100000352E+00 0.  1.
</event>
<event>
 5   0  0.1028978E-02  0.8887235E+03  0.7818609E-02  0.9439788E-01
       -2   -1    0    0    0  501  0.00000000000E+00  0.00000000000E+00  0.12829894071E+03  0.12829894074E+03  0.25500000920E-02 0.  1.
        2   -1    0    0  501    0  0.00000000000E+00  0.00000000000E+00 -0.15390413697E+04  0.15390413697E+04  0.25500000920E-02 0. -1.
    10030    2    1    2    0    0  0.00000000000E+00  0.00000000000E+00 -0.14107424290E+04  0.16673403105E+04  0.88872352837E+03 0.  0.
        3    1    3    3  502    0 -0.19513296752E+03 -0.15658791065E+03 -0.13943412064E+04  0.14166100588E+04  0.10100000352E+00 0. -1.
       -3    1    3    3    0  502  0.19513296752E+03  0.15658791065E+03 -0.16401222626E+02  0.25073025162E+03  0.10100000352E+00 0.  1.
</event>
<event>
 5   0  0.6137243E-03  0.8971124E+03  0.7818609E-02  0.9429198E-01
       -1   -1    0    0    0  501  0.00000000000E+00  0.00000000000E+00  0.28733085801E+03  0.28733085806E+03  0.50400001928E-02 0.  1.
        1   -1    0    0  501    0  0.00000000000E+00  0.00000000000E+00 -0.70024724925E+03  0.70024724927E+03  0.50400001928E-02 0. -1.
    10030    2    1    2    0    0  0.00000000000E+00  0.00000000000E+00 -0.41291639124E+03  0.98757810732E+03  0.89711235189E+03 0.  0.
        4    1    3    3  502    0  0.41917253403E+03  0.78206133141E+02 -0.35970546205E+03  0.55786328511E+03  0.12699999809E+01 0. -1.
       -4    1    3    3    0  502 -0.41917253403E+03 -0.78206133141E+02 -0.53210929186E+02  0.42971482221E+03  0.12699999809E+01 0.  1.
</event>
<event>
 5   0  0.6288003E-03  0.9098000E+03  0.7818609E-02  0.9413413E-01
       -1   -1    0    0    0  501  0.00000000000E+00  0.00000000000E+00  0.53666175212E+03  0.53666175214E+03  0.50400001928E-02 0. -1.
        1   -1    0    0  501    0  0.00000000000E+00  0.00000000000E+00 -0.38559488138E+03  0.38559488141E+03  0.50400001928E-02 0.  1.
    10030    2    1    2    0    0  0.00000000000E+00  0.00000000000E+00  0.15106687075E+03  0.92225663355E+03  0.90980003226E+03 0.  0.
        1    1    3    3  502    0  0.28998492311E+02 -0.14219787944E+03  0.51256604976E+03  0.53271484385E+03  0.50400001928E-02 0. -1.
       -1    1    3    3    0  502 -0.28998492311E+02  0.14219787944E+03 -0.36149917901E+03  0.38954178970E+03  0.50400001928E-02 0.  1.
</event>
<event>
 5   0  0.1017079E-02  0.9038940E+03  0.7818609E-02  0.9420727E-01
       -2   -1    0    0    0  501  0.00000000000E+00  0.00000000000E+00  0.10158530393E+04  0.10158530393E+04  0.25500000920E-02 0.  1.
        2   -1    0    0  501    0  0.00000000000E+00  0.00000000000E+00 -0.20106856068E+03  0.20106856069E+03  0.25500000920E-02 0. -1.
    10030    2    1    2    0    0  0.00000000000E+00  0.00000000000E+00  0.81478447865E+03  0.12169216000E+04  0.90389403912E+03 0.  0.
        1    1    3    3  502    0 -0.66458742509E+01 -0.86387330831E+02 -0.18978264177E+03  0.20862499782E+03  0.50400001928E-02 0. -1.
       -1    1    3    3    0  502  0.66458742509E+01  0.86387330831E+02  0.10045671204E+04  0.10082966022E+04  0.50400001928E-02 0.  1.
</event>
<event>
 5   0  0.6137243E-03  0.9365566E+03  0.7818609E-02  0.9381003E-01
        1   -1    0    0  501    0  0.00000000000E+00  0.00000000000E+00  0.20655189856E+04  0.20655189856E+04  0.50400001928E-02 0. -1.
       -1   -1    0    0    0  501  0.00000000000E+00  0.00000000000E+00 -0.10616438751E+03  0.10616438763E+03  0.50400001928E-02 0.  1.
    10030    2    1    2    0    0  0.00000000000E+00  0.00000000000E+00  0.19593545981E+04  0.21716833732E+04  0.93655658267E+03 0.  0.
        4    1    3    3  502    0  0.33835192939E+03  0.28186085156E+03  0.13489077629E+04  0.14189719283E+04  0.12699999809E+01 0.  1.
       -4    1    3    3    0  502 -0.33835192939E+03 -0.28186085156E+03  0.61044683523E+03  0.75271144491E+03  0.12699999809E+01 0. -1.
</event>
<event>
 5   0  0.1033749E-02  0.8803782E+03  0.7818609E-02  0.9450448E-01
        2   -1    0    0  501    0  0.00000000000E+00  0.00000000000E+00  0.72540653051E+03  0.72540653052E+03  0.25500000920E-02 0. -1.
       -2   -1    0    0    0  501  0.00000000000E+00  0.00000000000E+00 -0.26711430020E+03  0.26711430021E+03  0.25500000920E-02 0.  1.
    10030    2    1    2    0    0  0.00000000000E+00  0.00000000000E+00  0.45829223031E+03  0.99252083073E+03  0.88037823183E+03 0.  0.
        5    1    3    3  502    0 -0.31299183597E+01  0.15469899460E+03 -0.23541488575E+03  0.28175136868E+03  0.46999998093E+01 0.  1.
       -5    1    3    3    0  502  0.31299183597E+01 -0.15469899460E+03  0.69370711606E+03  0.71076946206E+03  0.46999998093E+01 0. -1.
</event>
<event>
 5   0  0.6092779E-03  0.8955840E+03  0.7818609E-02  0.9431119E-01
       -1   -1    0    0    0  501  0.00000000000E+00  0.00000000000E+00  0.50026306931E+03  0.50026306933E+03  0.50400001928E-02 0.  1.
        1   -1    0    0  501    0  0.00000000000E+00  0.00000000000E+00 -0.40082444249E+03  0.40082444252E+03  0.50400001928E-02 0. -1.
    10030    2    1    2    0    0  0.00000000000E+00  0.00000000000E+00  0.99438626817E+02  0.90108751185E+03  0.89558397904E+03 0.  0.
        2    1    3    3  502    0  0.51785805833E+02  0.14686496263E+03 -0.37270182507E+03  0.40392788633E+03  0.25500000920E-02 0. -1.
       -2    1    3    3    0  502 -0.51785805833E+02 -0.14686496263E+03  0.47214045189E+03  0.49715962553E+03  0.25500000920E-02 0.  1.
</event>
<event>
 5   0  0.6211218E-03  0.9343071E+03  0.7818609E-02  0.9383684E-01
       -1   -1    0    0    0  501  0.00000000000E+00  0.00000000000E+00  0.10494802938E+03  0.10494802950E+03  0.50400001928E-02 0.  1.
        1   -1    0    0  501    0  0.00000000000E+00  0.00000000000E+00 -0.20794335867E+04  0.20794335867E+04  0.50400001928E-02 0. -1.
    10030    2    1    2    0    0  0.00000000000E+00  0.00000000000E+00 -0.19744855573E+04  0.21843816162E+04  0.93430713854E+03 0.  0.
        5    1    3    3  502    0 -0.29345508042E+03 -0.21507416726E+03 -0.30226324955E+03  0.47303059486E+03  0.46999998093E+01 0.  1.
       -5    1    3    3    0  502  0.29345508042E+03  0.21507416726E+03 -0.16722223078E+04  0.17113510213E+04  0.46999998093E+01 0. -1.
</event>
<event>
 5   0  0.6288003E-03  0.9115761E+03  0.7818609E-02  0.9411225E-01
        1   -1    0    0  501    0  0.00000000000E+00  0.00000000000E+00  0.60274628567E+03  0.60274628569E+03  0.50400001928E-02 0. -1.
       -1   -1    0    0    0  501  0.00000000000E+00  0.00000000000E+00 -0.34466034935E+03  0.34466034938E+03  0.50400001928E-02 0.  1.
    10030    2    1    2    0    0  0.00000000000E+00  0.00000000000E+00  0.25808593633E+03  0.94740663508E+03  0.91157609757E+03 0.  0.
        1    1    3    3  502    0  0.25806376293E+03 -0.25238640361E+03  0.41827449663E+03  0.55249376198E+03  0.50400001928E-02 0. -1.
       -1    1    3    3    0  502 -0.25806376293E+03  0.25238640361E+03 -0.16018856030E+03  0.39491287310E+03  0.50400001928E-02 0.  1.
</event>
<event>
 5   0  0.1033749E-02  0.8974303E+03  0.7818609E-02  0.9428799E-01
       -2   -1    0    0    0  501  0.00000000000E+00  0.00000000000E+00  0.22786400477E+03  0.22786400479E+03  0.25500000920E-02 0.  1.
        2   -1    0    0  501    0  0.00000000000E+00  0.00000000000E+00 -0.88362034420E+03  0.88362034421E+03  0.25500000920E-02 0. -1.
    10030    2    1    2    0    0  0.00000000000E+00  0.00000000000E+00 -0.65575633943E+03  0.11114843490E+04  0.89743026546E+03 0.  0.
        5    1    3    3  502    0 -0.98301723911E+02 -0.25487559651E+03  0.11296911860E+03  0.29564997950E+03  0.46999998093E+01 0.  1.
       -5    1    3    3    0  502  0.98301723911E+02  0.25487559651E+03 -0.76872545803E+03  0.81583436949E+03  0.46999998093E+01 0. -1.
</event>
<event>
 5   0  0.6092779E-03  0.8963039E+03  0.7818609E-02  0.9430214E-01
       -1   -1    0    0    0  501  0.00000000000E+00  0.00000000000E+00  0.92863466284E+02  0.92863466420E+02  0.50400001928E-02 0.  1.
        1   -1    0    0  501    0  0.00000000000E+00  0.00000000000E+00 -0.21627468427E+04  0.21627468427E+04  0.50400001928E-02 0. -1.
    10030    2    1    2    0    0  0.00000000000E+00  0.00000000000E+00 -0.20698833764E+04  0.22556103091E+04  0.89630389638E+03 0.  0.
        2    1    3    3  502    0  0.21689723060E+03  0.13612748734E+03 -0.10938800634E+03  0.27846155460E+03  0.25500000920E-02 0.  1.
       -2    1    3    3    0  502 -0.21689723060E+03 -0.13612748734E+03 -0.19604953700E+04  0.19771487545E+04  0.25500000920E-02 0. -1.
</event>
<event>
 5   0  0.6015709E-03  0.9297310E+03  0.7818609E-02  0.9389161E-01
       -1   -1    0    0    0  501  0.00000000000E+00  0.00000000000E+00  0.13736049204E+03  0.13736049213E+03  0.50400001928E-02 0. -1.
        1   -1    0    0  501    0  0.00000000000E+00  0.00000000000E+00 -0.15732321670E+04  0.15732321670E+04  0.50400001928E-02 0.  1.
    10030    2    1    2    0    0  0.00000000000E+00  0.00000000000E+00 -0.14358716749E+04  0.17105926591E+04  0.92973102483E+03 0.  0.
        3    1    3    3  502    0  0.35128673827E+03 -0.61984588259E+02 -0.16949299699E+03  0.39493334614E+03  0.10100000352E+00 0. -1.
       -3    1    3    3    0  502 -0.35128673827E+03  0.61984588259E+02 -0.12663786779E+04  0.13156593130E+04  0.10100000352E+00 0.  1.
</event>
<event>
 5   0  0.1028978E-02  0.8993821E+03  0.7818609E-02  0.9426354E-01
       -2   -1    0    0    0  501  0.00000000000E+00  0.00000000000E+00  0.90842040447E+03  0.90842040447E+03  0.25500000920E-02 0.  1.
        2   -1    0    0  501    0  0.00000000000E+00  0.00000000000E+00 -0.22260844829E+03  0.22260844831E+03  0.25500000920E-02 0. -1.
    10030    2    1    2    0    0  0.00000000000E+00  0.00000000000E+00  0.68581195617E+03  0.11310288528E+04  0.89938213602E+03 0.  0.
        3    1    3    3  502    0 -0.24291814729E+03  0.30526999114E+03  0.61641736098E+02  0.39496671708E+03  0.10100000352E+00 0.  1.
       -3    1    3    3    0  502  0.24291814729E+03 -0.30526999114E+03  0.62417022008E+03  0.73606213570E+03  0.10100000352E+00 0. -1.
</event>
<event>
 5   0  0.1033749E-02  0.8415838E+03  0.7818609E-02  0.9501703E-01
        2   -1    0    0  501    0  0.00000000000E+00  0.00000000000E+00  0.16532957942E+04  0.16532957942E+04  0.25500000920E-02 0.  1.
       -2   -1    0    0    0  501  0.00000000000E+00  0.00000000000E+00 -0.10709869327E+03  0.10709869330E+03  0.25500000920E-02 0. -1.
    10030    2    1    2    0    0  0.00000000000E+00  0.00000000000E+00  0.15461971009E+04  0.17603944875E+04  0.84158379066E+03 0.  0.
        5    1    3    3  502    0  0.38628034245E+03  0.16681516837E+03  0.77724310067E+03  0.88383750254E+03  0.46999998093E+01 0.  1.
       -5    1    3    3    0  502 -0.38628034245E+03 -0.16681516837E+03  0.76895400021E+03  0.87655698491E+03  0.46999998093E+01 0. -1.
</event>
<event>
 5   0  0.1017079E-02  0.8961951E+03  0.7818609E-02  0.9430350E-01
        2   -1    0    0  501    0  0.00000000000E+00  0.00000000000E+00  0.14157696406E+04  0.14157696406E+04  0.25500000920E-02 0.  1.
       -2   -1    0    0    0  501  0.00000000000E+00  0.00000000000E+00 -0.14182492073E+03  0.14182492075E+03  0.25500000920E-02 0. -1.
    10030    2    1    2    0    0  0.00000000000E+00  0.00000000000E+00  0.12739447199E+04  0.15575945614E+04  0.89619510615E+03 0.  0.
        1    1    3    3  502    0  0.25872068657E+03  0.31094389217E+03  0.97204720167E+03  0.10528524398E+04  0.50400001928E-02 0.  1.
       -1    1    3    3    0  502 -0.25872068657E+03 -0.31094389217E+03  0.30189751825E+03  0.50474212157E+03  0.50400001928E-02 0. -1.
</event>
<event>
 5   0  0.6137243E-03  0.8973788E+03  0.7818609E-02  0.9428864E-01
        1   -1    0    0  501    0  0.00000000000E+00  0.00000000000E+00  0.46023430974E+03  0.46023430977E+03  0.50400001928E-02 0.  1.
       -1   -1    0    0    0  501  0.00000000000E+00  0.00000000000E+00 -0.43743411956E+03  0.43743411959E+03  0.50400001928E-02 0. -1.
    10030    2    1    2    0    0  0.00000000000E+00  0.00000000000E+00  0.22800190183E+02  0.89766842935E+03  0.89737882769E+03 0.  0.
        4    1    3    3  502    0  0.40352587101E+03 -0.14977173434E+03  0.13815277150E+03  0.45205364964E+03  0.12699999809E+01 0.  1.
       -4    1    3    3    0  502 -0.40352587101E+03  0.14977173434E+03 -0.11535258132E+03  0.44561477971E+03  0.12699999809E+01 0. -1.
</event>
<event>
 5   0  0.6015709E-03  0.8825493E+03  0.7818609E-02  0.9447662E-01
       -1   -1    0    0    0  501  0.00000000000E+00  0.00000000000E+00  0.22914229473E+03  0.22914229478E+03  0.50400001928E-02 0. -1.
        1   -1    0    0  501    0  0.00000000000E+00  0.00000000000E+00 -0.84979213573E+03  0.84979213574E+03  0.50400001928E-02 0.  1.
    10030    2    1    2    0    0  0.00000000000E+00  0.00000000000E+00 -0.62064984100E+03  0.10789344305E+04  0.88254930754E+03 0.  0.
        3    1    3    3  502    0 -0.33313464232E+03 -0.28711013275E+03 -0.35461309680E+03  0.56494369354E+03  0.10100000352E+00 0.  1.
       -3    1    3    3    0  502  0.33313464232E+03  0.28711013275E+03 -0.26603674420E+03  0.51399073699E+03  0.10100000352E+00 0. -1.
</event>
<event>
 5   0  0.6288003E-03  0.8941558E+03  0.7818609E-02  0.9432917E-01
        1   -1    0    0  501    0  0.00000000000E+00  0.00000000000E+00  0.12214252477E+04  0.12214252477E+04  0.50400001928E-02 0. -1.
       -1   -1    0    0    0  501  0.00000000000E+00  0.00000000000E+00 -0.16364379192E+03  0.16364379200E+03  0.50400001928E-02 0.  1.
    10030    2    1    2    0    0  0.00000000000E+00  0.00000000000E+00  0.10577814558E+04  0.13850690397E+04  0.89415582343E+03 0.  0.
        1    1    3    3  502    0 -0.82948128989E+02 -0.24103528571E+03 -0.40046827713E+02  0.25803517104E+03  0.50400001928E-02 0.  1.
       -1    1    3    3    0  502  0.82948128989E+02  0.24103528571E+03  0.10978282835E+04  0.11270338687E+04  0.50400001928E-02 0. -1.
</event>
<event>
 5   0  0.1003252E-02  0.9189647E+03  0.7818609E-02  0.9402180E-01
        2   -1    0    0  501    0  0.00000000000E+00  0.00000000000E+00  0.51426655231E+03  0.51426655232E+03  0.25500000920E-02 0. -1.
       -2   -1    0    0    0  501  0.00000000000E+00  0.00000000000E+00 -0.41053425316E+03  0.41053425317E+03  0.25500000920E-02 0.  1.
    10030    2    1    2    0    0  0.00000000000E+00  0.00000000000E+00  0.10373229915E+03  0.92480080549E+03  0.91896471093E+03 0.  0.
        2    1    3    3  502    0 -0.58621455349E+02  0.43668839990E+03 -0.79310428051E+02  0.44768669584E+03  0.25500000920E-02 0.  1.
       -2    1    3    3    0  502  0.58621455349E+02 -0.43668839990E+03  0.18304272720E+03  0.47711410964E+03  0.25500000920E-02 0. -1.
</event>
<event>
 5   0  0.6288003E-03  0.8736721E+03  0.7818609E-02  0.9459105E-01
        1   -1    0    0  501    0  0.00000000000E+00  0.00000000000E+00  0.12652290108E+04  0.12652290108E+04  0.50400001928E-02 0.  1.
       -1   -1    0    0    0  501  0.00000000000E+00  0.00000000000E+00 -0.15082307226E+03  0.15082307234E+03  0.50400001928E-02 0. -1.
    10030    2    1    2    0    0  0.00000000000E+00  0.00000000000E+00  0.11144059386E+04  0.14160520832E+04  0.87367208170E+03 0.  0.
        1    1    3    3  502    0  0.34610162634E+03  0.26185808915E+03  0.47665479903E+03  0.64463617031E+03  0.50400001928E-02 0.  1.
       -1    1    3    3    0  502 -0.34610162634E+03 -0.26185808915E+03  0.63775113954E+03  0.77141591286E+03  0.50400001928E-02 0. -1.
</event>
<event>
 5   0  0.3996375E-03  0.9000088E+03  0.7818609E-02  0.9425570E-01
       -4   -1    0    0    0  501  0.00000000000E+00  0.00000000000E+00  0.57428317303E+03  0.57428457730E+03  0.12699999809E+01 0.  1.
        4   -1    0    0  501    0  0.00000000000E+00  0.00000000000E+00 -0.35261743611E+03  0.35261972314E+03  0.12699999809E+01 0. -1.
    10030    2    1    2    0    0  0.00000000000E+00  0.00000000000E+00  0.22166573692E+03  0.92690430044E+03  0.90000882398E+03 0.  0.
        1    1    3    3  502    0  0.35223296435E+03 -0.93694785725E+02 -0.16098069621E+03  0.39844894105E+03  0.50400001928E-02 0. -1.
       -1    1    3    3    0  502 -0.35223296435E+03  0.93694785725E+02  0.38264643313E+03  0.52845535938E+03  0.50400001928E-02 0.  1.
</event>
<event>
 5   0  0.6137243E-03  0.8931795E+03  0.7818609E-02  0.9434148E-01
       -1   -1    0    0    0  501  0.00000000000E+00  0.00000000000E+00  0.82155845892E+03  0.82155845894E+03  0.50400001928E-02 0. -1.
        1   -1    0    0  501    0  0.00000000000E+00  0.00000000000E+00 -0.24276106244E+03  0.24276106249E+03  0.50400001928E-02 0.  1.
    10030    2    1    2    0    0  0.00000000000E+00  0.00000000000E+00  0.57879739648E+03  0.10643195214E+04  0.89317949905E+03 0.  0.
        4    1    3    3  502    0 -0.23557228853E+03 -0.37808300986E+03  0.32707547807E+03  0.55264911718E+03  0.12699999809E+01 0. -1.
       -4    1    3    3    0  502  0.23557228853E+03  0.37808300986E+03  0.25172191841E+03  0.51167040424E+03  0.12699999809E+01 0.  1.
</event>
<event>
 5   0  0.1017079E-02  0.8959669E+03  0.7818609E-02  0.9430637E-01
        2   -1    0    0  501    0  0.00000000000E+00  0.00000000000E+00  0.94505619745E+03  0.94505619746E+03  0.25500000920E-02 0.  1.
       -2   -1    0    0    0  501  0.00000000000E+00  0.00000000000E+00 -0.21235685917E+03  0.21235685919E+03  0.25500000920E-02 0. -1.
    10030    2    1    2    0    0  0.00000000000E+00  0.00000000000E+00  0.73269933828E+03  0.11574130566E+04  0.89596688744E+03 0.  0.
        1    1    3    3  502    0 -0.32517964875E+03  0.65904481987E+02 -0.22489503345E+02  0.33255222521E+03  0.50400001928E-02 0. -1.
       -1    1    3    3    0  502  0.32517964875E+03 -0.65904481987E+02  0.75518884162E+03  0.82486083144E+03  0.50400001928E-02 0.  1.
</event>
<event>
 5   0  0.1028978E-02  0.9016961E+03  0.7818609E-02  0.9423464E-01
        2   -1    0    0  501    0  0.00000000000E+00  0.00000000000E+00  0.17187914697E+04  0.17187914697E+04  0.25500000920E-02 0. -1.
       -2   -1    0    0    0  501  0.00000000000E+00  0.00000000000E+00 -0.11825981981E+03  0.11825981984E+03  0.25500000920E-02 0.  1.
    10030    2    1    2    0    0  0.00000000000E+00  0.00000000000E+00  0.16005316498E+04  0.18370512895E+04  0.90169611183E+03 0.  0.
        3    1    3    3  502    0  0.26716633070E+03  0.13544391934E+03  0.11377055550E+03  0.32041637449E+03  0.10100000352E+00 0.  1.
       -3    1    3    3    0  502 -0.26716633070E+03 -0.13544391934E+03  0.14867610943E+04  0.15166349150E+04  0.10100000352E+00 0. -1.
</event>
<event>
 5   0  0.6092779E-03  0.9112921E+03  0.7818609E-02  0.9411575E-01
       -1   -1    0    0    0  501  0.00000000000E+00  0.00000000000E+00  0.11849947725E+03  0.11849947736E+03  0.50400001928E-02 0.  1.
        1   -1    0    0  501    0  0.00000000000E+00  0.00000000000E+00 -0.17520188980E+04  0.17520188980E+04  0.50400001928E-02 0. -1.
    10030    2    1    2    0    0  0.00000000000E+00  0.00000000000E+00 -0.16335194208E+04  0.18705183754E+04  0.91129210170E+03 0.  0.
        2    1    3    3  502    0 -0.18620032322E+03 -0.39999875770E+03 -0.58323408149E+03  0.73132178987E+03  0.25500000920E-02 0.  1.
       -2    1    3    3    0  502  0.18620032322E+03  0.39999875770E+03 -0.10502853393E+04  0.11391965855E+04  0.25500000920E-02 0. -1.
</event>
<event>
 5   0  0.3996375E-03  0.8991749E+03  0.7818609E-02  0.9426613E-01
        3   -1    0    0  501    0  0.00000000000E+00  0.00000000000E+00  0.49300725810E+03  0.49300726845E+03  0.10100000352E+00 0. -1.
       -3   -1    0    0    0  501  0.00000000000E+00  0.00000000000E+00 -0.40999166737E+03  0.40999167981E+03  0.10100000352E+00 0.  1.
    10030    2    1    2    0    0  0.00000000000E+00  0.00000000000E+00  0.83015590730E+02  0.90299894826E+03  0.89917490637E+03 0.  0.
        1    1    3    3  502    0 -0.10927898925E+03 -0.42270432824E+03  0.14923951342E+03  0.46140359664E+03  0.50400001928E-02 0.  1.
       -1    1    3    3    0  502  0.10927898925E+03  0.42270432824E+03 -0.66223922686E+02  0.44159535161E+03  0.50400001928E-02 0. -1.
</event>
<event>
 5   0  0.6211218E-03  0.8952956E+03  0.7818609E-02  0.9431481E-01
       -1   -1    0    0    0  501  0.00000000000E+00  0.00000000000E+00  0.10248972174E+04  0.10248972174E+04  0.50400001928E-02 0.  1.
        1   -1    0    0  501    0  0.00000000000E+00  0.00000000000E+00 -0.19552064626E+03  0.19552064632E+03  0.50400001928E-02 0. -1.
    10030    2    1    2    0    0  0.00000000000E+00  0.00000000000E+00  0.82937657115E+03  0.12204178637E+04  0.89529563015E+03 0.  0.
        5    1    3    3  502    0  0.34339399369E+03 -0.42765825402E+02  0.27645978754E+02  0.34718113552E+03  0.46999998093E+01 0. -1.
       -5    1    3    3    0  502 -0.34339399369E+03  0.42765825402E+02  0.80173059240E+03  0.87323672822E+03  0.46999998093E+01 0.  1.
</event>
<event>
 5   0  0.1033749E-02  0.9023268E+03  0.7818609E-02  0.9422678E-01
        2   -1    0    0  501    0  0.00000000000E+00  0.00000000000E+00  0.31130160138E+03  0.31130160139E+03  0.25500000920E-02 0.  1.
       -2   -1    0    0    0  501  0.00000000000E+00  0.00000000000E+00 -0.65386233845E+03  0.65386233846E+03  0.25500000920E-02 0. -1.
    10030    2    1    2    0    0  0.00000000000E+00  0.00000000000E+00 -0.34256073707E+03  0.96516393985E+03  0.90232675468E+03 0.  0.
        5    1    3    3  502    0 -0.37625024333E+03 -0.20164061757E+03 -0.15160258963E+02  0.42717105205E+03  0.46999998093E+01 0. -1.
       -5    1    3    3    0  502  0.37625024333E+03  0.20164061757E+03 -0.32740047811E+03  0.53799288780E+03  0.46999998093E+01 0.  1.
</event>
<event>
 5   0  0.1017079E-02  0.9041504E+03  0.7818609E-02  0.9420408E-01
        2   -1    0    0  501    0  0.00000000000E+00  0.00000000000E+00  0.10774253649E+04  0.10774253649E+04  0.25500000920E-02 0. -1.
       -2   -1    0    0    0  501  0.00000000000E+00  0.00000000000E+00 -0.18968552215E+03  0.18968552217E+03  0.25500000920E-02 0.  1.
    10030    2    1    2    0    0  0.00000000000E+00  0.00000000000E+00  0.88773984272E+03  0.12671108870E+04  0.90415041432E+03 0.  0.
        1    1    3    3  502    0  0.33539127931E+03  0.15530687679E+03  0.79053047879E+02  0.37796417902E+03  0.50400001928E-02 0.  1.
       -1    1    3    3    0  502 -0.33539127931E+03 -0.15530687679E+03  0.80868679484E+03  0.88914670802E+03  0.50400001928E-02 0. -1.
</event>
<event>
 5   0  0.6211218E-03  0.8909436E+03  0.7818609E-02  0.9436974E-01
        1   -1    0    0  501    0  0.00000000000E+00  0.00000000000E+00  0.38594764507E+03  0.38594764511E+03  0.50400001928E-02 0.  1.
       -1   -1    0    0    0  501  0.00000000000E+00  0.00000000000E+00 -0.51417630470E+03  0.51417630472E+03  0.50400001928E-02 0. -1.
    10030    2    1    2    0    0  0.00000000000E+00  0.00000000000E+00 -0.12822865962E+03  0.90012394983E+03  0.89094362106E+03 0.  0.
        5    1    3    3  502    0  0.21830310460E+03 -0.16577647168E+03 -0.41885186466E+03  0.50059670252E+03  0.46999998093E+01 0. -1.
       -5    1    3    3    0  502 -0.21830310460E+03  0.16577647168E+03  0.29062320504E+03  0.39952724731E+03  0.46999998093E+01 0.  1.
</event>
<event>
 5   0  0.6137243E-03  0.9003284E+03  0.7818609E-02  0.9425171E-01
        1   -1    0    0  501    0  0.00000000000E+00  0.00000000000E+00  0.67515366622E+03  0.67515366623E+03  0.50400001928E-02 0.  1.
       -1   -1    0    0    0  501  0.00000000000E+00  0.00000000000E+00 -0.30015062871E+03  0.30015062875E+03  0.50400001928E-02 0. -1.
    10030    2    1    2    0    0  0.00000000000E+00  0.00000000000E+00  0.37500303751E+03  0.97530429498E+03  0.90032837880E+03 0.  0.
        4    1    3    3  502    0 -0.10936210071E+03 -0.10193754230E+03  0.64747295312E+03  0.66451047360E+03  0.12699999809E+01 0.  1.
       -4    1    3    3    0  502  0.10936210071E+03  0.10193754230E+03 -0.27246991561E+03  0.31079382139E+03  0.12699999809E+01 0. -1.
</event>
<event>
 5   0  0.1041727E-02  0.9040005E+03  0.7818609E-02  0.9420594E-01
       -2   -1    0    0    0  501  0.00000000000E+00  0.00000000000E+00  0.44953621770E+03  0.44953621770E+03  0.25500000920E-02 0.  1.
        2   -1    0    0  501    0  0.00000000000E+00  0.00000000000E+00 -0.45447779451E+03  0.45447779452E+03  0.25500000920E-02 0. -1.
    10030    2    1    2    0    0  0.00000000000E+00  0.00000000000E+00 -0.49415768121E+01  0.90401401222E+03  0.90400050614E+03 0.  0.
        4    1    3    3  502    0  0.21737697530E+03  0.15739344498E+03  0.36123393046E+03  0.45001890108E+03  0.12699999809E+01 0.  1.
       -4    1    3    3    0  502 -0.21737697530E+03 -0.15739344498E+03 -0.36617550727E+03  0.45399511114E+03  0.12699999809E+01 0. -1.
</event>
<event>
 5   0  0.1028978E-02  0.9055124E+03  0.7818609E-02  0.9418717E-01
       -2   -1    0    0    0  501  0.00000000000E+00  0.00000000000E+00  0.42286106516E+03  0.42286106517E+03  0.25500000920E-02 0. -1.
        2   -1    0    0  501    0  0.00000000000E+00  0.00000000000E+00 -0.48476485512E+03  0.48476485513E+03  0.25500000920E-02 0.  1.
    10030    2    1    2    0    0  0.00000000000E+00  0.00000000000E+00 -0.61903789965E+02  0.90762592030E+03  0.90551241404E+03 0.  0.
        3    1    3    3  502    0 -0.36127722043E+03 -0.18174877564E+02  0.24196402032E+03  0.43519898150E+03  0.10100000352E+00 0. -1.
       -3    1    3    3    0  502  0.36127722043E+03  0.18174877564E+02 -0.30386781028E+03  0.47242693879E+03  0.10100000352E+00 0.  1.
</event>
<event>
 5   0  0.1033749E-02  0.9002752E+03  0.7818609E-02  0.9425238E-01
       -2   -1    0    0    0  501  0.00000000000E+00  0.00000000000E+00  0.81043964036E+03  0.81043964036E+03  0.25500000920E-02 0.  1.
        2   -1    0    0  501    0  0.00000000000E+00  0.00000000000E+00 -0.25001719490E+03  0.25001719491E+03  0.25500000920E-02 0. -1.
    10030    2    1    2    0    0  0.00000000000E+00  0.00000000000E+00  0.56042244546E+03  0.10604568353E+04  0.90027517021E+03 0.  0.
        5    1    3    3  502    0  0.38134141061E+03  0.71560577194E+02  0.11449136985E+02  0.38819500304E+03  0.46999998093E+01 0. -1.
       -5    1    3    3    0  502 -0.38134141061E+03 -0.71560577194E+02  0.54897330847E+03  0.67226183223E+03  0.46999998093E+01 0.  1.
</event>
<event>
 5   0  0.1033749E-02  0.9230706E+03  0.7818609E-02  0.9397193E-01
       -2   -1    0    0    0  501  0.00000000000E+00  0.00000000000E+00  0.39889603321E+03  0.39889603322E+03  0.25500000920E-02 0.  1.
        2   -1    0    0  501    0  0.00000000000E+00  0.00000000000E+00 -0.53401092595E+03  0.53401092595E+03  0.25500000920E-02 0. -1.
    10030    2    1    2    0    0  0.00000000000E+00  0.00000000000E+00 -0.13511489274E+03  0.93290695917E+03  0.92307061498E+03 0.  0.
        5    1    3    3  502    0  0.28400527684E+03 -0.13114584191E+03  0.27537311156E+03  0.41678611984E+03  0.46999998093E+01 0.  1.
       -5    1    3    3    0  502 -0.28400527684E+03  0.13114584191E+03 -0.41048800430E+03  0.51612083933E+03  0.46999998093E+01 0. -1.
</event>
<event>
 5   0  0.1033749E-02  0.9050886E+03  0.7818609E-02  0.9419243E-01
       -2   -1    0    0    0  501  0.00000000000E+00  0.00000000000E+00  0.37215381706E+03  0.37215381707E+03  0.25500000920E-02 0.  1.
        2   -1    0    0  501    0  0.00000000000E+00  0.00000000000E+00 -0.55030029833E+03  0.55030029834E+03  0.25500000920E-02 0. -1.
    10030    2    1    2    0    0  0.00000000000E+00  0.00000000000E+00 -0.17814648127E+03  0.92245411540E+03  0.90508862894E+03 0.  0.
        5    1    3    3  502    0 -0.30800243512E+03  0.26900854219E+03 -0.28655143081E+03  0.49936450445E+03  0.46999998093E+01 0.  1.
       -5    1    3    3    0  502  0.30800243512E+03 -0.26900854219E+03  0.10840494954E+03  0.42308961095E+03  0.46999998093E+01 0. -1.
</event>
<event>
 5   0  0.6211218E-03  0.7525088E+03  0.7818609E-02  0.9631423E-01
       -1   -1    0    0    0  501  0.00000000000E+00  0.00000000000E+00  0.98950504885E+02  0.98950505013E+02  0.50400001928E-02 0.  1.
        1   -1    0    0  501    0  0.00000000000E+00  0.00000000000E+00 -0.14306887787E+04  0.14306887787E+04  0.50400001928E-02 0. -1.
    10030    2    1    2    0    0  0.00000000000E+00  0.00000000000E+00 -0.13317382738E+04  0.15296392837E+04  0.75250880949E+03 0.  0.
        5    1    3    3  502    0 -0.36027873772E+03 -0.46228734074E+02 -0.46662714163E+03  0.59135509130E+03  0.46999998093E+01 0.  1.
       -5    1    3    3    0  502  0.36027873772E+03  0.46228734074E+02 -0.86511113218E+03  0.93828419241E+03  0.46999998093E+01 0. -1.
</event>
<event>
 5   0  0.1017079E-02  0.8990791E+03  0.7818609E-02  0.9426733E-01
       -2   -1    0    0    0  501  0.00000000000E+00  0.00000000000E+00  0.25274868259E+03  0.25274868261E+03  0.25500000920E-02 0. -1.
        2   -1    0    0  501    0  0.00000000000E+00  0.00000000000E+00 -0.79955231366E+03  0.79955231367E+03  0.25500000920E-02 0.  1.
    10030    2    1    2    0    0  0.00000000000E+00  0.00000000000E+00 -0.54680363107E+03  0.10523009963E+04  0.89907907094E+03 0.  0.
        1    1    3    3  502    0  0.60466052375E+02  0.35178969033E+03  0.46433064598E+02  0.35995577399E+03  0.50400001928E-02 0. -1.
       -1    1    3    3    0  502 -0.60466052375E+02 -0.35178969033E+03 -0.59323669567E+03  0.69234522229E+03  0.50400001928E-02 0.  1.
</event>
<event>
 5   0  0.6092779E-03  0.8997168E+03  0.7818609E-02  0.9425936E-01
        1   -1    0    0  501    0  0.00000000000E+00  0.00000000000E+00  0.19020337336E+04  0.19020337336E+04  0.50400001928E-02 0. -1.
       -1   -1    0    0    0  501  0.00000000000E+00  0.00000000000E+00 -0.10639799135E+03  0.10639799147E+03  0.50400001928E-02 0.  1.
    10030    2    1    2    0    0  0.00000000000E+00  0.00000000000E+00  0.17956357422E+04  0.20084317250E+04  0.89971677513E+03 0.  0.
        2    1    3    3  502    0 -0.28832369502E+03  0.31359432868E+03  0.57509424222E+03  0.71568522658E+03  0.25500000920E-02 0. -1.
       -2    1    3    3    0  502  0.28832369502E+03 -0.31359432868E+03  0.12205415000E+04  0.12927464985E+04  0.25500000920E-02 0.  1.
</event>
<event>
 5   0  0.6092779E-03  0.8932666E+03  0.7818609E-02  0.9434038E-01
        1   -1    0    0  501    0  0.00000000000E+00  0.00000000000E+00  0.16192170970E+04  0.16192170970E+04  0.50400001928E-02 0.  1.
       -1   -1    0    0    0  501  0.00000000000E+00  0.00000000000E+00 -0.12319614214E+03  0.12319614224E+03  0.50400001928E-02 0. -1.
    10030    2    1    2    0    0  0.00000000000E+00  0.00000000000E+00  0.14960209549E+04  0.17424132392E+04  0.89326658894E+03 0.  0.
        2    1    3    3  502    0 -0.20409827680E+03 -0.17303376751E+02  0.15221975230E+04  0.15359169289E+04  0.25500000920E-02 0.  1.
       -2    1    3    3    0  502  0.20409827680E+03  0.17303376751E+02 -0.26176568184E+02  0.20649631030E+03  0.25500000920E-02 0. -1.
</event>
<event>
 5   0  0.6015709E-03  0.9003207E+03  0.7818609E-02  0.9425181E-01
        1   -1    0    0  501    0  0.00000000000E+00  0.00000000000E+00  0.32748083923E+03  0.32748083926E+03  0.50400001928E-02 0.  1.
       -1   -1    0    0    0  501  0.00000000000E+00  0.00000000000E+00 -0.61879749286E+03  0.61879749288E+03  0.50400001928E-02 0. -1.
    10030    2    1    2    0    0  0.00000000000E+00  0.00000000000E+00 -0.29131665364E+03  0.94627833215E+03  0.90032065910E+03 0.  0.
        3    1    3    3  502    0  0.37086126040E+03 -0.18480297258E+03  0.39260344103E+02  0.41621100173E+03  0.10100000352E+00 0.  1.
       -3    1    3    3    0  502 -0.37086126040E+03  0.18480297258E+03 -0.33057699774E+03  0.53006733042E+03  0.10100000352E+00 0. -1.
</event>
<event>
 5   0  0.1017079E-02  0.9163313E+03  0.7818609E-02  0.9405394E-01
       -2   -1    0    0    0  501  0.00000000000E+00  0.00000000000E+00  0.23292269887E+03  0.23292269888E+03  0.25500000920E-02 0.  1.
        2   -1    0    0  501    0  0.00000000000E+00  0.00000000000E+00 -0.90122498074E+03  0.90122498075E+03  0.25500000920E-02 0. -1.
    10030    2    1    2    0    0  0.00000000000E+00  0.00000000000E+00 -0.66830228187E+03  0.11341476796E+04  0.91633128248E+03 0.  0.
        1    1    3    3  502    0  0.43024179690E+03 -0.20874754013E+02 -0.14092644112E+03  0.45321520383E+03  0.50400001928E-02 0.  1.
       -1    1    3    3    0  502 -0.43024179690E+03  0.20874754013E+02 -0.52737584076E+03  0.68093247580E+03  0.50400001928E-02 0. -1.
</event>
<event>
 5   0  0.6137243E-03  0.8963375E+03  0.7818609E-02  0.9430171E-01
       -1   -1    0    0    0  501  0.00000000000E+00  0.00000000000E+00  0.47278107678E+03  0.47278107681E+03  0.50400001928E-02 0. -1.
        1   -1    0    0  501    0  0.00000000000E+00  0.00000000000E+00 -0.42483773294E+03  0.42483773297E+03  0.50400001928E-02 0.  1.
    10030    2    1    2    0    0  0.00000000000E+00  0.00000000000E+00  0.47943343839E+02  0.89761880978E+03  0.89633752763E+03 0.  0.
        4    1    3    3  502    0  0.20940941898E+03  0.38946941072E+03  0.96979254380E+02  0.45270886376E+03  0.12699999809E+01 0.  1.
       -4    1    3    3    0  502 -0.20940941898E+03 -0.38946941072E+03 -0.49035910541E+02  0.44490994602E+03  0.12699999809E+01 0. -1.
</event>
<event>
 5   0  0.6137243E-03  0.9006571E+03  0.7818609E-02  0.9424760E-01
       -1   -1    0    0    0  501  0.00000000000E+00  0.00000000000E+00  0.20382882362E+04  0.20382882362E+04  0.50400001928E-02 0.  1.
        1   -1    0    0  501    0  0.00000000000E+00  0.00000000000E+00 -0.99493189588E+02  0.99493189716E+02  0.50400001928E-02 0. -1.
    10030    2    1    2    0    0  0.00000000000E+00  0.00000000000E+00  0.19387950466E+04  0.21377814260E+04  0.90065708917E+03 0.  0.
        4    1    3    3  502    0  0.25098106503E+02 -0.43511959082E+03  0.70048851622E+03  0.82501196811E+03  0.12699999809E+01 0. -1.
       -4    1    3    3    0  502 -0.25098106503E+02  0.43511959082E+03  0.12383065304E+04  0.13127694578E+04  0.12699999809E+01 0.  1.
</event>
<event>
 5   0  0.6211218E-03  0.8936322E+03  0.7818609E-02  0.9433577E-01
       -1   -1    0    0    0  501  0.00000000000E+00  0.00000000000E+00  0.44105454484E+03  0.44105454487E+03  0.50400001928E-02 0. -1.
        1   -1    0    0  501    0  0.00000000000E+00  0.00000000000E+00 -0.45265287483E+03  0.45265287486E+03  0.50400001928E-02 0.  1.
    10030    2    1    2    0    0  0.00000000000E+00  0.00000000000E+00 -0.11598329989E+02  0.89370741973E+03  0.89363215633E+03 0.  0.
        5    1    3    3  502    0 -0.19829682644E+03  0.13378155531E+03  0.37159634342E+03  0.44195595749E+03  0.46999998093E+01 0. -1.
       -5    1    3    3    0  502  0.19829682644E+03 -0.13378155531E+03 -0.38319467341E+03  0.45175146225E+03  0.46999998093E+01 0.  1.
</event>
<event>
 5   0  0.1003252E-02  0.8982899E+03  0.7818609E-02  0.9427722E-01
        2   -1    0    0  501    0  0.00000000000E+00  0.00000000000E+00  0.53682002507E+03  0.53682002508E+03  0.25500000920E-02 0. -1.
       -2   -1    0    0    0  501  0.00000000000E+00  0.00000000000E+00 -0.37578921694E+03  0.37578921694E+03  0.25500000920E-02 0.  1.
    10030    2    1    2    0    0  0.00000000000E+00  0.00000000000E+00  0.16103080813E+03  0.91260924202E+03  0.89828987941E+03 0.  0.
        2    1    3    3  502    0 -0.39185902787E+03 -0.93960634570E+02 -0.12101270864E+03  0.42074478515E+03  0.25500000920E-02 0.  1.
       -2    1    3    3    0  502  0.39185902787E+03  0.93960634570E+02  0.28204351677E+03  0.49186445687E+03  0.25500000920E-02 0. -1.
</event>
<event>
 5   0  0.1041727E-02  0.9078967E+03  0.7818609E-02  0.9415764E-01
        2   -1    0    0  501    0  0.00000000000E+00  0.00000000000E+00  0.13751523285E+04  0.13751523285E+04  0.25500000920E-02 0. -1.
       -2   -1    0    0    0  501  0.00000000000E+00  0.00000000000E+00 -0.14985182523E+03  0.14985182525E+03  0.25500000920E-02 0.  1.
    10030    2    1    2    0    0  0.00000000000E+00  0.00000000000E+00  0.12253005032E+04  0.15250041537E+04  0.90789666021E+03 0.  0.
        4    1    3    3  502    0 -0.30403836616E+03  0.20905287525E+03  0.16847846185E+03  0.40562179152E+03  0.12699999809E+01 0.  1.
       -4    1    3    3    0  502  0.30403836616E+03 -0.20905287525E+03  0.10568220414E+04  0.11193823622E+04  0.12699999809E+01 0. -1.
</event>
<event>
 5   0  0.1033749E-02  0.9473846E+03  0.7818609E-02  0.9368213E-01
        2   -1    0    0  501    0  0.00000000000E+00  0.00000000000E+00  0.39766778750E+03  0.39766778751E+03  0.25500000920E-02 0. -1.
       -2   -1    0    0    0  501  0.00000000000E+00  0.00000000000E+00 -0.56425085881E+03  0.56425085882E+03  0.25500000920E-02 0.  1.
    10030    2    1    2    0    0  0.00000000000E+00  0.00000000000E+00 -0.16658307131E+03  0.96191864633E+03  0.94738459060E+03 0.  0.
        5    1    3    3  502    0  0.22801940656E+03 -0.36852716196E+03  0.11084102402E+03  0.44733985009E+03  0.46999998093E+01 0. -1.
       -5    1    3    3    0  502 -0.22801940656E+03  0.36852716196E+03 -0.27742409533E+03  0.51457879624E+03  0.46999998093E+01 0.  1.
</event>
<event>
 5   0  0.1028978E-02  0.8955335E+03  0.7818609E-02  0.9431182E-01
        2   -1    0    0  501    0  0.00000000000E+00  0.00000000000E+00  0.77431905869E+03  0.77431905869E+03  0.25500000920E-02 0.  1.
       -2   -1    0    0    0  501  0.00000000000E+00  0.00000000000E+00 -0.25893078361E+03  0.25893078362E+03  0.25500000920E-02 0. -1.
    10030    2    1    2    0    0  0.00000000000E+00  0.00000000000E+00  0.51538827507E+03  0.10332498423E+04  0.89553345139E+03 0.  0.
        3    1    3    3  502    0  0.24442570601E+03  0.29349658962E+03 -0.11932644774E+02  0.38213423308E+03  0.10100000352E+00 0. -1.
       -3    1    3    3    0  502 -0.24442570601E+03 -0.29349658962E+03  0.52732091985E+03  0.65111560923E+03  0.10100000352E+00 0.  1.
</event>
<event>
 5   0  0.1033749E-02  0.8903567E+03  0.7818609E-02  0.9437717E-01
       -2   -1    0    0    0  501  0.00000000000E+00  0.00000000000E+00  0.17687020392E+03  0.17687020394E+03  0.25500000920E-02 0. -1.
        2   -1    0    0  501    0  0.00000000000E+00  0.00000000000E+00 -0.11205038908E+04  0.11205038908E+04  0.25500000920E-02 0.  1.
    10030    2    1    2    0    0  0.00000000000E+00  0.00000000000E+00 -0.94363368689E+03  0.12973740948E+04  0.89035667388E+03 0.  0.
        5    1    3    3  502    0 -0.22727244865E+03  0.38014103711E+03 -0.53700960234E+03  0.69610442967E+03  0.46999998093E+01 0.  1.
       -5    1    3    3    0  502  0.22727244865E+03 -0.38014103711E+03 -0.40662408456E+03  0.60126966509E+03  0.46999998093E+01 0. -1.
</event>
<event>
 5   0  0.1003252E-02  0.9007033E+03  0.7818609E-02  0.9424703E-01
        2   -1    0    0  501    0  0.00000000000E+00  0.00000000000E+00  0.10304583727E+04  0.10304583727E+04  0.25500000920E-02 0. -1.
       -2   -1    0    0    0  501  0.00000000000E+00  0.00000000000E+00 -0.19682173653E+03  0.19682173654E+03  0.25500000920E-02 0.  1.
    10030    2    1    2    0    0  0.00000000000E+00  0.00000000000E+00  0.83363663618E+03  0.12272801093E+04  0.90070329487E+03 0.  0.
        2    1    3    3  502    0 -0.58107955245E+02  0.17137658150E+03 -0.14510360697E+03  0.23195155510E+03  0.25500000920E-02 0.  1.
       -2    1    3    3    0  502  0.58107955245E+02 -0.17137658150E+03  0.97874024315E+03  0.99532855416E+03  0.25500000920E-02 0. -1.
</event>
<event>
 5   0  0.6288003E-03  0.8983593E+03  0.7818609E-02  0.9427635E-01
        1   -1    0    0  501    0  0.00000000000E+00  0.00000000000E+00  0.62190271219E+03  0.62190271221E+03  0.50400001928E-02 0. -1.
       -1   -1    0    0    0  501  0.00000000000E+00  0.00000000000E+00 -0.32442751645E+03  0.32442751649E+03  0.50400001928E-02 0.  1.
    10030    2    1    2    0    0  0.00000000000E+00  0.00000000000E+00  0.29747519574E+03  0.94633022871E+03  0.89835928764E+03 0.  0.
        1    1    3    3  502    0 -0.44607678123E+03  0.51048977384E+02  0.13492804911E+03  0.46882413686E+03  0.50400001928E-02 0.  1.
       -1    1    3    3    0  502  0.44607678123E+03 -0.51048977384E+02  0.16254714663E+03  0.47750609184E+03  0.50400001928E-02 0. -1.
</event>
<event>
 5   0  0.6137243E-03  0.8925249E+03  0.7818609E-02  0.9434974E-01
        1   -1    0    0  501    0  0.00000000000E+00  0.00000000000E+00  0.42853794146E+03  0.42853794149E+03  0.50400001928E-02 0. -1.
       -1   -1    0    0    0  501  0.00000000000E+00  0.00000000000E+00 -0.46472002987E+03  0.46472002989E+03  0.50400001928E-02 0.  1.
    10030    2    1    2    0    0  0.00000000000E+00  0.00000000000E+00 -0.36182088405E+02  0.89325797139E+03  0.89252487916E+03 0.  0.
        4    1    3    3  502    0 -0.35203993837E+02  0.17918392431E+03  0.38943175741E+03  0.43012196700E+03  0.12699999809E+01 0. -1.
       -4    1    3    3    0  502  0.35203993837E+02 -0.17918392431E+03 -0.42561384581E+03  0.46313600439E+03  0.12699999809E+01 0.  1.
</event>
<event>
 5   0  0.1041727E-02  0.9029241E+03  0.7818609E-02  0.9421933E-01
        2   -1    0    0  501    0  0.00000000000E+00  0.00000000000E+00  0.11339955096E+04  0.11339955096E+04  0.25500000920E-02 0. -1.
       -2   -1    0    0    0  501  0.00000000000E+00  0.00000000000E+00 -0.17973439704E+03  0.17973439705E+03  0.25500000920E-02 0.  1.
    10030    2    1    2    0    0  0.00000000000E+00  0.00000000000E+00  0.95426111254E+03  0.13137299066E+04  0.90292413672E+03 0.  0.
        4    1    3    3  502    0  0.17954719009E+03  0.26880597151E+03  0.18588960448E+02  0.32379160912E+03  0.12699999809E+01 0.  1.
       -4    1    3    3    0  502 -0.17954719009E+03 -0.26880597151E+03  0.93567215210E+03  0.98993829752E+03  0.12699999809E+01 0. -1.
</event>
<event>
 5   0  0.1041727E-02  0.9140993E+03  0.7818609E-02  0.9408126E-01
        2   -1    0    0  501    0  0.00000000000E+00  0.00000000000E+00  0.10633271072E+04  0.10633271072E+04  0.25500000920E-02 0. -1.
       -2   -1    0    0    0  501  0.00000000000E+00  0.00000000000E+00 -0.19645356757E+03  0.19645356758E+03  0.25500000920E-02 0.  1.
    10030    2    1    2    0    0  0.00000000000E+00  0.00000000000E+00  0.86687353968E+03  0.12597806748E+04  0.91409934629E+03 0.  0.
        4    1    3    3  502    0  0.39559433237E+03 -0.42606062306E+02  0.74339436531E+03  0.84317670012E+03  0.12699999809E+01 0. -1.
       -4    1    3    3    0  502 -0.39559433237E+03  0.42606062306E+02  0.12347917437E+03  0.41660397471E+03  0.12699999809E+01 0.  1.
</event>
<event>
 5   0  0.6092779E-03  0.7853513E+03  0.7818609E-02  0.9581466E-01
       -1   -1    0    0    0  501  0.00000000000E+00  0.00000000000E+00  0.57457081948E+02  0.57457082169E+02  0.50400001928E-02 0.  1.
        1   -1    0    0  501    0  0.00000000000E+00  0.00000000000E+00 -0.26836407359E+04  0.26836407359E+04  0.50400001928E-02 0. -1.
    10030    2    1    2    0    0  0.00000000000E+00  0.00000000000E+00 -0.26261836539E+04  0.27410978181E+04  0.78535129971E+03 0.  0.
        2    1    3    3  502    0  0.35380451824E+03  0.56751811785E+02 -0.75251552146E+03  0.83347346407E+03  0.25500000920E-02 0. -1.
       -2    1    3    3    0  502 -0.35380451824E+03 -0.56751811785E+02 -0.18736681325E+04  0.19076243540E+04  0.25500000920E-02 0.  1.
</event>
<event>
 5   0  0.3996375E-03  0.9398080E+03  0.7818609E-02  0.9377143E-01
       -4   -1    0    0    0  501  0.00000000000E+00  0.00000000000E+00  0.49966557752E+03  0.49966719149E+03  0.12699999809E+01 0.  1.
        4   -1    0    0  501    0  0.00000000000E+00  0.00000000000E+00 -0.44191182854E+03  0.44191365345E+03  0.12699999809E+01 0. -1.
    10030    2    1    2    0    0  0.00000000000E+00  0.00000000000E+00  0.57753748974E+02  0.94158084495E+03  0.93980795488E+03 0.  0.
        5    1    3    3  502    0 -0.78608588209E+02 -0.45210498046E+03  0.13010922996E+03  0.47699971196E+03  0.46999998093E+01 0.  1.
       -5    1    3    3    0  502  0.78608588209E+02  0.45210498046E+03 -0.72355480981E+02  0.46458113298E+03  0.46999998093E+01 0. -1.
</event>
<event>
 5   0  0.1003252E-02  0.8965606E+03  0.7818609E-02  0.9429891E-01
        2   -1    0    0  501    0  0.00000000000E+00  0.00000000000E+00  0.56210139381E+03  0.56210139382E+03  0.25500000920E-02 0. -1.
       -2   -1    0    0    0  501  0.00000000000E+00  0.00000000000E+00 -0.35750708736E+03  0.35750708737E+03  0.25500000920E-02 0.  1.
    10030    2    1    2    0    0  0.00000000000E+00  0.00000000000E+00  0.20459430645E+03  0.91960848119E+03  0.89656061058E+03 0.  0.
        2    1    3    3  502    0 -0.28083300563E+03  0.21421310348E+03  0.38543836247E+03  0.52279743881E+03  0.25500000920E-02 0. -1.
       -2    1    3    3    0  502  0.28083300563E+03 -0.21421310348E+03 -0.18084405601E+03  0.39681104238E+03  0.25500000920E-02 0.  1.
</event>
<event>
 5   0  0.1028978E-02  0.8885087E+03  0.7818609E-02  0.9440061E-01
       -2   -1    0    0    0  501  0.00000000000E+00  0.00000000000E+00  0.80618256911E+02  0.80618256951E+02  0.25500000920E-02 0. -1.
        2   -1    0    0  501    0  0.00000000000E+00  0.00000000000E+00 -0.24481047949E+04  0.24481047949E+04  0.25500000920E-02 0.  1.
    10030    2    1    2    0    0  0.00000000000E+00  0.00000000000E+00 -0.23674865380E+04  0.25287230518E+04  0.88850873119E+03 0.  0.
        3    1    3    3  502    0 -0.39815397946E+03 -0.81705750706E+02 -0.16941240120E+04  0.17421993570E+04  0.10100000352E+00 0.  1.
       -3    1    3    3    0  502  0.39815397946E+03  0.81705750706E+02 -0.67336252594E+03  0.78652369487E+03  0.10100000352E+00 0. -1.
</event>
<event>
 5   0  0.1003252E-02  0.9008482E+03  0.7818609E-02  0.9424522E-01
       -2   -1    0    0    0  501  0.00000000000E+00  0.00000000000E+00  0.89117405991E+02  0.89117406027E+02  0.25500000920E-02 0. -1.
        2   -1    0    0  501    0  0.00000000000E+00  0.00000000000E+00 -0.22765681998E+04  0.22765681998E+04  0.25500000920E-02 0.  1.
    10030    2    1    2    0    0  0.00000000000E+00  0.00000000000E+00 -0.21874507939E+04  0.23656856059E+04  0.90084816163E+03 0.  0.
        2    1    3    3  502    0 -0.62280106187E+02 -0.25035389209E+03 -0.20633301338E+04  0.20793958555E+04  0.25500000920E-02 0.  1.
       -2    1    3    3    0  502  0.62280106187E+02  0.25035389209E+03 -0.12412066010E+03  0.28628975040E+03  0.25500000920E-02 0. -1.
</event>
<event>
 5   0  0.1017079E-02  0.9004923E+03  0.7818609E-02  0.9424966E-01
       -2   -1    0    0    0  501  0.00000000000E+00  0.00000000000E+00  0.14614868863E+03  0.14614868866E+03  0.25500000920E-02 0.  1.
        2   -1    0    0  501    0  0.00000000000E+00  0.00000000000E+00 -0.13870914972E+04  0.13870914972E+04  0.25500000920E-02 0. -1.
    10030    2    1    2    0    0  0.00000000000E+00  0.00000000000E+00 -0.12409428085E+04  0.15332401858E+04  0.90049231722E+03 0.  0.
        1    1    3    3  502    0  0.76175645584E+02  0.11766137003E+03 -0.13489961686E+04  0.13562586737E+04  0.50400001928E-02 0. -1.
       -1    1    3    3    0  502 -0.76175645584E+02 -0.11766137003E+03  0.10805336010E+03  0.17698151212E+03  0.50400001928E-02 0.  1.
</event>
<event>
 5   0  0.6015709E-03  0.8836237E+03  0.7818609E-02  0.9446287E-01
       -1   -1    0    0    0  501  0.00000000000E+00  0.00000000000E+00  0.23615613450E+03  0.23615613455E+03  0.50400001928E-02 0. -1.
        1   -1    0    0  501    0  0.00000000000E+00  0.00000000000E+00 -0.82656212491E+03  0.82656212493E+03  0.50400001928E-02 0.  1.
    10030    2    1    2    0    0  0.00000000000E+00  0.00000000000E+00 -0.59040599042E+03  0.10627182595E+04  0.88362371263E+03 0.  0.
        3    1    3    3  502    0 -0.19187650423E+03 -0.17764328443E+03 -0.72350633832E+03  0.76930823547E+03  0.10100000352E+00 0.  1.
       -3    1    3    3    0  502  0.19187650423E+03  0.17764328443E+03  0.13310034790E+03  0.29341002401E+03  0.10100000352E+00 0. -1.
</event>
<event>
 5   0  0.1033749E-02  0.8940664E+03  0.7818609E-02  0.9433029E-01
       -2   -1    0    0    0  501  0.00000000000E+00  0.00000000000E+00  0.14680486695E+03  0.14680486697E+03  0.25500000920E-02 0. -1.
        2   -1    0    0  501    0  0.00000000000E+00  0.00000000000E+00 -0.13612536649E+04  0.13612536649E+04  0.25500000920E-02 0.  1.
    10030    2    1    2    0    0  0.00000000000E+00  0.00000000000E+00 -0.12144487980E+04  0.15080585319E+04  0.89406635812E+03 0.  0.
        5    1    3    3  502    0  0.23420553821E+02 -0.38038466796E+03 -0.21317785232E+03  0.43670116175E+03  0.46999998093E+01 0. -1.
       -5    1    3    3    0  502 -0.23420553821E+02  0.38038466796E+03 -0.10012709456E+04  0.10713573701E+04  0.46999998093E+01 0.  1.
</event>
<event>
 5   0  0.1041727E-02  0.9309611E+03  0.7818609E-02  0.9387685E-01
        2   -1    0    0  501    0  0.00000000000E+00  0.00000000000E+00  0.10559067301E+04  0.10559067301E+04  0.25500000920E-02 0. -1.
       -2   -1    0    0    0  501  0.00000000000E+00  0.00000000000E+00 -0.20520008142E+03  0.20520008143E+03  0.25500000920E-02 0.  1.
    10030    2    1    2    0    0  0.00000000000E+00  0.00000000000E+00  0.85070664868E+03  0.12611068115E+04  0.93096110981E+03 0.  0.
        4    1    3    3  502    0 -0.40005260558E+02 -0.20962243008E+03  0.98573195762E+03  0.10085688322E+04  0.12699999809E+01 0.  1.
       -4    1    3    3    0  502  0.40005260558E+02  0.20962243008E+03 -0.13502530894E+03  0.25253797936E+03  0.12699999809E+01 0. -1.
</event>
<event>
 5   0  0.1003252E-02  0.8703982E+03  0.7818609E-02  0.9463361E-01
       -2   -1    0    0    0  501  0.00000000000E+00  0.00000000000E+00  0.17100307686E+03  0.17100307688E+03  0.25500000920E-02 0.  1.
        2   -1    0    0  501    0  0.00000000000E+00  0.00000000000E+00 -0.11075722856E+04  0.11075722856E+04  0.25500000920E-02 0. -1.
    10030    2    1    2    0    0  0.00000000000E+00  0.00000000000E+00 -0.93656920877E+03  0.12785753625E+04  0.87039822771E+03 0.  0.
        2    1    3    3  502    0 -0.33970659464E+03 -0.14195191298E+03 -0.80915596313E+03  0.88897935225E+03  0.25500000920E-02 0.  1.
       -2    1    3    3    0  502  0.33970659464E+03  0.14195191298E+03 -0.12741324564E+03  0.38959601026E+03  0.25500000920E-02 0. -1.
</event>
<event>
 5   0  0.6015709E-03  0.8973351E+03  0.7818609E-02  0.9428919E-01
       -1   -1    0    0    0  501  0.00000000000E+00  0.00000000000E+00  0.30319540978E+03  0.30319540982E+03  0.50400001928E-02 0.  1.
        1   -1    0    0  501    0  0.00000000000E+00  0.00000000000E+00 -0.66393678510E+03  0.66393678512E+03  0.50400001928E-02 0. -1.
    10030    2    1    2    0    0  0.00000000000E+00  0.00000000000E+00 -0.36074137532E+03  0.96713219494E+03  0.89733513395E+03 0.  0.
        3    1    3    3  502    0 -0.17326663227E+03 -0.27386342978E+03  0.15405480104E+03  0.35882502136E+03  0.10100000352E+00 0.  1.
       -3    1    3    3    0  502  0.17326663227E+03  0.27386342978E+03 -0.51479617636E+03  0.60830717358E+03  0.10100000352E+00 0. -1.
</event>
<event>
 5   0  0.6211218E-03  0.9043211E+03  0.7818609E-02  0.9420196E-01
        1   -1    0    0  501    0  0.00000000000E+00  0.00000000000E+00  0.11380690644E+04  0.11380690645E+04  0.50400001928E-02 0. -1.
       -1   -1    0    0    0  501  0.00000000000E+00  0.00000000000E+00 -0.17964564133E+03  0.17964564140E+03  0.50400001928E-02 0.  1.
    10030    2    1    2    0    0  0.00000000000E+00  0.00000000000E+00  0.95842342312E+03  0.13177147059E+04  0.90432106469E+03 0.  0.
        5    1    3    3  502    0 -0.86859091034E+02  0.39187892518E+03  0.78246826937E+03  0.87942724331E+03  0.46999998093E+01 0. -1.
       -5    1    3    3    0  502  0.86859091034E+02 -0.39187892518E+03  0.17595515375E+03  0.43828746255E+03  0.46999998093E+01 0.  1.
</event>
<event>
 5   0  0.1017079E-02  0.8965937E+03  0.7818609E-02  0.9429850E-01
        2   -1    0    0  501    0  0.00000000000E+00  0.00000000000E+00  0.14630766452E+04  0.14630766452E+04  0.25500000920E-02 0.  1.
       -2   -1    0    0    0  501  0.00000000000E+00  0.00000000000E+00 -0.13736126082E+03  0.13736126084E+03  0.25500000920E-02 0. -1.
    10030    2    1    2    0    0  0.00000000000E+00  0.00000000000E+00  0.13257153843E+04  0.16004379060E+04  0.89659367089E+03 0.  0.
        1    1    3    3  502    0  0.35824199784E+02  0.43108877383E+03  0.87292317427E+03  0.97422572970E+03  0.50400001928E-02 0. -1.
       -1    1    3    3    0  502 -0.35824199784E+02 -0.43108877383E+03  0.45279221008E+03  0.62621217631E+03  0.50400001928E-02 0.  1.
</event>
<event>
 5   0  0.1033749E-02  0.8850359E+03  0.7818609E-02  0.9444483E-01
       -2   -1    0    0    0  501  0.00000000000E+00  0.00000000000E+00  0.24983184624E+03  0.24983184626E+03  0.25500000920E-02 0.  1.
        2   -1    0    0  501    0  0.00000000000E+00  0.00000000000E+00 -0.78381575930E+03  0.78381575931E+03  0.25500000920E-02 0. -1.
    10030    2    1    2    0    0  0.00000000000E+00  0.00000000000E+00 -0.53398391306E+03  0.10336476056E+04  0.88503590497E+03 0.  0.
        5    1    3    3  502    0  0.28783226540E+03 -0.35359702705E+02 -0.65733165532E+03  0.71847388029E+03  0.46999998093E+01 0. -1.
       -5    1    3    3    0  502 -0.28783226540E+03  0.35359702705E+02  0.12334774226E+03  0.31517372527E+03  0.46999998093E+01 0.  1.
</event>
<event>
 5   0  0.1033749E-02  0.9115760E+03  0.7818609E-02  0.9411225E-01
        2   -1    0    0  501    0  0.00000000000E+00  0.00000000000E+00  0.88975858228E+03  0.88975858229E+03  0.25500000920E-02 0.  1.
       -2   -1    0    0    0  501  0.00000000000E+00  0.00000000000E+00 -0.23348209212E+03  0.23348209214E+03  0.25500000920E-02 0. -1.
    10030    2    1    2    0    0  0.00000000000E+00  0.00000000000E+00  0.65627649016E+03  0.11232406744E+04  0.91157598758E+03 0.  0.
        5    1    3    3  502    0 -0.71652072900E+02 -0.33368385883E+03 -0.44061912982E+02  0.34415473172E+03  0.46999998093E+01 0. -1.
       -5    1    3    3    0  502  0.71652072900E+02  0.33368385883E+03  0.70033840314E+03  0.77908594270E+03  0.46999998093E+01 0.  1.
</event>
<event>
 5   0  0.6137243E-03  0.9003734E+03  0.7818609E-02  0.9425115E-01
       -1   -1    0    0    0  501  0.00000000000E+00  0.00000000000E+00  0.92812803943E+03  0.92812803944E+03  0.50400001928E-02 0. -1.
        1   -1    0    0  501    0  0.00000000000E+00  0.00000000000E+00 -0.21836217073E+03  0.21836217079E+03  0.50400001928E-02 0.  1.
    10030    2    1    2    0    0  0.00000000000E+00  0.00000000000E+00  0.70976586870E+03  0.11464902102E+04  0.90037337465E+03 0.  0.
        4    1    3    3  502    0  0.42406177023E+03 -0.14037739199E+03  0.42614779781E+03  0.61736355224E+03  0.12699999809E+01 0. -1.
       -4    1    3    3    0  502 -0.42406177023E+03  0.14037739199E+03  0.28361807089E+03  0.52912665799E+03  0.12699999809E+01 0.  1.
</event>
<event>
 5   0  0.6137243E-03  0.9097937E+03  0.7818609E-02  0.9413421E-01
        1   -1    0    0  501    0  0.00000000000E+00  0.00000000000E+00  0.69855841172E+03  0.69855841174E+03  0.50400001928E-02 0. -1.
       -1   -1    0    0    0  501  0.00000000000E+00  0.00000000000E+00 -0.29622598183E+03  0.29622598187E+03  0.50400001928E-02 0.  1.
    10030    2    1    2    0    0  0.00000000000E+00  0.00000000000E+00  0.40233242989E+03  0.99478439361E+03  0.90979371597E+03 0.  0.
        4    1    3    3  502    0 -0.39433824818E+03  0.84151050739E+02 -0.29089668492E+02  0.40426708379E+03  0.12699999809E+01 0.  1.
       -4    1    3    3    0  502  0.39433824818E+03 -0.84151050739E+02  0.43142209839E+03  0.59051730982E+03  0.12699999809E+01 0. -1.
</event>
<event>
 5   0  0.6092779E-03  0.8650441E+03  0.7818609E-02  0.9470365E-01
        1   -1    0    0  501    0  0.00000000000E+00  0.00000000000E+00  0.52150951465E+03  0.52150951467E+03  0.50400001928E-02 0.  1.
       -1   -1    0    0    0  501  0.00000000000E+00  0.00000000000E+00 -0.35871887247E+03  0.35871887251E+03  0.50400001928E-02 0. -1.
    10030    2    1    2    0    0  0.00000000000E+00  0.00000000000E+00  0.16279064217E+03  0.88022838718E+03  0.86504405692E+03 0.  0.
        2    1    3    3  502    0  0.35387542962E+03 -0.45632872115E+02 -0.16736497481E+03  0.39410812413E+03  0.25500000920E-02 0. -1.
       -2    1    3    3    0  502 -0.35387542962E+03  0.45632872115E+02  0.33015561698E+03  0.48612026304E+03  0.25500000920E-02 0.  1.
</event>
<event>
 5   0  0.1017079E-02  0.8966031E+03  0.7818609E-02  0.9429838E-01
        2   -1    0    0  501    0  0.00000000000E+00  0.00000000000E+00  0.73379608652E+03  0.73379608652E+03  0.25500000920E-02 0. -1.
       -2   -1    0    0    0  501  0.00000000000E+00  0.00000000000E+00 -0.27388303821E+03  0.27388303823E+03  0.25500000920E-02 0.  1.
    10030    2    1    2    0    0  0.00000000000E+00  0.00000000000E+00  0.45991304830E+03  0.10076791247E+04  0.89660314881E+03 0.  0.
        1    1    3    3  502    0  0.32959879022E+03 -0.15523151422E+02 -0.11111623369E+03  0.34817114780E+03  0.50400001928E-02 0.  1.
       -1    1    3    3    0  502 -0.32959879022E+03  0.15523151422E+02  0.57102928200E+03  0.65950797695E+03  0.50400001928E-02 0. -1.
</event>
<event>
 5   0  0.1033749E-02  0.8858894E+03  0.7818609E-02  0.9443394E-01
        2   -1    0    0  501    0  0.00000000000E+00  0.00000000000E+00  0.23972992061E+04  0.23972992061E+04  0.25500000920E-02 0. -1.
       -2   -1    0    0    0  501  0.00000000000E+00  0.00000000000E+00 -0.81842102110E+02  0.81842102149E+02  0.25500000920E-02 0.  1.
    10030    2    1    2    0    0  0.00000000000E+00  0.00000000000E+00  0.23154571040E+04  0.24791413082E+04  0.88588939820E+03 0.  0.
        5    1    3    3  502    0 -0.22511753130E+02  0.32522788849E+03  0.31866145539E+03  0.45590259006E+03  0.46999998093E+01 0.  1.
       -5    1    3    3    0  502  0.22511753130E+02 -0.32522788849E+03  0.19967956486E+04  0.20232387181E+04  0.46999998093E+01 0. -1.
</event>
<event>
 5   0  0.1028978E-02  0.8840567E+03  0.7818609E-02  0.9445734E-01
       -2   -1    0    0    0  501  0.00000000000E+00  0.00000000000E+00  0.22567241228E+03  0.22567241230E+03  0.25500000920E-02 0.  1.
        2   -1    0    0  501    0  0.00000000000E+00  0.00000000000E+00 -0.86580838818E+03  0.86580838819E+03  0.25500000920E-02 0. -1.
    10030    2    1    2    0    0  0.00000000000E+00  0.00000000000E+00 -0.64013597590E+03  0.10914808005E+04  0.88405671209E+03 0.  0.
        3    1    3    3  502    0  0.44001447812E+03 -0.40401979977E+02 -0.30525264179E+03  0.53705143744E+03  0.10100000352E+00 0. -1.
       -3    1    3    3    0  502 -0.44001447812E+03  0.40401979977E+02 -0.33488333411E+03  0.55442936304E+03  0.10100000352E+00 0.  1.
</event>
<event>
 5   0  0.6137243E-03  0.8856586E+03  0.7818609E-02  0.9443689E-01
        1   -1    0    0  501    0  0.00000000000E+00  0.00000000000E+00  0.61388286947E+03  0.61388286949E+03  0.50400001928E-02 0.  1.
       -1   -1    0    0    0  501  0.00000000000E+00  0.00000000000E+00 -0.31943841012E+03  0.31943841016E+03  0.50400001928E-02 0. -1.
    10030    2    1    2    0    0  0.00000000000E+00  0.00000000000E+00  0.29444445935E+03  0.93332127966E+03  0.88565855239E+03 0.  0.
        4    1    3    3  502    0  0.79314649904E+02 -0.11153766097E+03  0.59103360652E+03  0.60667437760E+03  0.12699999809E+01 0.  1.
       -4    1    3    3    0  502 -0.79314649904E+02  0.11153766097E+03 -0.29658914717E+03  0.32664690205E+03  0.12699999809E+01 0. -1.
</event>
<event>
 5   0  0.1017079E-02  0.8972592E+03  0.7818609E-02  0.9429014E-01
       -2   -1    0    0    0  501  0.00000000000E+00  0.00000000000E+00  0.36832106454E+03  0.36832106455E+03  0.25500000920E-02 0. -1.
        2   -1    0    0  501    0  0.00000000000E+00  0.00000000000E+00 -0.54644854593E+03  0.54644854594E+03  0.25500000920E-02 0.  1.
    10030    2    1    2    0    0  0.00000000000E+00  0.00000000000E+00 -0.17812748139E+03  0.91476961049E+03  0.89725918254E+03 0.  0.
        1    1    3    3  502    0 -0.44109119271E+03 -0.81332727191E+02 -0.79281845240E+02  0.45548003668E+03  0.50400001928E-02 0. -1.
       -1    1    3    3    0  502  0.44109119271E+03  0.81332727191E+02 -0.98845636146E+02  0.45928957381E+03  0.50400001928E-02 0.  1.
</event>
<event>
 5   0  0.6137243E-03  0.8985220E+03  0.7818609E-02  0.9427431E-01
        1   -1    0    0  501    0  0.00000000000E+00  0.00000000000E+00  0.99287695116E+03  0.99287695118E+03  0.50400001928E-02 0.  1.
       -1   -1    0    0    0  501  0.00000000000E+00  0.00000000000E+00 -0.20328344852E+03  0.20328344858E+03  0.50400001928E-02 0. -1.
    10030    2    1    2    0    0  0.00000000000E+00  0.00000000000E+00  0.78959350264E+03  0.11961603998E+04  0.89852201005E+03 0.  0.
        4    1    3    3  502    0 -0.36277395924E+03  0.18996150594E+03  0.14880823270E+03  0.43570152887E+03  0.12699999809E+01 0. -1.
       -4    1    3    3    0  502  0.36277395924E+03 -0.18996150594E+03  0.64078526995E+03  0.76045887089E+03  0.12699999809E+01 0.  1.
</event>
<event>
 5   0  0.1028978E-02  0.8967383E+03  0.7818609E-02  0.9429668E-01
       -2   -1    0    0    0  501  0.00000000000E+00  0.00000000000E+00  0.12810953824E+03  0.12810953827E+03  0.25500000920E-02 0. -1.
        2   -1    0    0  501    0  0.00000000000E+00  0.00000000000E+00 -0.15692421699E+04  0.15692421699E+04  0.25500000920E-02 0.  1.
    10030    2    1    2    0    0  0.00000000000E+00  0.00000000000E+00 -0.14411326316E+04  0.16973517081E+04  0.89673828911E+03 0.  0.
        3    1    3    3  502    0  0.31923557158E+03 -0.31479494247E+03 -0.71060907205E+03  0.84022167875E+03  0.10100000352E+00 0.  1.
       -3    1    3    3    0  502 -0.31923557158E+03  0.31479494247E+03 -0.73052355958E+03  0.85713002938E+03  0.10100000352E+00 0. -1.
</event>
<event>
 5   0  0.1041727E-02  0.9018866E+03  0.7818609E-02  0.9423226E-01
        2   -1    0    0  501    0  0.00000000000E+00  0.00000000000E+00  0.17008875177E+04  0.17008875177E+04  0.25500000920E-02 0.  1.
       -2   -1    0    0    0  501  0.00000000000E+00  0.00000000000E+00 -0.11955515472E+03  0.11955515475E+03  0.25500000920E-02 0. -1.
    10030    2    1    2    0    0  0.00000000000E+00  0.00000000000E+00  0.15813323630E+04  0.18204426724E+04  0.90188662339E+03 0.  0.
        4    1    3    3  502    0 -0.14311963080E+03 -0.26176858212E+03  0.10812571336E+03  0.31733074559E+03  0.12699999809E+01 0. -1.
       -4    1    3    3    0  502  0.14311963080E+03  0.26176858212E+03  0.14732066496E+04  0.15031119268E+04  0.12699999809E+01 0.  1.
</event>
<event>
 5   0  0.6288003E-03  0.9068542E+03  0.7818609E-02  0.9417054E-01
       -1   -1    0    0    0  501  0.00000000000E+00  0.00000000000E+00  0.27314413132E+03  0.27314413136E+03  0.50400001928E-02 0. -1.
        1   -1    0    0  501    0  0.00000000000E+00  0.00000000000E+00 -0.75270194277E+03  0.75270194279E+03  0.50400001928E-02 0.  1.
    10030    2    1    2    0    0  0.00000000000E+00  0.00000000000E+00 -0.47955781145E+03  0.10258460742E+04  0.90685416321E+03 0.  0.
        1    1    3    3  502    0 -0.10909247499E+02 -0.18346828710E+03 -0.70867560584E+03  0.73212071300E+03  0.50400001928E-02 0.  1.
       -1    1    3    3    0  502  0.10909247499E+02  0.18346828710E+03  0.22911779439E+03  0.29372536116E+03  0.50400001928E-02 0. -1.
</event>
<event>
 5   0  0.1017079E-02  0.9040313E+03  0.7818609E-02  0.9420556E-01
        2   -1    0    0  501    0  0.00000000000E+00  0.00000000000E+00  0.12326391537E+04  0.12326391537E+04  0.25500000920E-02 0. -1.
       -2   -1    0    0    0  501  0.00000000000E+00  0.00000000000E+00 -0.16575665049E+03  0.16575665051E+03  0.25500000920E-02 0.  1.
    10030    2    1    2    0    0  0.00000000000E+00  0.00000000000E+00  0.10668825032E+04  0.13983958042E+04  0.90403127689E+03 0.  0.
        1    1    3    3  502    0  0.45181171460E+03 -0.83285020416E+01  0.51685694526E+03  0.68654518518E+03  0.50400001928E-02 0.  1.
       -1    1    3    3    0  502 -0.45181171460E+03  0.83285020416E+01  0.55002555794E+03  0.71185061903E+03  0.50400001928E-02 0. -1.
</event>
<event>
 5   0  0.6211218E-03  0.8947534E+03  0.7818609E-02  0.9432164E-01
       -1   -1    0    0    0  501  0.00000000000E+00  0.00000000000E+00  0.15209505211E+03  0.15209505219E+03  0.50400001928E-02 0.  1.
        1   -1    0    0  501    0  0.00000000000E+00  0.00000000000E+00 -0.13159266441E+04  0.13159266441E+04  0.50400001928E-02 0. -1.
    10030    2    1    2    0    0  0.00000000000E+00  0.00000000000E+00 -0.11638315920E+04  0.14680216963E+04  0.89475344441E+03 0.  0.
        5    1    3    3  502    0 -0.19712324508E+03 -0.61645055829E+02 -0.12329783337E+04  0.12501661282E+04  0.46999998093E+01 0. -1.
       -5    1    3    3    0  502  0.19712324508E+03  0.61645055829E+02  0.69146741740E+02  0.21785556810E+03  0.46999998093E+01 0.  1.
</event>
<event>
 5   0  0.6211218E-03  0.8932785E+03  0.7818609E-02  0.9434023E-01
        1   -1    0    0  501    0  0.00000000000E+00  0.00000000000E+00  0.11902474032E+04  0.11902474032E+04  0.50400001928E-02 0. -1.
       -1   -1    0    0    0  501  0.00000000000E+00  0.00000000000E+00 -0.16760098074E+03  0.16760098082E+03  0.50400001928E-02 0.  1.
    10030    2    1    2    0    0  0.00000000000E+00  0.00000000000E+00  0.10226464224E+04  0.13578483840E+04  0.89327852802E+03 0.  0.
        5    1    3    3  502    0 -0.22983402292E+02  0.39738665851E+03  0.81919011339E+03  0.91079027499E+03  0.46999998093E+01 0. -1.
       -5    1    3    3    0  502  0.22983402292E+02 -0.39738665851E+03  0.20345630904E+03  0.44705810901E+03  0.46999998093E+01 0.  1.
</event>
<event>
 5   0  0.6137243E-03  0.9249817E+03  0.7818609E-02  0.9394881E-01
       -1   -1    0    0    0  501  0.00000000000E+00  0.00000000000E+00  0.15083297791E+03  0.15083297799E+03  0.50400001928E-02 0.  1.
        1   -1    0    0  501    0  0.00000000000E+00  0.00000000000E+00 -0.14181100861E+04  0.14181100861E+04  0.50400001928E-02 0. -1.
    10030    2    1    2    0    0  0.00000000000E+00  0.00000000000E+00 -0.12672771082E+04  0.15689430641E+04  0.92498165897E+03 0.  0.
        4    1    3    3  502    0 -0.12976093472E+03 -0.82437619480E+02 -0.13735000490E+04  0.13820773708E+04  0.12699999809E+01 0. -1.
       -4    1    3    3    0  502  0.12976093472E+03  0.82437619480E+02  0.10622294082E+03  0.18686569332E+03  0.12699999809E+01 0.  1.
</event>
<event>
 5   0  0.6015709E-03  0.9034594E+03  0.7818609E-02  0.9421267E-01
        1   -1    0    0  501    0  0.00000000000E+00  0.00000000000E+00  0.92876402434E+03  0.92876402436E+03  0.50400001928E-02 0.  1.
       -1   -1    0    0    0  501  0.00000000000E+00  0.00000000000E+00 -0.21971106265E+03  0.21971106270E+03  0.50400001928E-02 0. -1.
    10030    2    1    2    0    0  0.00000000000E+00  0.00000000000E+00  0.70905296170E+03  0.11484750871E+04  0.90345941973E+03 0.  0.
        3    1    3    3  502    0  0.47357115966E+02 -0.28686547037E+03  0.79401012337E+03  0.84556879125E+03  0.10100000352E+00 0.  1.
       -3    1    3    3    0  502 -0.47357115966E+02  0.28686547037E+03 -0.84957161672E+02  0.30290629581E+03  0.10100000352E+00 0. -1.
</event>
<event>
 5   0  0.6015709E-03  0.9114228E+03  0.7818609E-02  0.9411414E-01
       -1   -1    0    0    0  501  0.00000000000E+00  0.00000000000E+00  0.30300558903E+03  0.30300558907E+03  0.50400001928E-02 0.  1.
        1   -1    0    0  501    0  0.00000000000E+00  0.00000000000E+00 -0.68537646603E+03  0.68537646605E+03  0.50400001928E-02 0. -1.
    10030    2    1    2    0    0  0.00000000000E+00  0.00000000000E+00 -0.38237087700E+03  0.98838205512E+03  0.91142284331E+03 0.  0.
        3    1    3    3  502    0  0.10697765380E+03  0.12035483883E+03  0.27112558354E+03  0.31533886201E+03  0.10100000352E+00 0.  1.
       -3    1    3    3    0  502 -0.10697765380E+03 -0.12035483883E+03 -0.65349646054E+03  0.67304319311E+03  0.10100000352E+00 0. -1.
</event>
<event>
 5   0  0.6137243E-03  0.9011527E+03  0.7818609E-02  0.9424142E-01
       -1   -1    0    0    0  501  0.00000000000E+00  0.00000000000E+00  0.55235397246E+03  0.55235397248E+03  0.50400001928E-02 0.  1.
        1   -1    0    0  501    0  0.00000000000E+00  0.00000000000E+00 -0.36755247206E+03  0.36755247209E+03  0.50400001928E-02 0. -1.
    10030    2    1    2    0    0  0.00000000000E+00  0.00000000000E+00  0.18480150040E+03  0.91990644458E+03  0.90115274633E+03 0.  0.
        4    1    3    3  502    0 -0.20383839387E+02  0.26764046875E+03 -0.27702915585E+03  0.38573784817E+03  0.12699999809E+01 0. -1.
       -4    1    3    3    0  502  0.20383839387E+02 -0.26764046875E+03  0.46183065626E+03  0.53416859640E+03  0.12699999809E+01 0.  1.
</event>
<event>
 5   0  0.6015709E-03  0.8932728E+03  0.7818609E-02  0.9434030E-01
        1   -1    0    0  501    0  0.00000000000E+00  0.00000000000E+00  0.11344132778E+04  0.11344132779E+04  0.50400001928E-02 0.  1.
       -1   -1    0    0    0  501  0.00000000000E+00  0.00000000000E+00 -0.17584777831E+03  0.17584777838E+03  0.50400001928E-02 0. -1.
    10030    2    1    2    0    0  0.00000000000E+00  0.00000000000E+00  0.95856549954E+03  0.13102610562E+04  0.89327275712E+03 0.  0.
        3    1    3    3  502    0  0.43698888050E+03  0.86157603937E+02  0.52796735268E+03  0.69074738515E+03  0.10100000352E+00 0. -1.
       -3    1    3    3    0  502 -0.43698888050E+03 -0.86157603937E+02  0.43059814686E+03  0.61951367109E+03  0.10100000352E+00 0.  1.
</event>
<event>
 5   0  0.6288003E-03  0.9290842E+03  0.7818609E-02  0.9389938E-01
        1   -1    0    0  501    0  0.00000000000E+00  0.00000000000E+00  0.16749515464E+03  0.16749515472E+03  0.50400001928E-02 0. -1.
       -1   -1    0    0    0  501  0.00000000000E+00  0.00000000000E+00 -0.12883917713E+04  0.12883917713E+04  0.50400001928E-02 0.  1.
    10030    2    1    2    0    0  0.00000000000E+00  0.00000000000E+00 -0.11208966167E+04  0.14558869260E+04  0.92908423523E+03 0.  0.
        1    1    3    3  502    0  0.21130184441E+03  0.36192267537E+03 -0.87448834157E+03  0.96972488468E+03  0.50400001928E-02 0.  1.
       -1    1    3    3    0  502 -0.21130184441E+03 -0.36192267537E+03 -0.24640827509E+03  0.48616204136E+03  0.50400001928E-02 0. -1.
</event>
<event>
 5   0  0.6211218E-03  0.9118672E+03  0.7818609E-02  0.9410867E-01
       -1   -1    0    0    0  501  0.00000000000E+00  0.00000000000E+00  0.30162423862E+03  0.30162423866E+03  0.50400001928E-02 0. -1.
        1   -1    0    0  501    0  0.00000000000E+00  0.00000000000E+00 -0.68918688348E+03  0.68918688350E+03  0.50400001928E-02 0.  1.
    10030    2    1    2    0    0  0.00000000000E+00  0.00000000000E+00 -0.38756264486E+03  0.99081112216E+03  0.91186724697E+03 0.  0.
        5    1    3    3  502    0 -0.21095300181E+03 -0.18543785060E+03  0.19642581634E+03  0.34277333142E+03  0.46999998093E+01 0. -1.
       -5    1    3    3    0  502  0.21095300181E+03  0.18543785060E+03 -0.58398846120E+03  0.64803779074E+03  0.46999998093E+01 0.  1.
</event>
<event>
 5   0  0.1028978E-02  0.9185349E+03  0.7818609E-02  0.9402704E-01
       -2   -1    0    0    0  501  0.00000000000E+00  0.00000000000E+00  0.24950799916E+03  0.24950799917E+03  0.25500000920E-02 0. -1.
        2   -1    0    0  501    0  0.00000000000E+00  0.00000000000E+00 -0.84537005682E+03  0.84537005683E+03  0.25500000920E-02 0.  1.
    10030    2    1    2    0    0  0.00000000000E+00  0.00000000000E+00 -0.59586205766E+03  0.10948780560E+04  0.91853490176E+03 0.  0.
        3    1    3    3  502    0  0.20363812115E+03 -0.25068124121E+03  0.91278390749E+02  0.33562080373E+03  0.10100000352E+00 0. -1.
       -3    1    3    3    0  502 -0.20363812115E+03  0.25068124121E+03 -0.68714044841E+03  0.75925725227E+03  0.10100000352E+00 0.  1.
</event>
<event>
 5   0  0.1003252E-02  0.8966812E+03  0.7818609E-02  0.9429740E-01
       -2   -1    0    0    0  501  0.00000000000E+00  0.00000000000E+00  0.11058779121E+03  0.11058779124E+03  0.25500000920E-02 0.  1.
        2   -1    0    0  501    0  0.00000000000E+00  0.00000000000E+00 -0.18176445236E+04  0.18176445236E+04  0.25500000920E-02 0. -1.
    10030    2    1    2    0    0  0.00000000000E+00  0.00000000000E+00 -0.17070567324E+04  0.19282323148E+04  0.89668119886E+03 0.  0.
        2    1    3    3  502    0 -0.67291491343E+02 -0.44258739224E+03 -0.90609472280E+03  0.10106529529E+04  0.25500000920E-02 0. -1.
       -2    1    3    3    0  502  0.67291491343E+02  0.44258739224E+03 -0.80096200960E+03  0.91757936191E+03  0.25500000920E-02 0.  1.
</event>
<event>
 5   0  0.6211218E-03  0.8932783E+03  0.7818609E-02  0.9434023E-01
        1   -1    0    0  501    0  0.00000000000E+00  0.00000000000E+00  0.27230568073E+03  0.27230568077E+03  0.50400001928E-02 0. -1.
       -1   -1    0    0    0  501  0.00000000000E+00  0.00000000000E+00 -0.73258302996E+03  0.73258302998E+03  0.50400001928E-02 0.  1.
    10030    2    1    2    0    0  0.00000000000E+00  0.00000000000E+00 -0.46027734923E+03  0.10048887108E+04  0.89327827846E+03 0.  0.
        5    1    3    3  502    0 -0.83199286032E+02 -0.40280749171E+03 -0.34358097488E+02  0.41276938529E+03  0.46999998093E+01 0. -1.
       -5    1    3    3    0  502  0.83199286032E+02  0.40280749171E+03 -0.42591925175E+03  0.59211932546E+03  0.46999998093E+01 0.  1.
</event>
<event>
 5   0  0.1028978E-02  0.9012335E+03  0.7818609E-02  0.9424041E-01
        2   -1    0    0  501    0  0.00000000000E+00  0.00000000000E+00  0.66912029191E+03  0.66912029192E+03  0.25500000920E-02 0. -1.
       -2   -1    0    0    0  501  0.00000000000E+00  0.00000000000E+00 -0.30346626412E+03  0.30346626413E+03  0.25500000920E-02 0.  1.
    10030    2    1    2    0    0  0.00000000000E+00  0.00000000000E+00  0.36565402780E+03  0.97258655604E+03  0.90123345530E+03 0.  0.
        3    1    3    3  502    0  0.20284467570E+03 -0.33036898014E+03 -0.65067672952E+02  0.39309469312E+03  0.10100000352E+00 0. -1.
       -3    1    3    3    0  502 -0.20284467570E+03  0.33036898014E+03  0.43072170075E+03  0.57949186292E+03  0.10100000352E+00 0.  1.
</event>
<event>
 5   0  0.1017079E-02  0.8899485E+03  0.7818609E-02  0.9438234E-01
        2   -1    0    0  501    0  0.00000000000E+00  0.00000000000E+00  0.19861711253E+04  0.19861711253E+04  0.25500000920E-02 0. -1.
       -2   -1    0    0    0  501  0.00000000000E+00  0.00000000000E+00 -0.99690344632E+02  0.99690344664E+02  0.25500000920E-02 0.  1.
    10030    2    1    2    0    0  0.00000000000E+00  0.00000000000E+00  0.18864807806E+04  0.20858614699E+04  0.88994850191E+03 0.  0.
        1    1    3    3  502    0  0.23813536291E+03 -0.58885731418E+02  0.18133747630E+04  0.18298918032E+04  0.50400001928E-02 0. -1.
       -1    1    3    3    0  502 -0.23813536291E+03  0.58885731418E+02  0.73106017641E+02  0.25596966670E+03  0.50400001928E-02 0.  1.
</event>
<event>
 5   0  0.1041727E-02  0.8985669E+03  0.7818609E-02  0.9427375E-01
       -2   -1    0    0    0  501  0.00000000000E+00  0.00000000000E+00  0.13762054428E+03  0.13762054430E+03  0.25500000920E-02 0.  1.
        2   -1    0    0  501    0  0.00000000000E+00  0.00000000000E+00 -0.14667551288E+04  0.14667551288E+04  0.25500000920E-02 0. -1.
    10030    2    1    2    0    0  0.00000000000E+00  0.00000000000E+00 -0.13291345845E+04  0.16043756731E+04  0.89856694612E+03 0.  0.
        4    1    3    3  502    0 -0.23021864573E+03 -0.13310855526E+03 -0.17996934178E+02  0.26654083151E+03  0.12699999809E+01 0.  1.
       -4    1    3    3    0  502  0.23021864573E+03  0.13310855526E+03 -0.13111376503E+04  0.13378348416E+04  0.12699999809E+01 0. -1.
</event>
<event>
 5   0  0.1003252E-02  0.8963597E+03  0.7818609E-02  0.9430143E-01
       -2   -1    0    0    0  501  0.00000000000E+00  0.00000000000E+00  0.24772494763E+03  0.24772494764E+03  0.25500000920E-02 0.  1.
        2   -1    0    0  501    0  0.00000000000E+00  0.00000000000E+00 -0.81083948426E+03  0.81083948426E+03  0.25500000920E-02 0. -1.
    10030    2    1    2    0    0  0.00000000000E+00  0.00000000000E+00 -0.56311453663E+03  0.10585644319E+04  0.89635967955E+03 0.  0.
        2    1    3    3  502    0 -0.24310263503E+03 -0.44861345022E+02  0.15992849177E+03  0.29442920018E+03  0.25500000920E-02 0.  1.
       -2    1    3    3    0  502  0.24310263503E+03  0.44861345022E+02 -0.72304302840E+03  0.76413523172E+03  0.25500000920E-02 0. -1.
</event>
<event>
 5   0  0.6211218E-03  0.9067272E+03  0.7818609E-02  0.9417211E-01
        1   -1    0    0  501    0  0.00000000000E+00  0.00000000000E+00  0.27388292481E+03  0.27388292485E+03  0.50400001928E-02 0.  1.
       -1   -1    0    0    0  501  0.00000000000E+00  0.00000000000E+00 -0.75046140875E+03  0.75046140876E+03  0.50400001928E-02 0. -1.
    10030    2    1    2    0    0  0.00000000000E+00  0.00000000000E+00 -0.47657848394E+03  0.10243443336E+04  0.90672722605E+03 0.  0.
        5    1    3    3  502    0 -0.31584593441E+03  0.95036600129E+02 -0.58963978274E+03  0.67563878888E+03  0.46999998093E+01 0. -1.
       -5    1    3    3    0  502  0.31584593441E+03 -0.95036600129E+02  0.11306129880E+03  0.34870554474E+03  0.46999998093E+01 0.  1.
</event>
<event>
 5   0  0.1003252E-02  0.8988728E+03  0.7818609E-02  0.9426992E-01
        2   -1    0    0  501    0  0.00000000000E+00  0.00000000000E+00  0.14183469044E+04  0.14183469044E+04  0.25500000920E-02 0.  1.
       -2   -1    0    0    0  501  0.00000000000E+00  0.00000000000E+00 -0.14241444941E+03  0.14241444943E+03  0.25500000920E-02 0. -1.
    10030    2    1    2    0    0  0.00000000000E+00  0.00000000000E+00  0.12759324550E+04  0.15607613538E+04  0.89887283523E+03 0.  0.
        2    1    3    3  502    0 -0.17579141993E+02 -0.37509153934E+03  0.10667802744E+04  0.11309389210E+04  0.25500000920E-02 0.  1.
       -2    1    3    3    0  502  0.17579141993E+02  0.37509153934E+03  0.20915218056E+03  0.42982243282E+03  0.25500000920E-02 0. -1.
</event>
<event>
 5   0  0.6211218E-03  0.9020472E+03  0.7818609E-02  0.9423026E-01
        1   -1    0    0  501    0  0.00000000000E+00  0.00000000000E+00  0.78583007484E+03  0.78583007486E+03  0.50400001928E-02 0. -1.
       -1   -1    0    0    0  501  0.00000000000E+00  0.00000000000E+00 -0.25886292314E+03  0.25886292319E+03  0.50400001928E-02 0.  1.
    10030    2    1    2    0    0  0.00000000000E+00  0.00000000000E+00  0.52696715171E+03  0.10446929980E+04  0.90204716129E+03 0.  0.
        5    1    3    3  502    0 -0.58365156134E+02 -0.43877092222E+03  0.16336164713E+03  0.47184269771E+03  0.46999998093E+01 0.  1.
       -5    1    3    3    0  502  0.58365156134E+02  0.43877092222E+03  0.36360550458E+03  0.57285030033E+03  0.46999998093E+01 0. -1.
</event>
<event>
 5   0  0.6092779E-03  0.8960148E+03  0.7818609E-02  0.9430577E-01
        1   -1    0    0  501    0  0.00000000000E+00  0.00000000000E+00  0.15247641059E+04  0.15247641059E+04  0.50400001928E-02 0. -1.
       -1   -1    0    0    0  501  0.00000000000E+00  0.00000000000E+00 -0.13163390118E+03  0.13163390128E+03  0.50400001928E-02 0.  1.
    10030    2    1    2    0    0  0.00000000000E+00  0.00000000000E+00  0.13931302047E+04  0.16563980071E+04  0.89601483854E+03 0.  0.
        2    1    3    3  502    0 -0.19737845741E+03  0.57154094368E+02  0.14325089483E+04  0.14471719777E+04  0.25500000920E-02 0. -1.
       -2    1    3    3    0  502  0.19737845741E+03 -0.57154094368E+02 -0.39378743637E+02  0.20922602947E+03  0.25500000920E-02 0.  1.
</event>
<event>
 5   0  0.6092779E-03  0.9141823E+03  0.7818609E-02  0.9408024E-01
       -1   -1    0    0    0  501  0.00000000000E+00  0.00000000000E+00  0.20531047379E+03  0.20531047385E+03  0.50400001928E-02 0.  1.
        1   -1    0    0  501    0  0.00000000000E+00  0.00000000000E+00 -0.10176408826E+04  0.10176408826E+04  0.50400001928E-02 0. -1.
    10030    2    1    2    0    0  0.00000000000E+00  0.00000000000E+00 -0.81233040882E+03  0.12229513565E+04  0.91418232711E+03 0.  0.
        2    1    3    3  502    0 -0.36370335042E+03 -0.27230854023E+03 -0.47305644665E+03  0.65590736382E+03  0.25500000920E-02 0.  1.
       -2    1    3    3    0  502  0.36370335042E+03  0.27230854023E+03 -0.33927396217E+03  0.56704399265E+03  0.25500000920E-02 0. -1.
</event>
<event>
 5   0  0.6092779E-03  0.8980727E+03  0.7818609E-02  0.9427994E-01
        1   -1    0    0  501    0  0.00000000000E+00  0.00000000000E+00  0.82847241003E+03  0.82847241004E+03  0.50400001928E-02 0.  1.
       -1   -1    0    0    0  501  0.00000000000E+00  0.00000000000E+00 -0.24338003388E+03  0.24338003394E+03  0.50400001928E-02 0. -1.
    10030    2    1    2    0    0  0.00000000000E+00  0.00000000000E+00  0.58509237614E+03  0.10718524440E+04  0.89807269919E+03 0.  0.
        2    1    3    3  502    0  0.84651366693E+01 -0.31197050595E+03 -0.92784133915E+02  0.32558585755E+03  0.25500000920E-02 0. -1.
       -2    1    3    3    0  502 -0.84651366693E+01  0.31197050595E+03  0.67787651006E+03  0.74626658643E+03  0.25500000920E-02 0.  1.
</event>
<event>
 5   0  0.1017079E-02  0.8978256E+03  0.7818609E-02  0.9428304E-01
       -2   -1    0    0    0  501  0.00000000000E+00  0.00000000000E+00  0.21817200921E+03  0.21817200922E+03  0.25500000920E-02 0.  1.
        2   -1    0    0  501    0  0.00000000000E+00  0.00000000000E+00 -0.92368715642E+03  0.92368715642E+03  0.25500000920E-02 0. -1.
    10030    2    1    2    0    0  0.00000000000E+00  0.00000000000E+00 -0.70551514721E+03  0.11418591656E+04  0.89782555723E+03 0.  0.
        1    1    3    3  502    0 -0.43388078818E+03  0.11418117566E+03 -0.33335249617E+03  0.55893985898E+03  0.50400001928E-02 0.  1.
       -1    1    3    3    0  502  0.43388078818E+03 -0.11418117566E+03 -0.37216265104E+03  0.58291930667E+03  0.50400001928E-02 0. -1.
</event>
<event>
 5   0  0.1041727E-02  0.8808885E+03  0.7818609E-02  0.9449792E-01
        2   -1    0    0  501    0  0.00000000000E+00  0.00000000000E+00  0.89143322098E+03  0.89143322098E+03  0.25500000920E-02 0. -1.
       -2   -1    0    0    0  501  0.00000000000E+00  0.00000000000E+00 -0.21761711265E+03  0.21761711266E+03  0.25500000920E-02 0.  1.
    10030    2    1    2    0    0  0.00000000000E+00  0.00000000000E+00  0.67381610833E+03  0.11090503336E+04  0.88088846894E+03 0.  0.
        4    1    3    3  502    0 -0.29785686233E+03  0.21681637002E+03  0.64080128139E+03  0.73915894358E+03  0.12699999809E+01 0.  1.
       -4    1    3    3    0  502  0.29785686233E+03 -0.21681637002E+03  0.33014826948E+02  0.36989139007E+03  0.12699999809E+01 0. -1.
</event>
<event>
 5   0  0.6015709E-03  0.9042648E+03  0.7818609E-02  0.9420266E-01
       -1   -1    0    0    0  501  0.00000000000E+00  0.00000000000E+00  0.72389259248E+03  0.72389259250E+03  0.50400001928E-02 0. -1.
        1   -1    0    0  501    0  0.00000000000E+00  0.00000000000E+00 -0.28239509868E+03  0.28239509872E+03  0.50400001928E-02 0.  1.
    10030    2    1    2    0    0  0.00000000000E+00  0.00000000000E+00  0.44149749381E+03  0.10062876912E+04  0.90426482872E+03 0.  0.
        3    1    3    3  502    0 -0.43407136138E+03 -0.40507068862E+02  0.35412497680E+03  0.56166117793E+03  0.10100000352E+00 0.  1.
       -3    1    3    3    0  502  0.43407136138E+03  0.40507068862E+02  0.87372517007E+02  0.44462651329E+03  0.10100000352E+00 0. -1.
</event>
<event>
 5   0  0.1028978E-02  0.9075583E+03  0.7818609E-02  0.9416182E-01
       -2   -1    0    0    0  501  0.00000000000E+00  0.00000000000E+00  0.32828326695E+03  0.32828326696E+03  0.25500000920E-02 0. -1.
        2   -1    0    0  501    0  0.00000000000E+00  0.00000000000E+00 -0.62724949269E+03  0.62724949269E+03  0.25500000920E-02 0.  1.
    10030    2    1    2    0    0  0.00000000000E+00  0.00000000000E+00 -0.29896622574E+03  0.95553275965E+03  0.90755829049E+03 0.  0.
        3    1    3    3  502    0  0.32434959169E+03  0.18760804529E+03  0.12000831728E+03  0.39344814487E+03  0.10100000352E+00 0. -1.
       -3    1    3    3    0  502 -0.32434959169E+03 -0.18760804529E+03 -0.41897454301E+03  0.56208461479E+03  0.10100000352E+00 0.  1.
</event>
<event>
 5   0  0.6015709E-03  0.9021261E+03  0.7818609E-02  0.9422928E-01
       -1   -1    0    0    0  501  0.00000000000E+00  0.00000000000E+00  0.26880551409E+03  0.26880551414E+03  0.50400001928E-02 0.  1.
        1   -1    0    0  501    0  0.00000000000E+00  0.00000000000E+00 -0.75689625213E+03  0.75689625215E+03  0.50400001928E-02 0. -1.
    10030    2    1    2    0    0  0.00000000000E+00  0.00000000000E+00 -0.48809073804E+03  0.10257017663E+04  0.90212612467E+03 0.  0.
        3    1    3    3  502    0  0.67810502115E+02 -0.84297423410E+01  0.26288642217E+03  0.27162217493E+03  0.10100000352E+00 0.  1.
       -3    1    3    3    0  502 -0.67810502115E+02  0.84297423410E+01 -0.75097716021E+03  0.75407959136E+03  0.10100000352E+00 0. -1.
</event>
<event>
 5   0  0.6092779E-03  0.9038438E+03  0.7818609E-02  0.9420789E-01
        1   -1    0    0  501    0  0.00000000000E+00  0.00000000000E+00  0.93519236051E+03  0.93519236053E+03  0.50400001928E-02 0.  1.
       -1   -1    0    0    0  501  0.00000000000E+00  0.00000000000E+00 -0.21838649447E+03  0.21838649453E+03  0.50400001928E-02 0. -1.
    10030    2    1    2    0    0  0.00000000000E+00  0.00000000000E+00  0.71680586604E+03  0.11535788551E+04  0.90384375046E+03 0.  0.
        2    1    3    3  502    0  0.27646419737E+03  0.14568068055E+03 -0.58262861686E+02  0.31788342859E+03  0.25500000920E-02 0. -1.
       -2    1    3    3    0  502 -0.27646419737E+03 -0.14568068055E+03  0.77506872773E+03  0.83569542647E+03  0.25500000920E-02 0.  1.
</event>
<event>
 5   0  0.1003252E-02  0.9127028E+03  0.7818609E-02  0.9409840E-01
        2   -1    0    0  501    0  0.00000000000E+00  0.00000000000E+00  0.29593969664E+03  0.29593969666E+03  0.25500000920E-02 0. -1.
       -2   -1    0    0    0  501  0.00000000000E+00  0.00000000000E+00 -0.70371291204E+03  0.70371291204E+03  0.25500000920E-02 0.  1.
    10030    2    1    2    0    0  0.00000000000E+00  0.00000000000E+00 -0.40777321539E+03  0.99965260870E+03  0.91270276809E+03 0.  0.
        2    1    3    3  502    0  0.15028609227E+03 -0.31379393819E+03  0.11954915600E+03  0.36789203020E+03  0.25500000920E-02 0. -1.
       -2    1    3    3    0  502 -0.15028609227E+03  0.31379393819E+03 -0.52732237139E+03  0.63176057850E+03  0.25500000920E-02 0.  1.
</event>
<event>
 5   0  0.6211218E-03  0.8992211E+03  0.7818609E-02  0.9426556E-01
       -1   -1    0    0    0  501  0.00000000000E+00  0.00000000000E+00  0.31628821607E+03  0.31628821611E+03  0.50400001928E-02 0.  1.
        1   -1    0    0  501    0  0.00000000000E+00  0.00000000000E+00 -0.63913117865E+03  0.63913117867E+03  0.50400001928E-02 0. -1.
    10030    2    1    2    0    0  0.00000000000E+00  0.00000000000E+00 -0.32284296258E+03  0.95541939479E+03  0.89922113045E+03 0.  0.
        5    1    3    3  502    0  0.27003146283E+03 -0.35715767880E+03 -0.11827611313E+03  0.46313057271E+03  0.46999998093E+01 0.  1.
       -5    1    3    3    0  502 -0.27003146283E+03  0.35715767880E+03 -0.20456684945E+03  0.49228882207E+03  0.46999998093E+01 0. -1.
</event>
<event>
 5   0  0.6288003E-03  0.9683842E+03  0.7818609E-02  0.9343917E-01
       -1   -1    0    0    0  501  0.00000000000E+00  0.00000000000E+00  0.41427647021E+03  0.41427647024E+03  0.50400001928E-02 0.  1.
        1   -1    0    0  501    0  0.00000000000E+00  0.00000000000E+00 -0.56590714229E+03  0.56590714231E+03  0.50400001928E-02 0. -1.
    10030    2    1    2    0    0  0.00000000000E+00  0.00000000000E+00 -0.15163067208E+03  0.98018361255E+03  0.96838424894E+03 0.  0.
        1    1    3    3  502    0  0.14831491429E+03 -0.42823755772E+02  0.38870000943E+03  0.41823305132E+03  0.50400001928E-02 0.  1.
       -1    1    3    3    0  502 -0.14831491429E+03  0.42823755772E+02 -0.54033068151E+03  0.56195056123E+03  0.50400001928E-02 0. -1.
</event>
<event>
 5   0  0.1041727E-02  0.9015589E+03  0.7818609E-02  0.9423635E-01
       -2   -1    0    0    0  501  0.00000000000E+00  0.00000000000E+00  0.56655390114E+03  0.56655390115E+03  0.25500000920E-02 0. -1.
        2   -1    0    0  501    0  0.00000000000E+00  0.00000000000E+00 -0.35866337011E+03  0.35866337012E+03  0.25500000920E-02 0.  1.
    10030    2    1    2    0    0  0.00000000000E+00  0.00000000000E+00  0.20789053103E+03  0.92521727127E+03  0.90155894215E+03 0.  0.
        4    1    3    3  502    0 -0.26610430605E+03  0.25854006681E+03 -0.15879272324E+03  0.40357305373E+03  0.12699999809E+01 0.  1.
       -4    1    3    3    0  502  0.26610430605E+03 -0.25854006681E+03  0.36668325426E+03  0.52164421755E+03  0.12699999809E+01 0. -1.
</event>
<event>
 5   0  0.6288003E-03  0.9004703E+03  0.7818609E-02  0.9424994E-01
        1   -1    0    0  501    0  0.00000000000E+00  0.00000000000E+00  0.16204864489E+04  0.16204864489E+04  0.50400001928E-02 0.  1.
       -1   -1    0    0    0  501  0.00000000000E+00  0.00000000000E+00 -0.12509310393E+03  0.12509310403E+03  0.50400001928E-02 0. -1.
    10030    2    1    2    0    0  0.00000000000E+00  0.00000000000E+00  0.14953933450E+04  0.17455795530E+04  0.90047027685E+03 0.  0.
        1    1    3    3  502    0  0.59593602353E+02 -0.44222774679E+03  0.86392548876E+03  0.97236002984E+03  0.50400001928E-02 0.  1.
       -1    1    3    3    0  502 -0.59593602353E+02  0.44222774679E+03  0.63146785625E+03  0.77321952314E+03  0.50400001928E-02 0. -1.
</event>
<event>
 5   0  0.1041727E-02  0.9226260E+03  0.7818609E-02  0.9397732E-01
       -2   -1    0    0    0  501  0.00000000000E+00  0.00000000000E+00  0.35760703098E+03  0.35760703099E+03  0.25500000920E-02 0.  1.
        2   -1    0    0  501    0  0.00000000000E+00  0.00000000000E+00 -0.59509366887E+03  0.59509366888E+03  0.25500000920E-02 0. -1.
    10030    2    1    2    0    0  0.00000000000E+00  0.00000000000E+00 -0.23748663789E+03  0.95270069987E+03  0.92262599159E+03 0.  0.
        4    1    3    3  502    0  0.22125733153E+03 -0.55242805794E+02 -0.53281529349E+03  0.57956908494E+03  0.12699999809E+01 0. -1.
       -4    1    3    3    0  502 -0.22125733153E+03  0.55242805794E+02  0.29532865560E+03  0.37313161493E+03  0.12699999809E+01 0.  1.
</event>
<event>
 5   0  0.1033749E-02  0.9035556E+03  0.7818609E-02  0.9421148E-01
        2   -1    0    0  501    0  0.00000000000E+00  0.00000000000E+00  0.59344319219E+03  0.59344319220E+03  0.25500000920E-02 0. -1.
       -2   -1    0    0    0  501  0.00000000000E+00  0.00000000000E+00 -0.34393043888E+03  0.34393043889E+03  0.25500000920E-02 0.  1.
    10030    2    1    2    0    0  0.00000000000E+00  0.00000000000E+00  0.24951275332E+03  0.93737363109E+03  0.90355559330E+03 0.  0.
        5    1    3    3  502    0 -0.26969288919E+03  0.25498813362E+03  0.39193759603E+03  0.53980586506E+03  0.46999998093E+01 0. -1.
       -5    1    3    3    0  502  0.26969288919E+03 -0.25498813362E+03 -0.14242484272E+03  0.39756776603E+03  0.46999998093E+01 0.  1.
</event>
<event>
 5   0  0.6137243E-03  0.9016964E+03  0.7818609E-02  0.9423463E-01
       -1   -1    0    0    0  501  0.00000000000E+00  0.00000000000E+00  0.18254069846E+03  0.18254069853E+03  0.50400001928E-02 0. -1.
        1   -1    0    0  501    0  0.00000000000E+00  0.00000000000E+00 -0.11135275113E+04  0.11135275113E+04  0.50400001928E-02 0.  1.
    10030    2    1    2    0    0  0.00000000000E+00  0.00000000000E+00 -0.93098681285E+03  0.12960682099E+04  0.90169637844E+03 0.  0.
        4    1    3    3  502    0 -0.13504646241E+03 -0.14999335764E+03 -0.10449623817E+04  0.10642760669E+04  0.12699999809E+01 0.  1.
       -4    1    3    3    0  502  0.13504646241E+03  0.14999335764E+03  0.11397556890E+03  0.23179214299E+03  0.12699999809E+01 0. -1.
</event>
<event>
 5   0  0.1033749E-02  0.9199628E+03  0.7818609E-02  0.9400965E-01
       -2   -1    0    0    0  501  0.00000000000E+00  0.00000000000E+00  0.32402990900E+03  0.32402990901E+03  0.25500000920E-02 0.  1.
        2   -1    0    0  501    0  0.00000000000E+00  0.00000000000E+00 -0.65297326829E+03  0.65297326830E+03  0.25500000920E-02 0. -1.
    10030    2    1    2    0    0  0.00000000000E+00  0.00000000000E+00 -0.32894335929E+03  0.97700317731E+03  0.91996275731E+03 0.  0.
        5    1    3    3  502    0  0.26931478905E+03  0.20099303172E+03  0.16905833560E+03  0.37620667888E+03  0.46999998093E+01 0.  1.
       -5    1    3    3    0  502 -0.26931478905E+03 -0.20099303172E+03 -0.49800169490E+03  0.60079649842E+03  0.46999998093E+01 0. -1.
</event>
<event>
 5   0  0.3996375E-03  0.8988456E+03  0.7818609E-02  0.9427026E-01
        4   -1    0    0  501    0  0.00000000000E+00  0.00000000000E+00  0.41485148268E+03  0.41485342662E+03  0.12699999809E+01 0.  1.
       -4   -1    0    0    0  501  0.00000000000E+00  0.00000000000E+00 -0.48687115831E+03  0.48687281470E+03  0.12699999809E+01 0. -1.
    10030    2    1    2    0    0  0.00000000000E+00  0.00000000000E+00 -0.72019675636E+02  0.90172624132E+03  0.89884558218E+03 0.  0.
        3    1    3    3  502    0 -0.15769826771E+03  0.67289489526E+02  0.38075412323E+03  0.41757673737E+03  0.10100000352E+00 0.  1.
       -3    1    3    3    0  502  0.15769826771E+03 -0.67289489526E+02 -0.45277379886E+03  0.48414950395E+03  0.10100000352E+00 0. -1.
</event>
<event>
 5   0  0.1003252E-02  0.9009985E+03  0.7818609E-02  0.9424334E-01
       -2   -1    0    0    0  501  0.00000000000E+00  0.00000000000E+00  0.16378709900E+03  0.16378709902E+03  0.25500000920E-02 0. -1.
        2   -1    0    0  501    0  0.00000000000E+00  0.00000000000E+00 -0.12391058869E+04  0.12391058869E+04  0.25500000920E-02 0.  1.
    10030    2    1    2    0    0  0.00000000000E+00  0.00000000000E+00 -0.10753187879E+04  0.14028929859E+04  0.90099846523E+03 0.  0.
        2    1    3    3  502    0  0.30165143668E+03  0.20695750792E+03 -0.94703002294E+03  0.10152294636E+04  0.25500000920E-02 0.  1.
       -2    1    3    3    0  502 -0.30165143668E+03 -0.20695750792E+03 -0.12828876494E+03  0.38766352234E+03  0.25500000920E-02 0. -1.
</event>
<event>
 5   0  0.6211218E-03  0.9343627E+03  0.7818609E-02  0.9383617E-01
        1   -1    0    0  501    0  0.00000000000E+00  0.00000000000E+00  0.10902379848E+04  0.10902379848E+04  0.50400001928E-02 0. -1.
       -1   -1    0    0    0  501  0.00000000000E+00  0.00000000000E+00 -0.20019335632E+03  0.20019335638E+03  0.50400001928E-02 0.  1.
    10030    2    1    2    0    0  0.00000000000E+00  0.00000000000E+00  0.89004462845E+03  0.12904313412E+04  0.93436267350E+03 0.  0.
        5    1    3    3  502    0 -0.18496533007E+03  0.32366531436E+03  0.83385242246E+03  0.91340208095E+03  0.46999998093E+01 0. -1.
       -5    1    3    3    0  502  0.18496533007E+03 -0.32366531436E+03  0.56192205992E+02  0.37702926022E+03  0.46999998093E+01 0.  1.
</event>
</LesHouchesEvents>
