<LesHouchesEvents version="3.0">
<header>
<!--
#*********************************************************************
#                                                                    *
#                        MadGraph5_aMC@NLO                           *
#                                                                    *
#                           Going Beyond                             *
#                                                                    *
#                   http://madgraph.hep.uiuc.edu                     *
#                   http://madgraph.phys.ucl.ac.be                   *
#                   http://amcatnlo.cern.ch                          *
#                                                                    *
#                     The MadGraph5_aMC@NLO team                     *
#                                                                    *
#....................................................................*
#                                                                    *
# This file contains all the information necessary to reproduce      *
# the events generated:                                              *
#                                                                    *
# 1. software version                                                *
# 2. proc_card          : code generation info including model       *
# 3. param_card         : model primary parameters in the LH format  *
# 4. run_card           : running parameters (collider and cuts)     *
# 5. pythia_card        : present only if pythia has been run        *
# 6. pgs_card           : present only if pgs has been run           *
# 7. delphes_cards      : present only if delphes has been run       *
#                                                                    *
#                                                                    *
#*********************************************************************
-->
<MGVersion>
#5.2.2.3
</MGVersion>
<MG5ProcCard>
#************************************************************
#*                     MadGraph5_aMC@NLO                    *
#*                                                          *
#*                *                       *                 *
#*                  *        * *        *                   *
#*                    * * * * 5 * * * *                     *
#*                  *        * *        *                   *
#*                *                       *                 *
#*                                                          *
#*                                                          *
#*         VERSION 2.2.3                 2015-02-10         *
#*                                                          *
#*    The MadGraph5_aMC@NLO Development Team - Find us at   *
#*    https://server06.fynu.ucl.ac.be/projects/madgraph     *
#*                                                          *
#************************************************************
#*                                                          *
#*               Command File for MadGraph5_aMC@NLO         *
#*                                                          *
#*     run as ./bin/mg5_aMC  filename                       *
#*                                                          *
#************************************************************
set group_subprocesses Auto
set ignore_six_quark_processes False
set loop_optimized_output True
set gauge unitary
set complex_mass_scheme False
import model sm
define p = g u c d s u~ c~ d~ s~
define j = g u c d s u~ c~ d~ s~
define l+ = e+ mu+
define l- = e- mu-
define vl = ve vm vt
define vl~ = ve~ vm~ vt~
import model Zprime_UFO
generate p p > zph, zph > j j
add process p p > zph, zph > b b~
output Dijet_signal
</MG5ProcCard>
<MGProcCard>
#*********************************************************************
#                        MadGraph/MadEvent                           *
#                   http://madgraph.hep.uiuc.edu                     *
#                                                                    *
#                          proc_card.dat                             *
#*********************************************************************
#                                                                    *
#            This Files is generated by MADGRAPH 5                   *
#                                                                    *
# WARNING: This Files is generated for MADEVENT (compatibility issue)*
#          This files is NOT a valid MG4 proc_card.dat               *
#          Running this in MG4 will NEVER reproduce the result of MG5*
#                                                                    *
#*********************************************************************
#*********************************************************************
# Process(es) requested : mg2 input                                  *
#*********************************************************************
# Begin PROCESS # This is TAG. Do not modify this line
p p > zph , zph > j j           #Process
# Be carefull the coupling are here in MG5 convention
          
end_coup           # End the couplings input

done               # this tells MG there are no more procs
# End PROCESS  # This is TAG. Do not modify this line
#*********************************************************************
# Model information                                                  *
#*********************************************************************
# Begin MODEL  # This is TAG. Do not modify this line
Zprime_UFO
# End   MODEL  # This is TAG. Do not modify this line
#*********************************************************************
# Start multiparticle definitions                                    *
#*********************************************************************
# Begin MULTIPARTICLES # This is TAG. Do not modify this line

# End  MULTIPARTICLES # This is TAG. Do not modify this line
</MGProcCard>
<MGRunCard>
#*********************************************************************
#                       MadGraph5_aMC@NLO                            *
#                                                                    *
#                     run_card.dat MadEvent                          *
#                                                                    *
#  This file is used to set the parameters of the run.               *
#                                                                    *
#  Some notation/conventions:                                        *
#                                                                    *
#   Lines starting with a '# ' are info or comments                  *
#                                                                    *
#   mind the format:   value    = variable     ! comment             *
#*********************************************************************
#
#*******************                                                 
# Running parameters
#*******************                                                 
#                                                                    
#*********************************************************************
# Tag name for the run (one word)                                    *
#*********************************************************************
  tag_1     = run_tag ! name of the run 
#*********************************************************************
# Run to generate the grid pack                                      *
#*********************************************************************
  .false.     = gridpack  !True = setting up the grid pack
#*********************************************************************
# Number of events and rnd seed                                      *
# Warning: Do not generate more than 1M events in a single run       *
# If you want to run Pythia, avoid more than 50k events in a run.    *
#*********************************************************************
  2000 = nevents ! Number of unweighted events requested 
 1281 = iseed   ! rnd seed (0=assigned automatically=default))
#*********************************************************************
# Collider type and energy                                           *
# lpp: 0=No PDF, 1=proton, -1=antiproton, 2=photon from proton,      *
#                                         3=photon from electron     *
#*********************************************************************
        1     = lpp1    ! beam 1 type 
        1     = lpp2    ! beam 2 type
     4000     = ebeam1  ! beam 1 total energy in GeV
     4000     = ebeam2  ! beam 2 total energy in GeV
#*********************************************************************
# Beam polarization from -100 (left-handed) to 100 (right-handed)    *
#*********************************************************************
        0     = polbeam1 ! beam polarization for beam 1
        0     = polbeam2 ! beam polarization for beam 2
#*********************************************************************
# PDF CHOICE: this automatically fixes also alpha_s and its evol.    *
#*********************************************************************
 'nn23lo1'    = pdlabel     ! PDF set                                     
 230000    = lhaid     ! if pdlabel=lhapdf, this is the lhapdf number
#*********************************************************************
# Renormalization and factorization scales                           *
#*********************************************************************
 F        = fixed_ren_scale  ! if .true. use fixed ren scale
 F        = fixed_fac_scale  ! if .true. use fixed fac scale
 91.1880  = scale            ! fixed ren scale
 91.1880  = dsqrt_q2fact1    ! fixed fact scale for pdf1
 91.1880  = dsqrt_q2fact2    ! fixed fact scale for pdf2
 1        = scalefact        ! scale factor for event-by-event scales
#*********************************************************************
# Matching - Warning! ickkw > 1 is still beta
#*********************************************************************
 0        = ickkw            ! 0 no matching, 1 MLM, 2 CKKW matching
 1        = highestmult      ! for ickkw=2, highest mult group
 1        = ktscheme         ! for ickkw=1, 1 Durham kT, 2 Pythia pTE
 1        = alpsfact         ! scale factor for QCD emission vx
 F        = chcluster        ! cluster only according to channel diag
 T        = pdfwgt           ! for ickkw=1, perform pdf reweighting
 5        = asrwgtflavor     ! highest quark flavor for a_s reweight
 T        = clusinfo         ! include clustering tag in output
 3.0      = lhe_version       ! Change the way clustering information pass to shower.        
#*********************************************************************
#**********************************************************
#
#**********************************************************
# Automatic ptj and mjj cuts if xqcut > 0
# (turn off for VBF and single top processes)
#**********************************************************
   T  = auto_ptj_mjj  ! Automatic setting of ptj and mjj
#**********************************************************
#                                                                    
#**********************************
# BW cutoff (M+/-bwcutoff*Gamma)
#**********************************
  15  = bwcutoff      ! (M+/-bwcutoff*Gamma)
#**********************************************************
# Apply pt/E/eta/dr/mij cuts on decay products or not
# (note that etmiss/ptll/ptheavy/ht/sorted cuts always apply)
#**********************************************************
   T  = cut_decays    ! Cut decay products 
#*************************************************************
# Number of helicities to sum per event (0 = all helicities)
# 0 gives more stable result, but longer run time (needed for
# long decay chains e.g.).
# Use >=2 if most helicities contribute, e.g. pure QCD.
#*************************************************************
   0  = nhel          ! Number of helicities used per event
#*******************                                                 
# Standard Cuts
#*******************                                                 
#                                                                    
#*********************************************************************
# Minimum and maximum pt's (for max, -1 means no cut)                *
#*********************************************************************
 20  = ptj       ! minimum pt for the jets 
  0  = ptb       ! minimum pt for the b 
 10  = pta       ! minimum pt for the photons 
 10  = ptl       ! minimum pt for the charged leptons 
  0  = misset    ! minimum missing Et (sum of neutrino's momenta)
  0  = ptheavy   ! minimum pt for one heavy final state
 1.0 = ptonium   ! minimum pt for the quarkonium states
 -1  = ptjmax    ! maximum pt for the jets
 -1  = ptbmax    ! maximum pt for the b
 -1  = ptamax    ! maximum pt for the photons
 -1  = ptlmax    ! maximum pt for the charged leptons
 -1  = missetmax ! maximum missing Et (sum of neutrino's momenta)
#*********************************************************************
# Minimum and maximum E's (in the center of mass frame)              *
#*********************************************************************
  0  = ej     ! minimum E for the jets 
  0  = eb     ! minimum E for the b 
  0  = ea     ! minimum E for the photons 
  0  = el     ! minimum E for the charged leptons 
 -1   = ejmax ! maximum E for the jets
 -1   = ebmax ! maximum E for the b
 -1   = eamax ! maximum E for the photons
 -1   = elmax ! maximum E for the charged leptons
#*********************************************************************
# Maximum and minimum absolute rapidity (for max, -1 means no cut)   *
#*********************************************************************
   5  = etaj    ! max rap for the jets 
  -1  = etab    ! max rap for the b
 2.5  = etaa    ! max rap for the photons 
 2.5  = etal    ! max rap for the charged leptons 
 0.6  = etaonium ! max rap for the quarkonium states
   0  = etajmin ! min rap for the jets
   0  = etabmin ! min rap for the b
   0  = etaamin ! min rap for the photons
   0  = etalmin ! main rap for the charged leptons
#*********************************************************************
# Minimum and maximum DeltaR distance                                *
#*********************************************************************
 0.4 = drjj    ! min distance between jets 
 0   = drbb    ! min distance between b's 
 0.4 = drll    ! min distance between leptons 
 0.4 = draa    ! min distance between gammas 
 0   = drbj    ! min distance between b and jet 
 0.4 = draj    ! min distance between gamma and jet 
 0.4 = drjl    ! min distance between jet and lepton 
 0   = drab    ! min distance between gamma and b 
 0   = drbl    ! min distance between b and lepton 
 0.4 = dral    ! min distance between gamma and lepton 
 -1  = drjjmax ! max distance between jets
 -1  = drbbmax ! max distance between b's
 -1  = drllmax ! max distance between leptons
 -1  = draamax ! max distance between gammas
 -1  = drbjmax ! max distance between b and jet
 -1  = drajmax ! max distance between gamma and jet
 -1  = drjlmax ! max distance between jet and lepton
 -1  = drabmax ! max distance between gamma and b
 -1  = drblmax ! max distance between b and lepton
 -1  = dralmax ! maxdistance between gamma and lepton
#*********************************************************************
# Minimum and maximum invariant mass for pairs                       *
# WARNING: for four lepton final state mmll cut require to have      *
#          different lepton masses for each flavor!                  *           
#*********************************************************************
 0   = mmjj    ! min invariant mass of a jet pair 
 0   = mmbb    ! min invariant mass of a b pair 
 0   = mmaa    ! min invariant mass of gamma gamma pair
 0   = mmll    ! min invariant mass of l+l- (same flavour) lepton pair
 -1  = mmjjmax ! max invariant mass of a jet pair
 -1  = mmbbmax ! max invariant mass of a b pair
 -1  = mmaamax ! max invariant mass of gamma gamma pair
 -1  = mmllmax ! max invariant mass of l+l- (same flavour) lepton pair
#*********************************************************************
# Minimum and maximum invariant mass for all letpons                 *
#*********************************************************************
 0   = mmnl    ! min invariant mass for all letpons (l+- and vl) 
 -1  = mmnlmax ! max invariant mass for all letpons (l+- and vl) 
#*********************************************************************
# Minimum and maximum pt for 4-momenta sum of leptons                *
#*********************************************************************
 0   = ptllmin  ! Minimum pt for 4-momenta sum of leptons(l and vl)
 -1  = ptllmax  ! Maximum pt for 4-momenta sum of leptons(l and vl)
#*********************************************************************
# Inclusive cuts                                                     *
#*********************************************************************
 0  = xptj ! minimum pt for at least one jet  
 0  = xptb ! minimum pt for at least one b 
 0  = xpta ! minimum pt for at least one photon 
 0  = xptl ! minimum pt for at least one charged lepton 
#*********************************************************************
# Control the pt's of the jets sorted by pt                          *
#*********************************************************************
 0   = ptj1min ! minimum pt for the leading jet in pt
 0   = ptj2min ! minimum pt for the second jet in pt
 0   = ptj3min ! minimum pt for the third jet in pt
 0   = ptj4min ! minimum pt for the fourth jet in pt
 -1  = ptj1max ! maximum pt for the leading jet in pt 
 -1  = ptj2max ! maximum pt for the second jet in pt
 -1  = ptj3max ! maximum pt for the third jet in pt
 -1  = ptj4max ! maximum pt for the fourth jet in pt
 0   = cutuse  ! reject event if fails any (0) / all (1) jet pt cuts
#*********************************************************************
# Control the pt's of leptons sorted by pt                           *
#*********************************************************************
 0   = ptl1min ! minimum pt for the leading lepton in pt
 0   = ptl2min ! minimum pt for the second lepton in pt
 0   = ptl3min ! minimum pt for the third lepton in pt
 0   = ptl4min ! minimum pt for the fourth lepton in pt
 -1  = ptl1max ! maximum pt for the leading lepton in pt 
 -1  = ptl2max ! maximum pt for the second lepton in pt
 -1  = ptl3max ! maximum pt for the third lepton in pt
 -1  = ptl4max ! maximum pt for the fourth lepton in pt
#*********************************************************************
# Control the Ht(k)=Sum of k leading jets                            *
#*********************************************************************
 0   = htjmin ! minimum jet HT=Sum(jet pt)
 -1  = htjmax ! maximum jet HT=Sum(jet pt)
 0   = ihtmin  !inclusive Ht for all partons (including b)
 -1  = ihtmax  !inclusive Ht for all partons (including b)
 0   = ht2min ! minimum Ht for the two leading jets
 0   = ht3min ! minimum Ht for the three leading jets
 0   = ht4min ! minimum Ht for the four leading jets
 -1  = ht2max ! maximum Ht for the two leading jets
 -1  = ht3max ! maximum Ht for the three leading jets
 -1  = ht4max ! maximum Ht for the four leading jets
#***********************************************************************
# Photon-isolation cuts, according to hep-ph/9801442                   *
# When ptgmin=0, all the other parameters are ignored                  *
# When ptgmin>0, pta and draj are not going to be used                 *
#***********************************************************************
   0 = ptgmin ! Min photon transverse momentum
 0.4 = R0gamma ! Radius of isolation code
 1.0 = xn ! n parameter of eq.(3.4) in hep-ph/9801442
 1.0 = epsgamma ! epsilon_gamma parameter of eq.(3.4) in hep-ph/9801442
 .true. = isoEM ! isolate photons from EM energy (photons and leptons)
#*********************************************************************
# WBF cuts                                                           *
#*********************************************************************
 0   = xetamin ! minimum rapidity for two jets in the WBF case  
 0   = deltaeta ! minimum rapidity for two jets in the WBF case 
#*********************************************************************
# KT DURHAM CUT                                                      *
#*********************************************************************
 -1    =  ktdurham        
 0.4  =  dparameter 
#*********************************************************************
# maximal pdg code for quark to be considered as a light jet         *
# (otherwise b cuts are applied)                                     *
#*********************************************************************
 4 = maxjetflavor    ! Maximum jet pdg code
#*********************************************************************
# Jet measure cuts                                                   *
#*********************************************************************
 0   = xqcut   ! minimum kt jet measure between partons
#*********************************************************************
#
#*********************************************************************
# Store info for systematics studies                                 *
# WARNING: If use_syst is T, matched Pythia output is                *
#          meaningful ONLY if plotted taking matchscale              *
#          reweighting into account!                                 *
#*********************************************************************
   F  = use_syst      ! Enable systematics studies
#
#**************************************
# Parameter of the systematics study
#  will be used by SysCalc (if installed)
#**************************************                                  
#
0.5 1 2 = sys_scalefact  # factorization/renormalization scale factor
0.5 1 2 = sys_alpsfact  # \alpha_s emission scale factors
30 50 = sys_matchscale # variation of merging scale
# PDF sets and number of members (0 or none for all members).
CT10nlo.LHgrid = sys_pdf # matching scales
# MSTW2008nlo68cl.LHgrid 1  = sys_pdf
</MGRunCard>
<slha>
######################################################################
## PARAM_CARD AUTOMATICALY GENERATED BY MG5 FOLLOWING UFO MODEL   ####
######################################################################
##                                                                  ##
##  Width set on Auto will be computed following the information    ##
##        present in the decay.py files of the model.               ##
##        See  arXiv:1402.1178 for more details.                    ##
##                                                                  ##
######################################################################

###################################
## INFORMATION FOR CKMBLOCK
###################################
Block ckmblock 
    1 2.277360e-01 # cabi 

###################################
## INFORMATION FOR FRBLOCK
###################################
Block frblock 
    1 6.000000e-01 # gz 

###################################
## INFORMATION FOR MASS
###################################
Block mass 
    1 5.040000e-03 # MD 
    2 2.550000e-03 # MU 
    3 1.010000e-01 # MS 
    4 1.270000e+00 # MC 
    5 4.700000e+00 # MB 
    6 1.720000e+02 # MT 
   11 5.110000e-04 # Me 
   13 1.056600e-01 # MM 
   15 1.777000e+00 # MTA 
   23 9.118760e+01 # MZ 
   25 1.200000e+02 # MH 
  10030 2.000000e+03 # MZph 
  10031 3.000000e+02 # MZpl 
## Dependent parameters, given by model restrictions.
## Those values should be edited following the 
## analytical expression. MG5 ignores those values 
## but they are important for interfacing the output of MG5
## to external program such as Pythia.
  12 0.000000 # ve : 0.0 
  14 0.000000 # vm : 0.0 
  16 0.000000 # vt : 0.0 
  21 0.000000 # g : 0.0 
  22 0.000000 # a : 0.0 
  24 79.824360 # w+ : cmath.sqrt(MZ__exp__2/2. + cmath.sqrt(MZ__exp__4/4. - (aEW*cmath.pi*MZ__exp__2)/(Gf*sqrt__2))) 

###################################
## INFORMATION FOR SMINPUTS
###################################
Block sminputs 
    1 1.279000e+02 # aEWM1 
    2 1.166370e-05 # Gf 
    3 1.184000e-01 # aS 

###################################
## INFORMATION FOR YUKAWA
###################################
Block yukawa 
    1 5.040000e-03 # ymdo 
    2 2.550000e-03 # ymup 
    3 1.010000e-01 # yms 
    4 1.270000e+00 # ymc 
    5 4.700000e+00 # ymb 
    6 1.720000e+02 # ymt 
   11 5.110000e-04 # yme 
   13 1.056600e-01 # ymm 
   15 1.777000e+00 # ymtau 

###################################
## INFORMATION FOR DECAY
###################################
DECAY   6 1.508336e+00 # WT 
DECAY  23 2.495200e+00 # WZ 
DECAY  24 2.085000e+00 # WW 
DECAY  25 5.753088e-03 # WH 
## Dependent parameters, given by model restrictions.
## Those values should be edited following the 
## analytical expression. MG5 ignores those values 
## but they are important for interfacing the output of MG5
## to external program such as Pythia.
DECAY  1 0.000000 # d : 0.0 
DECAY  2 0.000000 # u : 0.0 
DECAY  3 0.000000 # s : 0.0 
DECAY  4 0.000000 # c : 0.0 
DECAY  5 0.000000 # b : 0.0 
DECAY  11 0.000000 # e- : 0.0 
DECAY  12 0.000000 # ve : 0.0 
DECAY  13 0.000000 # mu- : 0.0 
DECAY  14 0.000000 # vm : 0.0 
DECAY  15 0.000000 # ta- : 0.0 
DECAY  16 0.000000 # vt : 0.0 
DECAY  21 0.000000 # g : 0.0 
DECAY  22 0.000000 # a : 0.0 
DECAY  10030 0.308725 # zph : (gz__exp__2*MZph*(5 + cmath.sqrt(1 - (4*MT__exp__2)/MZph__exp__2)))/(144.*cmath.pi) 
DECAY  10031 0.132629 # zpl : (5*gz__exp__2*MZpl)/(144.*cmath.pi) 
#===========================================================
# QUANTUM NUMBERS OF NEW STATE(S) (NON SM PDG CODE)
#===========================================================

Block QNUMBERS 10030  # zph 
        1 0  # 3 times electric charge
        2 3  # number of spin states (2S+1)
        3 1  # colour rep (1: singlet, 3: triplet, 8: octet)
        4 0  # Particle/Antiparticle distinction (0=own anti)
Block QNUMBERS 10031  # zpl 
        1 0  # 3 times electric charge
        2 3  # number of spin states (2S+1)
        3 1  # colour rep (1: singlet, 3: triplet, 8: octet)
        4 0  # Particle/Antiparticle distinction (0=own anti)
</slha>
## END BANNER##
<MGGenerationInfo>
#  Number of Events        :         3954
#  Integrated weight (pb)  :  0.12812E-01
#  Max wgt                 :  0.45773E-05
#  Average wgt             :  0.32403E-05
</MGGenerationInfo>
</header>
<init>
     2212     2212  0.40000000000E+04  0.40000000000E+04 0 0  247000  247000 2   1
  0.12814960690E-01  0.24316617962E-04  0.45772790000E-05   0
</init>
<event>
 5   0  0.4577279E-05  0.1996042E+04  0.7818609E-02  0.8608474E-01
        2   -1    0    0  501    0  0.00000000000E+00  0.00000000000E+00  0.11169478720E+04  0.11169478720E+04  0.25500000920E-02 0.  1.
       -2   -1    0    0    0  501  0.00000000000E+00  0.00000000000E+00 -0.89175641198E+03  0.89175641199E+03  0.25500000920E-02 0. -1.
    10030    2    1    2    0    0  0.00000000000E+00  0.00000000000E+00  0.22519146003E+03  0.20087042840E+04  0.19960415093E+04 0.  0.
        1    1    3    3  502    0  0.58957724285E+03 -0.16402167600E+03 -0.68078441056E+03  0.91540802333E+03  0.50400001928E-02 0. -1.
       -1    1    3    3    0  502 -0.58957724285E+03  0.16402167600E+03  0.90597587060E+03  0.10932962607E+04  0.50400001928E-02 0.  1.
</event>
<event>
 5   0  0.4577279E-05  0.1976268E+04  0.7818609E-02  0.8617797E-01
        2   -1    0    0  501    0  0.00000000000E+00  0.00000000000E+00  0.25737676842E+04  0.25737676842E+04  0.25500000920E-02 0. -1.
       -2   -1    0    0    0  501  0.00000000000E+00  0.00000000000E+00 -0.37936956134E+03  0.37936956134E+03  0.25500000920E-02 0.  1.
    10030    2    1    2    0    0  0.00000000000E+00  0.00000000000E+00  0.21943981229E+04  0.29531372456E+04  0.19762683192E+04 0.  0.
        1    1    3    3  502    0  0.62029793582E+03 -0.79807792836E+02 -0.45984489932E+02  0.62709918380E+03  0.50400001928E-02 0.  1.
       -1    1    3    3    0  502 -0.62029793582E+03  0.79807792836E+02  0.22403826128E+04  0.23260380618E+04  0.50400001928E-02 0. -1.
</event>
<event>
 5   0  0.4514680E-05  0.1999267E+04  0.7818609E-02  0.8606963E-01
       -2   -1    0    0    0  501  0.00000000000E+00  0.00000000000E+00  0.74447425249E+03  0.74447425250E+03  0.25500000920E-02 0.  1.
        2   -1    0    0  501    0  0.00000000000E+00  0.00000000000E+00 -0.13422453896E+04  0.13422453896E+04  0.25500000920E-02 0. -1.
    10030    2    1    2    0    0  0.00000000000E+00  0.00000000000E+00 -0.59777113714E+03  0.20867196421E+04  0.19992669988E+04 0.  0.
        3    1    3    3  502    0  0.84875791248E+03  0.34622488895E+03  0.11731178939E+03  0.92413404540E+03  0.10100000352E+00 0.  1.
       -3    1    3    3    0  502 -0.84875791248E+03 -0.34622488895E+03 -0.71508292653E+03  0.11625855967E+04  0.10100000352E+00 0. -1.
</event>
<event>
 5   0  0.4577279E-05  0.2000502E+04  0.7818609E-02  0.8606386E-01
       -2   -1    0    0    0  501  0.00000000000E+00  0.00000000000E+00  0.12473635724E+04  0.12473635724E+04  0.25500000920E-02 0. -1.
        2   -1    0    0  501    0  0.00000000000E+00  0.00000000000E+00 -0.80209331275E+03  0.80209331276E+03  0.25500000920E-02 0.  1.
    10030    2    1    2    0    0  0.00000000000E+00  0.00000000000E+00  0.44527025960E+03  0.20494568851E+04  0.20005019170E+04 0.  0.
        1    1    3    3  502    0  0.43347021878E+03  0.74593538635E+03 -0.29589914407E+03  0.91207035620E+03  0.50400001928E-02 0. -1.
       -1    1    3    3    0  502 -0.43347021878E+03 -0.74593538635E+03  0.74116940368E+03  0.11373865289E+04  0.50400001928E-02 0.  1.
</event>
<event>
 5   0  0.4514680E-05  0.1976276E+04  0.7818609E-02  0.8617794E-01
       -2   -1    0    0    0  501  0.00000000000E+00  0.00000000000E+00  0.84533659816E+03  0.84533659816E+03  0.25500000920E-02 0.  1.
        2   -1    0    0  501    0  0.00000000000E+00  0.00000000000E+00 -0.11550621787E+04  0.11550621787E+04  0.25500000920E-02 0. -1.
    10030    2    1    2    0    0  0.00000000000E+00  0.00000000000E+00 -0.30972558057E+03  0.20003987769E+04  0.19762756213E+04 0.  0.
        3    1    3    3  502    0 -0.47607273959E+03 -0.85986209642E+03 -0.25812889791E+03  0.10161882780E+04  0.10100000352E+00 0.  1.
       -3    1    3    3    0  502  0.47607273959E+03  0.85986209642E+03 -0.51596682666E+02  0.98421049888E+03  0.10100000352E+00 0. -1.
</event>
<event>
 5   0  0.2007644E-05  0.1981088E+04  0.7818609E-02  0.8615514E-01
       -1   -1    0    0    0  501  0.00000000000E+00  0.00000000000E+00  0.13251563542E+04  0.13251563543E+04  0.50400001928E-02 0.  1.
        1   -1    0    0  501    0  0.00000000000E+00  0.00000000000E+00 -0.74042423599E+03  0.74042423601E+03  0.50400001928E-02 0. -1.
    10030    2    1    2    0    0  0.00000000000E+00  0.00000000000E+00  0.58473211825E+03  0.20655805903E+04  0.19810884697E+04 0.  0.
        1    1    3    3  502    0 -0.81639493187E+03 -0.28144635084E+03  0.79830905852E+03  0.11760144923E+04  0.50400001928E-02 0.  1.
       -1    1    3    3    0  502  0.81639493187E+03  0.28144635084E+03 -0.21357694027E+03  0.88956609795E+03  0.50400001928E-02 0. -1.
</event>
<event>
 5   0  0.2142551E-05  0.1998765E+04  0.7818609E-02  0.8607198E-01
       -1   -1    0    0    0  501  0.00000000000E+00  0.00000000000E+00  0.13450035862E+04  0.13450035862E+04  0.50400001928E-02 0. -1.
        1   -1    0    0  501    0  0.00000000000E+00  0.00000000000E+00 -0.74257463447E+03  0.74257463449E+03  0.50400001928E-02 0.  1.
    10030    2    1    2    0    0  0.00000000000E+00  0.00000000000E+00  0.60242895169E+03  0.20875782207E+04  0.19987651652E+04 0.  0.
        3    1    3    3  502    0  0.20638173444E+03 -0.63694998389E+03  0.10761160875E+04  0.12674085948E+04  0.10100000352E+00 0. -1.
       -3    1    3    3    0  502 -0.20638173444E+03  0.63694998389E+03 -0.47368713581E+03  0.82016962582E+03  0.10100000352E+00 0.  1.
</event>
<event>
 5   0  0.4577279E-05  0.1999310E+04  0.7818609E-02  0.8606943E-01
        2   -1    0    0  501    0  0.00000000000E+00  0.00000000000E+00  0.11493587628E+04  0.11493587628E+04  0.25500000920E-02 0. -1.
       -2   -1    0    0    0  501  0.00000000000E+00  0.00000000000E+00 -0.86945044175E+03  0.86945044176E+03  0.25500000920E-02 0.  1.
    10030    2    1    2    0    0  0.00000000000E+00  0.00000000000E+00  0.27990832104E+03  0.20188092046E+04  0.19993103652E+04 0.  0.
        1    1    3    3  502    0 -0.14577455591E+03 -0.73117836759E+03  0.81236040220E+03  0.11026338692E+04  0.50400001928E-02 0. -1.
       -1    1    3    3    0  502  0.14577455591E+03  0.73117836759E+03 -0.53245208116E+03  0.91617533537E+03  0.50400001928E-02 0.  1.
</event>
<event>
 5   0  0.2093980E-05  0.2001305E+04  0.7818609E-02  0.8606011E-01
        1   -1    0    0  501    0  0.00000000000E+00  0.00000000000E+00  0.12766954611E+04  0.12766954612E+04  0.50400001928E-02 0. -1.
       -1   -1    0    0    0  501  0.00000000000E+00  0.00000000000E+00 -0.78429449135E+03  0.78429449137E+03  0.50400001928E-02 0.  1.
    10030    2    1    2    0    0  0.00000000000E+00  0.00000000000E+00  0.49240096979E+03  0.20609899525E+04  0.20013047917E+04 0.  0.
        2    1    3    3  502    0 -0.75507020755E+02  0.93472763459E+03 -0.11333635198E+03  0.94459631046E+03  0.25500000920E-02 0.  1.
       -2    1    3    3    0  502  0.75507020755E+02 -0.93472763459E+03  0.60573732177E+03  0.11163936421E+04  0.25500000920E-02 0. -1.
</event>
<event>
 5   0  0.4577279E-05  0.1988491E+04  0.7818609E-02  0.8612020E-01
        2   -1    0    0  501    0  0.00000000000E+00  0.00000000000E+00  0.16177966483E+04  0.16177966483E+04  0.25500000920E-02 0.  1.
       -2   -1    0    0    0  501  0.00000000000E+00  0.00000000000E+00 -0.61103108790E+03  0.61103108791E+03  0.25500000920E-02 0. -1.
    10030    2    1    2    0    0  0.00000000000E+00  0.00000000000E+00  0.10067655604E+04  0.22288277362E+04  0.19884909313E+04 0.  0.
        1    1    3    3  502    0 -0.74298657053E+03  0.15026677787E+02 -0.23695543246E+03  0.78000174489E+03  0.50400001928E-02 0. -1.
       -1    1    3    3    0  502  0.74298657053E+03 -0.15026677787E+02  0.12437209928E+04  0.14488259913E+04  0.50400001928E-02 0.  1.
</event>
<event>
 5   0  0.1601500E-05  0.1990296E+04  0.7818609E-02  0.8611171E-01
       -4   -1    0    0    0  501  0.00000000000E+00  0.00000000000E+00  0.83406147551E+03  0.83406244241E+03  0.12699999809E+01 0.  1.
        4   -1    0    0  501    0  0.00000000000E+00  0.00000000000E+00 -0.11873445361E+04  0.11873452153E+04  0.12699999809E+01 0. -1.
    10030    2    1    2    0    0  0.00000000000E+00  0.00000000000E+00 -0.35328306059E+03  0.20214076577E+04  0.19902964598E+04 0.  0.
        1    1    3    3  502    0  0.55142755237E+03 -0.68513888239E+03 -0.64957297440E+03  0.10933584420E+04  0.50400001928E-02 0. -1.
       -1    1    3    3    0  502 -0.55142755237E+03  0.68513888239E+03  0.29628991381E+03  0.92804921568E+03  0.50400001928E-02 0.  1.
</event>
<event>
 5   0  0.4447313E-05  0.2001665E+04  0.7818609E-02  0.8605843E-01
        2   -1    0    0  501    0  0.00000000000E+00  0.00000000000E+00  0.15757585908E+04  0.15757585908E+04  0.25500000920E-02 0.  1.
       -2   -1    0    0    0  501  0.00000000000E+00  0.00000000000E+00 -0.63567195333E+03  0.63567195333E+03  0.25500000920E-02 0. -1.
    10030    2    1    2    0    0  0.00000000000E+00  0.00000000000E+00  0.94008663746E+03  0.22114305441E+04  0.20016648485E+04 0.  0.
        5    1    3    3  502    0 -0.79806000110E+03  0.21966067974E+03 -0.15148927412E+03  0.84149965523E+03  0.46999998093E+01 0. -1.
       -5    1    3    3    0  502  0.79806000110E+03 -0.21966067974E+03  0.10915759116E+04  0.13699308889E+04  0.46999998093E+01 0.  1.
</event>
<event>
 5   0  0.2256868E-05  0.2002624E+04  0.7818609E-02  0.8605395E-01
       -1   -1    0    0    0  501  0.00000000000E+00  0.00000000000E+00  0.89127349635E+03  0.89127349636E+03  0.50400001928E-02 0. -1.
        1   -1    0    0  501    0  0.00000000000E+00  0.00000000000E+00 -0.11249358159E+04  0.11249358159E+04  0.50400001928E-02 0.  1.
    10030    2    1    2    0    0  0.00000000000E+00  0.00000000000E+00 -0.23366231958E+03  0.20162093123E+04  0.20026237568E+04 0.  0.
        5    1    3    3  502    0  0.30753080372E+03 -0.10688747855E+03  0.83648380211E+03  0.89762317790E+03  0.46999998093E+01 0. -1.
       -5    1    3    3    0  502 -0.30753080372E+03  0.10688747855E+03 -0.10701461217E+04  0.11185861344E+04  0.46999998093E+01 0.  1.
</event>
<event>
 5   0  0.2007644E-05  0.2015462E+04  0.7818609E-02  0.8599426E-01
        1   -1    0    0  501    0  0.00000000000E+00  0.00000000000E+00  0.17521928946E+04  0.17521928946E+04  0.50400001928E-02 0. -1.
       -1   -1    0    0    0  501  0.00000000000E+00  0.00000000000E+00 -0.57957183909E+03  0.57957183911E+03  0.50400001928E-02 0.  1.
    10030    2    1    2    0    0  0.00000000000E+00  0.00000000000E+00  0.11726210555E+04  0.23317647337E+04  0.20154618909E+04 0.  0.
        1    1    3    3  502    0 -0.69196297479E+03 -0.35350573183E+03  0.13286850158E+04  0.15392150377E+04  0.50400001928E-02 0. -1.
       -1    1    3    3    0  502  0.69196297479E+03  0.35350573183E+03 -0.15606396033E+03  0.79254969601E+03  0.50400001928E-02 0.  1.
</event>
<event>
 5   0  0.2142551E-05  0.1985273E+04  0.7818609E-02  0.8613537E-01
        1   -1    0    0  501    0  0.00000000000E+00  0.00000000000E+00  0.14969613604E+04  0.14969613604E+04  0.50400001928E-02 0. -1.
       -1   -1    0    0    0  501  0.00000000000E+00  0.00000000000E+00 -0.65821846866E+03  0.65821846868E+03  0.50400001928E-02 0.  1.
    10030    2    1    2    0    0  0.00000000000E+00  0.00000000000E+00  0.83874289174E+03  0.21551798291E+04  0.19852733961E+04 0.  0.
        3    1    3    3  502    0 -0.46142690096E+03  0.30385577891E+03  0.13146220536E+04  0.14259993945E+04  0.10100000352E+00 0. -1.
       -3    1    3    3    0  502  0.46142690096E+03 -0.30385577891E+03 -0.47587916181E+03  0.72918043456E+03  0.10100000352E+00 0.  1.
</event>
<event>
 5   0  0.2142551E-05  0.2004240E+04  0.7818609E-02  0.8604641E-01
       -1   -1    0    0    0  501  0.00000000000E+00  0.00000000000E+00  0.78902706904E+03  0.78902706906E+03  0.50400001928E-02 0.  1.
        1   -1    0    0  501    0  0.00000000000E+00  0.00000000000E+00 -0.12727626598E+04  0.12727626598E+04  0.50400001928E-02 0. -1.
    10030    2    1    2    0    0  0.00000000000E+00  0.00000000000E+00 -0.48373559076E+03  0.20617897289E+04  0.20042396973E+04 0.  0.
        3    1    3    3  502    0  0.91998211732E+03 -0.10394633399E+03 -0.63637966283E+03  0.11234549488E+04  0.10100000352E+00 0.  1.
       -3    1    3    3    0  502 -0.91998211732E+03  0.10394633399E+03  0.15264407207E+03  0.93833478006E+03  0.10100000352E+00 0. -1.
</event>
<event>
 5   0  0.4577279E-05  0.1999525E+04  0.7818609E-02  0.8606843E-01
        2   -1    0    0  501    0  0.00000000000E+00  0.00000000000E+00  0.11700166204E+04  0.11700166204E+04  0.25500000920E-02 0.  1.
       -2   -1    0    0    0  501  0.00000000000E+00  0.00000000000E+00 -0.85428313151E+03  0.85428313151E+03  0.25500000920E-02 0. -1.
    10030    2    1    2    0    0  0.00000000000E+00  0.00000000000E+00  0.31573348891E+03  0.20242997519E+04  0.19995254061E+04 0.  0.
        1    1    3    3  502    0 -0.39888010915E+03 -0.78199348612E+03  0.64223623068E+03  0.10876978118E+04  0.50400001928E-02 0.  1.
       -1    1    3    3    0  502  0.39888010915E+03  0.78199348612E+03 -0.32650274177E+03  0.93660194011E+03  0.50400001928E-02 0. -1.
</event>
<event>
 5   0  0.2110896E-05  0.1989460E+04  0.7818609E-02  0.8611565E-01
        1   -1    0    0  501    0  0.00000000000E+00  0.00000000000E+00  0.13623635607E+04  0.13623635607E+04  0.50400001928E-02 0.  1.
       -1   -1    0    0    0  501  0.00000000000E+00  0.00000000000E+00 -0.72630202831E+03  0.72630202833E+03  0.50400001928E-02 0. -1.
    10030    2    1    2    0    0  0.00000000000E+00  0.00000000000E+00  0.63606153237E+03  0.20886655890E+04  0.19894596427E+04 0.  0.
        4    1    3    3  502    0 -0.22903706726E+03  0.60350742189E+03 -0.47654953057E+03  0.80235918045E+03  0.12699999809E+01 0. -1.
       -4    1    3    3    0  502  0.22903706726E+03 -0.60350742189E+03  0.11126110629E+04  0.12863064086E+04  0.12699999809E+01 0.  1.
</event>
<event>
 5   0  0.2007644E-05  0.1978338E+04  0.7818609E-02  0.8616816E-01
        1   -1    0    0  501    0  0.00000000000E+00  0.00000000000E+00  0.21506520277E+04  0.21506520277E+04  0.50400001928E-02 0. -1.
       -1   -1    0    0    0  501  0.00000000000E+00  0.00000000000E+00 -0.45495770391E+03  0.45495770394E+03  0.50400001928E-02 0.  1.
    10030    2    1    2    0    0  0.00000000000E+00  0.00000000000E+00  0.16956943238E+04  0.26056097316E+04  0.19783384023E+04 0.  0.
        1    1    3    3  502    0  0.33094748265E+03 -0.79019503990E+03  0.19656811133E+03  0.87896158038E+03  0.50400001928E-02 0.  1.
       -1    1    3    3    0  502 -0.33094748265E+03  0.79019503990E+03  0.14991262125E+04  0.17266481513E+04  0.50400001928E-02 0. -1.
</event>
<event>
 5   0  0.4473361E-05  0.1999221E+04  0.7818609E-02  0.8606985E-01
       -2   -1    0    0    0  501  0.00000000000E+00  0.00000000000E+00  0.59545453630E+03  0.59545453630E+03  0.25500000920E-02 0. -1.
        2   -1    0    0  501    0  0.00000000000E+00  0.00000000000E+00 -0.16780814881E+04  0.16780814881E+04  0.25500000920E-02 0.  1.
    10030    2    1    2    0    0  0.00000000000E+00  0.00000000000E+00 -0.10826269518E+04  0.22735360244E+04  0.19992210827E+04 0.  0.
        2    1    3    3  502    0 -0.87568869538E+03 -0.40624303960E+03 -0.83645670416E+03  0.12773112058E+04  0.25500000920E-02 0.  1.
       -2    1    3    3    0  502  0.87568869538E+03  0.40624303960E+03 -0.24617024765E+03  0.99622481864E+03  0.25500000920E-02 0. -1.
</event>
<event>
 5   0  0.2142551E-05  0.1998528E+04  0.7818609E-02  0.8607309E-01
        1   -1    0    0  501    0  0.00000000000E+00  0.00000000000E+00  0.11188052528E+04  0.11188052528E+04  0.50400001928E-02 0. -1.
       -1   -1    0    0    0  501  0.00000000000E+00  0.00000000000E+00 -0.89249521008E+03  0.89249521010E+03  0.50400001928E-02 0.  1.
    10030    2    1    2    0    0  0.00000000000E+00  0.00000000000E+00  0.22631004267E+03  0.20113004629E+04  0.19985277873E+04 0.  0.
        3    1    3    3  502    0  0.72419288177E+03 -0.15037034969E+03 -0.56304820938E+03  0.92956434331E+03  0.10100000352E+00 0.  1.
       -3    1    3    3    0  502 -0.72419288177E+03  0.15037034969E+03  0.78935825205E+03  0.10817361196E+04  0.10100000352E+00 0. -1.
</event>
<event>
 5   0  0.4514680E-05  0.2001946E+04  0.7818609E-02  0.8605711E-01
        2   -1    0    0  501    0  0.00000000000E+00  0.00000000000E+00  0.69755578162E+03  0.69755578162E+03  0.25500000920E-02 0.  1.
       -2   -1    0    0    0  501  0.00000000000E+00  0.00000000000E+00 -0.14363683693E+04  0.14363683693E+04  0.25500000920E-02 0. -1.
    10030    2    1    2    0    0  0.00000000000E+00  0.00000000000E+00 -0.73881258764E+03  0.21339241509E+04  0.20019461137E+04 0.  0.
        3    1    3    3  502    0  0.15181501639E+02  0.55042109968E+02  0.69581853378E+03  0.69815725594E+03  0.10100000352E+00 0.  1.
       -3    1    3    3    0  502 -0.15181501639E+02 -0.55042109968E+02 -0.14346311214E+04  0.14357668949E+04  0.10100000352E+00 0. -1.
</event>
<event>
 5   0  0.2007644E-05  0.1936815E+04  0.7818609E-02  0.8636745E-01
       -1   -1    0    0    0  501  0.00000000000E+00  0.00000000000E+00  0.90112822977E+03  0.90112822979E+03  0.50400001928E-02 0. -1.
        1   -1    0    0  501    0  0.00000000000E+00  0.00000000000E+00 -0.10407102578E+04  0.10407102578E+04  0.50400001928E-02 0.  1.
    10030    2    1    2    0    0  0.00000000000E+00  0.00000000000E+00 -0.13958202798E+03  0.19418384875E+04  0.19368153162E+04 0.  0.
        1    1    3    3  502    0  0.95303881492E+03 -0.15525882642E+03 -0.14363736185E+03  0.97622742108E+03  0.50400001928E-02 0. -1.
       -1    1    3    3    0  502 -0.95303881492E+03  0.15525882642E+03  0.40553338733E+01  0.96561106647E+03  0.50400001928E-02 0.  1.
</event>
<event>
 5   0  0.4473361E-05  0.2005621E+04  0.7818609E-02  0.8603997E-01
        2   -1    0    0  501    0  0.00000000000E+00  0.00000000000E+00  0.11857692186E+04  0.11857692186E+04  0.25500000920E-02 0.  1.
       -2   -1    0    0    0  501  0.00000000000E+00  0.00000000000E+00 -0.84808141531E+03  0.84808141531E+03  0.25500000920E-02 0. -1.
    10030    2    1    2    0    0  0.00000000000E+00  0.00000000000E+00  0.33768780326E+03  0.20338506339E+04  0.20056209384E+04 0.  0.
        2    1    3    3  502    0 -0.74595179251E+03 -0.23414672159E+03 -0.46797606174E+03  0.91119172426E+03  0.25500000920E-02 0. -1.
       -2    1    3    3    0  502  0.74595179251E+03  0.23414672159E+03  0.80566386500E+03  0.11226589096E+04  0.25500000920E-02 0.  1.
</event>
<event>
 5   0  0.2093980E-05  0.2002932E+04  0.7818609E-02  0.8605251E-01
       -1   -1    0    0    0  501  0.00000000000E+00  0.00000000000E+00  0.11074681615E+04  0.11074681615E+04  0.50400001928E-02 0. -1.
        1   -1    0    0  501    0  0.00000000000E+00  0.00000000000E+00 -0.90560995838E+03  0.90560995840E+03  0.50400001928E-02 0.  1.
    10030    2    1    2    0    0  0.00000000000E+00  0.00000000000E+00  0.20185820310E+03  0.20130781199E+04  0.20029320464E+04 0.  0.
        2    1    3    3  502    0  0.84937860743E+03  0.52240552498E+02 -0.42972374634E+03  0.95332869057E+03  0.25500000920E-02 0.  1.
       -2    1    3    3    0  502 -0.84937860743E+03 -0.52240552498E+02  0.63158194944E+03  0.10597494293E+04  0.25500000920E-02 0. -1.
</event>
<event>
 5   0  0.4514680E-05  0.1998082E+04  0.7818609E-02  0.8607518E-01
        2   -1    0    0  501    0  0.00000000000E+00  0.00000000000E+00  0.78654376032E+03  0.78654376032E+03  0.25500000920E-02 0.  1.
       -2   -1    0    0    0  501  0.00000000000E+00  0.00000000000E+00 -0.12689475961E+04  0.12689475961E+04  0.25500000920E-02 0. -1.
    10030    2    1    2    0    0  0.00000000000E+00  0.00000000000E+00 -0.48240383574E+03  0.20554913564E+04  0.19980818941E+04 0.  0.
        3    1    3    3  502    0  0.18523086013E+03 -0.89794185579E+03 -0.64943207509E+03  0.11235533269E+04  0.10100000352E+00 0. -1.
       -3    1    3    3    0  502 -0.18523086013E+03  0.89794185579E+03  0.16702823935E+03  0.93193802952E+03  0.10100000352E+00 0.  1.
</event>
<event>
 5   0  0.4447313E-05  0.2000076E+04  0.7818609E-02  0.8606585E-01
        2   -1    0    0  501    0  0.00000000000E+00  0.00000000000E+00  0.74085087678E+03  0.74085087679E+03  0.25500000920E-02 0. -1.
       -2   -1    0    0    0  501  0.00000000000E+00  0.00000000000E+00 -0.13499020892E+04  0.13499020892E+04  0.25500000920E-02 0.  1.
    10030    2    1    2    0    0  0.00000000000E+00  0.00000000000E+00 -0.60905121240E+03  0.20907529660E+04  0.20000761449E+04 0.  0.
        5    1    3    3  502    0  0.33714605691E+03 -0.83303257257E+02  0.67577905339E+03  0.75980676185E+03  0.46999998093E+01 0. -1.
       -5    1    3    3    0  502 -0.33714605691E+03  0.83303257257E+02 -0.12848302658E+04  0.13309462041E+04  0.46999998093E+01 0.  1.
</event>
<event>
 5   0  0.2093980E-05  0.2008090E+04  0.7818609E-02  0.8602848E-01
       -1   -1    0    0    0  501  0.00000000000E+00  0.00000000000E+00  0.72965463878E+03  0.72965463880E+03  0.50400001928E-02 0. -1.
        1   -1    0    0  501    0  0.00000000000E+00  0.00000000000E+00 -0.13816212989E+04  0.13816212989E+04  0.50400001928E-02 0.  1.
    10030    2    1    2    0    0  0.00000000000E+00  0.00000000000E+00 -0.65196666011E+03  0.21112759377E+04  0.20080900277E+04 0.  0.
        2    1    3    3  502    0  0.37758500843E+03  0.51083462763E+03 -0.11434877698E+04  0.13080851406E+04  0.25500000920E-02 0.  1.
       -2    1    3    3    0  502 -0.37758500843E+03 -0.51083462763E+03  0.49152110965E+03  0.80319079714E+03  0.25500000920E-02 0. -1.
</event>
<event>
 5   0  0.4514680E-05  0.2042902E+04  0.7818609E-02  0.8586821E-01
       -2   -1    0    0    0  501  0.00000000000E+00  0.00000000000E+00  0.81637753072E+03  0.81637753073E+03  0.25500000920E-02 0. -1.
        2   -1    0    0  501    0  0.00000000000E+00  0.00000000000E+00 -0.12780386534E+04  0.12780386534E+04  0.25500000920E-02 0.  1.
    10030    2    1    2    0    0  0.00000000000E+00  0.00000000000E+00 -0.46166112270E+03  0.20944161842E+04  0.20429018969E+04 0.  0.
        3    1    3    3  502    0  0.19010053492E+02 -0.34440521642E+03 -0.12165244897E+04  0.12644794105E+04  0.10100000352E+00 0.  1.
       -3    1    3    3    0  502 -0.19010053492E+02  0.34440521642E+03  0.75486336702E+03  0.82993677368E+03  0.10100000352E+00 0. -1.
</event>
<event>
 5   0  0.4577279E-05  0.1972762E+04  0.7818609E-02  0.8619462E-01
       -2   -1    0    0    0  501  0.00000000000E+00  0.00000000000E+00  0.11080953118E+04  0.11080953118E+04  0.25500000920E-02 0. -1.
        2   -1    0    0  501    0  0.00000000000E+00  0.00000000000E+00 -0.87803632059E+03  0.87803632059E+03  0.25500000920E-02 0.  1.
    10030    2    1    2    0    0  0.00000000000E+00  0.00000000000E+00  0.23005899124E+03  0.19861316324E+04  0.19727624596E+04 0.  0.
        1    1    3    3  502    0  0.58410519257E+03 -0.64767622011E+03 -0.34883640257E+03  0.93933497639E+03  0.50400001928E-02 0.  1.
       -1    1    3    3    0  502 -0.58410519257E+03  0.64767622011E+03  0.57889539382E+03  0.10467966560E+04  0.50400001928E-02 0. -1.
</event>
<event>
 5   0  0.2256868E-05  0.2011813E+04  0.7818609E-02  0.8601118E-01
        1   -1    0    0  501    0  0.00000000000E+00  0.00000000000E+00  0.13668737243E+04  0.13668737243E+04  0.50400001928E-02 0. -1.
       -1   -1    0    0    0  501  0.00000000000E+00  0.00000000000E+00 -0.74026426034E+03  0.74026426036E+03  0.50400001928E-02 0.  1.
    10030    2    1    2    0    0  0.00000000000E+00  0.00000000000E+00  0.62660946399E+03  0.21071379847E+04  0.20118128805E+04 0.  0.
        5    1    3    3  502    0 -0.20937374760E+03 -0.10692880274E+03 -0.71107331021E+03  0.74894490954E+03  0.46999998093E+01 0.  1.
       -5    1    3    3    0  502  0.20937374760E+03  0.10692880274E+03  0.13376827742E+04  0.13581930752E+04  0.46999998093E+01 0. -1.
</event>
<event>
 5   0  0.4514680E-05  0.1994746E+04  0.7818609E-02  0.8609081E-01
        2   -1    0    0  501    0  0.00000000000E+00  0.00000000000E+00  0.10096237094E+04  0.10096237094E+04  0.25500000920E-02 0.  1.
       -2   -1    0    0    0  501  0.00000000000E+00  0.00000000000E+00 -0.98527136932E+03  0.98527136932E+03  0.25500000920E-02 0. -1.
    10030    2    1    2    0    0  0.00000000000E+00  0.00000000000E+00  0.24352340078E+02  0.19948950787E+04  0.19947464347E+04 0.  0.
        3    1    3    3  502    0  0.37199570666E+03 -0.39846619279E+03  0.84746126061E+03  0.10076441391E+04  0.10100000352E+00 0.  1.
       -3    1    3    3    0  502 -0.37199570666E+03  0.39846619279E+03 -0.82310892053E+03  0.98725093964E+03  0.10100000352E+00 0. -1.
</event>
<event>
 5   0  0.2110896E-05  0.2001602E+04  0.7818609E-02  0.8605872E-01
       -1   -1    0    0    0  501  0.00000000000E+00  0.00000000000E+00  0.82400514620E+03  0.82400514622E+03  0.50400001928E-02 0. -1.
        1   -1    0    0  501    0  0.00000000000E+00  0.00000000000E+00 -0.12155300700E+04  0.12155300700E+04  0.50400001928E-02 0.  1.
    10030    2    1    2    0    0  0.00000000000E+00  0.00000000000E+00 -0.39152492380E+03  0.20395352162E+04  0.20016023912E+04 0.  0.
        4    1    3    3  502    0 -0.36449103909E+03 -0.36476051713E+03  0.67822062434E+03  0.85199106838E+03  0.12699999809E+01 0. -1.
       -4    1    3    3    0  502  0.36449103909E+03  0.36476051713E+03 -0.10697455481E+04  0.11875441478E+04  0.12699999809E+01 0.  1.
</event>
<event>
 5   0  0.2007644E-05  0.1999232E+04  0.7818609E-02  0.8606980E-01
       -1   -1    0    0    0  501  0.00000000000E+00  0.00000000000E+00  0.93266414789E+03  0.93266414790E+03  0.50400001928E-02 0.  1.
        1   -1    0    0  501    0  0.00000000000E+00  0.00000000000E+00 -0.10713741046E+04  0.10713741046E+04  0.50400001928E-02 0. -1.
    10030    2    1    2    0    0  0.00000000000E+00  0.00000000000E+00 -0.13870995668E+03  0.20040382525E+04  0.19992320689E+04 0.  0.
        1    1    3    3  502    0 -0.69642534479E+03  0.55906110246E+03  0.38080661748E+03  0.97086109052E+03  0.50400001928E-02 0.  1.
       -1    1    3    3    0  502  0.69642534479E+03 -0.55906110246E+03 -0.51951657416E+03  0.10331771620E+04  0.50400001928E-02 0. -1.
</event>
<event>
 5   0  0.2142551E-05  0.2001497E+04  0.7818609E-02  0.8605921E-01
        1   -1    0    0  501    0  0.00000000000E+00  0.00000000000E+00  0.13437777752E+04  0.13437777752E+04  0.50400001928E-02 0. -1.
       -1   -1    0    0    0  501  0.00000000000E+00  0.00000000000E+00 -0.74528500045E+03  0.74528500046E+03  0.50400001928E-02 0.  1.
    10030    2    1    2    0    0  0.00000000000E+00  0.00000000000E+00  0.59849277475E+03  0.20890627757E+04  0.20014968597E+04 0.  0.
        3    1    3    3  502    0 -0.24119856508E+03 -0.65757874114E+03 -0.44680569187E+03  0.83079593469E+03  0.10100000352E+00 0.  1.
       -3    1    3    3    0  502  0.24119856508E+03  0.65757874114E+03  0.10452984666E+04  0.12582668410E+04  0.10100000352E+00 0. -1.
</event>
<event>
 5   0  0.4412054E-05  0.1999425E+04  0.7818609E-02  0.8606890E-01
        2   -1    0    0  501    0  0.00000000000E+00  0.00000000000E+00  0.20798464842E+04  0.20798464842E+04  0.25500000920E-02 0. -1.
       -2   -1    0    0    0  501  0.00000000000E+00  0.00000000000E+00 -0.48052820462E+03  0.48052820463E+03  0.25500000920E-02 0.  1.
    10030    2    1    2    0    0  0.00000000000E+00  0.00000000000E+00  0.15993182796E+04  0.25603746889E+04  0.19994248143E+04 0.  0.
        4    1    3    3  502    0  0.16409514638E+03 -0.98558227343E+03  0.84258448932E+03  0.13070003326E+04  0.12699999809E+01 0.  1.
       -4    1    3    3    0  502 -0.16409514638E+03  0.98558227343E+03  0.75673379027E+03  0.12533743563E+04  0.12699999809E+01 0. -1.
</event>
<event>
 5   0  0.4412054E-05  0.2002589E+04  0.7818609E-02  0.8605411E-01
        2   -1    0    0  501    0  0.00000000000E+00  0.00000000000E+00  0.12994172159E+04  0.12994172159E+04  0.25500000920E-02 0. -1.
       -2   -1    0    0    0  501  0.00000000000E+00  0.00000000000E+00 -0.77156964364E+03  0.77156964364E+03  0.25500000920E-02 0.  1.
    10030    2    1    2    0    0  0.00000000000E+00  0.00000000000E+00  0.52784757222E+03  0.20709868595E+04  0.20025892022E+04 0.  0.
        4    1    3    3  502    0  0.50239060575E+03  0.37064450663E+03  0.10734862756E+04  0.12418325442E+04  0.12699999809E+01 0. -1.
       -4    1    3    3    0  502 -0.50239060575E+03 -0.37064450663E+03 -0.54563870339E+03  0.82915431530E+03  0.12699999809E+01 0.  1.
</event>
<event>
 5   0  0.2093980E-05  0.2000406E+04  0.7818609E-02  0.8606431E-01
       -1   -1    0    0    0  501  0.00000000000E+00  0.00000000000E+00  0.71250248035E+03  0.71250248037E+03  0.50400001928E-02 0.  1.
        1   -1    0    0  501    0  0.00000000000E+00  0.00000000000E+00 -0.14040741977E+04  0.14040741978E+04  0.50400001928E-02 0. -1.
    10030    2    1    2    0    0  0.00000000000E+00  0.00000000000E+00 -0.69157171739E+03  0.21165766781E+04  0.20004063072E+04 0.  0.
        2    1    3    3  502    0  0.90069134389E+03 -0.43490835339E+03 -0.34153038987E+03  0.10568979043E+04  0.25500000920E-02 0. -1.
       -2    1    3    3    0  502 -0.90069134389E+03  0.43490835339E+03 -0.35004132752E+03  0.10596787739E+04  0.25500000920E-02 0.  1.
</event>
<event>
 5   0  0.2142551E-05  0.2018351E+04  0.7818609E-02  0.8598089E-01
        1   -1    0    0  501    0  0.00000000000E+00  0.00000000000E+00  0.14215030767E+04  0.14215030767E+04  0.50400001928E-02 0. -1.
       -1   -1    0    0    0  501  0.00000000000E+00  0.00000000000E+00 -0.71644935039E+03  0.71644935041E+03  0.50400001928E-02 0.  1.
    10030    2    1    2    0    0  0.00000000000E+00  0.00000000000E+00  0.70505372630E+03  0.21379524271E+04  0.20183507682E+04 0.  0.
        3    1    3    3  502    0  0.32222794708E+03  0.34159322829E+03  0.12987216877E+04  0.13810122432E+04  0.10100000352E+00 0. -1.
       -3    1    3    3    0  502 -0.32222794708E+03 -0.34159322829E+03 -0.59366796139E+03  0.75694018394E+03  0.10100000352E+00 0.  1.
</event>
<event>
 5   0  0.2256868E-05  0.2008815E+04  0.7818609E-02  0.8602511E-01
        1   -1    0    0  501    0  0.00000000000E+00  0.00000000000E+00  0.13287267384E+04  0.13287267384E+04  0.50400001928E-02 0. -1.
       -1   -1    0    0    0  501  0.00000000000E+00  0.00000000000E+00 -0.75924863547E+03  0.75924863549E+03  0.50400001928E-02 0.  1.
    10030    2    1    2    0    0  0.00000000000E+00  0.00000000000E+00  0.56947810293E+03  0.20879753739E+04  0.20088145391E+04 0.  0.
        5    1    3    3  502    0  0.36269821213E+03  0.62225842394E+03  0.10123655933E+04  0.12424418392E+04  0.46999998093E+01 0. -1.
       -5    1    3    3    0  502 -0.36269821213E+03 -0.62225842394E+03 -0.44288749036E+03  0.84553353473E+03  0.46999998093E+01 0.  1.
</event>
<event>
 5   0  0.4473361E-05  0.1998669E+04  0.7818609E-02  0.8607243E-01
       -2   -1    0    0    0  501  0.00000000000E+00  0.00000000000E+00  0.14789209239E+04  0.14789209239E+04  0.25500000920E-02 0.  1.
        2   -1    0    0  501    0  0.00000000000E+00  0.00000000000E+00 -0.67526874056E+03  0.67526874056E+03  0.25500000920E-02 0. -1.
    10030    2    1    2    0    0  0.00000000000E+00  0.00000000000E+00  0.80365218337E+03  0.21541896645E+04  0.19986686266E+04 0.  0.
        2    1    3    3  502    0  0.52299200144E+03  0.23943677307E+03  0.12826160506E+04  0.14056864996E+04  0.25500000920E-02 0.  1.
       -2    1    3    3    0  502 -0.52299200144E+03 -0.23943677307E+03 -0.47896386718E+03  0.74850316495E+03  0.25500000920E-02 0. -1.
</event>
<event>
 5   0  0.4514680E-05  0.2001880E+04  0.7818609E-02  0.8605742E-01
       -2   -1    0    0    0  501  0.00000000000E+00  0.00000000000E+00  0.66558231582E+03  0.66558231582E+03  0.25500000920E-02 0. -1.
        2   -1    0    0  501    0  0.00000000000E+00  0.00000000000E+00 -0.15052699358E+04  0.15052699359E+04  0.25500000920E-02 0.  1.
    10030    2    1    2    0    0  0.00000000000E+00  0.00000000000E+00 -0.83968762003E+03  0.21708522517E+04  0.20018801661E+04 0.  0.
        3    1    3    3  502    0  0.41969744638E+03 -0.68001051747E+03  0.23379422252E+03  0.83259834197E+03  0.10100000352E+00 0. -1.
       -3    1    3    3    0  502 -0.41969744638E+03  0.68001051747E+03 -0.10734818425E+04  0.13382539097E+04  0.10100000352E+00 0.  1.
</event>
<event>
 5   0  0.4577279E-05  0.1999116E+04  0.7818609E-02  0.8607034E-01
       -2   -1    0    0    0  501  0.00000000000E+00  0.00000000000E+00  0.10987592475E+04  0.10987592475E+04  0.25500000920E-02 0.  1.
        2   -1    0    0  501    0  0.00000000000E+00  0.00000000000E+00 -0.90931266992E+03  0.90931266992E+03  0.25500000920E-02 0. -1.
    10030    2    1    2    0    0  0.00000000000E+00  0.00000000000E+00  0.18944657760E+03  0.20080719174E+04  0.19991155094E+04 0.  0.
        1    1    3    3  502    0  0.44829371485E+03 -0.47543492180E+03  0.85449160033E+03  0.10757144206E+04  0.50400001928E-02 0.  1.
       -1    1    3    3    0  502 -0.44829371485E+03  0.47543492180E+03 -0.66504502272E+03  0.93235749684E+03  0.50400001928E-02 0. -1.
</event>
<event>
 5   0  0.4473361E-05  0.1997893E+04  0.7818609E-02  0.8607606E-01
        2   -1    0    0  501    0  0.00000000000E+00  0.00000000000E+00  0.10143745657E+04  0.10143745657E+04  0.25500000920E-02 0. -1.
       -2   -1    0    0    0  501  0.00000000000E+00  0.00000000000E+00 -0.98375350119E+03  0.98375350119E+03  0.25500000920E-02 0.  1.
    10030    2    1    2    0    0  0.00000000000E+00  0.00000000000E+00  0.30621064476E+02  0.19981280669E+04  0.19978934211E+04 0.  0.
        2    1    3    3  502    0 -0.59160319037E+03  0.49455399900E+03  0.65045719213E+03  0.10087975771E+04  0.25500000920E-02 0. -1.
       -2    1    3    3    0  502  0.59160319037E+03 -0.49455399900E+03 -0.61983612766E+03  0.98933048974E+03  0.25500000920E-02 0.  1.
</event>
<event>
 5   0  0.4514680E-05  0.1999262E+04  0.7818609E-02  0.8606966E-01
       -2   -1    0    0    0  501  0.00000000000E+00  0.00000000000E+00  0.55193428145E+03  0.55193428146E+03  0.25500000920E-02 0. -1.
        2   -1    0    0  501    0  0.00000000000E+00  0.00000000000E+00 -0.18104725107E+04  0.18104725107E+04  0.25500000920E-02 0.  1.
    10030    2    1    2    0    0  0.00000000000E+00  0.00000000000E+00 -0.12585382293E+04  0.23624067922E+04  0.19992617080E+04 0.  0.
        3    1    3    3  502    0  0.52197598144E+02 -0.11942319561E+03 -0.18003898120E+04  0.18051010980E+04  0.10100000352E+00 0.  1.
       -3    1    3    3    0  502 -0.52197598144E+02  0.11942319561E+03  0.54185158267E+03  0.55730569416E+03  0.10100000352E+00 0. -1.
</event>
<event>
 5   0  0.2142551E-05  0.2002780E+04  0.7818609E-02  0.8605322E-01
        1   -1    0    0  501    0  0.00000000000E+00  0.00000000000E+00  0.13218055074E+04  0.13218055074E+04  0.50400001928E-02 0.  1.
       -1   -1    0    0    0  501  0.00000000000E+00  0.00000000000E+00 -0.75864569075E+03  0.75864569077E+03  0.50400001928E-02 0. -1.
    10030    2    1    2    0    0  0.00000000000E+00  0.00000000000E+00  0.56315981667E+03  0.20804511982E+04  0.20027801200E+04 0.  0.
        3    1    3    3  502    0  0.36025602283E+03 -0.19068797402E+03 -0.66857073493E+03  0.78302818801E+03  0.10100000352E+00 0. -1.
       -3    1    3    3    0  502 -0.36025602283E+03  0.19068797402E+03  0.12317305516E+04  0.12974230102E+04  0.10100000352E+00 0.  1.
</event>
<event>
 5   0  0.4447313E-05  0.1988249E+04  0.7818609E-02  0.8612135E-01
        2   -1    0    0  501    0  0.00000000000E+00  0.00000000000E+00  0.11487099241E+04  0.11487099241E+04  0.25500000920E-02 0. -1.
       -2   -1    0    0    0  501  0.00000000000E+00  0.00000000000E+00 -0.86034192470E+03  0.86034192471E+03  0.25500000920E-02 0.  1.
    10030    2    1    2    0    0  0.00000000000E+00  0.00000000000E+00  0.28836799942E+03  0.20090518488E+04  0.19882487843E+04 0.  0.
        5    1    3    3  502    0  0.66398890993E+03 -0.36096070630E+03  0.79676422464E+03  0.10981936185E+04  0.46999998093E+01 0. -1.
       -5    1    3    3    0  502 -0.66398890993E+03  0.36096070630E+03 -0.50839622522E+03  0.91085823036E+03  0.46999998093E+01 0.  1.
</event>
<event>
 5   0  0.2256868E-05  0.1996923E+04  0.7818609E-02  0.8608060E-01
       -1   -1    0    0    0  501  0.00000000000E+00  0.00000000000E+00  0.14042415346E+04  0.14042415347E+04  0.50400001928E-02 0.  1.
        1   -1    0    0  501    0  0.00000000000E+00  0.00000000000E+00 -0.70993891778E+03  0.70993891779E+03  0.50400001928E-02 0. -1.
    10030    2    1    2    0    0  0.00000000000E+00  0.00000000000E+00  0.69430261687E+03  0.21141804525E+04  0.19969233490E+04 0.  0.
        5    1    3    3  502    0  0.10827754355E+03 -0.64412930557E+03  0.11466607563E+04  0.13196513057E+04  0.46999998093E+01 0.  1.
       -5    1    3    3    0  502 -0.10827754355E+03  0.64412930557E+03 -0.45235813939E+03  0.79452914673E+03  0.46999998093E+01 0. -1.
</event>
<event>
 5   0  0.2142551E-05  0.2008296E+04  0.7818609E-02  0.8602752E-01
        1   -1    0    0  501    0  0.00000000000E+00  0.00000000000E+00  0.94454876770E+03  0.94454876771E+03  0.50400001928E-02 0.  1.
       -1   -1    0    0    0  501  0.00000000000E+00  0.00000000000E+00 -0.10675081753E+04  0.10675081753E+04  0.50400001928E-02 0. -1.
    10030    2    1    2    0    0  0.00000000000E+00  0.00000000000E+00 -0.12295940756E+03  0.20120569430E+04  0.20082963242E+04 0.  0.
        3    1    3    3  502    0 -0.10016875435E+04 -0.69867700152E+02 -0.54111280330E+02  0.10055781776E+04  0.10100000352E+00 0. -1.
       -3    1    3    3    0  502  0.10016875435E+04  0.69867700152E+02 -0.68848127233E+02  0.10064787654E+04  0.10100000352E+00 0.  1.
</event>
<event>
 5   0  0.4514680E-05  0.1996227E+04  0.7818609E-02  0.8608387E-01
       -2   -1    0    0    0  501  0.00000000000E+00  0.00000000000E+00  0.13599925170E+04  0.13599925170E+04  0.25500000920E-02 0.  1.
        2   -1    0    0  501    0  0.00000000000E+00  0.00000000000E+00 -0.73252636903E+03  0.73252636903E+03  0.25500000920E-02 0. -1.
    10030    2    1    2    0    0  0.00000000000E+00  0.00000000000E+00  0.62746614797E+03  0.20925188860E+04  0.19962268212E+04 0.  0.
        3    1    3    3  502    0 -0.70920872403E+03 -0.69923911510E+03  0.24485172931E+03  0.10256045699E+04  0.10100000352E+00 0.  1.
       -3    1    3    3    0  502  0.70920872403E+03  0.69923911510E+03  0.38261441866E+03  0.10669143161E+04  0.10100000352E+00 0. -1.
</event>
<event>
 5   0  0.2007644E-05  0.2000547E+04  0.7818609E-02  0.8606365E-01
        1   -1    0    0  501    0  0.00000000000E+00  0.00000000000E+00  0.10582479111E+04  0.10582479111E+04  0.50400001928E-02 0. -1.
       -1   -1    0    0    0  501  0.00000000000E+00  0.00000000000E+00 -0.94547534117E+03  0.94547534119E+03  0.50400001928E-02 0.  1.
    10030    2    1    2    0    0  0.00000000000E+00  0.00000000000E+00  0.11277256995E+03  0.20037232523E+04  0.20005472300E+04 0.  0.
        1    1    3    3  502    0 -0.24912968363E+03  0.29474520607E+03 -0.86790430696E+03  0.94984115611E+03  0.50400001928E-02 0.  1.
       -1    1    3    3    0  502  0.24912968363E+03 -0.29474520607E+03  0.98067687691E+03  0.10538820962E+04  0.50400001928E-02 0. -1.
</event>
<event>
 5   0  0.2142551E-05  0.2000647E+04  0.7818609E-02  0.8606318E-01
        1   -1    0    0  501    0  0.00000000000E+00  0.00000000000E+00  0.13774769592E+04  0.13774769592E+04  0.50400001928E-02 0. -1.
       -1   -1    0    0    0  501  0.00000000000E+00  0.00000000000E+00 -0.72643458797E+03  0.72643458799E+03  0.50400001928E-02 0.  1.
    10030    2    1    2    0    0  0.00000000000E+00  0.00000000000E+00  0.65104237122E+03  0.21039115472E+04  0.20006468027E+04 0.  0.
        3    1    3    3  502    0 -0.66218956780E+03  0.46164758646E+03 -0.29576333593E+03  0.85970313415E+03  0.10100000352E+00 0.  1.
       -3    1    3    3    0  502  0.66218956780E+03 -0.46164758646E+03  0.94680570714E+03  0.12442084130E+04  0.10100000352E+00 0. -1.
</event>
<event>
 5   0  0.2093980E-05  0.2000461E+04  0.7818609E-02  0.8606405E-01
        1   -1    0    0  501    0  0.00000000000E+00  0.00000000000E+00  0.90068546593E+03  0.90068546594E+03  0.50400001928E-02 0. -1.
       -1   -1    0    0    0  501  0.00000000000E+00  0.00000000000E+00 -0.11107774257E+04  0.11107774257E+04  0.50400001928E-02 0.  1.
    10030    2    1    2    0    0  0.00000000000E+00  0.00000000000E+00 -0.21009195979E+03  0.20114628917E+04  0.20004610301E+04 0.  0.
        2    1    3    3  502    0 -0.35745312257E+03  0.76112093477E+03  0.43958156539E+03  0.94884654439E+03  0.25500000920E-02 0. -1.
       -2    1    3    3    0  502  0.35745312257E+03 -0.76112093477E+03 -0.64967352518E+03  0.10626163473E+04  0.25500000920E-02 0.  1.
</event>
<event>
 5   0  0.2256868E-05  0.2002091E+04  0.7818609E-02  0.8605644E-01
       -1   -1    0    0    0  501  0.00000000000E+00  0.00000000000E+00  0.70884472986E+03  0.70884472988E+03  0.50400001928E-02 0.  1.
        1   -1    0    0  501    0  0.00000000000E+00  0.00000000000E+00 -0.14136976665E+04  0.14136976665E+04  0.50400001928E-02 0. -1.
    10030    2    1    2    0    0  0.00000000000E+00  0.00000000000E+00 -0.70485293663E+03  0.21225423964E+04  0.20020910474E+04 0.  0.
        5    1    3    3  502    0  0.53736847838E+03  0.67330309699E+03 -0.89297238042E+03  0.12407754447E+04  0.46999998093E+01 0. -1.
       -5    1    3    3    0  502 -0.53736847838E+03 -0.67330309699E+03  0.18811944379E+03  0.88176695169E+03  0.46999998093E+01 0.  1.
</event>
<event>
 5   0  0.4412054E-05  0.1998842E+04  0.7818609E-02  0.8607162E-01
       -2   -1    0    0    0  501  0.00000000000E+00  0.00000000000E+00  0.14457574268E+04  0.14457574268E+04  0.25500000920E-02 0.  1.
        2   -1    0    0  501    0  0.00000000000E+00  0.00000000000E+00 -0.69087847982E+03  0.69087847983E+03  0.25500000920E-02 0. -1.
    10030    2    1    2    0    0  0.00000000000E+00  0.00000000000E+00  0.75487894700E+03  0.21366359066E+04  0.19988423582E+04 0.  0.
        4    1    3    3  502    0 -0.52004645851E+03 -0.51568857074E+03  0.11043620455E+04  0.13251415628E+04  0.12699999809E+01 0.  1.
       -4    1    3    3    0  502  0.52004645851E+03  0.51568857074E+03 -0.34948309853E+03  0.81149434383E+03  0.12699999809E+01 0. -1.
</event>
<event>
 5   0  0.4577279E-05  0.2001168E+04  0.7818609E-02  0.8606075E-01
       -2   -1    0    0    0  501  0.00000000000E+00  0.00000000000E+00  0.11864852388E+04  0.11864852388E+04  0.25500000920E-02 0. -1.
        2   -1    0    0  501    0  0.00000000000E+00  0.00000000000E+00 -0.84380984857E+03  0.84380984857E+03  0.25500000920E-02 0.  1.
    10030    2    1    2    0    0  0.00000000000E+00  0.00000000000E+00  0.34267539025E+03  0.20302950874E+04  0.20011675889E+04 0.  0.
        1    1    3    3  502    0 -0.66602028275E+03 -0.73933458659E+03  0.65078921641E+02  0.99721307353E+03  0.50400001928E-02 0.  1.
       -1    1    3    3    0  502  0.66602028275E+03  0.73933458659E+03  0.27759646861E+03  0.10330820139E+04  0.50400001928E-02 0. -1.
</event>
<event>
 5   0  0.2110896E-05  0.1981999E+04  0.7818609E-02  0.8615083E-01
        1   -1    0    0  501    0  0.00000000000E+00  0.00000000000E+00  0.10013995835E+04  0.10013995836E+04  0.50400001928E-02 0. -1.
       -1   -1    0    0    0  501  0.00000000000E+00  0.00000000000E+00 -0.98070695389E+03  0.98070695390E+03  0.50400001928E-02 0.  1.
    10030    2    1    2    0    0  0.00000000000E+00  0.00000000000E+00  0.20692629653E+02  0.19821065375E+04  0.19819985219E+04 0.  0.
        4    1    3    3  502    0  0.17607289698E+03  0.22701716854E+03  0.95883854562E+03  0.10009552584E+04  0.12699999809E+01 0. -1.
       -4    1    3    3    0  502 -0.17607289698E+03 -0.22701716854E+03 -0.93814591596E+03  0.98115127906E+03  0.12699999809E+01 0.  1.
</event>
<event>
 5   0  0.4473361E-05  0.2009163E+04  0.7818609E-02  0.8602349E-01
       -2   -1    0    0    0  501  0.00000000000E+00  0.00000000000E+00  0.70857468878E+03  0.70857468879E+03  0.25500000920E-02 0. -1.
        2   -1    0    0  501    0  0.00000000000E+00  0.00000000000E+00 -0.14242450247E+04  0.14242450247E+04  0.25500000920E-02 0.  1.
    10030    2    1    2    0    0  0.00000000000E+00  0.00000000000E+00 -0.71567033593E+03  0.21328197135E+04  0.20091629851E+04 0.  0.
        2    1    3    3  502    0 -0.19277361125E+03 -0.60479684343E+03 -0.11843723168E+04  0.13437554361E+04  0.25500000920E-02 0.  1.
       -2    1    3    3    0  502  0.19277361125E+03  0.60479684343E+03  0.46870198091E+03  0.78906427745E+03  0.25500000920E-02 0. -1.
</event>
<event>
 5   0  0.2256868E-05  0.1987168E+04  0.7818609E-02  0.8612643E-01
        1   -1    0    0  501    0  0.00000000000E+00  0.00000000000E+00  0.15780066157E+04  0.15780066157E+04  0.50400001928E-02 0. -1.
       -1   -1    0    0    0  501  0.00000000000E+00  0.00000000000E+00 -0.62560545259E+03  0.62560545261E+03  0.50400001928E-02 0.  1.
    10030    2    1    2    0    0  0.00000000000E+00  0.00000000000E+00  0.95240116307E+03  0.22036120683E+04  0.19871683804E+04 0.  0.
        5    1    3    3  502    0  0.69731808642E+03 -0.45987964006E+03 -0.12040043924E+03  0.84395506560E+03  0.46999998093E+01 0.  1.
       -5    1    3    3    0  502 -0.69731808642E+03  0.45987964006E+03  0.10728016023E+04  0.13596570027E+04  0.46999998093E+01 0. -1.
</event>
<event>
 5   0  0.4473361E-05  0.1992706E+04  0.7818609E-02  0.8610038E-01
        2   -1    0    0  501    0  0.00000000000E+00  0.00000000000E+00  0.19186512742E+04  0.19186512742E+04  0.25500000920E-02 0. -1.
       -2   -1    0    0    0  501  0.00000000000E+00  0.00000000000E+00 -0.51740474618E+03  0.51740474619E+03  0.25500000920E-02 0.  1.
    10030    2    1    2    0    0  0.00000000000E+00  0.00000000000E+00  0.14012465280E+04  0.24360560204E+04  0.19927059749E+04 0.  0.
        2    1    3    3  502    0 -0.41259339821E+03  0.29573535825E+02 -0.40747243306E+03  0.58063903587E+03  0.25500000920E-02 0.  1.
       -2    1    3    3    0  502  0.41259339821E+03 -0.29573535825E+02  0.18087189611E+04  0.18554169845E+04  0.25500000920E-02 0. -1.
</event>
<event>
 5   0  0.2110896E-05  0.2004321E+04  0.7818609E-02  0.8604603E-01
       -1   -1    0    0    0  501  0.00000000000E+00  0.00000000000E+00  0.55765210913E+03  0.55765210915E+03  0.50400001928E-02 0. -1.
        1   -1    0    0  501    0  0.00000000000E+00  0.00000000000E+00 -0.18009889954E+04  0.18009889954E+04  0.50400001928E-02 0.  1.
    10030    2    1    2    0    0  0.00000000000E+00  0.00000000000E+00 -0.12433368863E+04  0.23586411046E+04  0.20043206449E+04 0.  0.
        4    1    3    3  502    0  0.38961939682E+03  0.49784322851E+03 -0.15367394341E+04  0.16616921664E+04  0.12699999809E+01 0.  1.
       -4    1    3    3    0  502 -0.38961939682E+03 -0.49784322851E+03  0.29340254779E+03  0.69694893823E+03  0.12699999809E+01 0. -1.
</event>
<event>
 5   0  0.2110896E-05  0.2049387E+04  0.7818609E-02  0.8583873E-01
       -1   -1    0    0    0  501  0.00000000000E+00  0.00000000000E+00  0.90824227808E+03  0.90824227810E+03  0.50400001928E-02 0.  1.
        1   -1    0    0  501    0  0.00000000000E+00  0.00000000000E+00 -0.11560751546E+04  0.11560751546E+04  0.50400001928E-02 0. -1.
    10030    2    1    2    0    0  0.00000000000E+00  0.00000000000E+00 -0.24783287654E+03  0.20643174327E+04  0.20493865737E+04 0.  0.
        4    1    3    3  502    0  0.93771995913E+03  0.38669447645E+03 -0.27038344099E+03  0.10497429009E+04  0.12699999809E+01 0.  1.
       -4    1    3    3    0  502 -0.93771995913E+03 -0.38669447645E+03  0.22550564446E+02  0.10145745319E+04  0.12699999809E+01 0. -1.
</event>
<event>
 5   0  0.2093980E-05  0.2001943E+04  0.7818609E-02  0.8605713E-01
       -1   -1    0    0    0  501  0.00000000000E+00  0.00000000000E+00  0.95321684931E+03  0.95321684932E+03  0.50400001928E-02 0.  1.
        1   -1    0    0  501    0  0.00000000000E+00  0.00000000000E+00 -0.10511187496E+04  0.10511187496E+04  0.50400001928E-02 0. -1.
    10030    2    1    2    0    0  0.00000000000E+00  0.00000000000E+00 -0.97901900291E+02  0.20043355989E+04  0.20019431588E+04 0.  0.
        2    1    3    3  502    0  0.91697702030E+03  0.34570056275E+03 -0.25312692427E+03  0.10121407880E+04  0.25500000920E-02 0. -1.
       -2    1    3    3    0  502 -0.91697702030E+03 -0.34570056275E+03  0.15522502397E+03  0.99219481097E+03  0.25500000920E-02 0.  1.
</event>
<event>
 5   0  0.4473361E-05  0.2007432E+04  0.7818609E-02  0.8603154E-01
       -2   -1    0    0    0  501  0.00000000000E+00  0.00000000000E+00  0.37171401296E+03  0.37171401297E+03  0.25500000920E-02 0.  1.
        2   -1    0    0  501    0  0.00000000000E+00  0.00000000000E+00 -0.27102710047E+04  0.27102710047E+04  0.25500000920E-02 0. -1.
    10030    2    1    2    0    0  0.00000000000E+00  0.00000000000E+00 -0.23385569917E+04  0.30819850176E+04  0.20074319031E+04 0.  0.
        2    1    3    3  502    0  0.10859208095E+03  0.15443055553E+02 -0.27010422479E+04  0.27032683835E+04  0.25500000920E-02 0. -1.
       -2    1    3    3    0  502 -0.10859208095E+03 -0.15443055553E+02  0.36248525622E+03  0.37871663417E+03  0.25500000920E-02 0.  1.
</event>
<event>
 5   0  0.1601500E-05  0.1962946E+04  0.7818609E-02  0.8624143E-01
        3   -1    0    0  501    0  0.00000000000E+00  0.00000000000E+00  0.74134480803E+03  0.74134481491E+03  0.10100000352E+00 0.  1.
       -3   -1    0    0    0  501  0.00000000000E+00  0.00000000000E+00 -0.12993809074E+04  0.12993809113E+04  0.10100000352E+00 0. -1.
    10030    2    1    2    0    0  0.00000000000E+00  0.00000000000E+00 -0.55803609935E+03  0.20407257262E+04  0.19629460516E+04 0.  0.
        2    1    3    3  502    0  0.92387403158E+03 -0.32133459916E+03 -0.36277167725E+03  0.10432652782E+04  0.25500000920E-02 0.  1.
       -2    1    3    3    0  502 -0.92387403158E+03  0.32133459916E+03 -0.19526442210E+03  0.99746044803E+03  0.25500000920E-02 0. -1.
</event>
<event>
 5   0  0.4447313E-05  0.2002691E+04  0.7818609E-02  0.8605364E-01
       -2   -1    0    0    0  501  0.00000000000E+00  0.00000000000E+00  0.79868578074E+03  0.79868578074E+03  0.25500000920E-02 0. -1.
        2   -1    0    0  501    0  0.00000000000E+00  0.00000000000E+00 -0.12554278277E+04  0.12554278277E+04  0.25500000920E-02 0.  1.
    10030    2    1    2    0    0  0.00000000000E+00  0.00000000000E+00 -0.45674204699E+03  0.20541136085E+04  0.20026905450E+04 0.  0.
        5    1    3    3  502    0  0.36816780257E+03  0.37006512144E+03 -0.11048145853E+04  0.12219382484E+04  0.46999998093E+01 0.  1.
       -5    1    3    3    0  502 -0.36816780257E+03 -0.37006512144E+03  0.64807253834E+03  0.83217536007E+03  0.46999998093E+01 0. -1.
</event>
<event>
 5   0  0.4447313E-05  0.1994828E+04  0.7818609E-02  0.8609042E-01
        2   -1    0    0  501    0  0.00000000000E+00  0.00000000000E+00  0.13964137976E+04  0.13964137976E+04  0.25500000920E-02 0. -1.
       -2   -1    0    0    0  501  0.00000000000E+00  0.00000000000E+00 -0.71242137116E+03  0.71242137117E+03  0.25500000920E-02 0.  1.
    10030    2    1    2    0    0  0.00000000000E+00  0.00000000000E+00  0.68399242646E+03  0.21088351688E+04  0.19948283459E+04 0.  0.
        5    1    3    3  502    0 -0.48753613315E+03  0.59510968521E+03  0.10130715315E+04  0.12720782352E+04  0.46999998093E+01 0. -1.
       -5    1    3    3    0  502  0.48753613315E+03 -0.59510968521E+03 -0.32907910502E+03  0.83675693360E+03  0.46999998093E+01 0.  1.
</event>
<event>
 5   0  0.4412054E-05  0.2001125E+04  0.7818609E-02  0.8606095E-01
        2   -1    0    0  501    0  0.00000000000E+00  0.00000000000E+00  0.80499869837E+03  0.80499869837E+03  0.25500000920E-02 0. -1.
       -2   -1    0    0    0  501  0.00000000000E+00  0.00000000000E+00 -0.12436365202E+04  0.12436365202E+04  0.25500000920E-02 0.  1.
    10030    2    1    2    0    0  0.00000000000E+00  0.00000000000E+00 -0.43863782184E+03  0.20486352186E+04  0.20011254633E+04 0.  0.
        4    1    3    3  502    0  0.29213149786E+03 -0.62698039012E+03 -0.95944858955E+03  0.11827884133E+04  0.12699999809E+01 0.  1.
       -4    1    3    3    0  502 -0.29213149786E+03  0.62698039012E+03  0.52081076771E+03  0.86584680533E+03  0.12699999809E+01 0. -1.
</event>
<event>
 5   0  0.2110896E-05  0.2028276E+04  0.7818609E-02  0.8593514E-01
       -1   -1    0    0    0  501  0.00000000000E+00  0.00000000000E+00  0.80538834806E+03  0.80538834808E+03  0.50400001928E-02 0. -1.
        1   -1    0    0  501    0  0.00000000000E+00  0.00000000000E+00 -0.12769936322E+04  0.12769936322E+04  0.50400001928E-02 0.  1.
    10030    2    1    2    0    0  0.00000000000E+00  0.00000000000E+00 -0.47160528412E+03  0.20823819803E+04  0.20282759102E+04 0.  0.
        4    1    3    3  502    0  0.85285216943E+03 -0.50897684138E+03 -0.25246631789E+02  0.99350553762E+03  0.12699999809E+01 0. -1.
       -4    1    3    3    0  502 -0.85285216943E+03  0.50897684138E+03 -0.44635865233E+03  0.10888764427E+04  0.12699999809E+01 0.  1.
</event>
<event>
 5   0  0.2093980E-05  0.1981887E+04  0.7818609E-02  0.8615136E-01
        1   -1    0    0  501    0  0.00000000000E+00  0.00000000000E+00  0.15494656890E+04  0.15494656890E+04  0.50400001928E-02 0. -1.
       -1   -1    0    0    0  501  0.00000000000E+00  0.00000000000E+00 -0.63374690120E+03  0.63374690122E+03  0.50400001928E-02 0.  1.
    10030    2    1    2    0    0  0.00000000000E+00  0.00000000000E+00  0.91571878783E+03  0.21832125903E+04  0.19818870593E+04 0.  0.
        2    1    3    3  502    0 -0.29682825296E+03 -0.62447608928E+03 -0.32410273350E+03  0.76362293032E+03  0.25500000920E-02 0.  1.
       -2    1    3    3    0  502  0.29682825296E+03  0.62447608928E+03  0.12398215213E+04  0.14195896599E+04  0.25500000920E-02 0. -1.
</event>
<event>
 5   0  0.4473361E-05  0.2120103E+04  0.7818609E-02  0.8552439E-01
        2   -1    0    0  501    0  0.00000000000E+00  0.00000000000E+00  0.15489410186E+04  0.15489410186E+04  0.25500000920E-02 0. -1.
       -2   -1    0    0    0  501  0.00000000000E+00  0.00000000000E+00 -0.72546904443E+03  0.72546904444E+03  0.25500000920E-02 0.  1.
    10030    2    1    2    0    0  0.00000000000E+00  0.00000000000E+00  0.82347197417E+03  0.22744100630E+04  0.21201026019E+04 0.  0.
        2    1    3    3  502    0  0.29443648537E+03 -0.13906639841E+03 -0.67048699474E+03  0.74537582279E+03  0.25500000920E-02 0.  1.
       -2    1    3    3    0  502 -0.29443648537E+03  0.13906639841E+03  0.14939589689E+04  0.15290342402E+04  0.25500000920E-02 0. -1.
</event>
<event>
 5   0  0.2093980E-05  0.1958735E+04  0.7818609E-02  0.8626160E-01
       -1   -1    0    0    0  501  0.00000000000E+00  0.00000000000E+00  0.64537171177E+03  0.64537171179E+03  0.50400001928E-02 0.  1.
        1   -1    0    0  501    0  0.00000000000E+00  0.00000000000E+00 -0.14862150131E+04  0.14862150132E+04  0.50400001928E-02 0. -1.
    10030    2    1    2    0    0  0.00000000000E+00  0.00000000000E+00 -0.84084330137E+03  0.21315867249E+04  0.19587354361E+04 0.  0.
        2    1    3    3  502    0 -0.81091266731E+03  0.48854204956E+02 -0.10156785272E+04  0.13006033054E+04  0.25500000920E-02 0. -1.
       -2    1    3    3    0  502  0.81091266731E+03 -0.48854204956E+02  0.17483522585E+03  0.83098341954E+03  0.25500000920E-02 0.  1.
</event>
<event>
 5   0  0.4514680E-05  0.2005373E+04  0.7818609E-02  0.8604113E-01
        2   -1    0    0  501    0  0.00000000000E+00  0.00000000000E+00  0.14820683850E+04  0.14820683850E+04  0.25500000920E-02 0. -1.
       -2   -1    0    0    0  501  0.00000000000E+00  0.00000000000E+00 -0.67836319141E+03  0.67836319142E+03  0.25500000920E-02 0.  1.
    10030    2    1    2    0    0  0.00000000000E+00  0.00000000000E+00  0.80370519358E+03  0.21604315764E+04  0.20053734211E+04 0.  0.
        3    1    3    3  502    0 -0.20569599810E+02 -0.43115475196E+03  0.13768510848E+04  0.14429263490E+04  0.10100000352E+00 0. -1.
       -3    1    3    3    0  502  0.20569599810E+02  0.43115475196E+03 -0.57314589124E+03  0.71750522745E+03  0.10100000352E+00 0.  1.
</event>
<event>
 5   0  0.4447313E-05  0.1995537E+04  0.7818609E-02  0.8608710E-01
       -2   -1    0    0    0  501  0.00000000000E+00  0.00000000000E+00  0.96914396668E+03  0.96914396668E+03  0.25500000920E-02 0.  1.
        2   -1    0    0  501    0  0.00000000000E+00  0.00000000000E+00 -0.10272383460E+04  0.10272383460E+04  0.25500000920E-02 0. -1.
    10030    2    1    2    0    0  0.00000000000E+00  0.00000000000E+00 -0.58094379326E+02  0.19963823127E+04  0.19955368655E+04 0.  0.
        5    1    3    3  502    0  0.23846419615E+03 -0.52275844099E+03 -0.84509995428E+03  0.10219381504E+04  0.46999998093E+01 0. -1.
       -5    1    3    3    0  502 -0.23846419615E+03  0.52275844099E+03  0.78700557495E+03  0.97444416232E+03  0.46999998093E+01 0.  1.
</event>
<event>
 5   0  0.2256868E-05  0.1983407E+04  0.7818609E-02  0.8614418E-01
       -1   -1    0    0    0  501  0.00000000000E+00  0.00000000000E+00  0.59614418777E+03  0.59614418779E+03  0.50400001928E-02 0. -1.
        1   -1    0    0  501    0  0.00000000000E+00  0.00000000000E+00 -0.16497281076E+04  0.16497281076E+04  0.50400001928E-02 0.  1.
    10030    2    1    2    0    0  0.00000000000E+00  0.00000000000E+00 -0.10535839198E+04  0.22458722954E+04  0.19834069908E+04 0.  0.
        5    1    3    3  502    0  0.98296240542E+03  0.99362213974E+02 -0.62397331832E+03  0.11685258799E+04  0.46999998093E+01 0.  1.
       -5    1    3    3    0  502 -0.98296240542E+03 -0.99362213974E+02 -0.42961060149E+03  0.10773464155E+04  0.46999998093E+01 0. -1.
</event>
<event>
 5   0  0.2142551E-05  0.2009833E+04  0.7818609E-02  0.8602037E-01
       -1   -1    0    0    0  501  0.00000000000E+00  0.00000000000E+00  0.78313047837E+03  0.78313047839E+03  0.50400001928E-02 0.  1.
        1   -1    0    0  501    0  0.00000000000E+00  0.00000000000E+00 -0.12895128368E+04  0.12895128369E+04  0.50400001928E-02 0. -1.
    10030    2    1    2    0    0  0.00000000000E+00  0.00000000000E+00 -0.50638235847E+03  0.20726433152E+04  0.20098326346E+04 0.  0.
        3    1    3    3  502    0  0.58430858030E+02 -0.32596607278E+03 -0.12316250232E+04  0.12753698498E+04  0.10100000352E+00 0. -1.
       -3    1    3    3    0  502 -0.58430858030E+02  0.32596607278E+03  0.72524266473E+03  0.79727346546E+03  0.10100000352E+00 0.  1.
</event>
<event>
 5   0  0.4514680E-05  0.2007279E+04  0.7818609E-02  0.8603225E-01
       -2   -1    0    0    0  501  0.00000000000E+00  0.00000000000E+00  0.11321292954E+04  0.11321292954E+04  0.25500000920E-02 0.  1.
        2   -1    0    0  501    0  0.00000000000E+00  0.00000000000E+00 -0.88973282277E+03  0.88973282277E+03  0.25500000920E-02 0. -1.
    10030    2    1    2    0    0  0.00000000000E+00  0.00000000000E+00  0.24239647262E+03  0.20218621182E+04  0.20072793465E+04 0.  0.
        3    1    3    3  502    0 -0.12568786796E+03 -0.90515238072E+03  0.53917594308E+03  0.10610414602E+04  0.10100000352E+00 0. -1.
       -3    1    3    3    0  502  0.12568786796E+03  0.90515238072E+03 -0.29677947045E+03  0.96082065796E+03  0.10100000352E+00 0.  1.
</event>
<event>
 5   0  0.4577279E-05  0.1999920E+04  0.7818609E-02  0.8606658E-01
        2   -1    0    0  501    0  0.00000000000E+00  0.00000000000E+00  0.10316420434E+04  0.10316420434E+04  0.25500000920E-02 0. -1.
       -2   -1    0    0    0  501  0.00000000000E+00  0.00000000000E+00 -0.96925104847E+03  0.96925104847E+03  0.25500000920E-02 0.  1.
    10030    2    1    2    0    0  0.00000000000E+00  0.00000000000E+00  0.62390994978E+02  0.20008930919E+04  0.19999201307E+04 0.  0.
        1    1    3    3  502    0  0.80342621480E+03  0.10939583445E+03  0.61668016399E+03  0.10187028791E+04  0.50400001928E-02 0. -1.
       -1    1    3    3    0  502 -0.80342621480E+03 -0.10939583445E+03 -0.55428916901E+03  0.98219021281E+03  0.50400001928E-02 0.  1.
</event>
<event>
 5   0  0.4577279E-05  0.2001293E+04  0.7818609E-02  0.8606016E-01
       -2   -1    0    0    0  501  0.00000000000E+00  0.00000000000E+00  0.58501823994E+03  0.58501823994E+03  0.25500000920E-02 0.  1.
        2   -1    0    0  501    0  0.00000000000E+00  0.00000000000E+00 -0.17115593664E+04  0.17115593664E+04  0.25500000920E-02 0. -1.
    10030    2    1    2    0    0  0.00000000000E+00  0.00000000000E+00 -0.11265411265E+04  0.22965776064E+04  0.20012930301E+04 0.  0.
        1    1    3    3  502    0  0.13942164157E+03  0.13086676585E+03  0.56385706935E+03  0.59539843737E+03  0.50400001928E-02 0.  1.
       -1    1    3    3    0  502 -0.13942164157E+03 -0.13086676585E+03 -0.16903981958E+04  0.17011791690E+04  0.50400001928E-02 0. -1.
</event>
<event>
 5   0  0.4473361E-05  0.2022029E+04  0.7818609E-02  0.8596390E-01
       -2   -1    0    0    0  501  0.00000000000E+00  0.00000000000E+00  0.10306124630E+04  0.10306124630E+04  0.25500000920E-02 0.  1.
        2   -1    0    0  501    0  0.00000000000E+00  0.00000000000E+00 -0.99178925039E+03  0.99178925039E+03  0.25500000920E-02 0. -1.
    10030    2    1    2    0    0  0.00000000000E+00  0.00000000000E+00  0.38823212599E+02  0.20224017134E+04  0.20220290424E+04 0.  0.
        2    1    3    3  502    0  0.59857152512E+03  0.68001116835E+03 -0.42949992713E+03  0.10025832869E+04  0.25500000920E-02 0. -1.
       -2    1    3    3    0  502 -0.59857152512E+03 -0.68001116835E+03  0.46832313973E+03  0.10198184265E+04  0.25500000920E-02 0.  1.
</event>
<event>
 5   0  0.2007644E-05  0.1980993E+04  0.7818609E-02  0.8615559E-01
       -1   -1    0    0    0  501  0.00000000000E+00  0.00000000000E+00  0.10009527242E+04  0.10009527242E+04  0.50400001928E-02 0.  1.
        1   -1    0    0  501    0  0.00000000000E+00  0.00000000000E+00 -0.98014908791E+03  0.98014908793E+03  0.50400001928E-02 0. -1.
    10030    2    1    2    0    0  0.00000000000E+00  0.00000000000E+00  0.20803636236E+02  0.19811018121E+04  0.19809925791E+04 0.  0.
        1    1    3    3  502    0 -0.31654843782E+03 -0.35083671966E+03  0.88096322022E+03  0.99969270917E+03  0.50400001928E-02 0.  1.
       -1    1    3    3    0  502  0.31654843782E+03  0.35083671966E+03 -0.86015958399E+03  0.98140910292E+03  0.50400001928E-02 0. -1.
</event>
<event>
 5   0  0.4577279E-05  0.2001647E+04  0.7818609E-02  0.8605851E-01
        2   -1    0    0  501    0  0.00000000000E+00  0.00000000000E+00  0.25606347890E+04  0.25606347890E+04  0.25500000920E-02 0.  1.
       -2   -1    0    0    0  501  0.00000000000E+00  0.00000000000E+00 -0.39117182160E+03  0.39117182160E+03  0.25500000920E-02 0. -1.
    10030    2    1    2    0    0  0.00000000000E+00  0.00000000000E+00  0.21694629674E+04  0.29518066106E+04  0.20016474963E+04 0.  0.
        1    1    3    3  502    0 -0.18187451102E+03 -0.97722908065E+03  0.91279797195E+03  0.13495388662E+04  0.50400001928E-02 0. -1.
       -1    1    3    3    0  502  0.18187451102E+03  0.97722908065E+03  0.12566649954E+04  0.16022677444E+04  0.50400001928E-02 0.  1.
</event>
<event>
 5   0  0.4412054E-05  0.1994947E+04  0.7818609E-02  0.8608987E-01
       -2   -1    0    0    0  501  0.00000000000E+00  0.00000000000E+00  0.14418962020E+04  0.14418962020E+04  0.25500000920E-02 0.  1.
        2   -1    0    0  501    0  0.00000000000E+00  0.00000000000E+00 -0.69003105708E+03  0.69003105708E+03  0.25500000920E-02 0. -1.
    10030    2    1    2    0    0  0.00000000000E+00  0.00000000000E+00  0.75186514491E+03  0.21319272591E+04  0.19949467767E+04 0.  0.
        4    1    3    3  502    0  0.25806904768E+03 -0.60764198936E+03  0.11750209188E+04  0.13477775014E+04  0.12699999809E+01 0.  1.
       -4    1    3    3    0  502 -0.25806904768E+03  0.60764198936E+03 -0.42315577391E+03  0.78414975770E+03  0.12699999809E+01 0. -1.
</event>
<event>
 5   0  0.4514680E-05  0.1992153E+04  0.7818609E-02  0.8610298E-01
        2   -1    0    0  501    0  0.00000000000E+00  0.00000000000E+00  0.18714030002E+04  0.18714030002E+04  0.25500000920E-02 0.  1.
       -2   -1    0    0    0  501  0.00000000000E+00  0.00000000000E+00 -0.53017381990E+03  0.53017381991E+03  0.25500000920E-02 0. -1.
    10030    2    1    2    0    0  0.00000000000E+00  0.00000000000E+00  0.13412291803E+04  0.24015768201E+04  0.19921534853E+04 0.  0.
        3    1    3    3  502    0 -0.76874814151E+02 -0.66478189569E+03  0.15600255843E+04  0.16975053873E+04  0.10100000352E+00 0.  1.
       -3    1    3    3    0  502  0.76874814151E+02  0.66478189569E+03 -0.21879640404E+03  0.70407143282E+03  0.10100000352E+00 0. -1.
</event>
<event>
 5   0  0.2142551E-05  0.1997866E+04  0.7818609E-02  0.8607619E-01
       -1   -1    0    0    0  501  0.00000000000E+00  0.00000000000E+00  0.41980917410E+03  0.41980917413E+03  0.50400001928E-02 0. -1.
        1   -1    0    0  501    0  0.00000000000E+00  0.00000000000E+00 -0.23769532178E+04  0.23769532178E+04  0.50400001928E-02 0.  1.
    10030    2    1    2    0    0  0.00000000000E+00  0.00000000000E+00 -0.19571440437E+04  0.27967623919E+04  0.19978656284E+04 0.  0.
        3    1    3    3  502    0  0.25996887484E+02 -0.15032092748E+03 -0.23605505080E+04  0.23654747791E+04  0.10100000352E+00 0.  1.
       -3    1    3    3    0  502 -0.25996887484E+02  0.15032092748E+03  0.40340646428E+03  0.43128761288E+03  0.10100000352E+00 0. -1.
</event>
<event>
 5   0  0.2093980E-05  0.2000075E+04  0.7818609E-02  0.8606586E-01
       -1   -1    0    0    0  501  0.00000000000E+00  0.00000000000E+00  0.78910906740E+03  0.78910906742E+03  0.50400001928E-02 0.  1.
        1   -1    0    0  501    0  0.00000000000E+00  0.00000000000E+00 -0.12673470411E+04  0.12673470411E+04  0.50400001928E-02 0. -1.
    10030    2    1    2    0    0  0.00000000000E+00  0.00000000000E+00 -0.47823797372E+03  0.20564561086E+04  0.20000750403E+04 0.  0.
        2    1    3    3  502    0  0.44293290367E+03  0.43356556953E+02 -0.11599117137E+04  0.12423624800E+04  0.25500000920E-02 0. -1.
       -2    1    3    3    0  502 -0.44293290367E+03 -0.43356556953E+02  0.68167374000E+03  0.81409362852E+03  0.25500000920E-02 0.  1.
</event>
<event>
 5   0  0.4577279E-05  0.1918885E+04  0.7818609E-02  0.8645513E-01
       -2   -1    0    0    0  501  0.00000000000E+00  0.00000000000E+00  0.92686544260E+03  0.92686544261E+03  0.25500000920E-02 0. -1.
        2   -1    0    0  501    0  0.00000000000E+00  0.00000000000E+00 -0.99316455290E+03  0.99316455290E+03  0.25500000920E-02 0.  1.
    10030    2    1    2    0    0  0.00000000000E+00  0.00000000000E+00 -0.66299110296E+02  0.19200299955E+04  0.19188849918E+04 0.  0.
        1    1    3    3  502    0  0.57927813385E+03 -0.76006952187E+03 -0.11841230454E+03  0.96295914156E+03  0.50400001928E-02 0. -1.
       -1    1    3    3    0  502 -0.57927813385E+03  0.76006952187E+03  0.52113194243E+02  0.95707085394E+03  0.50400001928E-02 0.  1.
</event>
<event>
 5   0  0.4412054E-05  0.2086548E+04  0.7818609E-02  0.8567192E-01
        2   -1    0    0  501    0  0.00000000000E+00  0.00000000000E+00  0.24865717217E+04  0.24865717217E+04  0.25500000920E-02 0. -1.
       -2   -1    0    0    0  501  0.00000000000E+00  0.00000000000E+00 -0.43771933967E+03  0.43771933968E+03  0.25500000920E-02 0.  1.
    10030    2    1    2    0    0  0.00000000000E+00  0.00000000000E+00  0.20488523820E+04  0.29242910614E+04  0.20865478974E+04 0.  0.
        4    1    3    3  502    0  0.10383516787E+04  0.10106992007E+03  0.10320488064E+04  0.14674861802E+04  0.12699999809E+01 0. -1.
       -4    1    3    3    0  502 -0.10383516787E+04 -0.10106992007E+03  0.10168035757E+04  0.14568048812E+04  0.12699999809E+01 0.  1.
</event>
<event>
 5   0  0.4514680E-05  0.1998065E+04  0.7818609E-02  0.8607526E-01
        2   -1    0    0  501    0  0.00000000000E+00  0.00000000000E+00  0.24526803345E+04  0.24526803345E+04  0.25500000920E-02 0.  1.
       -2   -1    0    0    0  501  0.00000000000E+00  0.00000000000E+00 -0.40692865752E+03  0.40692865753E+03  0.25500000920E-02 0. -1.
    10030    2    1    2    0    0  0.00000000000E+00  0.00000000000E+00  0.20457516770E+04  0.28596089920E+04  0.19980649798E+04 0.  0.
        3    1    3    3  502    0  0.15454654098E+03 -0.79634856499E+03  0.18834374778E+03  0.83278391424E+03  0.10100000352E+00 0. -1.
       -3    1    3    3    0  502 -0.15454654098E+03  0.79634856499E+03  0.18574079292E+04  0.20268250778E+04  0.10100000352E+00 0.  1.
</event>
<event>
 5   0  0.2007644E-05  0.1993196E+04  0.7818609E-02  0.8609809E-01
       -1   -1    0    0    0  501  0.00000000000E+00  0.00000000000E+00  0.66681016701E+03  0.66681016703E+03  0.50400001928E-02 0.  1.
        1   -1    0    0  501    0  0.00000000000E+00  0.00000000000E+00 -0.14894903136E+04  0.14894903136E+04  0.50400001928E-02 0. -1.
    10030    2    1    2    0    0  0.00000000000E+00  0.00000000000E+00 -0.82268014659E+03  0.21563004806E+04  0.19931957102E+04 0.  0.
        1    1    3    3  502    0 -0.37788799373E+03  0.12906021980E+03  0.57647949757E+03  0.70127347539E+03  0.50400001928E-02 0.  1.
       -1    1    3    3    0  502  0.37788799373E+03 -0.12906021980E+03 -0.13991596442E+04  0.14550270053E+04  0.50400001928E-02 0. -1.
</event>
<event>
 5   0  0.4473361E-05  0.2000671E+04  0.7818609E-02  0.8606307E-01
       -2   -1    0    0    0  501  0.00000000000E+00  0.00000000000E+00  0.10346807006E+04  0.10346807006E+04  0.25500000920E-02 0. -1.
        2   -1    0    0  501    0  0.00000000000E+00  0.00000000000E+00 -0.96713080647E+03  0.96713080647E+03  0.25500000920E-02 0.  1.
    10030    2    1    2    0    0  0.00000000000E+00  0.00000000000E+00  0.67549894131E+02  0.20018115071E+04  0.20006714677E+04 0.  0.
        2    1    3    3  502    0 -0.39435448519E+03 -0.65842129948E+03  0.67573037538E+03  0.10225681434E+04  0.25500000920E-02 0. -1.
       -2    1    3    3    0  502  0.39435448519E+03  0.65842129948E+03 -0.60818048125E+03  0.97924336372E+03  0.25500000920E-02 0.  1.
</event>
<event>
 5   0  0.2007644E-05  0.1998684E+04  0.7818609E-02  0.8607236E-01
       -1   -1    0    0    0  501  0.00000000000E+00  0.00000000000E+00  0.61704392098E+03  0.61704392100E+03  0.50400001928E-02 0. -1.
        1   -1    0    0  501    0  0.00000000000E+00  0.00000000000E+00 -0.16184988578E+04  0.16184988578E+04  0.50400001928E-02 0.  1.
    10030    2    1    2    0    0  0.00000000000E+00  0.00000000000E+00 -0.10014549369E+04  0.22355427788E+04  0.19986844487E+04 0.  0.
        1    1    3    3  502    0  0.25833644469E+03 -0.32936025896E+03 -0.15157188957E+04  0.15724565716E+04  0.50400001928E-02 0.  1.
       -1    1    3    3    0  502 -0.25833644469E+03  0.32936025896E+03  0.51426395883E+03  0.66308620723E+03  0.50400001928E-02 0. -1.
</event>
<event>
 5   0  0.2093980E-05  0.1995603E+04  0.7818609E-02  0.8608679E-01
       -1   -1    0    0    0  501  0.00000000000E+00  0.00000000000E+00  0.55378179984E+03  0.55378179986E+03  0.50400001928E-02 0.  1.
        1   -1    0    0  501    0  0.00000000000E+00  0.00000000000E+00 -0.17978350471E+04  0.17978350471E+04  0.50400001928E-02 0. -1.
    10030    2    1    2    0    0  0.00000000000E+00  0.00000000000E+00 -0.12440532473E+04  0.23516168470E+04  0.19956034959E+04 0.  0.
        2    1    3    3  502    0  0.30283646764E+03 -0.85824300712E+02  0.49374509131E+03  0.58554244246E+03  0.25500000920E-02 0.  1.
       -2    1    3    3    0  502 -0.30283646764E+03  0.85824300712E+02 -0.17377983386E+04  0.17660744045E+04  0.25500000920E-02 0. -1.
</event>
<event>
 5   0  0.4447313E-05  0.2002272E+04  0.7818609E-02  0.8605559E-01
       -2   -1    0    0    0  501  0.00000000000E+00  0.00000000000E+00  0.98738363803E+03  0.98738363803E+03  0.25500000920E-02 0. -1.
        2   -1    0    0  501    0  0.00000000000E+00  0.00000000000E+00 -0.10150798215E+04  0.10150798215E+04  0.25500000920E-02 0.  1.
    10030    2    1    2    0    0  0.00000000000E+00  0.00000000000E+00 -0.27696183491E+02  0.20024634596E+04  0.20022719167E+04 0.  0.
        5    1    3    3  502    0  0.40217917545E+03  0.29077283981E+03 -0.88338752374E+03  0.10132583780E+04  0.46999998093E+01 0.  1.
       -5    1    3    3    0  502 -0.40217917545E+03 -0.29077283981E+03  0.85569134025E+03  0.98920508153E+03  0.46999998093E+01 0. -1.
</event>
<event>
 5   0  0.2007644E-05  0.2007801E+04  0.7818609E-02  0.8602982E-01
       -1   -1    0    0    0  501  0.00000000000E+00  0.00000000000E+00  0.95081605802E+03  0.95081605804E+03  0.50400001928E-02 0.  1.
        1   -1    0    0  501    0  0.00000000000E+00  0.00000000000E+00 -0.10599481724E+04  0.10599481724E+04  0.50400001928E-02 0. -1.
    10030    2    1    2    0    0  0.00000000000E+00  0.00000000000E+00 -0.10913211439E+03  0.20107642305E+04  0.20078005310E+04 0.  0.
        1    1    3    3  502    0 -0.40331535443E+03  0.75221083010E+03 -0.58386425427E+03  0.10341092183E+04  0.50400001928E-02 0. -1.
       -1    1    3    3    0  502  0.40331535443E+03 -0.75221083010E+03  0.47473213987E+03  0.97665501211E+03  0.50400001928E-02 0.  1.
</event>
<event>
 5   0  0.4412054E-05  0.1996775E+04  0.7818609E-02  0.8608130E-01
        2   -1    0    0  501    0  0.00000000000E+00  0.00000000000E+00  0.77621155226E+03  0.77621155226E+03  0.25500000920E-02 0. -1.
       -2   -1    0    0    0  501  0.00000000000E+00  0.00000000000E+00 -0.12841572893E+04  0.12841572893E+04  0.25500000920E-02 0.  1.
    10030    2    1    2    0    0  0.00000000000E+00  0.00000000000E+00 -0.50794573706E+03  0.20603688416E+04  0.19967751229E+04 0.  0.
        4    1    3    3  502    0 -0.32870032322E+03 -0.77745063881E+03 -0.80415479193E+03  0.11658215732E+04  0.12699999809E+01 0.  1.
       -4    1    3    3    0  502  0.32870032322E+03  0.77745063881E+03  0.29620905487E+03  0.89454726838E+03  0.12699999809E+01 0. -1.
</event>
<event>
 5   0  0.1601500E-05  0.1922280E+04  0.7818609E-02  0.8643845E-01
        3   -1    0    0  501    0  0.00000000000E+00  0.00000000000E+00  0.12377387147E+04  0.12377387188E+04  0.10100000352E+00 0. -1.
       -3   -1    0    0    0  501  0.00000000000E+00  0.00000000000E+00 -0.74635278527E+03  0.74635279211E+03  0.10100000352E+00 0.  1.
    10030    2    1    2    0    0  0.00000000000E+00  0.00000000000E+00  0.49138592939E+03  0.19840915109E+04  0.19222796342E+04 0.  0.
        2    1    3    3  502    0  0.77559134595E+03 -0.37358305917E+03  0.68685162360E+03  0.11013044043E+04  0.25500000920E-02 0. -1.
       -2    1    3    3    0  502 -0.77559134595E+03  0.37358305917E+03 -0.19546569420E+03  0.88278710663E+03  0.25500000920E-02 0.  1.
</event>
<event>
 5   0  0.4514680E-05  0.2011832E+04  0.7818609E-02  0.8601109E-01
       -2   -1    0    0    0  501  0.00000000000E+00  0.00000000000E+00  0.59784813823E+03  0.59784813823E+03  0.25500000920E-02 0. -1.
        2   -1    0    0  501    0  0.00000000000E+00  0.00000000000E+00 -0.16925156743E+04  0.16925156743E+04  0.25500000920E-02 0.  1.
    10030    2    1    2    0    0  0.00000000000E+00  0.00000000000E+00 -0.10946675361E+04  0.22903638126E+04  0.20118323437E+04 0.  0.
        3    1    3    3  502    0 -0.42393871676E+03  0.89869928439E+03 -0.36920089399E+03  0.10600442206E+04  0.10100000352E+00 0. -1.
       -3    1    3    3    0  502  0.42393871676E+03 -0.89869928439E+03 -0.72546664213E+03  0.12303195920E+04  0.10100000352E+00 0.  1.
</event>
<event>
 5   0  0.4514680E-05  0.1948790E+04  0.7818609E-02  0.8630944E-01
       -2   -1    0    0    0  501  0.00000000000E+00  0.00000000000E+00  0.53040374013E+03  0.53040374014E+03  0.25500000920E-02 0.  1.
        2   -1    0    0  501    0  0.00000000000E+00  0.00000000000E+00 -0.17900434910E+04  0.17900434910E+04  0.25500000920E-02 0. -1.
    10030    2    1    2    0    0  0.00000000000E+00  0.00000000000E+00 -0.12596397509E+04  0.23204472312E+04  0.19487901505E+04 0.  0.
        3    1    3    3  502    0 -0.71300432404E+03 -0.44553531729E+03 -0.12162606395E+04  0.14785691862E+04  0.10100000352E+00 0. -1.
       -3    1    3    3    0  502  0.71300432404E+03  0.44553531729E+03 -0.43379111382E+02  0.84187804494E+03  0.10100000352E+00 0.  1.
</event>
<event>
 5   0  0.2142551E-05  0.1998451E+04  0.7818609E-02  0.8607345E-01
        1   -1    0    0  501    0  0.00000000000E+00  0.00000000000E+00  0.11434721067E+04  0.11434721067E+04  0.50400001928E-02 0.  1.
       -1   -1    0    0    0  501  0.00000000000E+00  0.00000000000E+00 -0.87317540551E+03  0.87317540553E+03  0.50400001928E-02 0. -1.
    10030    2    1    2    0    0  0.00000000000E+00  0.00000000000E+00  0.27029670118E+03  0.20166475122E+04  0.19984511207E+04 0.  0.
        3    1    3    3  502    0  0.42398300383E+03 -0.24874050732E+03  0.10130225228E+04  0.11259875974E+04  0.10100000352E+00 0.  1.
       -3    1    3    3    0  502 -0.42398300383E+03  0.24874050732E+03 -0.74272582166E+03  0.89065991483E+03  0.10100000352E+00 0. -1.
</event>
<event>
 5   0  0.4473361E-05  0.1999680E+04  0.7818609E-02  0.8606770E-01
       -2   -1    0    0    0  501  0.00000000000E+00  0.00000000000E+00  0.92094493499E+03  0.92094493499E+03  0.25500000920E-02 0. -1.
        2   -1    0    0  501    0  0.00000000000E+00  0.00000000000E+00 -0.10854934543E+04  0.10854934543E+04  0.25500000920E-02 0.  1.
    10030    2    1    2    0    0  0.00000000000E+00  0.00000000000E+00 -0.16454851933E+03  0.20064383893E+04  0.19996796731E+04 0.  0.
        2    1    3    3  502    0  0.72102260623E+03  0.48445545836E+03 -0.57903244688E+03  0.10439584591E+04  0.25500000920E-02 0.  1.
       -2    1    3    3    0  502 -0.72102260623E+03 -0.48445545836E+03  0.41448392754E+03  0.96247993020E+03  0.25500000920E-02 0. -1.
</event>
<event>
 5   0  0.4412054E-05  0.1995930E+04  0.7818609E-02  0.8608526E-01
       -2   -1    0    0    0  501  0.00000000000E+00  0.00000000000E+00  0.56075595611E+03  0.56075595612E+03  0.25500000920E-02 0.  1.
        2   -1    0    0  501    0  0.00000000000E+00  0.00000000000E+00 -0.17760569312E+04  0.17760569312E+04  0.25500000920E-02 0. -1.
    10030    2    1    2    0    0  0.00000000000E+00  0.00000000000E+00 -0.12153009751E+04  0.23368128873E+04  0.19959303621E+04 0.  0.
        4    1    3    3  502    0 -0.84359926443E+03  0.24782443881E+03 -0.54948619258E+02  0.88096403734E+03  0.12699999809E+01 0. -1.
       -4    1    3    3    0  502  0.84359926443E+03 -0.24782443881E+03 -0.11603523559E+04  0.14558488500E+04  0.12699999809E+01 0.  1.
</event>
<event>
 5   0  0.4412054E-05  0.2006376E+04  0.7818609E-02  0.8603645E-01
       -2   -1    0    0    0  501  0.00000000000E+00  0.00000000000E+00  0.13357409913E+04  0.13357409913E+04  0.25500000920E-02 0. -1.
        2   -1    0    0  501    0  0.00000000000E+00  0.00000000000E+00 -0.75342929696E+03  0.75342929696E+03  0.25500000920E-02 0.  1.
    10030    2    1    2    0    0  0.00000000000E+00  0.00000000000E+00  0.58231169437E+03  0.20891702883E+04  0.20063762319E+04 0.  0.
        4    1    3    3  502    0 -0.70131041145E+03 -0.15999698746E+03  0.10192599010E+04  0.12475286321E+04  0.12699999809E+01 0. -1.
       -4    1    3    3    0  502  0.70131041145E+03  0.15999698746E+03 -0.43694820666E+03  0.84164165617E+03  0.12699999809E+01 0.  1.
</event>
<event>
 5   0  0.2110896E-05  0.1999844E+04  0.7818609E-02  0.8606693E-01
       -1   -1    0    0    0  501  0.00000000000E+00  0.00000000000E+00  0.72465415599E+03  0.72465415600E+03  0.50400001928E-02 0. -1.
        1   -1    0    0  501    0  0.00000000000E+00  0.00000000000E+00 -0.13797540104E+04  0.13797540104E+04  0.50400001928E-02 0.  1.
    10030    2    1    2    0    0  0.00000000000E+00  0.00000000000E+00 -0.65509985441E+03  0.21044081664E+04  0.19998444719E+04 0.  0.
        4    1    3    3  502    0 -0.85657646468E+03  0.21870905434E+03  0.16408946465E+03  0.89915730304E+03  0.12699999809E+01 0. -1.
       -4    1    3    3    0  502  0.85657646468E+03 -0.21870905434E+03 -0.81918931906E+03  0.12052508634E+04  0.12699999809E+01 0.  1.
</event>
<event>
 5   0  0.2142551E-05  0.2033023E+04  0.7818609E-02  0.8591335E-01
        1   -1    0    0  501    0  0.00000000000E+00  0.00000000000E+00  0.18926011121E+04  0.18926011121E+04  0.50400001928E-02 0.  1.
       -1   -1    0    0    0  501  0.00000000000E+00  0.00000000000E+00 -0.54596573721E+03  0.54596573723E+03  0.50400001928E-02 0. -1.
    10030    2    1    2    0    0  0.00000000000E+00  0.00000000000E+00  0.13466353749E+04  0.24385668494E+04  0.20330227362E+04 0.  0.
        3    1    3    3  502    0 -0.36047239195E+03  0.74653384166E+03 -0.32279726634E+02  0.82963553025E+03  0.10100000352E+00 0. -1.
       -3    1    3    3    0  502  0.36047239195E+03 -0.74653384166E+03  0.13789151015E+04  0.16089313191E+04  0.10100000352E+00 0.  1.
</event>
<event>
 5   0  0.2007644E-05  0.2002799E+04  0.7818609E-02  0.8605313E-01
       -1   -1    0    0    0  501  0.00000000000E+00  0.00000000000E+00  0.20369953122E+04  0.20369953122E+04  0.50400001928E-02 0.  1.
        1   -1    0    0  501    0  0.00000000000E+00  0.00000000000E+00 -0.49229415926E+03  0.49229415928E+03  0.50400001928E-02 0. -1.
    10030    2    1    2    0    0  0.00000000000E+00  0.00000000000E+00  0.15447011529E+04  0.25292894715E+04  0.20027989361E+04 0.  0.
        1    1    3    3  502    0  0.66457066373E+03  0.16001528998E+03 -0.15183223111E+03  0.70022288348E+03  0.50400001928E-02 0. -1.
       -1    1    3    3    0  502 -0.66457066373E+03 -0.16001528998E+03  0.16965333840E+04  0.18290665880E+04  0.50400001928E-02 0.  1.
</event>
<event>
 5   0  0.2110896E-05  0.2006410E+04  0.7818609E-02  0.8603630E-01
        1   -1    0    0  501    0  0.00000000000E+00  0.00000000000E+00  0.81036237981E+03  0.81036237983E+03  0.50400001928E-02 0.  1.
       -1   -1    0    0    0  501  0.00000000000E+00  0.00000000000E+00 -0.12419381025E+04  0.12419381025E+04  0.50400001928E-02 0. -1.
    10030    2    1    2    0    0  0.00000000000E+00  0.00000000000E+00 -0.43157572264E+03  0.20523004823E+04  0.20064096454E+04 0.  0.
        4    1    3    3  502    0 -0.51795821761E+02 -0.93334413660E+02  0.80453627052E+03  0.81158754513E+03  0.12699999809E+01 0.  1.
       -4    1    3    3    0  502  0.51795821761E+02  0.93334413660E+02 -0.12361119932E+04  0.12407129372E+04  0.12699999809E+01 0. -1.
</event>
<event>
 5   0  0.2007644E-05  0.1997463E+04  0.7818609E-02  0.8607808E-01
        1   -1    0    0  501    0  0.00000000000E+00  0.00000000000E+00  0.83287600977E+03  0.83287600978E+03  0.50400001928E-02 0.  1.
       -1   -1    0    0    0  501  0.00000000000E+00  0.00000000000E+00 -0.11976147635E+04  0.11976147635E+04  0.50400001928E-02 0. -1.
    10030    2    1    2    0    0  0.00000000000E+00  0.00000000000E+00 -0.36473875374E+03  0.20304907733E+04  0.19974629964E+04 0.  0.
        1    1    3    3  502    0  0.23635419584E+03 -0.85759958344E+03 -0.64388544526E+03  0.10981479035E+04  0.50400001928E-02 0. -1.
       -1    1    3    3    0  502 -0.23635419584E+03  0.85759958344E+03  0.27914669152E+03  0.93234286977E+03  0.50400001928E-02 0.  1.
</event>
<event>
 5   0  0.4473361E-05  0.2000893E+04  0.7818609E-02  0.8606203E-01
       -2   -1    0    0    0  501  0.00000000000E+00  0.00000000000E+00  0.54266882978E+03  0.54266882978E+03  0.25500000920E-02 0.  1.
        2   -1    0    0  501    0  0.00000000000E+00  0.00000000000E+00 -0.18443903134E+04  0.18443903134E+04  0.25500000920E-02 0. -1.
    10030    2    1    2    0    0  0.00000000000E+00  0.00000000000E+00 -0.13017214837E+04  0.23870591432E+04  0.20008929337E+04 0.  0.
        2    1    3    3  502    0  0.78680099179E+03 -0.20234029640E+03  0.45685757680E+02  0.81368580220E+03  0.25500000920E-02 0.  1.
       -2    1    3    3    0  502 -0.78680099179E+03  0.20234029640E+03 -0.13474072413E+04  0.15733733410E+04  0.25500000920E-02 0. -1.
</event>
<event>
 5   0  0.2110896E-05  0.1993587E+04  0.7818609E-02  0.8609625E-01
       -1   -1    0    0    0  501  0.00000000000E+00  0.00000000000E+00  0.58317332968E+03  0.58317332970E+03  0.50400001928E-02 0. -1.
        1   -1    0    0  501    0  0.00000000000E+00  0.00000000000E+00 -0.17037771966E+04  0.17037771966E+04  0.50400001928E-02 0.  1.
    10030    2    1    2    0    0  0.00000000000E+00  0.00000000000E+00 -0.11206038670E+04  0.22869505263E+04  0.19935871396E+04 0.  0.
        4    1    3    3  502    0 -0.23896175507E+03 -0.40289568615E+03 -0.15696459138E+04  0.16380529789E+04  0.12699999809E+01 0.  1.
       -4    1    3    3    0  502  0.23896175507E+03  0.40289568615E+03  0.44904204682E+03  0.64889754739E+03  0.12699999809E+01 0. -1.
</event>
<event>
 5   0  0.4473361E-05  0.1999988E+04  0.7818609E-02  0.8606626E-01
        2   -1    0    0  501    0  0.00000000000E+00  0.00000000000E+00  0.16188539247E+04  0.16188539247E+04  0.25500000920E-02 0.  1.
       -2   -1    0    0    0  501  0.00000000000E+00  0.00000000000E+00 -0.61771350112E+03  0.61771350112E+03  0.25500000920E-02 0. -1.
    10030    2    1    2    0    0  0.00000000000E+00  0.00000000000E+00  0.10011404236E+04  0.22365674258E+04  0.19999879256E+04 0.  0.
        2    1    3    3  502    0  0.41548857368E+03  0.84833823922E+03  0.13360834161E+03  0.95402290954E+03  0.25500000920E-02 0. -1.
       -2    1    3    3    0  502 -0.41548857368E+03 -0.84833823922E+03  0.86753208197E+03  0.12825445163E+04  0.25500000920E-02 0.  1.
</event>
<event>
 5   0  0.2007644E-05  0.1989754E+04  0.7818609E-02  0.8611426E-01
        1   -1    0    0  501    0  0.00000000000E+00  0.00000000000E+00  0.78805105654E+03  0.78805105655E+03  0.50400001928E-02 0.  1.
       -1   -1    0    0    0  501  0.00000000000E+00  0.00000000000E+00 -0.12559843261E+04  0.12559843261E+04  0.50400001928E-02 0. -1.
    10030    2    1    2    0    0  0.00000000000E+00  0.00000000000E+00 -0.46793326954E+03  0.20440353826E+04  0.19897535276E+04 0.  0.
        1    1    3    3  502    0  0.81792691480E+03  0.41470771684E+02  0.34629285537E+03  0.88918108648E+03  0.50400001928E-02 0.  1.
       -1    1    3    3    0  502 -0.81792691480E+03 -0.41470771684E+02 -0.81422612491E+03  0.11548542962E+04  0.50400001928E-02 0. -1.
</event>
<event>
 5   0  0.2142551E-05  0.2005161E+04  0.7818609E-02  0.8604212E-01
        1   -1    0    0  501    0  0.00000000000E+00  0.00000000000E+00  0.63046868381E+03  0.63046868383E+03  0.50400001928E-02 0. -1.
       -1   -1    0    0    0  501  0.00000000000E+00  0.00000000000E+00 -0.15943179519E+04  0.15943179519E+04  0.50400001928E-02 0.  1.
    10030    2    1    2    0    0  0.00000000000E+00  0.00000000000E+00 -0.96384926808E+03  0.22247866357E+04  0.20051608820E+04 0.  0.
        3    1    3    3  502    0 -0.20569004129E+03 -0.96645237053E+03 -0.29353648542E+03  0.10307775008E+04  0.10100000352E+00 0. -1.
       -3    1    3    3    0  502  0.20569004129E+03  0.96645237053E+03 -0.67031278266E+03  0.11940091350E+04  0.10100000352E+00 0.  1.
</event>
<event>
 5   0  0.4473361E-05  0.1993435E+04  0.7818609E-02  0.8609696E-01
       -2   -1    0    0    0  501  0.00000000000E+00  0.00000000000E+00  0.70715722481E+03  0.70715722481E+03  0.25500000920E-02 0. -1.
        2   -1    0    0  501    0  0.00000000000E+00  0.00000000000E+00 -0.14048449219E+04  0.14048449219E+04  0.25500000920E-02 0.  1.
    10030    2    1    2    0    0  0.00000000000E+00  0.00000000000E+00 -0.69768769709E+03  0.21120021467E+04  0.19934354630E+04 0.  0.
        2    1    3    3  502    0 -0.15965528567E+03  0.52895263732E+03  0.53005447066E+03  0.76566209560E+03  0.25500000920E-02 0. -1.
       -2    1    3    3    0  502  0.15965528567E+03 -0.52895263732E+03 -0.12277421677E+04  0.13463400511E+04  0.25500000920E-02 0.  1.
</event>
<event>
 5   0  0.4577279E-05  0.2003315E+04  0.7818609E-02  0.8605072E-01
       -2   -1    0    0    0  501  0.00000000000E+00  0.00000000000E+00  0.82244478798E+03  0.82244478798E+03  0.25500000920E-02 0. -1.
        2   -1    0    0  501    0  0.00000000000E+00  0.00000000000E+00 -0.12199208729E+04  0.12199208729E+04  0.25500000920E-02 0.  1.
    10030    2    1    2    0    0  0.00000000000E+00  0.00000000000E+00 -0.39747608493E+03  0.20423656609E+04  0.20033148167E+04 0.  0.
        1    1    3    3  502    0  0.46359198851E+03 -0.41965715559E+03  0.59900336774E+03  0.86592995943E+03  0.50400001928E-02 0. -1.
       -1    1    3    3    0  502 -0.46359198851E+03  0.41965715559E+03 -0.99647945267E+03  0.11764357015E+04  0.50400001928E-02 0.  1.
</event>
<event>
 5   0  0.4447313E-05  0.1999470E+04  0.7818609E-02  0.8606869E-01
        2   -1    0    0  501    0  0.00000000000E+00  0.00000000000E+00  0.63509390507E+03  0.63509390508E+03  0.25500000920E-02 0. -1.
       -2   -1    0    0    0  501  0.00000000000E+00  0.00000000000E+00 -0.15737356800E+04  0.15737356800E+04  0.25500000920E-02 0.  1.
    10030    2    1    2    0    0  0.00000000000E+00  0.00000000000E+00 -0.93864177497E+03  0.22088295851E+04  0.19994698683E+04 0.  0.
        5    1    3    3  502    0  0.54818884885E+03  0.53781874155E+03  0.23776778761E+03  0.80393757444E+03  0.46999998093E+01 0. -1.
       -5    1    3    3    0  502 -0.54818884885E+03 -0.53781874155E+03 -0.11764095626E+04  0.14048920107E+04  0.46999998093E+01 0.  1.
</event>
<event>
 5   0  0.2110896E-05  0.1987864E+04  0.7818609E-02  0.8612316E-01
        1   -1    0    0  501    0  0.00000000000E+00  0.00000000000E+00  0.97443208307E+03  0.97443208308E+03  0.50400001928E-02 0. -1.
       -1   -1    0    0    0  501  0.00000000000E+00  0.00000000000E+00 -0.10138224978E+04  0.10138224978E+04  0.50400001928E-02 0.  1.
    10030    2    1    2    0    0  0.00000000000E+00  0.00000000000E+00 -0.39390414766E+02  0.19882545809E+04  0.19878643499E+04 0.  0.
        4    1    3    3  502    0  0.52276723918E+03  0.84207545002E+03 -0.94026050475E+02  0.99559990004E+03  0.12699999809E+01 0.  1.
       -4    1    3    3    0  502 -0.52276723918E+03 -0.84207545002E+03  0.54635635709E+02  0.99265468088E+03  0.12699999809E+01 0. -1.
</event>
<event>
 5   0  0.2007644E-05  0.1998317E+04  0.7818609E-02  0.8607408E-01
        1   -1    0    0  501    0  0.00000000000E+00  0.00000000000E+00  0.10468960831E+04  0.10468960831E+04  0.50400001928E-02 0.  1.
       -1   -1    0    0    0  501  0.00000000000E+00  0.00000000000E+00 -0.95359745653E+03  0.95359745654E+03  0.50400001928E-02 0. -1.
    10030    2    1    2    0    0  0.00000000000E+00  0.00000000000E+00  0.93298626567E+02  0.20004935397E+04  0.19983167338E+04 0.  0.
        1    1    3    3  502    0  0.93166600336E+03 -0.29344449833E+03 -0.16383248775E+03  0.99043036074E+03  0.50400001928E-02 0. -1.
       -1    1    3    3    0  502 -0.93166600336E+03  0.29344449833E+03  0.25713111432E+03  0.10100631789E+04  0.50400001928E-02 0.  1.
</event>
<event>
 5   0  0.2142551E-05  0.1996154E+04  0.7818609E-02  0.8608421E-01
       -1   -1    0    0    0  501  0.00000000000E+00  0.00000000000E+00  0.68149066201E+03  0.68149066203E+03  0.50400001928E-02 0.  1.
        1   -1    0    0  501    0  0.00000000000E+00  0.00000000000E+00 -0.14617341309E+04  0.14617341310E+04  0.50400001928E-02 0. -1.
    10030    2    1    2    0    0  0.00000000000E+00  0.00000000000E+00 -0.78024346893E+03  0.21432247930E+04  0.19961544636E+04 0.  0.
        3    1    3    3  502    0 -0.89598715317E+03  0.26598220933E+03 -0.76609054716E+03  0.12084842783E+04  0.10100000352E+00 0.  1.
       -3    1    3    3    0  502  0.89598715317E+03 -0.26598220933E+03 -0.14152921773E+02  0.93474051465E+03  0.10100000352E+00 0. -1.
</event>
<event>
 5   0  0.4514680E-05  0.1999333E+04  0.7818609E-02  0.8606933E-01
        2   -1    0    0  501    0  0.00000000000E+00  0.00000000000E+00  0.10755451343E+04  0.10755451343E+04  0.25500000920E-02 0.  1.
       -2   -1    0    0    0  501  0.00000000000E+00  0.00000000000E+00 -0.92914075961E+03  0.92914075961E+03  0.25500000920E-02 0. -1.
    10030    2    1    2    0    0  0.00000000000E+00  0.00000000000E+00  0.14640437468E+03  0.20046858939E+04  0.19993327118E+04 0.  0.
        3    1    3    3  502    0 -0.32768460304E+02  0.35317381722E+03 -0.86392708303E+03  0.93390338480E+03  0.10100000352E+00 0. -1.
       -3    1    3    3    0  502  0.32768460304E+02 -0.35317381722E+03  0.10103314577E+04  0.10707825091E+04  0.10100000352E+00 0.  1.
</event>
<event>
 5   0  0.4473361E-05  0.2000517E+04  0.7818609E-02  0.8606379E-01
       -2   -1    0    0    0  501  0.00000000000E+00  0.00000000000E+00  0.41235626228E+03  0.41235626229E+03  0.25500000920E-02 0.  1.
        2   -1    0    0  501    0  0.00000000000E+00  0.00000000000E+00 -0.24263423978E+04  0.24263423978E+04  0.25500000920E-02 0. -1.
    10030    2    1    2    0    0  0.00000000000E+00  0.00000000000E+00 -0.20139861355E+04  0.28386986601E+04  0.20005174152E+04 0.  0.
        2    1    3    3  502    0 -0.70819757559E+03  0.68354940928E+03 -0.75421548769E+03  0.12400099205E+04  0.25500000920E-02 0.  1.
       -2    1    3    3    0  502  0.70819757559E+03 -0.68354940928E+03 -0.12597706478E+04  0.15986887396E+04  0.25500000920E-02 0. -1.
</event>
<event>
 5   0  0.2093980E-05  0.2002610E+04  0.7818609E-02  0.8605401E-01
        1   -1    0    0  501    0  0.00000000000E+00  0.00000000000E+00  0.56422467173E+03  0.56422467175E+03  0.50400001928E-02 0. -1.
       -1   -1    0    0    0  501  0.00000000000E+00  0.00000000000E+00 -0.17769730311E+04  0.17769730311E+04  0.50400001928E-02 0.  1.
    10030    2    1    2    0    0  0.00000000000E+00  0.00000000000E+00 -0.12127483594E+04  0.23411977029E+04  0.20026103217E+04 0.  0.
        2    1    3    3  502    0  0.15509895768E+03  0.30209739764E+03 -0.17075972199E+04  0.17410361254E+04  0.25500000920E-02 0.  1.
       -2    1    3    3    0  502 -0.15509895768E+03 -0.30209739764E+03  0.49484886054E+03  0.60016157751E+03  0.25500000920E-02 0. -1.
</event>
<event>
 5   0  0.2093980E-05  0.1992229E+04  0.7818609E-02  0.8610262E-01
       -1   -1    0    0    0  501  0.00000000000E+00  0.00000000000E+00  0.14418775038E+04  0.14418775039E+04  0.50400001928E-02 0. -1.
        1   -1    0    0  501    0  0.00000000000E+00  0.00000000000E+00 -0.68816117102E+03  0.68816117104E+03  0.50400001928E-02 0.  1.
    10030    2    1    2    0    0  0.00000000000E+00  0.00000000000E+00  0.75371633283E+03  0.21300386749E+04  0.19922290145E+04 0.  0.
        2    1    3    3  502    0 -0.59137527235E+03  0.52303861016E+03  0.10262876360E+04  0.12948206101E+04  0.25500000920E-02 0.  1.
       -2    1    3    3    0  502  0.59137527235E+03 -0.52303861016E+03 -0.27257130318E+03  0.83521806482E+03  0.25500000920E-02 0. -1.
</event>
<event>
 5   0  0.4412054E-05  0.1999692E+04  0.7818609E-02  0.8606765E-01
        2   -1    0    0  501    0  0.00000000000E+00  0.00000000000E+00  0.16479850137E+04  0.16479850137E+04  0.25500000920E-02 0.  1.
       -2   -1    0    0    0  501  0.00000000000E+00  0.00000000000E+00 -0.60661459198E+03  0.60661459198E+03  0.25500000920E-02 0. -1.
    10030    2    1    2    0    0  0.00000000000E+00  0.00000000000E+00  0.10413704217E+04  0.22545996057E+04  0.19996917329E+04 0.  0.
        4    1    3    3  502    0  0.65357906990E+03 -0.73624481630E+03  0.32388336887E+03  0.10363995753E+04  0.12699999809E+01 0. -1.
       -4    1    3    3    0  502 -0.65357906990E+03  0.73624481630E+03  0.71748705287E+03  0.12182000304E+04  0.12699999809E+01 0.  1.
</event>
<event>
 5   0  0.2142551E-05  0.1996953E+04  0.7818609E-02  0.8608046E-01
       -1   -1    0    0    0  501  0.00000000000E+00  0.00000000000E+00  0.43141868948E+03  0.43141868951E+03  0.50400001928E-02 0.  1.
        1   -1    0    0  501    0  0.00000000000E+00  0.00000000000E+00 -0.23108773856E+04  0.23108773856E+04  0.50400001928E-02 0. -1.
    10030    2    1    2    0    0  0.00000000000E+00  0.00000000000E+00 -0.18794586961E+04  0.27422960751E+04  0.19969533728E+04 0.  0.
        3    1    3    3  502    0 -0.77748997681E+03  0.44424358354E+03 -0.15463108186E+04  0.17868744174E+04  0.10100000352E+00 0. -1.
       -3    1    3    3    0  502  0.77748997681E+03 -0.44424358354E+03 -0.33314787750E+03  0.95542165772E+03  0.10100000352E+00 0.  1.
</event>
<event>
 5   0  0.4577279E-05  0.2002459E+04  0.7818609E-02  0.8605472E-01
       -2   -1    0    0    0  501  0.00000000000E+00  0.00000000000E+00  0.12894924444E+04  0.12894924444E+04  0.25500000920E-02 0. -1.
        2   -1    0    0  501    0  0.00000000000E+00  0.00000000000E+00 -0.77740671420E+03  0.77740671421E+03  0.25500000920E-02 0.  1.
    10030    2    1    2    0    0  0.00000000000E+00  0.00000000000E+00  0.51208573021E+03  0.20668991586E+04  0.20024585731E+04 0.  0.
        1    1    3    3  502    0  0.99561221758E+03  0.88803300199E+01  0.36497356932E+03  0.10604377654E+04  0.50400001928E-02 0. -1.
       -1    1    3    3    0  502 -0.99561221758E+03 -0.88803300199E+01  0.14711216090E+03  0.10064613932E+04  0.50400001928E-02 0.  1.
</event>
<event>
 5   0  0.2093980E-05  0.2005673E+04  0.7818609E-02  0.8603973E-01
        1   -1    0    0  501    0  0.00000000000E+00  0.00000000000E+00  0.13681147907E+04  0.13681147907E+04  0.50400001928E-02 0.  1.
       -1   -1    0    0    0  501  0.00000000000E+00  0.00000000000E+00 -0.73508515981E+03  0.73508515983E+03  0.50400001928E-02 0. -1.
    10030    2    1    2    0    0  0.00000000000E+00  0.00000000000E+00  0.63302963090E+03  0.21031999505E+04  0.20056728343E+04 0.  0.
        2    1    3    3  502    0 -0.37761202986E+03  0.48008617132E+03 -0.51752651250E+03  0.80056684176E+03  0.25500000920E-02 0. -1.
       -2    1    3    3    0  502  0.37761202986E+03 -0.48008617132E+03  0.11505561434E+04  0.13026331088E+04  0.25500000920E-02 0.  1.
</event>
<event>
 5   0  0.2110896E-05  0.1997758E+04  0.7818609E-02  0.8607670E-01
        1   -1    0    0  501    0  0.00000000000E+00  0.00000000000E+00  0.17682085319E+04  0.17682085319E+04  0.50400001928E-02 0. -1.
       -1   -1    0    0    0  501  0.00000000000E+00  0.00000000000E+00 -0.56427694735E+03  0.56427694737E+03  0.50400001928E-02 0.  1.
    10030    2    1    2    0    0  0.00000000000E+00  0.00000000000E+00  0.12039315846E+04  0.23324854793E+04  0.19977580561E+04 0.  0.
        4    1    3    3  502    0 -0.21383849007E+03 -0.14999067382E+03 -0.52369775912E+03  0.58522222948E+03  0.12699999809E+01 0.  1.
       -4    1    3    3    0  502  0.21383849007E+03  0.14999067382E+03  0.17276293437E+04  0.17472632498E+04  0.12699999809E+01 0. -1.
</event>
<event>
 5   0  0.4412054E-05  0.1988514E+04  0.7818609E-02  0.8612010E-01
        2   -1    0    0  501    0  0.00000000000E+00  0.00000000000E+00  0.13599644399E+04  0.13599644399E+04  0.25500000920E-02 0. -1.
       -2   -1    0    0    0  501  0.00000000000E+00  0.00000000000E+00 -0.72689194598E+03  0.72689194598E+03  0.25500000920E-02 0.  1.
    10030    2    1    2    0    0  0.00000000000E+00  0.00000000000E+00  0.63307249394E+03  0.20868563859E+04  0.19885142174E+04 0.  0.
        4    1    3    3  502    0  0.34363163131E+03  0.63617272348E+03  0.10327439154E+04  0.12606982351E+04  0.12699999809E+01 0. -1.
       -4    1    3    3    0  502 -0.34363163131E+03 -0.63617272348E+03 -0.39967142149E+03  0.82615815084E+03  0.12699999809E+01 0.  1.
</event>
<event>
 5   0  0.4473361E-05  0.1986772E+04  0.7818609E-02  0.8612830E-01
        2   -1    0    0  501    0  0.00000000000E+00  0.00000000000E+00  0.90236274264E+03  0.90236274265E+03  0.25500000920E-02 0.  1.
       -2   -1    0    0    0  501  0.00000000000E+00  0.00000000000E+00 -0.10935907000E+04  0.10935907000E+04  0.25500000920E-02 0. -1.
    10030    2    1    2    0    0  0.00000000000E+00  0.00000000000E+00 -0.19122795738E+03  0.19959534427E+04  0.19867717568E+04 0.  0.
        2    1    3    3  502    0 -0.23997986780E+03 -0.71019566235E+03  0.55920137533E+03  0.93524028674E+03  0.25500000920E-02 0.  1.
       -2    1    3    3    0  502  0.23997986780E+03  0.71019566235E+03 -0.75042933271E+03  0.10607131559E+04  0.25500000920E-02 0. -1.
</event>
<event>
 5   0  0.2256868E-05  0.1997901E+04  0.7818609E-02  0.8607603E-01
       -1   -1    0    0    0  501  0.00000000000E+00  0.00000000000E+00  0.37157110045E+03  0.37157110048E+03  0.50400001928E-02 0. -1.
        1   -1    0    0  501    0  0.00000000000E+00  0.00000000000E+00 -0.26856278112E+04  0.26856278112E+04  0.50400001928E-02 0.  1.
    10030    2    1    2    0    0  0.00000000000E+00  0.00000000000E+00 -0.23140567107E+04  0.30571989117E+04  0.19979005794E+04 0.  0.
        5    1    3    3  502    0  0.95880245676E+03 -0.26010133250E+03 -0.99708900835E+03  0.14075380758E+04  0.46999998093E+01 0. -1.
       -5    1    3    3    0  502 -0.95880245676E+03  0.26010133250E+03 -0.13169677024E+04  0.16496608359E+04  0.46999998093E+01 0.  1.
</event>
<event>
 5   0  0.4447313E-05  0.1995167E+04  0.7818609E-02  0.8608883E-01
       -2   -1    0    0    0  501  0.00000000000E+00  0.00000000000E+00  0.26083690348E+04  0.26083690348E+04  0.25500000920E-02 0.  1.
        2   -1    0    0  501    0  0.00000000000E+00  0.00000000000E+00 -0.38153080900E+03  0.38153080901E+03  0.25500000920E-02 0. -1.
    10030    2    1    2    0    0  0.00000000000E+00  0.00000000000E+00  0.22268382258E+04  0.29898998438E+04  0.19951673093E+04 0.  0.
        5    1    3    3  502    0 -0.76265270419E+03  0.19314811996E+03  0.20325767802E+04  0.21795265084E+04  0.46999998093E+01 0.  1.
       -5    1    3    3    0  502  0.76265270419E+03 -0.19314811996E+03  0.19426144558E+03  0.81037333537E+03  0.46999998093E+01 0. -1.
</event>
<event>
 5   0  0.4473361E-05  0.2002248E+04  0.7818609E-02  0.8605570E-01
       -2   -1    0    0    0  501  0.00000000000E+00  0.00000000000E+00  0.10401926783E+04  0.10401926783E+04  0.25500000920E-02 0.  1.
        2   -1    0    0  501    0  0.00000000000E+00  0.00000000000E+00 -0.96352295779E+03  0.96352295779E+03  0.25500000920E-02 0. -1.
    10030    2    1    2    0    0  0.00000000000E+00  0.00000000000E+00  0.76669720557E+02  0.20037156361E+04  0.20022482624E+04 0.  0.
        2    1    3    3  502    0 -0.83628546731E+03  0.14252074121E+03  0.57029190247E+03  0.10222125017E+04  0.25500000920E-02 0.  1.
       -2    1    3    3    0  502  0.83628546731E+03 -0.14252074121E+03 -0.49362218191E+03  0.98150313448E+03  0.25500000920E-02 0. -1.
</event>
<event>
 5   0  0.1601500E-05  0.2004965E+04  0.7818609E-02  0.8604303E-01
        4   -1    0    0  501    0  0.00000000000E+00  0.00000000000E+00  0.11012767932E+04  0.11012775255E+04  0.12699999809E+01 0. -1.
       -4   -1    0    0    0  501  0.00000000000E+00  0.00000000000E+00 -0.91254969550E+03  0.91255057923E+03  0.12699999809E+01 0.  1.
    10030    2    1    2    0    0  0.00000000000E+00  0.00000000000E+00  0.18872709768E+03  0.20138281047E+04  0.20049652660E+04 0.  0.
        4    1    3    3  502    0 -0.19599471951E+02  0.70353324914E+03  0.81140061623E+03  0.10741116073E+04  0.12699999809E+01 0. -1.
       -4    1    3    3    0  502  0.19599471951E+02 -0.70353324914E+03 -0.62267351855E+03  0.93971649743E+03  0.12699999809E+01 0.  1.
</event>
<event>
 5   0  0.2142551E-05  0.1996866E+04  0.7818609E-02  0.8608087E-01
       -1   -1    0    0    0  501  0.00000000000E+00  0.00000000000E+00  0.73036289897E+03  0.73036289898E+03  0.50400001928E-02 0. -1.
        1   -1    0    0  501    0  0.00000000000E+00  0.00000000000E+00 -0.13648951676E+04  0.13648951676E+04  0.50400001928E-02 0.  1.
    10030    2    1    2    0    0  0.00000000000E+00  0.00000000000E+00 -0.63453226867E+03  0.20952580666E+04  0.19968663365E+04 0.  0.
        3    1    3    3  502    0 -0.73060692495E+03 -0.50622179847E+02  0.39478737470E+03  0.83198928197E+03  0.10100000352E+00 0. -1.
       -3    1    3    3    0  502  0.73060692495E+03  0.50622179847E+02 -0.10293196434E+04  0.12632687847E+04  0.10100000352E+00 0.  1.
</event>
<event>
 5   0  0.4577279E-05  0.1995296E+04  0.7818609E-02  0.8608823E-01
        2   -1    0    0  501    0  0.00000000000E+00  0.00000000000E+00  0.95970549281E+03  0.95970549281E+03  0.25500000920E-02 0.  1.
       -2   -1    0    0    0  501  0.00000000000E+00  0.00000000000E+00 -0.10370901346E+04  0.10370901346E+04  0.25500000920E-02 0. -1.
    10030    2    1    2    0    0  0.00000000000E+00  0.00000000000E+00 -0.77384641834E+02  0.19967956275E+04  0.19952955658E+04 0.  0.
        1    1    3    3  502    0 -0.66282530091E+03 -0.20000280794E+03  0.68015306454E+03  0.97053938299E+03  0.50400001928E-02 0. -1.
       -1    1    3    3    0  502  0.66282530091E+03  0.20000280794E+03 -0.75753770637E+03  0.10262562445E+04  0.50400001928E-02 0.  1.
</event>
<event>
 5   0  0.2142551E-05  0.2007507E+04  0.7818609E-02  0.8603119E-01
       -1   -1    0    0    0  501  0.00000000000E+00  0.00000000000E+00  0.85760608584E+03  0.85760608585E+03  0.50400001928E-02 0. -1.
        1   -1    0    0  501    0  0.00000000000E+00  0.00000000000E+00 -0.11748058135E+04  0.11748058135E+04  0.50400001928E-02 0.  1.
    10030    2    1    2    0    0  0.00000000000E+00  0.00000000000E+00 -0.31719972767E+03  0.20324118994E+04  0.20075065284E+04 0.  0.
        3    1    3    3  502    0  0.16527076130E+03 -0.98743508856E+03 -0.23145179871E+03  0.10275759943E+04  0.10100000352E+00 0. -1.
       -3    1    3    3    0  502 -0.16527076130E+03  0.98743508856E+03 -0.85747928960E+02  0.10048359051E+04  0.10100000352E+00 0.  1.
</event>
<event>
 5   0  0.4473361E-05  0.1998061E+04  0.7818609E-02  0.8607528E-01
        2   -1    0    0  501    0  0.00000000000E+00  0.00000000000E+00  0.26089787831E+04  0.26089787831E+04  0.25500000920E-02 0.  1.
       -2   -1    0    0    0  501  0.00000000000E+00  0.00000000000E+00 -0.38254886410E+03  0.38254886411E+03  0.25500000920E-02 0. -1.
    10030    2    1    2    0    0  0.00000000000E+00  0.00000000000E+00  0.22264299190E+04  0.29915276472E+04  0.19980609299E+04 0.  0.
        2    1    3    3  502    0  0.44102223381E+03  0.37299917389E+03  0.23336364584E+04  0.24040565955E+04  0.25500000920E-02 0.  1.
       -2    1    3    3    0  502 -0.44102223381E+03 -0.37299917389E+03 -0.10720653944E+03  0.58747105166E+03  0.25500000920E-02 0. -1.
</event>
<event>
 5   0  0.4514680E-05  0.2000015E+04  0.7818609E-02  0.8606613E-01
        2   -1    0    0  501    0  0.00000000000E+00  0.00000000000E+00  0.67250989542E+03  0.67250989542E+03  0.25500000920E-02 0. -1.
       -2   -1    0    0    0  501  0.00000000000E+00  0.00000000000E+00 -0.14869899583E+04  0.14869899583E+04  0.25500000920E-02 0.  1.
    10030    2    1    2    0    0  0.00000000000E+00  0.00000000000E+00 -0.81448006291E+03  0.21594998538E+04  0.20000154613E+04 0.  0.
        3    1    3    3  502    0 -0.72378311903E+03  0.48966945177E+03  0.11771570704E+03  0.88175686743E+03  0.10100000352E+00 0. -1.
       -3    1    3    3    0  502  0.72378311903E+03 -0.48966945177E+03 -0.93219576994E+03  0.12777429863E+04  0.10100000352E+00 0.  1.
</event>
<event>
 5   0  0.4577279E-05  0.1992317E+04  0.7818609E-02  0.8610221E-01
        2   -1    0    0  501    0  0.00000000000E+00  0.00000000000E+00  0.78159142512E+03  0.78159142513E+03  0.25500000920E-02 0.  1.
       -2   -1    0    0    0  501  0.00000000000E+00  0.00000000000E+00 -0.12696296204E+04  0.12696296204E+04  0.25500000920E-02 0. -1.
    10030    2    1    2    0    0  0.00000000000E+00  0.00000000000E+00 -0.48803819527E+03  0.20512210455E+04  0.19923168668E+04 0.  0.
        1    1    3    3  502    0  0.81992053652E+03  0.28631573943E+02 -0.82573934473E+03  0.11640167175E+04  0.50400001928E-02 0. -1.
       -1    1    3    3    0  502 -0.81992053652E+03 -0.28631573943E+02  0.33770114946E+03  0.88720432799E+03  0.50400001928E-02 0.  1.
</event>
<event>
 5   0  0.4447313E-05  0.1997521E+04  0.7818609E-02  0.8607780E-01
       -2   -1    0    0    0  501  0.00000000000E+00  0.00000000000E+00  0.15334147022E+04  0.15334147022E+04  0.25500000920E-02 0.  1.
        2   -1    0    0  501    0  0.00000000000E+00  0.00000000000E+00 -0.65052380348E+03  0.65052380349E+03  0.25500000920E-02 0. -1.
    10030    2    1    2    0    0  0.00000000000E+00  0.00000000000E+00  0.88289089868E+03  0.21839385056E+04  0.19975212283E+04 0.  0.
        5    1    3    3  502    0  0.36712774134E+03 -0.87244082860E+03  0.93011216140E+02  0.95110932821E+03  0.46999998093E+01 0.  1.
       -5    1    3    3    0  502 -0.36712774134E+03  0.87244082860E+03  0.78987968254E+03  0.12328291774E+04  0.46999998093E+01 0. -1.
</event>
<event>
 5   0  0.2110896E-05  0.2000225E+04  0.7818609E-02  0.8606515E-01
        1   -1    0    0  501    0  0.00000000000E+00  0.00000000000E+00  0.86756554452E+03  0.86756554454E+03  0.50400001928E-02 0. -1.
       -1   -1    0    0    0  501  0.00000000000E+00  0.00000000000E+00 -0.11529101475E+04  0.11529101475E+04  0.50400001928E-02 0.  1.
    10030    2    1    2    0    0  0.00000000000E+00  0.00000000000E+00 -0.28534460299E+03  0.20204756921E+04  0.20002251073E+04 0.  0.
        4    1    3    3  502    0  0.92751624254E+03 -0.19085434769E+03  0.18231737847E+03  0.96434070826E+03  0.12699999809E+01 0.  1.
       -4    1    3    3    0  502 -0.92751624254E+03  0.19085434769E+03 -0.46766198146E+03  0.10561349838E+04  0.12699999809E+01 0. -1.
</event>
<event>
 5   0  0.2256868E-05  0.2007810E+04  0.7818609E-02  0.8602978E-01
       -1   -1    0    0    0  501  0.00000000000E+00  0.00000000000E+00  0.58412053906E+03  0.58412053908E+03  0.50400001928E-02 0. -1.
        1   -1    0    0  501    0  0.00000000000E+00  0.00000000000E+00 -0.17253714524E+04  0.17253714524E+04  0.50400001928E-02 0.  1.
    10030    2    1    2    0    0  0.00000000000E+00  0.00000000000E+00 -0.11412509134E+04  0.23094919915E+04  0.20078096552E+04 0.  0.
        5    1    3    3  502    0 -0.38076523124E+03  0.92878119145E+03 -0.58631915954E+03  0.11625011440E+04  0.46999998093E+01 0.  1.
       -5    1    3    3    0  502  0.38076523124E+03 -0.92878119145E+03 -0.55493175383E+03  0.11469908475E+04  0.46999998093E+01 0. -1.
</event>
<event>
 5   0  0.4412054E-05  0.1993254E+04  0.7818609E-02  0.8609781E-01
        2   -1    0    0  501    0  0.00000000000E+00  0.00000000000E+00  0.11907372511E+04  0.11907372511E+04  0.25500000920E-02 0. -1.
       -2   -1    0    0    0  501  0.00000000000E+00  0.00000000000E+00 -0.83415965037E+03  0.83415965038E+03  0.25500000920E-02 0.  1.
    10030    2    1    2    0    0  0.00000000000E+00  0.00000000000E+00  0.35657760073E+03  0.20248969015E+04  0.19932535906E+04 0.  0.
        4    1    3    3  502    0  0.17669725324E+03  0.24527542571E+03  0.11430394429E+04  0.11823378259E+04  0.12699999809E+01 0. -1.
       -4    1    3    3    0  502 -0.17669725324E+03 -0.24527542571E+03 -0.78646184214E+03  0.84255907556E+03  0.12699999809E+01 0.  1.
</event>
<event>
 5   0  0.2110896E-05  0.1999185E+04  0.7818609E-02  0.8607002E-01
        1   -1    0    0  501    0  0.00000000000E+00  0.00000000000E+00  0.20616964450E+04  0.20616964450E+04  0.50400001928E-02 0. -1.
       -1   -1    0    0    0  501  0.00000000000E+00  0.00000000000E+00 -0.48464217948E+03  0.48464217951E+03  0.50400001928E-02 0.  1.
    10030    2    1    2    0    0  0.00000000000E+00  0.00000000000E+00  0.15770542656E+04  0.25463386246E+04  0.19991848925E+04 0.  0.
        4    1    3    3  502    0 -0.94959737965E+03  0.21693283463E+03  0.50261768084E+03  0.10960936019E+04  0.12699999809E+01 0.  1.
       -4    1    3    3    0  502  0.94959737965E+03 -0.21693283463E+03  0.10744365847E+04  0.14502450226E+04  0.12699999809E+01 0. -1.
</event>
<event>
 5   0  0.2007644E-05  0.1990265E+04  0.7818609E-02  0.8611185E-01
       -1   -1    0    0    0  501  0.00000000000E+00  0.00000000000E+00  0.92064440227E+03  0.92064440229E+03  0.50400001928E-02 0. -1.
        1   -1    0    0  501    0  0.00000000000E+00  0.00000000000E+00 -0.10756477513E+04  0.10756477514E+04  0.50400001928E-02 0.  1.
    10030    2    1    2    0    0  0.00000000000E+00  0.00000000000E+00 -0.15500334907E+03  0.19962921536E+04  0.19902653905E+04 0.  0.
        1    1    3    3  502    0 -0.13627753535E+02 -0.89379678807E+03  0.36112180810E+03  0.96408888301E+03  0.50400001928E-02 0. -1.
       -1    1    3    3    0  502  0.13627753535E+02  0.89379678807E+03 -0.51612515717E+03  0.10322032706E+04  0.50400001928E-02 0.  1.
</event>
<event>
 5   0  0.4577279E-05  0.1994396E+04  0.7818609E-02  0.8609245E-01
        2   -1    0    0  501    0  0.00000000000E+00  0.00000000000E+00  0.11102878948E+04  0.11102878948E+04  0.25500000920E-02 0.  1.
       -2   -1    0    0    0  501  0.00000000000E+00  0.00000000000E+00 -0.89562723989E+03  0.89562723989E+03  0.25500000920E-02 0. -1.
    10030    2    1    2    0    0  0.00000000000E+00  0.00000000000E+00  0.21466065492E+03  0.20059151347E+04  0.19943962322E+04 0.  0.
        1    1    3    3  502    0 -0.50449883151E+03  0.85997456820E+03  0.12556661651E+03  0.10049091024E+04  0.50400001928E-02 0.  1.
       -1    1    3    3    0  502  0.50449883151E+03 -0.85997456820E+03  0.89094038414E+02  0.10010060323E+04  0.50400001928E-02 0. -1.
</event>
<event>
 5   0  0.2256868E-05  0.2000739E+04  0.7818609E-02  0.8606275E-01
        1   -1    0    0  501    0  0.00000000000E+00  0.00000000000E+00  0.85173352808E+03  0.85173352809E+03  0.50400001928E-02 0. -1.
       -1   -1    0    0    0  501  0.00000000000E+00  0.00000000000E+00 -0.11749441665E+04  0.11749441665E+04  0.50400001928E-02 0.  1.
    10030    2    1    2    0    0  0.00000000000E+00  0.00000000000E+00 -0.32321063842E+03  0.20266776946E+04  0.20007392037E+04 0.  0.
        5    1    3    3  502    0  0.18679145367E+03 -0.97939330469E+03 -0.24399214026E+03  0.10264777382E+04  0.46999998093E+01 0. -1.
       -5    1    3    3    0  502 -0.18679145367E+03  0.97939330469E+03 -0.79218498168E+02  0.10001999564E+04  0.46999998093E+01 0.  1.
</event>
<event>
 5   0  0.4412054E-05  0.2003644E+04  0.7818609E-02  0.8604919E-01
        2   -1    0    0  501    0  0.00000000000E+00  0.00000000000E+00  0.11525944043E+04  0.11525944043E+04  0.25500000920E-02 0.  1.
       -2   -1    0    0    0  501  0.00000000000E+00  0.00000000000E+00 -0.87077213913E+03  0.87077213913E+03  0.25500000920E-02 0. -1.
    10030    2    1    2    0    0  0.00000000000E+00  0.00000000000E+00  0.28182226518E+03  0.20233665434E+04  0.20036437757E+04 0.  0.
        4    1    3    3  502    0  0.19953060649E+03  0.15353195183E+03 -0.83830431253E+03  0.87529438275E+03  0.12699999809E+01 0. -1.
       -4    1    3    3    0  502 -0.19953060649E+03 -0.15353195183E+03  0.11201265777E+04  0.11480721607E+04  0.12699999809E+01 0.  1.
</event>
<event>
 5   0  0.4577279E-05  0.2001490E+04  0.7818609E-02  0.8605925E-01
        2   -1    0    0  501    0  0.00000000000E+00  0.00000000000E+00  0.15081439084E+04  0.15081439084E+04  0.25500000920E-02 0. -1.
       -2   -1    0    0    0  501  0.00000000000E+00  0.00000000000E+00 -0.66405470875E+03  0.66405470876E+03  0.25500000920E-02 0.  1.
    10030    2    1    2    0    0  0.00000000000E+00  0.00000000000E+00  0.84408919964E+03  0.21721986171E+04  0.20014895092E+04 0.  0.
        1    1    3    3  502    0 -0.46437888219E+03  0.15330692872E+03 -0.52554518481E+03  0.71787777645E+03  0.50400001928E-02 0.  1.
       -1    1    3    3    0  502  0.46437888219E+03 -0.15330692872E+03  0.13696343844E+04  0.14543208407E+04  0.50400001928E-02 0. -1.
</event>
<event>
 5   0  0.4514680E-05  0.2010245E+04  0.7818609E-02  0.8601846E-01
       -2   -1    0    0    0  501  0.00000000000E+00  0.00000000000E+00  0.65855573667E+03  0.65855573668E+03  0.25500000920E-02 0. -1.
        2   -1    0    0  501    0  0.00000000000E+00  0.00000000000E+00 -0.15340707676E+04  0.15340707676E+04  0.25500000920E-02 0.  1.
    10030    2    1    2    0    0  0.00000000000E+00  0.00000000000E+00 -0.87551503094E+03  0.21926265043E+04  0.20102448652E+04 0.  0.
        3    1    3    3  502    0 -0.10115071803E+03  0.46504320755E+03  0.52787358925E+03  0.71073707450E+03  0.10100000352E+00 0. -1.
       -3    1    3    3    0  502  0.10115071803E+03 -0.46504320755E+03 -0.14033886202E+04  0.14818894298E+04  0.10100000352E+00 0.  1.
</event>
<event>
 5   0  0.4473361E-05  0.1984864E+04  0.7818609E-02  0.8613730E-01
        2   -1    0    0  501    0  0.00000000000E+00  0.00000000000E+00  0.92635457023E+03  0.92635457023E+03  0.25500000920E-02 0. -1.
       -2   -1    0    0    0  501  0.00000000000E+00  0.00000000000E+00 -0.10632232233E+04  0.10632232233E+04  0.25500000920E-02 0.  1.
    10030    2    1    2    0    0  0.00000000000E+00  0.00000000000E+00 -0.13686865309E+03  0.19895777935E+04  0.19848644207E+04 0.  0.
        2    1    3    3  502    0  0.35248167302E+03  0.43898376171E+02 -0.99732324213E+03  0.10586897782E+04  0.25500000920E-02 0.  1.
       -2    1    3    3    0  502 -0.35248167302E+03 -0.43898376171E+02  0.86045458904E+03  0.93088801531E+03  0.25500000920E-02 0. -1.
</event>
<event>
 5   0  0.4577279E-05  0.2007139E+04  0.7818609E-02  0.8603290E-01
       -2   -1    0    0    0  501  0.00000000000E+00  0.00000000000E+00  0.65041594684E+03  0.65041594685E+03  0.25500000920E-02 0. -1.
        2   -1    0    0  501    0  0.00000000000E+00  0.00000000000E+00 -0.15484733144E+04  0.15484733145E+04  0.25500000920E-02 0.  1.
    10030    2    1    2    0    0  0.00000000000E+00  0.00000000000E+00 -0.89805736760E+03  0.21988892613E+04  0.20071389957E+04 0.  0.
        1    1    3    3  502    0 -0.16337339317E+03 -0.40898380138E+03  0.53889354603E+03  0.69596326725E+03  0.50400001928E-02 0. -1.
       -1    1    3    3    0  502  0.16337339317E+03  0.40898380138E+03 -0.14369509136E+04  0.15029259941E+04  0.50400001928E-02 0.  1.
</event>
<event>
 5   0  0.4447313E-05  0.1995920E+04  0.7818609E-02  0.8608530E-01
       -2   -1    0    0    0  501  0.00000000000E+00  0.00000000000E+00  0.72499603499E+03  0.72499603500E+03  0.25500000920E-02 0. -1.
        2   -1    0    0  501    0  0.00000000000E+00  0.00000000000E+00 -0.13736964665E+04  0.13736964665E+04  0.25500000920E-02 0.  1.
    10030    2    1    2    0    0  0.00000000000E+00  0.00000000000E+00 -0.64870043148E+03  0.20986925015E+04  0.19959203306E+04 0.  0.
        5    1    3    3  502    0 -0.88268085792E+03  0.58244841222E+02  0.16137090194E+03  0.89921110783E+03  0.46999998093E+01 0. -1.
       -5    1    3    3    0  502  0.88268085792E+03 -0.58244841222E+02 -0.81007133342E+03  0.11994813936E+04  0.46999998093E+01 0.  1.
</event>
<event>
 5   0  0.4473361E-05  0.1996763E+04  0.7818609E-02  0.8608136E-01
        2   -1    0    0  501    0  0.00000000000E+00  0.00000000000E+00  0.11951856763E+04  0.11951856763E+04  0.25500000920E-02 0.  1.
       -2   -1    0    0    0  501  0.00000000000E+00  0.00000000000E+00 -0.83398354608E+03  0.83398354609E+03  0.25500000920E-02 0. -1.
    10030    2    1    2    0    0  0.00000000000E+00  0.00000000000E+00  0.36120213023E+03  0.20291692224E+04  0.19967625683E+04 0.  0.
        2    1    3    3  502    0  0.19409851121E+01 -0.92033381753E+03 -0.21265101543E+03  0.94458380120E+03  0.25500000920E-02 0. -1.
       -2    1    3    3    0  502 -0.19409851121E+01  0.92033381753E+03  0.57385314566E+03  0.10845854212E+04  0.25500000920E-02 0.  1.
</event>
<event>
 5   0  0.2142551E-05  0.1996702E+04  0.7818609E-02  0.8608164E-01
       -1   -1    0    0    0  501  0.00000000000E+00  0.00000000000E+00  0.70360431690E+03  0.70360431692E+03  0.50400001928E-02 0.  1.
        1   -1    0    0  501    0  0.00000000000E+00  0.00000000000E+00 -0.14165704117E+04  0.14165704117E+04  0.50400001928E-02 0. -1.
    10030    2    1    2    0    0  0.00000000000E+00  0.00000000000E+00 -0.71296609478E+03  0.21201747286E+04  0.19967023382E+04 0.  0.
        3    1    3    3  502    0  0.90590594775E+03  0.23014407078E+02  0.88362256079E+02  0.91049609972E+03  0.10100000352E+00 0.  1.
       -3    1    3    3    0  502 -0.90590594775E+03 -0.23014407078E+02 -0.80132835086E+03  0.12096786289E+04  0.10100000352E+00 0. -1.
</event>
<event>
 5   0  0.2007644E-05  0.2001626E+04  0.7818609E-02  0.8605861E-01
        1   -1    0    0  501    0  0.00000000000E+00  0.00000000000E+00  0.15635407803E+04  0.15635407803E+04  0.50400001928E-02 0. -1.
       -1   -1    0    0    0  501  0.00000000000E+00  0.00000000000E+00 -0.64061445690E+03  0.64061445692E+03  0.50400001928E-02 0.  1.
    10030    2    1    2    0    0  0.00000000000E+00  0.00000000000E+00  0.92292632335E+03  0.22041552372E+04  0.20016261667E+04 0.  0.
        1    1    3    3  502    0 -0.98483273986E+03  0.17755253286E+03  0.47728345147E+03  0.11087019079E+04  0.50400001928E-02 0. -1.
       -1    1    3    3    0  502  0.98483273986E+03 -0.17755253286E+03  0.44564287188E+03  0.10954533293E+04  0.50400001928E-02 0.  1.
</event>
<event>
 5   0  0.4473361E-05  0.1996615E+04  0.7818609E-02  0.8608205E-01
       -2   -1    0    0    0  501  0.00000000000E+00  0.00000000000E+00  0.46527177523E+03  0.46527177524E+03  0.25500000920E-02 0. -1.
        2   -1    0    0  501    0  0.00000000000E+00  0.00000000000E+00 -0.21420126879E+04  0.21420126879E+04  0.25500000920E-02 0.  1.
    10030    2    1    2    0    0  0.00000000000E+00  0.00000000000E+00 -0.16767409127E+04  0.26072844632E+04  0.19966151816E+04 0.  0.
        2    1    3    3  502    0  0.98661121369E+03  0.54006673297E+01 -0.10372170354E+04  0.14315201824E+04  0.25500000920E-02 0.  1.
       -2    1    3    3    0  502 -0.98661121369E+03 -0.54006673297E+01 -0.63952387730E+03  0.11757642807E+04  0.25500000920E-02 0. -1.
</event>
<event>
 5   0  0.4447313E-05  0.2068108E+04  0.7818609E-02  0.8575424E-01
       -2   -1    0    0    0  501  0.00000000000E+00  0.00000000000E+00  0.98716898011E+03  0.98716898012E+03  0.25500000920E-02 0.  1.
        2   -1    0    0  501    0  0.00000000000E+00  0.00000000000E+00 -0.10831659180E+04  0.10831659180E+04  0.25500000920E-02 0. -1.
    10030    2    1    2    0    0  0.00000000000E+00  0.00000000000E+00 -0.95996937896E+02  0.20703348981E+04  0.20681081157E+04 0.  0.
        5    1    3    3  502    0  0.62013455319E+03  0.82745043166E+03 -0.50151055864E+02  0.10352672598E+04  0.46999998093E+01 0.  1.
       -5    1    3    3    0  502 -0.62013455319E+03 -0.82745043166E+03 -0.45845882032E+02  0.10350676383E+04  0.46999998093E+01 0. -1.
</event>
<event>
 5   0  0.4447313E-05  0.1998393E+04  0.7818609E-02  0.8607372E-01
       -2   -1    0    0    0  501  0.00000000000E+00  0.00000000000E+00  0.42821247157E+03  0.42821247158E+03  0.25500000920E-02 0.  1.
        2   -1    0    0  501    0  0.00000000000E+00  0.00000000000E+00 -0.23315379085E+04  0.23315379085E+04  0.25500000920E-02 0. -1.
    10030    2    1    2    0    0  0.00000000000E+00  0.00000000000E+00 -0.19033254369E+04  0.27597503801E+04  0.19983929647E+04 0.  0.
        5    1    3    3  502    0 -0.14850948111E+03  0.74411251847E+03 -0.53902528698E+02  0.76071418991E+03  0.46999998093E+01 0.  1.
       -5    1    3    3    0  502  0.14850948111E+03 -0.74411251847E+03 -0.18494229082E+04  0.19990361902E+04  0.46999998093E+01 0. -1.
</event>
<event>
 5   0  0.2110896E-05  0.1999883E+04  0.7818609E-02  0.8606675E-01
       -1   -1    0    0    0  501  0.00000000000E+00  0.00000000000E+00  0.47428370167E+03  0.47428370169E+03  0.50400001928E-02 0. -1.
        1   -1    0    0  501    0  0.00000000000E+00  0.00000000000E+00 -0.21081959946E+04  0.21081959947E+04  0.50400001928E-02 0.  1.
    10030    2    1    2    0    0  0.00000000000E+00  0.00000000000E+00 -0.16339122930E+04  0.25824796963E+04  0.19998829968E+04 0.  0.
        4    1    3    3  502    0 -0.88711844104E+03  0.15554158915E+03 -0.13779120440E+04  0.16461517331E+04  0.12699999809E+01 0.  1.
       -4    1    3    3    0  502  0.88711844104E+03 -0.15554158915E+03 -0.25600024894E+03  0.93632796324E+03  0.12699999809E+01 0. -1.
</event>
<event>
 5   0  0.2256868E-05  0.1991917E+04  0.7818609E-02  0.8610409E-01
        1   -1    0    0  501    0  0.00000000000E+00  0.00000000000E+00  0.77683769546E+03  0.77683769548E+03  0.50400001928E-02 0.  1.
       -1   -1    0    0    0  501  0.00000000000E+00  0.00000000000E+00 -0.12768860332E+04  0.12768860332E+04  0.50400001928E-02 0. -1.
    10030    2    1    2    0    0  0.00000000000E+00  0.00000000000E+00 -0.50004833775E+03  0.20537237287E+04  0.19919168692E+04 0.  0.
        5    1    3    3  502    0 -0.36760244208E+02 -0.50687341022E+03 -0.11331285902E+04  0.12418834331E+04  0.46999998093E+01 0. -1.
       -5    1    3    3    0  502  0.36760244208E+02  0.50687341022E+03  0.63308025243E+03  0.81184029559E+03  0.46999998093E+01 0.  1.
</event>
<event>
 5   0  0.4577279E-05  0.1987645E+04  0.7818609E-02  0.8612419E-01
       -2   -1    0    0    0  501  0.00000000000E+00  0.00000000000E+00  0.33300368650E+03  0.33300368651E+03  0.25500000920E-02 0. -1.
        2   -1    0    0  501    0  0.00000000000E+00  0.00000000000E+00 -0.29659840021E+04  0.29659840021E+04  0.25500000920E-02 0.  1.
    10030    2    1    2    0    0  0.00000000000E+00  0.00000000000E+00 -0.26329803156E+04  0.32989876886E+04  0.19876454481E+04 0.  0.
        1    1    3    3  502    0 -0.33227448282E+03 -0.40017672544E+02  0.23666007220E+03  0.40989722596E+03  0.50400001928E-02 0. -1.
       -1    1    3    3    0  502  0.33227448282E+03  0.40017672544E+02 -0.28696403878E+04  0.28890904627E+04  0.50400001928E-02 0.  1.
</event>
<event>
 5   0  0.4412054E-05  0.1997180E+04  0.7818609E-02  0.8607940E-01
        2   -1    0    0  501    0  0.00000000000E+00  0.00000000000E+00  0.17796615494E+04  0.17796615494E+04  0.25500000920E-02 0.  1.
       -2   -1    0    0    0  501  0.00000000000E+00  0.00000000000E+00 -0.56032097811E+03  0.56032097812E+03  0.25500000920E-02 0. -1.
    10030    2    1    2    0    0  0.00000000000E+00  0.00000000000E+00  0.12193405713E+04  0.23399825276E+04  0.19971797116E+04 0.  0.
        4    1    3    3  502    0 -0.64677804572E+03  0.50523679572E+03 -0.56822905907E+02  0.82268858975E+03  0.12699999809E+01 0.  1.
       -4    1    3    3    0  502  0.64677804572E+03 -0.50523679572E+03  0.12761634772E+04  0.15172939378E+04  0.12699999809E+01 0. -1.
</event>
<event>
 5   0  0.4473361E-05  0.1998586E+04  0.7818609E-02  0.8607282E-01
       -2   -1    0    0    0  501  0.00000000000E+00  0.00000000000E+00  0.26882081854E+03  0.26882081855E+03  0.25500000920E-02 0. -1.
        2   -1    0    0  501    0  0.00000000000E+00  0.00000000000E+00 -0.37146914765E+04  0.37146914765E+04  0.25500000920E-02 0.  1.
    10030    2    1    2    0    0  0.00000000000E+00  0.00000000000E+00 -0.34458706580E+04  0.39835122951E+04  0.19985859034E+04 0.  0.
        2    1    3    3  502    0 -0.72763631776E+03 -0.57219270962E+03 -0.24732960499E+04  0.26408431340E+04  0.25500000920E-02 0.  1.
       -2    1    3    3    0  502  0.72763631776E+03  0.57219270962E+03 -0.97257460811E+03  0.13426691611E+04  0.25500000920E-02 0. -1.
</event>
<event>
 5   0  0.4473361E-05  0.1998197E+04  0.7818609E-02  0.8607464E-01
        2   -1    0    0  501    0  0.00000000000E+00  0.00000000000E+00  0.67293735426E+03  0.67293735427E+03  0.25500000920E-02 0.  1.
       -2   -1    0    0    0  501  0.00000000000E+00  0.00000000000E+00 -0.14833440007E+04  0.14833440007E+04  0.25500000920E-02 0. -1.
    10030    2    1    2    0    0  0.00000000000E+00  0.00000000000E+00 -0.81040664646E+03  0.21562813550E+04  0.19981967744E+04 0.  0.
        2    1    3    3  502    0  0.21739246617E+03  0.16657537631E+02  0.64695217324E+03  0.68270350253E+03  0.25500000920E-02 0.  1.
       -2    1    3    3    0  502 -0.21739246617E+03 -0.16657537631E+02 -0.14573588197E+04  0.14735778525E+04  0.25500000920E-02 0. -1.
</event>
<event>
 5   0  0.2093980E-05  0.1994671E+04  0.7818609E-02  0.8609116E-01
        1   -1    0    0  501    0  0.00000000000E+00  0.00000000000E+00  0.12873035993E+04  0.12873035993E+04  0.50400001928E-02 0.  1.
       -1   -1    0    0    0  501  0.00000000000E+00  0.00000000000E+00 -0.77268356729E+03  0.77268356731E+03  0.50400001928E-02 0. -1.
    10030    2    1    2    0    0  0.00000000000E+00  0.00000000000E+00  0.51462003200E+03  0.20599871666E+04  0.19946712384E+04 0.  0.
        2    1    3    3  502    0 -0.36200231587E+03  0.66132950783E+03  0.93158741210E+03  0.11984396109E+04  0.25500000920E-02 0.  1.
       -2    1    3    3    0  502  0.36200231587E+03 -0.66132950783E+03 -0.41696738011E+03  0.86154755568E+03  0.25500000920E-02 0. -1.
</event>
<event>
 5   0  0.2142551E-05  0.1998703E+04  0.7818609E-02  0.8607227E-01
        1   -1    0    0  501    0  0.00000000000E+00  0.00000000000E+00  0.23574258085E+04  0.23574258085E+04  0.50400001928E-02 0.  1.
       -1   -1    0    0    0  501  0.00000000000E+00  0.00000000000E+00 -0.42364145519E+03  0.42364145522E+03  0.50400001928E-02 0. -1.
    10030    2    1    2    0    0  0.00000000000E+00  0.00000000000E+00  0.19337843533E+04  0.27810672638E+04  0.19987028794E+04 0.  0.
        3    1    3    3  502    0 -0.58066183374E+03 -0.49778797823E+01 -0.16480849883E+03  0.60361808781E+03  0.10100000352E+00 0. -1.
       -3    1    3    3    0  502  0.58066183374E+03  0.49778797823E+01  0.20985928522E+04  0.21774491759E+04  0.10100000352E+00 0.  1.
</event>
<event>
 5   0  0.4447313E-05  0.2002190E+04  0.7818609E-02  0.8605597E-01
       -2   -1    0    0    0  501  0.00000000000E+00  0.00000000000E+00  0.53670855403E+03  0.53670855403E+03  0.25500000920E-02 0. -1.
        2   -1    0    0  501    0  0.00000000000E+00  0.00000000000E+00 -0.18672921178E+04  0.18672921178E+04  0.25500000920E-02 0.  1.
    10030    2    1    2    0    0  0.00000000000E+00  0.00000000000E+00 -0.13305835638E+04  0.24040006719E+04  0.20021904530E+04 0.  0.
        5    1    3    3  502    0  0.61111823780E+03  0.67588183255E+03 -0.16749539723E+03  0.92647641645E+03  0.46999998093E+01 0. -1.
       -5    1    3    3    0  502 -0.61111823780E+03 -0.67588183255E+03 -0.11630881666E+04  0.14775242554E+04  0.46999998093E+01 0.  1.
</event>
<event>
 5   0  0.4577279E-05  0.1998444E+04  0.7818609E-02  0.8607348E-01
        2   -1    0    0  501    0  0.00000000000E+00  0.00000000000E+00  0.20264699693E+04  0.20264699693E+04  0.25500000920E-02 0. -1.
       -2   -1    0    0    0  501  0.00000000000E+00  0.00000000000E+00 -0.49270144721E+03  0.49270144721E+03  0.25500000920E-02 0.  1.
    10030    2    1    2    0    0  0.00000000000E+00  0.00000000000E+00  0.15337685221E+04  0.25191714165E+04  0.19984440814E+04 0.  0.
        1    1    3    3  502    0  0.85032620248E+03  0.89157404651E+01  0.14283039866E+04  0.16622834954E+04  0.50400001928E-02 0. -1.
       -1    1    3    3    0  502 -0.85032620248E+03 -0.89157404651E+01  0.10546453552E+03  0.85688792110E+03  0.50400001928E-02 0.  1.
</event>
<event>
 5   0  0.2110896E-05  0.1989875E+04  0.7818609E-02  0.8611369E-01
        1   -1    0    0  501    0  0.00000000000E+00  0.00000000000E+00  0.97700734653E+03  0.97700734654E+03  0.50400001928E-02 0. -1.
       -1   -1    0    0    0  501  0.00000000000E+00  0.00000000000E+00 -0.10131970713E+04  0.10131970713E+04  0.50400001928E-02 0.  1.
    10030    2    1    2    0    0  0.00000000000E+00  0.00000000000E+00 -0.36189724806E+02  0.19902044179E+04  0.19898753551E+04 0.  0.
        4    1    3    3  502    0  0.52078818682E+03  0.11542985002E+03  0.82189816724E+03  0.97982783999E+03  0.12699999809E+01 0. -1.
       -4    1    3    3    0  502 -0.52078818682E+03 -0.11542985002E+03 -0.85808789205E+03  0.10103765779E+04  0.12699999809E+01 0.  1.
</event>
<event>
 5   0  0.2142551E-05  0.1991038E+04  0.7818609E-02  0.8610822E-01
       -1   -1    0    0    0  501  0.00000000000E+00  0.00000000000E+00  0.10430586876E+04  0.10430586876E+04  0.50400001928E-02 0. -1.
        1   -1    0    0  501    0  0.00000000000E+00  0.00000000000E+00 -0.95014602895E+03  0.95014602896E+03  0.50400001928E-02 0.  1.
    10030    2    1    2    0    0  0.00000000000E+00  0.00000000000E+00  0.92912658603E+02  0.19932047165E+04  0.19910379906E+04 0.  0.
        3    1    3    3  502    0 -0.42963002953E+03  0.12350351854E+03  0.93693148080E+03  0.10381115987E+04  0.10100000352E+00 0. -1.
       -3    1    3    3    0  502  0.42963002953E+03 -0.12350351854E+03 -0.84401882219E+03  0.95509311786E+03  0.10100000352E+00 0.  1.
</event>
<event>
 5   0  0.4447313E-05  0.1973563E+04  0.7818609E-02  0.8619082E-01
       -2   -1    0    0    0  501  0.00000000000E+00  0.00000000000E+00  0.96624374442E+03  0.96624374443E+03  0.25500000920E-02 0. -1.
        2   -1    0    0  501    0  0.00000000000E+00  0.00000000000E+00 -0.10077555384E+04  0.10077555384E+04  0.25500000920E-02 0.  1.
    10030    2    1    2    0    0  0.00000000000E+00  0.00000000000E+00 -0.41511793953E+02  0.19739992828E+04  0.19735627529E+04 0.  0.
        5    1    3    3  502    0 -0.76407291153E+03  0.82506557478E+02 -0.63984405111E+03  0.10000186228E+04  0.46999998093E+01 0.  1.
       -5    1    3    3    0  502  0.76407291153E+03 -0.82506557478E+02  0.59833225716E+03  0.97398066003E+03  0.46999998093E+01 0. -1.
</event>
<event>
 5   0  0.4447313E-05  0.1996739E+04  0.7818609E-02  0.8608147E-01
        2   -1    0    0  501    0  0.00000000000E+00  0.00000000000E+00  0.13204878450E+04  0.13204878450E+04  0.25500000920E-02 0. -1.
       -2   -1    0    0    0  501  0.00000000000E+00  0.00000000000E+00 -0.75482816915E+03  0.75482816915E+03  0.25500000920E-02 0.  1.
    10030    2    1    2    0    0  0.00000000000E+00  0.00000000000E+00  0.56565967582E+03  0.20753160141E+04  0.19967387635E+04 0.  0.
        5    1    3    3  502    0  0.76502356796E+03  0.54369037620E+03  0.63660551059E+03  0.11340850721E+04  0.46999998093E+01 0. -1.
       -5    1    3    3    0  502 -0.76502356796E+03 -0.54369037620E+03 -0.70945834769E+02  0.94123094200E+03  0.46999998093E+01 0.  1.
</event>
<event>
 5   0  0.4473361E-05  0.1993083E+04  0.7818609E-02  0.8609861E-01
        2   -1    0    0  501    0  0.00000000000E+00  0.00000000000E+00  0.13119916412E+04  0.13119916412E+04  0.25500000920E-02 0.  1.
       -2   -1    0    0    0  501  0.00000000000E+00  0.00000000000E+00 -0.75693730760E+03  0.75693730761E+03  0.25500000920E-02 0. -1.
    10030    2    1    2    0    0  0.00000000000E+00  0.00000000000E+00  0.55505433358E+03  0.20689289488E+04  0.19930834608E+04 0.  0.
        2    1    3    3  502    0 -0.20221064943E+03  0.63619702994E+03  0.10455889107E+04  0.12405208495E+04  0.25500000920E-02 0.  1.
       -2    1    3    3    0  502  0.20221064943E+03 -0.63619702994E+03 -0.49053457717E+03  0.82840809934E+03  0.25500000920E-02 0. -1.
</event>
<event>
 5   0  0.4412054E-05  0.2007720E+04  0.7818609E-02  0.8603020E-01
        2   -1    0    0  501    0  0.00000000000E+00  0.00000000000E+00  0.21133054403E+04  0.21133054403E+04  0.25500000920E-02 0. -1.
       -2   -1    0    0    0  501  0.00000000000E+00  0.00000000000E+00 -0.47685240157E+03  0.47685240157E+03  0.25500000920E-02 0.  1.
    10030    2    1    2    0    0  0.00000000000E+00  0.00000000000E+00  0.16364530388E+04  0.25901578419E+04  0.20077198754E+04 0.  0.
        4    1    3    3  502    0 -0.28545896824E+03  0.39620630907E+03 -0.31329191833E+03  0.58018936640E+03  0.12699999809E+01 0.  1.
       -4    1    3    3    0  502  0.28545896824E+03 -0.39620630907E+03  0.19497449571E+04  0.20099684755E+04  0.12699999809E+01 0. -1.
</event>
<event>
 5   0  0.2007644E-05  0.1994927E+04  0.7818609E-02  0.8608996E-01
        1   -1    0    0  501    0  0.00000000000E+00  0.00000000000E+00  0.17171700013E+04  0.17171700013E+04  0.50400001928E-02 0.  1.
       -1   -1    0    0    0  501  0.00000000000E+00  0.00000000000E+00 -0.57940294065E+03  0.57940294067E+03  0.50400001928E-02 0. -1.
    10030    2    1    2    0    0  0.00000000000E+00  0.00000000000E+00  0.11377670606E+04  0.22965729420E+04  0.19949269143E+04 0.  0.
        1    1    3    3  502    0  0.83458210102E+02  0.13128841534E+03 -0.56535082891E+03  0.58636463110E+03  0.50400001928E-02 0. -1.
       -1    1    3    3    0  502 -0.83458210102E+02 -0.13128841534E+03  0.17031178896E+04  0.17102083109E+04  0.50400001928E-02 0.  1.
</event>
<event>
 5   0  0.2007644E-05  0.2006725E+04  0.7818609E-02  0.8603483E-01
        1   -1    0    0  501    0  0.00000000000E+00  0.00000000000E+00  0.12618915055E+04  0.12618915056E+04  0.50400001928E-02 0. -1.
       -1   -1    0    0    0  501  0.00000000000E+00  0.00000000000E+00 -0.79779916106E+03  0.79779916107E+03  0.50400001928E-02 0.  1.
    10030    2    1    2    0    0  0.00000000000E+00  0.00000000000E+00  0.46409234449E+03  0.20596906666E+04  0.20067246792E+04 0.  0.
        1    1    3    3  502    0 -0.40313331308E+03 -0.84649971820E+03 -0.13467652560E+03  0.94721486876E+03  0.50400001928E-02 0. -1.
       -1    1    3    3    0  502  0.40313331308E+03  0.84649971820E+03  0.59876887009E+03  0.11124757979E+04  0.50400001928E-02 0.  1.
</event>
<event>
 5   0  0.2142551E-05  0.1996716E+04  0.7818609E-02  0.8608158E-01
       -1   -1    0    0    0  501  0.00000000000E+00  0.00000000000E+00  0.11346843482E+04  0.11346843482E+04  0.50400001928E-02 0. -1.
        1   -1    0    0  501    0  0.00000000000E+00  0.00000000000E+00 -0.87841024294E+03  0.87841024295E+03  0.50400001928E-02 0.  1.
    10030    2    1    2    0    0  0.00000000000E+00  0.00000000000E+00  0.25627410523E+03  0.20130945911E+04  0.19967156572E+04 0.  0.
        3    1    3    3  502    0 -0.56271782251E+03 -0.26622433409E+03 -0.65877267071E+03  0.90637088750E+03  0.10100000352E+00 0.  1.
       -3    1    3    3    0  502  0.56271782251E+03  0.26622433409E+03  0.91504677594E+03  0.11067237036E+04  0.10100000352E+00 0. -1.
</event>
<event>
 5   0  0.4577279E-05  0.1967856E+04  0.7818609E-02  0.8621798E-01
        2   -1    0    0  501    0  0.00000000000E+00  0.00000000000E+00  0.14121813411E+04  0.14121813411E+04  0.25500000920E-02 0. -1.
       -2   -1    0    0    0  501  0.00000000000E+00  0.00000000000E+00 -0.68554506815E+03  0.68554506816E+03  0.25500000920E-02 0.  1.
    10030    2    1    2    0    0  0.00000000000E+00  0.00000000000E+00  0.72663627297E+03  0.20977264093E+04  0.19678556388E+04 0.  0.
        1    1    3    3  502    0  0.58584221916E+03  0.40984925653E+03 -0.35725613675E+03  0.79926182575E+03  0.50400001928E-02 0.  1.
       -1    1    3    3    0  502 -0.58584221916E+03 -0.40984925653E+03  0.10838924097E+04  0.12984645835E+04  0.50400001928E-02 0. -1.
</event>
<event>
 5   0  0.1601500E-05  0.1998552E+04  0.7818609E-02  0.8607298E-01
        3   -1    0    0  501    0  0.00000000000E+00  0.00000000000E+00  0.13011042310E+04  0.13011042349E+04  0.10100000352E+00 0.  1.
       -3   -1    0    0    0  501  0.00000000000E+00  0.00000000000E+00 -0.76746532446E+03  0.76746533110E+03  0.10100000352E+00 0. -1.
    10030    2    1    2    0    0  0.00000000000E+00  0.00000000000E+00  0.53363890649E+03  0.20685695660E+04  0.19985518674E+04 0.  0.
        5    1    3    3  502    0 -0.54482327844E+03 -0.59044120490E+03 -0.34820087463E+03  0.87562501121E+03  0.46999998093E+01 0. -1.
       -5    1    3    3    0  502  0.54482327844E+03  0.59044120490E+03  0.88183978112E+03  0.11929445548E+04  0.46999998093E+01 0.  1.
</event>
<event>
 5   0  0.4412054E-05  0.2002349E+04  0.7818609E-02  0.8605523E-01
       -2   -1    0    0    0  501  0.00000000000E+00  0.00000000000E+00  0.75734384479E+03  0.75734384479E+03  0.25500000920E-02 0.  1.
        2   -1    0    0  501    0  0.00000000000E+00  0.00000000000E+00 -0.13235072465E+04  0.13235072465E+04  0.25500000920E-02 0. -1.
    10030    2    1    2    0    0  0.00000000000E+00  0.00000000000E+00 -0.56616340174E+03  0.20808510913E+04  0.20023486876E+04 0.  0.
        4    1    3    3  502    0 -0.15407696387E+03 -0.90691947794E+03  0.12751061714E+03  0.92871051499E+03  0.12699999809E+01 0.  1.
       -4    1    3    3    0  502  0.15407696387E+03  0.90691947794E+03 -0.69367401888E+03  0.11521405763E+04  0.12699999809E+01 0. -1.
</event>
<event>
 5   0  0.2110896E-05  0.1999534E+04  0.7818609E-02  0.8606839E-01
       -1   -1    0    0    0  501  0.00000000000E+00  0.00000000000E+00  0.11656202849E+04  0.11656202849E+04  0.50400001928E-02 0.  1.
        1   -1    0    0  501    0  0.00000000000E+00  0.00000000000E+00 -0.85751237568E+03  0.85751237570E+03  0.50400001928E-02 0. -1.
    10030    2    1    2    0    0  0.00000000000E+00  0.00000000000E+00  0.30810790918E+03  0.20231326606E+04  0.19995337653E+04 0.  0.
        4    1    3    3  502    0  0.24269408630E+03  0.96949461831E+03  0.18105167949E+03  0.10156778810E+04  0.12699999809E+01 0. -1.
       -4    1    3    3    0  502 -0.24269408630E+03 -0.96949461831E+03  0.12705622970E+03  0.10074547796E+04  0.12699999809E+01 0.  1.
</event>
<event>
 5   0  0.2256868E-05  0.2001685E+04  0.7818609E-02  0.8605833E-01
        1   -1    0    0  501    0  0.00000000000E+00  0.00000000000E+00  0.13765449708E+04  0.13765449708E+04  0.50400001928E-02 0.  1.
       -1   -1    0    0    0  501  0.00000000000E+00  0.00000000000E+00 -0.72768075980E+03  0.72768075982E+03  0.50400001928E-02 0. -1.
    10030    2    1    2    0    0  0.00000000000E+00  0.00000000000E+00  0.64886421104E+03  0.21042257307E+04  0.20016845809E+04 0.  0.
        5    1    3    3  502    0 -0.46779888811E+03  0.87808908705E+03  0.21030271171E+03  0.10169196453E+04  0.46999998093E+01 0.  1.
       -5    1    3    3    0  502  0.46779888811E+03 -0.87808908705E+03  0.43856149933E+03  0.10873060853E+04  0.46999998093E+01 0. -1.
</event>
<event>
 5   0  0.4577279E-05  0.2007306E+04  0.7818609E-02  0.8603213E-01
       -2   -1    0    0    0  501  0.00000000000E+00  0.00000000000E+00  0.10194755560E+04  0.10194755560E+04  0.25500000920E-02 0.  1.
        2   -1    0    0  501    0  0.00000000000E+00  0.00000000000E+00 -0.98807594441E+03  0.98807594441E+03  0.25500000920E-02 0. -1.
    10030    2    1    2    0    0  0.00000000000E+00  0.00000000000E+00  0.31399611592E+02  0.20075515004E+04  0.20073059287E+04 0.  0.
        1    1    3    3  502    0 -0.69720672854E+03 -0.69316746665E+03  0.21756828438E+03  0.10069331247E+04  0.50400001928E-02 0.  1.
       -1    1    3    3    0  502  0.69720672854E+03  0.69316746665E+03 -0.18616867279E+03  0.10006183758E+04  0.50400001928E-02 0. -1.
</event>
<event>
 5   0  0.2142551E-05  0.1995771E+04  0.7818609E-02  0.8608600E-01
       -1   -1    0    0    0  501  0.00000000000E+00  0.00000000000E+00  0.60727055175E+03  0.60727055177E+03  0.50400001928E-02 0.  1.
        1   -1    0    0  501    0  0.00000000000E+00  0.00000000000E+00 -0.16397563486E+04  0.16397563486E+04  0.50400001928E-02 0. -1.
    10030    2    1    2    0    0  0.00000000000E+00  0.00000000000E+00 -0.10324857969E+04  0.22470269004E+04  0.19957712721E+04 0.  0.
        3    1    3    3  502    0  0.94001787137E+03 -0.14606333281E+03 -0.17696256106E+03  0.96761761761E+03  0.10100000352E+00 0.  1.
       -3    1    3    3    0  502 -0.94001787137E+03  0.14606333281E+03 -0.85552323580E+03  0.12794092828E+04  0.10100000352E+00 0. -1.
</event>
<event>
 5   0  0.4473361E-05  0.1925622E+04  0.7818609E-02  0.8642207E-01
        2   -1    0    0  501    0  0.00000000000E+00  0.00000000000E+00  0.11100399298E+04  0.11100399298E+04  0.25500000920E-02 0. -1.
       -2   -1    0    0    0  501  0.00000000000E+00  0.00000000000E+00 -0.83510943500E+03  0.83510943500E+03  0.25500000920E-02 0.  1.
    10030    2    1    2    0    0  0.00000000000E+00  0.00000000000E+00  0.27493049484E+03  0.19451493648E+04  0.19256217891E+04 0.  0.
        2    1    3    3  502    0  0.20783651999E+03  0.68620960826E+02 -0.80964622044E+03  0.83870844611E+03  0.25500000920E-02 0.  1.
       -2    1    3    3    0  502 -0.20783651999E+03 -0.68620960826E+02  0.10845767153E+04  0.11064409187E+04  0.25500000920E-02 0. -1.
</event>
<event>
 5   0  0.4473361E-05  0.2012105E+04  0.7818609E-02  0.8600982E-01
        2   -1    0    0  501    0  0.00000000000E+00  0.00000000000E+00  0.12311837843E+04  0.12311837843E+04  0.25500000920E-02 0.  1.
       -2   -1    0    0    0  501  0.00000000000E+00  0.00000000000E+00 -0.82208835813E+03  0.82208835813E+03  0.25500000920E-02 0. -1.
    10030    2    1    2    0    0  0.00000000000E+00  0.00000000000E+00  0.40909542620E+03  0.20532721425E+04  0.20121052217E+04 0.  0.
        2    1    3    3  502    0  0.28495761837E+01  0.64376433697E+02  0.12290756650E+04  0.12307637611E+04  0.25500000920E-02 0.  1.
       -2    1    3    3    0  502 -0.28495761837E+01 -0.64376433697E+02 -0.81998023883E+03  0.82250838135E+03  0.25500000920E-02 0. -1.
</event>
<event>
 5   0  0.4412054E-05  0.1991198E+04  0.7818609E-02  0.8610747E-01
       -2   -1    0    0    0  501  0.00000000000E+00  0.00000000000E+00  0.11262420258E+04  0.11262420258E+04  0.25500000920E-02 0.  1.
        2   -1    0    0  501    0  0.00000000000E+00  0.00000000000E+00 -0.88011024819E+03  0.88011024819E+03  0.25500000920E-02 0. -1.
    10030    2    1    2    0    0  0.00000000000E+00  0.00000000000E+00  0.24613177757E+03  0.20063522740E+04  0.19911977790E+04 0.  0.
        4    1    3    3  502    0  0.11858784883E+03  0.38093522012E+03  0.10421708385E+04  0.11159284876E+04  0.12699999809E+01 0.  1.
       -4    1    3    3    0  502 -0.11858784883E+03 -0.38093522012E+03 -0.79603906097E+03  0.89042378636E+03  0.12699999809E+01 0. -1.
</event>
<event>
 5   0  0.4514680E-05  0.1999026E+04  0.7818609E-02  0.8607076E-01
       -2   -1    0    0    0  501  0.00000000000E+00  0.00000000000E+00  0.43137268219E+03  0.43137268220E+03  0.25500000920E-02 0. -1.
        2   -1    0    0  501    0  0.00000000000E+00  0.00000000000E+00 -0.23159232973E+04  0.23159232973E+04  0.25500000920E-02 0.  1.
    10030    2    1    2    0    0  0.00000000000E+00  0.00000000000E+00 -0.18845506151E+04  0.27472959795E+04  0.19990258072E+04 0.  0.
        3    1    3    3  502    0 -0.41566424817E+02  0.50588832518E+02 -0.23129728383E+04  0.23138993838E+04  0.10100000352E+00 0.  1.
       -3    1    3    3    0  502  0.41566424817E+02 -0.50588832518E+02  0.42842222316E+03  0.43339659568E+03  0.10100000352E+00 0. -1.
</event>
<event>
 5   0  0.4577279E-05  0.2077600E+04  0.7818609E-02  0.8571176E-01
        2   -1    0    0  501    0  0.00000000000E+00  0.00000000000E+00  0.10159720294E+04  0.10159720294E+04  0.25500000920E-02 0. -1.
       -2   -1    0    0    0  501  0.00000000000E+00  0.00000000000E+00 -0.10621405873E+04  0.10621405873E+04  0.25500000920E-02 0.  1.
    10030    2    1    2    0    0  0.00000000000E+00  0.00000000000E+00 -0.46168557908E+02  0.20781126167E+04  0.20775996997E+04 0.  0.
        1    1    3    3  502    0 -0.10269854309E+04 -0.14907832080E+03 -0.69804557025E+02  0.10400942732E+04  0.50400001928E-02 0.  1.
       -1    1    3    3    0  502  0.10269854309E+04  0.14907832080E+03  0.23635999116E+02  0.10380183435E+04  0.50400001928E-02 0. -1.
</event>
<event>
 5   0  0.4447313E-05  0.1999505E+04  0.7818609E-02  0.8606852E-01
        2   -1    0    0  501    0  0.00000000000E+00  0.00000000000E+00  0.11238801835E+04  0.11238801835E+04  0.25500000920E-02 0. -1.
       -2   -1    0    0    0  501  0.00000000000E+00  0.00000000000E+00 -0.88933444119E+03  0.88933444119E+03  0.25500000920E-02 0.  1.
    10030    2    1    2    0    0  0.00000000000E+00  0.00000000000E+00  0.23454574232E+03  0.20132146247E+04  0.19995052938E+04 0.  0.
        5    1    3    3  502    0  0.27748645719E+03 -0.61911591044E+03 -0.62205046361E+03  0.92047385284E+03  0.46999998093E+01 0.  1.
       -5    1    3    3    0  502 -0.27748645719E+03  0.61911591044E+03  0.85659620593E+03  0.10927407719E+04  0.46999998093E+01 0. -1.
</event>
<event>
 5   0  0.2110896E-05  0.1982583E+04  0.7818609E-02  0.8614807E-01
       -1   -1    0    0    0  501  0.00000000000E+00  0.00000000000E+00  0.14697904349E+04  0.14697904349E+04  0.50400001928E-02 0.  1.
        1   -1    0    0  501    0  0.00000000000E+00  0.00000000000E+00 -0.66857038047E+03  0.66857038049E+03  0.50400001928E-02 0. -1.
    10030    2    1    2    0    0  0.00000000000E+00  0.00000000000E+00  0.80122005440E+03  0.21383608154E+04  0.19825825080E+04 0.  0.
        4    1    3    3  502    0 -0.17720725317E+03 -0.43432950959E+03  0.13425030782E+04  0.14220972757E+04  0.12699999809E+01 0.  1.
       -4    1    3    3    0  502  0.17720725317E+03  0.43432950959E+03 -0.54128302385E+03  0.71626353969E+03  0.12699999809E+01 0. -1.
</event>
<event>
 5   0  0.2256868E-05  0.1971023E+04  0.7818609E-02  0.8620290E-01
       -1   -1    0    0    0  501  0.00000000000E+00  0.00000000000E+00  0.10646840997E+04  0.10646840997E+04  0.50400001928E-02 0. -1.
        1   -1    0    0  501    0  0.00000000000E+00  0.00000000000E+00 -0.91222612643E+03  0.91222612645E+03  0.50400001928E-02 0.  1.
    10030    2    1    2    0    0  0.00000000000E+00  0.00000000000E+00  0.15245797327E+03  0.19769102262E+04  0.19710227316E+04 0.  0.
        5    1    3    3  502    0 -0.42179021431E+03 -0.88057211925E+03 -0.57947737373E+02  0.97810749530E+03  0.46999998093E+01 0.  1.
       -5    1    3    3    0  502  0.42179021431E+03  0.88057211925E+03  0.21040571064E+03  0.99880273086E+03  0.46999998093E+01 0. -1.
</event>
<event>
 5   0  0.4412054E-05  0.1975312E+04  0.7818609E-02  0.8618251E-01
       -2   -1    0    0    0  501  0.00000000000E+00  0.00000000000E+00  0.42346003831E+03  0.42346003832E+03  0.25500000920E-02 0.  1.
        2   -1    0    0  501    0  0.00000000000E+00  0.00000000000E+00 -0.23035560630E+04  0.23035560630E+04  0.25500000920E-02 0. -1.
    10030    2    1    2    0    0  0.00000000000E+00  0.00000000000E+00 -0.18800960247E+04  0.27270161014E+04  0.19753115589E+04 0.  0.
        4    1    3    3  502    0 -0.62449452830E+03 -0.51472720149E+03 -0.17216450923E+04  0.19023671950E+04  0.12699999809E+01 0. -1.
       -4    1    3    3    0  502  0.62449452830E+03  0.51472720149E+03 -0.15845093238E+03  0.82464890632E+03  0.12699999809E+01 0.  1.
</event>
<event>
 5   0  0.4473361E-05  0.2007436E+04  0.7818609E-02  0.8603152E-01
       -2   -1    0    0    0  501  0.00000000000E+00  0.00000000000E+00  0.44224124276E+03  0.44224124277E+03  0.25500000920E-02 0. -1.
        2   -1    0    0  501    0  0.00000000000E+00  0.00000000000E+00 -0.22780544960E+04  0.22780544960E+04  0.25500000920E-02 0.  1.
    10030    2    1    2    0    0  0.00000000000E+00  0.00000000000E+00 -0.18358132532E+04  0.27202957387E+04  0.20074358285E+04 0.  0.
        2    1    3    3  502    0 -0.51967240498E+03 -0.42598552048E+03 -0.19282829701E+04  0.20420083950E+04  0.25500000920E-02 0.  1.
       -2    1    3    3    0  502  0.51967240498E+03  0.42598552048E+03  0.92469716940E+02  0.67828734377E+03  0.25500000920E-02 0. -1.
</event>
<event>
 5   0  0.2256868E-05  0.2006726E+04  0.7818609E-02  0.8603483E-01
        1   -1    0    0  501    0  0.00000000000E+00  0.00000000000E+00  0.24300608498E+04  0.24300608498E+04  0.50400001928E-02 0.  1.
       -1   -1    0    0    0  501  0.00000000000E+00  0.00000000000E+00 -0.41428478262E+03  0.41428478265E+03  0.50400001928E-02 0. -1.
    10030    2    1    2    0    0  0.00000000000E+00  0.00000000000E+00  0.20157760672E+04  0.28443456325E+04  0.20067259215E+04 0.  0.
        5    1    3    3  502    0 -0.76678169470E+03  0.48268073262E+03  0.39695428108E+03  0.98920657511E+03  0.46999998093E+01 0. -1.
       -5    1    3    3    0  502  0.76678169470E+03 -0.48268073262E+03  0.16188217861E+04  0.18551390574E+04  0.46999998093E+01 0.  1.
</event>
<event>
 5   0  0.2093980E-05  0.2003227E+04  0.7818609E-02  0.8605113E-01
        1   -1    0    0  501    0  0.00000000000E+00  0.00000000000E+00  0.10445116515E+04  0.10445116515E+04  0.50400001928E-02 0. -1.
       -1   -1    0    0    0  501  0.00000000000E+00  0.00000000000E+00 -0.96047763197E+03  0.96047763198E+03  0.50400001928E-02 0.  1.
    10030    2    1    2    0    0  0.00000000000E+00  0.00000000000E+00  0.84034019502E+02  0.20049892835E+04  0.20032274734E+04 0.  0.
        2    1    3    3  502    0  0.53635420378E+03  0.84535233387E+03  0.72600016744E+02  0.10037764506E+04  0.25500000920E-02 0. -1.
       -2    1    3    3    0  502 -0.53635420378E+03 -0.84535233387E+03  0.11434002758E+02  0.10012128329E+04  0.25500000920E-02 0.  1.
</event>
<event>
 5   0  0.4447313E-05  0.1994149E+04  0.7818609E-02  0.8609361E-01
       -2   -1    0    0    0  501  0.00000000000E+00  0.00000000000E+00  0.88262808684E+03  0.88262808684E+03  0.25500000920E-02 0. -1.
        2   -1    0    0  501    0  0.00000000000E+00  0.00000000000E+00 -0.11263603850E+04  0.11263603850E+04  0.25500000920E-02 0.  1.
    10030    2    1    2    0    0  0.00000000000E+00  0.00000000000E+00 -0.24373229819E+03  0.20089884719E+04  0.19941487525E+04 0.  0.
        5    1    3    3  502    0  0.92756765345E+03  0.59965688322E+02 -0.48532448725E+03  0.10485893302E+04  0.46999998093E+01 0.  1.
       -5    1    3    3    0  502 -0.92756765345E+03 -0.59965688322E+02  0.24159218906E+03  0.96039914167E+03  0.46999998093E+01 0. -1.
</event>
<event>
 5   0  0.2093980E-05  0.2001612E+04  0.7818609E-02  0.8605868E-01
       -1   -1    0    0    0  501  0.00000000000E+00  0.00000000000E+00  0.54481033431E+03  0.54481033433E+03  0.50400001928E-02 0. -1.
        1   -1    0    0  501    0  0.00000000000E+00  0.00000000000E+00 -0.18384602753E+04  0.18384602754E+04  0.50400001928E-02 0.  1.
    10030    2    1    2    0    0  0.00000000000E+00  0.00000000000E+00 -0.12936499410E+04  0.23832706097E+04  0.20016115080E+04 0.  0.
        2    1    3    3  502    0 -0.61888221729E+03 -0.21163227557E+03  0.25511398916E+03  0.70205880553E+03  0.25500000920E-02 0. -1.
       -2    1    3    3    0  502  0.61888221729E+03  0.21163227557E+03 -0.15487639302E+04  0.16812118042E+04  0.25500000920E-02 0.  1.
</event>
<event>
 5   0  0.2142551E-05  0.1998254E+04  0.7818609E-02  0.8607437E-01
       -1   -1    0    0    0  501  0.00000000000E+00  0.00000000000E+00  0.11273136254E+04  0.11273136254E+04  0.50400001928E-02 0.  1.
        1   -1    0    0  501    0  0.00000000000E+00  0.00000000000E+00 -0.88551674765E+03  0.88551674767E+03  0.50400001928E-02 0. -1.
    10030    2    1    2    0    0  0.00000000000E+00  0.00000000000E+00  0.24179687778E+03  0.20128303731E+04  0.19982543334E+04 0.  0.
        3    1    3    3  502    0 -0.15802833998E+03  0.75183458233E+03  0.76432769817E+03  0.10837089258E+04  0.10100000352E+00 0. -1.
       -3    1    3    3    0  502  0.15802833998E+03 -0.75183458233E+03 -0.52253082039E+03  0.92912144733E+03  0.10100000352E+00 0.  1.
</event>
<event>
 5   0  0.2007644E-05  0.2013720E+04  0.7818609E-02  0.8600233E-01
        1   -1    0    0  501    0  0.00000000000E+00  0.00000000000E+00  0.20484895153E+04  0.20484895153E+04  0.50400001928E-02 0. -1.
       -1   -1    0    0    0  501  0.00000000000E+00  0.00000000000E+00 -0.49488502787E+03  0.49488502790E+03  0.50400001928E-02 0.  1.
    10030    2    1    2    0    0  0.00000000000E+00  0.00000000000E+00  0.15536044875E+04  0.25433745432E+04  0.20137197332E+04 0.  0.
        1    1    3    3  502    0 -0.40967743411E+03 -0.60551033531E+03  0.16512014696E+04  0.18058085888E+04  0.50400001928E-02 0. -1.
       -1    1    3    3    0  502  0.40967743411E+03  0.60551033531E+03 -0.97596982133E+02  0.73756595443E+03  0.50400001928E-02 0.  1.
</event>
<event>
 5   0  0.4577279E-05  0.2004027E+04  0.7818609E-02  0.8604740E-01
       -2   -1    0    0    0  501  0.00000000000E+00  0.00000000000E+00  0.56423912835E+03  0.56423912836E+03  0.25500000920E-02 0. -1.
        2   -1    0    0  501    0  0.00000000000E+00  0.00000000000E+00 -0.17794422192E+04  0.17794422192E+04  0.25500000920E-02 0.  1.
    10030    2    1    2    0    0  0.00000000000E+00  0.00000000000E+00 -0.12152030908E+04  0.23436813475E+04  0.20040268728E+04 0.  0.
        1    1    3    3  502    0 -0.30749900866E+03  0.44596817309E+03 -0.15934356947E+04  0.16829974940E+04  0.50400001928E-02 0.  1.
       -1    1    3    3    0  502  0.30749900866E+03 -0.44596817309E+03  0.37823260382E+03  0.66068385356E+03  0.50400001928E-02 0. -1.
</event>
<event>
 5   0  0.4514680E-05  0.1994664E+04  0.7818609E-02  0.8609119E-01
        2   -1    0    0  501    0  0.00000000000E+00  0.00000000000E+00  0.19888197456E+04  0.19888197456E+04  0.25500000920E-02 0. -1.
       -2   -1    0    0    0  501  0.00000000000E+00  0.00000000000E+00 -0.50013156781E+03  0.50013156782E+03  0.25500000920E-02 0.  1.
    10030    2    1    2    0    0  0.00000000000E+00  0.00000000000E+00  0.14886881778E+04  0.24889513134E+04  0.19946644204E+04 0.  0.
        3    1    3    3  502    0  0.60948630909E+03 -0.72324283727E+03  0.11391668057E+04  0.14806264836E+04  0.10100000352E+00 0.  1.
       -3    1    3    3    0  502 -0.60948630909E+03  0.72324283727E+03  0.34952137211E+03  0.10083248298E+04  0.10100000352E+00 0. -1.
</event>
<event>
 5   0  0.4447313E-05  0.2005836E+04  0.7818609E-02  0.8603897E-01
       -2   -1    0    0    0  501  0.00000000000E+00  0.00000000000E+00  0.53375479257E+03  0.53375479258E+03  0.25500000920E-02 0. -1.
        2   -1    0    0  501    0  0.00000000000E+00  0.00000000000E+00 -0.18844688680E+04  0.18844688680E+04  0.25500000920E-02 0.  1.
    10030    2    1    2    0    0  0.00000000000E+00  0.00000000000E+00 -0.13507140754E+04  0.24182236605E+04  0.20058357757E+04 0.  0.
        5    1    3    3  502    0  0.85418625914E+03  0.48846120385E+03 -0.90911076918E+03  0.13396764511E+04  0.46999998093E+01 0. -1.
       -5    1    3    3    0  502 -0.85418625914E+03 -0.48846120385E+03 -0.44160330620E+03  0.10785472094E+04  0.46999998093E+01 0.  1.
</event>
<event>
 5   0  0.4412054E-05  0.1999174E+04  0.7818609E-02  0.8607007E-01
       -2   -1    0    0    0  501  0.00000000000E+00  0.00000000000E+00  0.67818853161E+03  0.67818853162E+03  0.25500000920E-02 0.  1.
        2   -1    0    0  501    0  0.00000000000E+00  0.00000000000E+00 -0.14732982948E+04  0.14732982948E+04  0.25500000920E-02 0. -1.
    10030    2    1    2    0    0  0.00000000000E+00  0.00000000000E+00 -0.79510976317E+03  0.21514868264E+04  0.19991738365E+04 0.  0.
        4    1    3    3  502    0  0.16205851502E+03  0.63856961384E+02  0.66172885994E+03  0.68427141602E+03  0.12699999809E+01 0.  1.
       -4    1    3    3    0  502 -0.16205851502E+03 -0.63856961384E+02 -0.14568386231E+04  0.14672154104E+04  0.12699999809E+01 0. -1.
</event>
<event>
 5   0  0.4577279E-05  0.2000112E+04  0.7818609E-02  0.8606568E-01
        2   -1    0    0  501    0  0.00000000000E+00  0.00000000000E+00  0.18074512283E+04  0.18074512283E+04  0.25500000920E-02 0.  1.
       -2   -1    0    0    0  501  0.00000000000E+00  0.00000000000E+00 -0.55332719884E+03  0.55332719885E+03  0.25500000920E-02 0. -1.
    10030    2    1    2    0    0  0.00000000000E+00  0.00000000000E+00  0.12541240294E+04  0.23607784271E+04  0.20001119221E+04 0.  0.
        1    1    3    3  502    0  0.95233942242E+03 -0.23311965113E+03  0.39451505241E+03  0.10568525317E+04  0.50400001928E-02 0. -1.
       -1    1    3    3    0  502 -0.95233942242E+03  0.23311965113E+03  0.85960897703E+03  0.13039258954E+04  0.50400001928E-02 0.  1.
</event>
<event>
 5   0  0.2093980E-05  0.2004404E+04  0.7818609E-02  0.8604564E-01
        1   -1    0    0  501    0  0.00000000000E+00  0.00000000000E+00  0.13540694612E+04  0.13540694612E+04  0.50400001928E-02 0. -1.
       -1   -1    0    0    0  501  0.00000000000E+00  0.00000000000E+00 -0.74177051083E+03  0.74177051085E+03  0.50400001928E-02 0.  1.
    10030    2    1    2    0    0  0.00000000000E+00  0.00000000000E+00  0.61229895034E+03  0.20958399720E+04  0.20044039473E+04 0.  0.
        2    1    3    3  502    0  0.46088222782E+03 -0.11427483886E+03  0.12289848033E+04  0.13175260200E+04  0.25500000920E-02 0. -1.
       -2    1    3    3    0  502 -0.46088222782E+03  0.11427483886E+03 -0.61668585293E+03  0.77831395203E+03  0.25500000920E-02 0.  1.
</event>
<event>
 5   0  0.2142551E-05  0.1997797E+04  0.7818609E-02  0.8607651E-01
        1   -1    0    0  501    0  0.00000000000E+00  0.00000000000E+00  0.13336598638E+04  0.13336598638E+04  0.50400001928E-02 0.  1.
       -1   -1    0    0    0  501  0.00000000000E+00  0.00000000000E+00 -0.74816527877E+03  0.74816527879E+03  0.50400001928E-02 0. -1.
    10030    2    1    2    0    0  0.00000000000E+00  0.00000000000E+00  0.58549458502E+03  0.20818251426E+04  0.19977967903E+04 0.  0.
        3    1    3    3  502    0 -0.15568135805E+03  0.75115084788E+03  0.95944919622E+03  0.12284164814E+04  0.10100000352E+00 0.  1.
       -3    1    3    3    0  502  0.15568135805E+03 -0.75115084788E+03 -0.37395461120E+03  0.85340866116E+03  0.10100000352E+00 0. -1.
</event>
<event>
 5   0  0.4514680E-05  0.2014869E+04  0.7818609E-02  0.8599700E-01
        2   -1    0    0  501    0  0.00000000000E+00  0.00000000000E+00  0.10792886727E+04  0.10792886727E+04  0.25500000920E-02 0. -1.
       -2   -1    0    0    0  501  0.00000000000E+00  0.00000000000E+00 -0.94036422082E+03  0.94036422082E+03  0.25500000920E-02 0.  1.
    10030    2    1    2    0    0  0.00000000000E+00  0.00000000000E+00  0.13892445193E+03  0.20196528936E+04  0.20148691787E+04 0.  0.
        3    1    3    3  502    0  0.33634741657E+02  0.10066084705E+04  0.46330765167E+02  0.10082353192E+04  0.10100000352E+00 0.  1.
       -3    1    3    3    0  502 -0.33634741657E+02 -0.10066084705E+04  0.92593686764E+02  0.10114175744E+04  0.10100000352E+00 0. -1.
</event>
<event>
 5   0  0.4514680E-05  0.2005042E+04  0.7818609E-02  0.8604267E-01
        2   -1    0    0  501    0  0.00000000000E+00  0.00000000000E+00  0.56786190248E+03  0.56786190248E+03  0.25500000920E-02 0. -1.
       -2   -1    0    0    0  501  0.00000000000E+00  0.00000000000E+00 -0.17698824865E+04  0.17698824865E+04  0.25500000920E-02 0.  1.
    10030    2    1    2    0    0  0.00000000000E+00  0.00000000000E+00 -0.12020205840E+04  0.23377443890E+04  0.20050424793E+04 0.  0.
        3    1    3    3  502    0 -0.43047527061E+03  0.88324843161E+03 -0.83306332158E+03  0.12881891393E+04  0.10100000352E+00 0. -1.
       -3    1    3    3    0  502  0.43047527061E+03 -0.88324843161E+03 -0.36895726246E+03  0.10495552497E+04  0.10100000352E+00 0.  1.
</event>
<event>
 5   0  0.2093980E-05  0.1998517E+04  0.7818609E-02  0.8607314E-01
        1   -1    0    0  501    0  0.00000000000E+00  0.00000000000E+00  0.58530872014E+03  0.58530872016E+03  0.50400001928E-02 0. -1.
       -1   -1    0    0    0  501  0.00000000000E+00  0.00000000000E+00 -0.17059677272E+04  0.17059677272E+04  0.50400001928E-02 0.  1.
    10030    2    1    2    0    0  0.00000000000E+00  0.00000000000E+00 -0.11206590070E+04  0.22912764474E+04  0.19985172374E+04 0.  0.
        2    1    3    3  502    0 -0.32413748808E+03 -0.93065283873E+03 -0.74989213142E+03  0.12383529490E+04  0.25500000920E-02 0. -1.
       -2    1    3    3    0  502  0.32413748808E+03  0.93065283873E+03 -0.37076687562E+03  0.10529234984E+04  0.25500000920E-02 0.  1.
</event>
<event>
 5   0  0.2007644E-05  0.2000131E+04  0.7818609E-02  0.8606560E-01
        1   -1    0    0  501    0  0.00000000000E+00  0.00000000000E+00  0.10370260373E+04  0.10370260373E+04  0.50400001928E-02 0. -1.
       -1   -1    0    0    0  501  0.00000000000E+00  0.00000000000E+00 -0.96442192308E+03  0.96442192310E+03  0.50400001928E-02 0.  1.
    10030    2    1    2    0    0  0.00000000000E+00  0.00000000000E+00  0.72604114185E+02  0.20014479604E+04  0.20001306409E+04 0.  0.
        1    1    3    3  502    0  0.51045950747E+03  0.75320473352E+03  0.45159873002E+03  0.10157891968E+04  0.50400001928E-02 0. -1.
       -1    1    3    3    0  502 -0.51045950747E+03 -0.75320473352E+03 -0.37899461584E+03  0.98565876358E+03  0.50400001928E-02 0.  1.
</event>
<event>
 5   0  0.4447313E-05  0.1988258E+04  0.7818609E-02  0.8612130E-01
       -2   -1    0    0    0  501  0.00000000000E+00  0.00000000000E+00  0.54057082996E+03  0.54057082997E+03  0.25500000920E-02 0. -1.
        2   -1    0    0  501    0  0.00000000000E+00  0.00000000000E+00 -0.18282382856E+04  0.18282382856E+04  0.25500000920E-02 0.  1.
    10030    2    1    2    0    0  0.00000000000E+00  0.00000000000E+00 -0.12876674556E+04  0.23688091155E+04  0.19882578177E+04 0.  0.
        5    1    3    3  502    0  0.66555448235E+03 -0.58476416166E+03 -0.10656900907E+03  0.89235135313E+03  0.46999998093E+01 0. -1.
       -5    1    3    3    0  502 -0.66555448235E+03  0.58476416166E+03 -0.11810984465E+04  0.14764577624E+04  0.46999998093E+01 0.  1.
</event>
<event>
 5   0  0.2110896E-05  0.2020328E+04  0.7818609E-02  0.8597175E-01
        1   -1    0    0  501    0  0.00000000000E+00  0.00000000000E+00  0.71083145490E+03  0.71083145491E+03  0.50400001928E-02 0.  1.
       -1   -1    0    0    0  501  0.00000000000E+00  0.00000000000E+00 -0.14355457928E+04  0.14355457928E+04  0.50400001928E-02 0. -1.
    10030    2    1    2    0    0  0.00000000000E+00  0.00000000000E+00 -0.72471433786E+03  0.21463772477E+04  0.20203277996E+04 0.  0.
        4    1    3    3  502    0  0.25519302611E+03 -0.96217458869E+03 -0.54490936108E+03  0.11348265261E+04  0.12699999809E+01 0.  1.
       -4    1    3    3    0  502 -0.25519302611E+03  0.96217458869E+03 -0.17980497678E+03  0.10115507216E+04  0.12699999809E+01 0. -1.
</event>
<event>
 5   0  0.2007644E-05  0.2022186E+04  0.7818609E-02  0.8596318E-01
       -1   -1    0    0    0  501  0.00000000000E+00  0.00000000000E+00  0.56024280129E+03  0.56024280131E+03  0.50400001928E-02 0. -1.
        1   -1    0    0  501    0  0.00000000000E+00  0.00000000000E+00 -0.18247610010E+04  0.18247610010E+04  0.50400001928E-02 0.  1.
    10030    2    1    2    0    0  0.00000000000E+00  0.00000000000E+00 -0.12645181997E+04  0.23850038023E+04  0.20221861585E+04 0.  0.
        1    1    3    3  502    0 -0.46989150582E+03 -0.87486280625E+03 -0.40808809879E+03  0.10736474530E+04  0.50400001928E-02 0. -1.
       -1    1    3    3    0  502  0.46989150582E+03  0.87486280625E+03 -0.85643010090E+03  0.13113563493E+04  0.50400001928E-02 0.  1.
</event>
<event>
 5   0  0.4412054E-05  0.1999902E+04  0.7818609E-02  0.8606667E-01
       -2   -1    0    0    0  501  0.00000000000E+00  0.00000000000E+00  0.57345964708E+03  0.57345964708E+03  0.25500000920E-02 0. -1.
        2   -1    0    0  501    0  0.00000000000E+00  0.00000000000E+00 -0.17436302731E+04  0.17436302731E+04  0.25500000920E-02 0.  1.
    10030    2    1    2    0    0  0.00000000000E+00  0.00000000000E+00 -0.11701706260E+04  0.23170899201E+04  0.19999015986E+04 0.  0.
        4    1    3    3  502    0  0.58155529305E+03 -0.80870874995E+03 -0.48352681548E+03  0.11072561561E+04  0.12699999809E+01 0.  1.
       -4    1    3    3    0  502 -0.58155529305E+03  0.80870874995E+03 -0.68664381052E+03  0.12098337640E+04  0.12699999809E+01 0. -1.
</event>
<event>
 5   0  0.2007644E-05  0.2004614E+04  0.7818609E-02  0.8604467E-01
        1   -1    0    0  501    0  0.00000000000E+00  0.00000000000E+00  0.17438191927E+04  0.17438191927E+04  0.50400001928E-02 0. -1.
       -1   -1    0    0    0  501  0.00000000000E+00  0.00000000000E+00 -0.57610279141E+03  0.57610279144E+03  0.50400001928E-02 0.  1.
    10030    2    1    2    0    0  0.00000000000E+00  0.00000000000E+00  0.11677164013E+04  0.23199219841E+04  0.20046137829E+04 0.  0.
        1    1    3    3  502    0  0.96165957283E+03  0.15957938603E+03  0.85369422451E+03  0.12957810554E+04  0.50400001928E-02 0. -1.
       -1    1    3    3    0  502 -0.96165957283E+03 -0.15957938603E+03  0.31402217677E+03  0.10241409288E+04  0.50400001928E-02 0.  1.
</event>
<event>
 5   0  0.2007644E-05  0.2003438E+04  0.7818609E-02  0.8605015E-01
        1   -1    0    0  501    0  0.00000000000E+00  0.00000000000E+00  0.10775459339E+04  0.10775459339E+04  0.50400001928E-02 0.  1.
       -1   -1    0    0    0  501  0.00000000000E+00  0.00000000000E+00 -0.93122823172E+03  0.93122823174E+03  0.50400001928E-02 0. -1.
    10030    2    1    2    0    0  0.00000000000E+00  0.00000000000E+00  0.14631770218E+03  0.20087741656E+04  0.20034382393E+04 0.  0.
        1    1    3    3  502    0  0.27660317109E+03  0.95625109156E+03 -0.39012836313E+02  0.99621657574E+03  0.50400001928E-02 0.  1.
       -1    1    3    3    0  502 -0.27660317109E+03 -0.95625109156E+03  0.18533053849E+03  0.10125575899E+04  0.50400001928E-02 0. -1.
</event>
<event>
 5   0  0.2007644E-05  0.2002114E+04  0.7818609E-02  0.8605633E-01
        1   -1    0    0  501    0  0.00000000000E+00  0.00000000000E+00  0.15789580153E+04  0.15789580153E+04  0.50400001928E-02 0.  1.
       -1   -1    0    0    0  501  0.00000000000E+00  0.00000000000E+00 -0.63466839316E+03  0.63466839318E+03  0.50400001928E-02 0. -1.
    10030    2    1    2    0    0  0.00000000000E+00  0.00000000000E+00  0.94428962217E+03  0.22136264085E+04  0.20021136296E+04 0.  0.
        1    1    3    3  502    0 -0.68829075035E+03 -0.40170297674E+03 -0.19766542140E+03  0.82108529239E+03  0.50400001928E-02 0. -1.
       -1    1    3    3    0  502  0.68829075035E+03  0.40170297674E+03  0.11419550436E+04  0.13925411161E+04  0.50400001928E-02 0.  1.
</event>
<event>
 5   0  0.2256868E-05  0.1914509E+04  0.7818609E-02  0.8647668E-01
        1   -1    0    0  501    0  0.00000000000E+00  0.00000000000E+00  0.13250330542E+04  0.13250330542E+04  0.50400001928E-02 0. -1.
       -1   -1    0    0    0  501  0.00000000000E+00  0.00000000000E+00 -0.69155751846E+03  0.69155751848E+03  0.50400001928E-02 0.  1.
    10030    2    1    2    0    0  0.00000000000E+00  0.00000000000E+00  0.63347553570E+03  0.20165905727E+04  0.19145094106E+04 0.  0.
        5    1    3    3  502    0  0.10354848956E+03 -0.20659830440E+03 -0.66172163241E+03  0.70092992365E+03  0.46999998093E+01 0.  1.
       -5    1    3    3    0  502 -0.10354848956E+03  0.20659830440E+03  0.12951971681E+04  0.13156606490E+04  0.46999998093E+01 0. -1.
</event>
<event>
 5   0  0.2256868E-05  0.1953287E+04  0.7818609E-02  0.8628777E-01
        1   -1    0    0  501    0  0.00000000000E+00  0.00000000000E+00  0.25797914351E+04  0.25797914351E+04  0.50400001928E-02 0. -1.
       -1   -1    0    0    0  501  0.00000000000E+00  0.00000000000E+00 -0.36973244237E+03  0.36973244240E+03  0.50400001928E-02 0.  1.
    10030    2    1    2    0    0  0.00000000000E+00  0.00000000000E+00  0.22100589927E+04  0.29495238775E+04  0.19532870635E+04 0.  0.
        5    1    3    3  502    0  0.61014786592E+03  0.41025622888E+03  0.13434865012E+03  0.74743711535E+03  0.46999998093E+01 0.  1.
       -5    1    3    3    0  502 -0.61014786592E+03 -0.41025622888E+03  0.20757103426E+04  0.22020867621E+04  0.46999998093E+01 0. -1.
</event>
<event>
 5   0  0.2093980E-05  0.2000695E+04  0.7818609E-02  0.8606296E-01
        1   -1    0    0  501    0  0.00000000000E+00  0.00000000000E+00  0.75057360190E+03  0.75057360192E+03  0.50400001928E-02 0.  1.
       -1   -1    0    0    0  501  0.00000000000E+00  0.00000000000E+00 -0.13332404553E+04  0.13332404553E+04  0.50400001928E-02 0. -1.
    10030    2    1    2    0    0  0.00000000000E+00  0.00000000000E+00 -0.58266685339E+03  0.20838140572E+04  0.20006949700E+04 0.  0.
        2    1    3    3  502    0 -0.71737793762E+03 -0.69625924597E+02  0.43118380624E+03  0.83987996138E+03  0.25500000920E-02 0.  1.
       -2    1    3    3    0  502  0.71737793762E+03  0.69625924597E+02 -0.10138506596E+04  0.12439340958E+04  0.25500000920E-02 0. -1.
</event>
<event>
 5   0  0.2093980E-05  0.1992758E+04  0.7818609E-02  0.8610014E-01
        1   -1    0    0  501    0  0.00000000000E+00  0.00000000000E+00  0.12599707152E+04  0.12599707152E+04  0.50400001928E-02 0. -1.
       -1   -1    0    0    0  501  0.00000000000E+00  0.00000000000E+00 -0.78793155326E+03  0.78793155328E+03  0.50400001928E-02 0.  1.
    10030    2    1    2    0    0  0.00000000000E+00  0.00000000000E+00  0.47203916192E+03  0.20479022685E+04  0.19927575695E+04 0.  0.
        2    1    3    3  502    0  0.32952856030E+03  0.65777831349E+03 -0.45451925782E+03  0.86478271113E+03  0.25500000920E-02 0.  1.
       -2    1    3    3    0  502 -0.32952856030E+03 -0.65777831349E+03  0.92655841974E+03  0.11831195573E+04  0.25500000920E-02 0. -1.
</event>
<event>
 5   0  0.2093980E-05  0.2002971E+04  0.7818609E-02  0.8605233E-01
        1   -1    0    0  501    0  0.00000000000E+00  0.00000000000E+00  0.20069869835E+04  0.20069869835E+04  0.50400001928E-02 0. -1.
       -1   -1    0    0    0  501  0.00000000000E+00  0.00000000000E+00 -0.49974085688E+03  0.49974085691E+03  0.50400001928E-02 0.  1.
    10030    2    1    2    0    0  0.00000000000E+00  0.00000000000E+00  0.15072461266E+04  0.25067278404E+04  0.20029711879E+04 0.  0.
        2    1    3    3  502    0 -0.88572109452E+03  0.77841208999E+02  0.17682698821E+03  0.90654778962E+03  0.25500000920E-02 0.  1.
       -2    1    3    3    0  502  0.88572109452E+03 -0.77841208999E+02  0.13304191384E+04  0.16001800508E+04  0.25500000920E-02 0. -1.
</event>
<event>
 5   0  0.4447313E-05  0.2029545E+04  0.7818609E-02  0.8592931E-01
        2   -1    0    0  501    0  0.00000000000E+00  0.00000000000E+00  0.94633618113E+03  0.94633618113E+03  0.25500000920E-02 0. -1.
       -2   -1    0    0    0  501  0.00000000000E+00  0.00000000000E+00 -0.10881580920E+04  0.10881580920E+04  0.25500000920E-02 0.  1.
    10030    2    1    2    0    0  0.00000000000E+00  0.00000000000E+00 -0.14182191090E+03  0.20344942732E+04  0.20295451444E+04 0.  0.
        5    1    3    3  502    0 -0.24692202977E+03 -0.98422357566E+03 -0.79577708425E+02  0.10178512845E+04  0.46999998093E+01 0. -1.
       -5    1    3    3    0  502  0.24692202977E+03  0.98422357566E+03 -0.62244202471E+02  0.10166429887E+04  0.46999998093E+01 0.  1.
</event>
<event>
 5   0  0.2007644E-05  0.2003810E+04  0.7818609E-02  0.8604841E-01
        1   -1    0    0  501    0  0.00000000000E+00  0.00000000000E+00  0.17817254945E+04  0.17817254945E+04  0.50400001928E-02 0. -1.
       -1   -1    0    0    0  501  0.00000000000E+00  0.00000000000E+00 -0.56339427412E+03  0.56339427414E+03  0.50400001928E-02 0.  1.
    10030    2    1    2    0    0  0.00000000000E+00  0.00000000000E+00  0.12183312204E+04  0.23451197687E+04  0.20038103121E+04 0.  0.
        1    1    3    3  502    0 -0.39601864996E+03  0.70367417658E+03 -0.85014677419E+02  0.81192094031E+03  0.50400001928E-02 0.  1.
       -1    1    3    3    0  502  0.39601864996E+03 -0.70367417658E+03  0.13033458978E+04  0.15331988284E+04  0.50400001928E-02 0. -1.
</event>
<event>
 5   0  0.1601500E-05  0.1990382E+04  0.7818609E-02  0.8611131E-01
        3   -1    0    0  501    0  0.00000000000E+00  0.00000000000E+00  0.70308578724E+03  0.70308579449E+03  0.10100000352E+00 0. -1.
       -3   -1    0    0    0  501  0.00000000000E+00  0.00000000000E+00 -0.14086543227E+04  0.14086543263E+04  0.10100000352E+00 0.  1.
    10030    2    1    2    0    0  0.00000000000E+00  0.00000000000E+00 -0.70556853547E+03  0.21117401208E+04  0.19903817171E+04 0.  0.
        4    1    3    3  502    0 -0.36961702720E+02 -0.33278490162E+03  0.64152933611E+03  0.72365285890E+03  0.12699999809E+01 0. -1.
       -4    1    3    3    0  502  0.36961702720E+02  0.33278490162E+03 -0.13470978716E+04  0.13880872619E+04  0.12699999809E+01 0.  1.
</event>
<event>
 5   0  0.4514680E-05  0.2004159E+04  0.7818609E-02  0.8604679E-01
        2   -1    0    0  501    0  0.00000000000E+00  0.00000000000E+00  0.79521010375E+03  0.79521010376E+03  0.25500000920E-02 0. -1.
       -2   -1    0    0    0  501  0.00000000000E+00  0.00000000000E+00 -0.12627643386E+04  0.12627643386E+04  0.25500000920E-02 0.  1.
    10030    2    1    2    0    0  0.00000000000E+00  0.00000000000E+00 -0.46755423488E+03  0.20579744424E+04  0.20041586372E+04 0.  0.
        3    1    3    3  502    0 -0.72320894600E+03  0.27239614196E+02  0.47793565461E+03  0.86729215165E+03  0.10100000352E+00 0. -1.
       -3    1    3    3    0  502  0.72320894600E+03 -0.27239614196E+02 -0.94548988950E+03  0.11906822907E+04  0.10100000352E+00 0.  1.
</event>
<event>
 5   0  0.2110896E-05  0.2035756E+04  0.7818609E-02  0.8590084E-01
       -1   -1    0    0    0  501  0.00000000000E+00  0.00000000000E+00  0.77093853613E+03  0.77093853614E+03  0.50400001928E-02 0.  1.
        1   -1    0    0  501    0  0.00000000000E+00  0.00000000000E+00 -0.13439144921E+04  0.13439144921E+04  0.50400001928E-02 0. -1.
    10030    2    1    2    0    0  0.00000000000E+00  0.00000000000E+00 -0.57297595601E+03  0.21148530283E+04  0.20357558511E+04 0.  0.
        4    1    3    3  502    0 -0.33746720722E+02 -0.71770442735E+02 -0.13406990522E+04  0.13430433348E+04  0.12699999809E+01 0. -1.
       -4    1    3    3    0  502  0.33746720722E+02  0.71770442735E+02  0.76772309621E+03  0.77180969349E+03  0.12699999809E+01 0.  1.
</event>
<event>
 5   0  0.4412054E-05  0.1998612E+04  0.7818609E-02  0.8607270E-01
       -2   -1    0    0    0  501  0.00000000000E+00  0.00000000000E+00  0.82965591886E+03  0.82965591887E+03  0.25500000920E-02 0. -1.
        2   -1    0    0  501    0  0.00000000000E+00  0.00000000000E+00 -0.12036468998E+04  0.12036468998E+04  0.25500000920E-02 0.  1.
    10030    2    1    2    0    0  0.00000000000E+00  0.00000000000E+00 -0.37399098098E+03  0.20333028187E+04  0.19986122932E+04 0.  0.
        4    1    3    3  502    0  0.81045666393E+03 -0.50351318806E+03 -0.48921333601E+03  0.10722391691E+04  0.12699999809E+01 0. -1.
       -4    1    3    3    0  502 -0.81045666393E+03  0.50351318806E+03  0.11522235503E+03  0.96106364964E+03  0.12699999809E+01 0.  1.
</event>
<event>
 5   0  0.4577279E-05  0.2002721E+04  0.7818609E-02  0.8605350E-01
        2   -1    0    0  501    0  0.00000000000E+00  0.00000000000E+00  0.18686187511E+04  0.18686187511E+04  0.25500000920E-02 0.  1.
       -2   -1    0    0    0  501  0.00000000000E+00  0.00000000000E+00 -0.53661186410E+03  0.53661186411E+03  0.25500000920E-02 0. -1.
    10030    2    1    2    0    0  0.00000000000E+00  0.00000000000E+00  0.13320068870E+04  0.24052306153E+04  0.20027211402E+04 0.  0.
        1    1    3    3  502    0 -0.49617880002E+03  0.78565364344E+02 -0.37432442215E+03  0.62648598636E+03  0.50400001928E-02 0. -1.
       -1    1    3    3    0  502  0.49617880002E+03 -0.78565364344E+02  0.17063313092E+04  0.17787446289E+04  0.50400001928E-02 0.  1.
</event>
<event>
 5   0  0.2142551E-05  0.2009946E+04  0.7818609E-02  0.8601985E-01
        1   -1    0    0  501    0  0.00000000000E+00  0.00000000000E+00  0.22423275628E+04  0.22423275628E+04  0.50400001928E-02 0.  1.
       -1   -1    0    0    0  501  0.00000000000E+00  0.00000000000E+00 -0.45041182186E+03  0.45041182188E+03  0.50400001928E-02 0. -1.
    10030    2    1    2    0    0  0.00000000000E+00  0.00000000000E+00  0.17919157409E+04  0.26927393847E+04  0.20099461115E+04 0.  0.
        3    1    3    3  502    0 -0.38082003678E+03 -0.97845251353E+02  0.21350047497E+04  0.21709083088E+04  0.10100000352E+00 0.  1.
       -3    1    3    3    0  502  0.38082003678E+03  0.97845251353E+02 -0.34308900878E+03  0.52183107590E+03  0.10100000352E+00 0. -1.
</event>
<event>
 5   0  0.4514680E-05  0.2000808E+04  0.7818609E-02  0.8606243E-01
       -2   -1    0    0    0  501  0.00000000000E+00  0.00000000000E+00  0.87320313778E+03  0.87320313778E+03  0.25500000920E-02 0. -1.
        2   -1    0    0  501    0  0.00000000000E+00  0.00000000000E+00 -0.11461345223E+04  0.11461345223E+04  0.25500000920E-02 0.  1.
    10030    2    1    2    0    0  0.00000000000E+00  0.00000000000E+00 -0.27293138454E+03  0.20193376601E+04  0.20008080979E+04 0.  0.
        3    1    3    3  502    0  0.70424160009E+03 -0.28511244495E+03 -0.79331004717E+03  0.10984471670E+04  0.10100000352E+00 0.  1.
       -3    1    3    3    0  502 -0.70424160009E+03  0.28511244495E+03  0.52037866263E+03  0.92089049310E+03  0.10100000352E+00 0. -1.
</event>
<event>
 5   0  0.2110896E-05  0.2009146E+04  0.7818609E-02  0.8602357E-01
       -1   -1    0    0    0  501  0.00000000000E+00  0.00000000000E+00  0.85658072393E+03  0.85658072395E+03  0.50400001928E-02 0. -1.
        1   -1    0    0  501    0  0.00000000000E+00  0.00000000000E+00 -0.11781338230E+04  0.11781338230E+04  0.50400001928E-02 0.  1.
    10030    2    1    2    0    0  0.00000000000E+00  0.00000000000E+00 -0.32155309902E+03  0.20347145469E+04  0.20091458115E+04 0.  0.
        4    1    3    3  502    0 -0.71239254706E+03  0.67496117418E+03 -0.37819303825E+03  0.10517163662E+04  0.12699999809E+01 0.  1.
       -4    1    3    3    0  502  0.71239254706E+03 -0.67496117418E+03  0.56639939229E+02  0.98299818076E+03  0.12699999809E+01 0. -1.
</event>
<event>
 5   0  0.4473361E-05  0.2001698E+04  0.7818609E-02  0.8605827E-01
       -2   -1    0    0    0  501  0.00000000000E+00  0.00000000000E+00  0.11434395785E+04  0.11434395786E+04  0.25500000920E-02 0. -1.
        2   -1    0    0  501    0  0.00000000000E+00  0.00000000000E+00 -0.87604006151E+03  0.87604006151E+03  0.25500000920E-02 0.  1.
    10030    2    1    2    0    0  0.00000000000E+00  0.00000000000E+00  0.26739951704E+03  0.20194796401E+04  0.20016981578E+04 0.  0.
        2    1    3    3  502    0 -0.12770462197E+03  0.62333205561E+03 -0.64572213328E+03  0.90653648324E+03  0.25500000920E-02 0.  1.
       -2    1    3    3    0  502  0.12770462197E+03 -0.62333205561E+03  0.91312165032E+03  0.11129431568E+04  0.25500000920E-02 0. -1.
</event>
<event>
 5   0  0.2110896E-05  0.1999207E+04  0.7818609E-02  0.8606992E-01
       -1   -1    0    0    0  501  0.00000000000E+00  0.00000000000E+00  0.13647546960E+04  0.13647546960E+04  0.50400001928E-02 0. -1.
        1   -1    0    0  501    0  0.00000000000E+00  0.00000000000E+00 -0.73215122417E+03  0.73215122419E+03  0.50400001928E-02 0.  1.
    10030    2    1    2    0    0  0.00000000000E+00  0.00000000000E+00  0.63260347183E+03  0.20969059202E+04  0.19992066640E+04 0.  0.
        4    1    3    3  502    0  0.19373858633E+03 -0.63017692729E+01  0.13448518347E+04  0.13587503164E+04  0.12699999809E+01 0. -1.
       -4    1    3    3    0  502 -0.19373858633E+03  0.63017692729E+01 -0.71224836286E+03  0.73815560380E+03  0.12699999809E+01 0.  1.
</event>
<event>
 5   0  0.2110896E-05  0.1997178E+04  0.7818609E-02  0.8607941E-01
       -1   -1    0    0    0  501  0.00000000000E+00  0.00000000000E+00  0.62776525286E+03  0.62776525288E+03  0.50400001928E-02 0. -1.
        1   -1    0    0  501    0  0.00000000000E+00  0.00000000000E+00 -0.15884597724E+04  0.15884597724E+04  0.50400001928E-02 0.  1.
    10030    2    1    2    0    0  0.00000000000E+00  0.00000000000E+00 -0.96069451952E+03  0.22162250253E+04  0.19971778596E+04 0.  0.
        4    1    3    3  502    0  0.88451981906E+02 -0.61770714978E+03  0.38476951002E+03  0.73309962811E+03  0.12699999809E+01 0. -1.
       -4    1    3    3    0  502 -0.88451981906E+02  0.61770714978E+03 -0.13454640295E+04  0.14831253972E+04  0.12699999809E+01 0.  1.
</event>
<event>
 5   0  0.2093980E-05  0.1961708E+04  0.7818609E-02  0.8624735E-01
       -1   -1    0    0    0  501  0.00000000000E+00  0.00000000000E+00  0.70120928859E+03  0.70120928861E+03  0.50400001928E-02 0. -1.
        1   -1    0    0  501    0  0.00000000000E+00  0.00000000000E+00 -0.13720224321E+04  0.13720224321E+04  0.50400001928E-02 0.  1.
    10030    2    1    2    0    0  0.00000000000E+00  0.00000000000E+00 -0.67081314351E+03  0.20732317207E+04  0.19617083102E+04 0.  0.
        2    1    3    3  502    0 -0.72648214526E+03 -0.54061620704E+03  0.62890908027E+02  0.90774305671E+03  0.25500000920E-02 0. -1.
       -2    1    3    3    0  502  0.72648214526E+03  0.54061620704E+03 -0.73370405154E+03  0.11654886640E+04  0.25500000920E-02 0.  1.
</event>
<event>
 5   0  0.4473361E-05  0.2032927E+04  0.7818609E-02  0.8591379E-01
       -2   -1    0    0    0  501  0.00000000000E+00  0.00000000000E+00  0.71498034164E+03  0.71498034164E+03  0.25500000920E-02 0. -1.
        2   -1    0    0  501    0  0.00000000000E+00  0.00000000000E+00 -0.14450716354E+04  0.14450716354E+04  0.25500000920E-02 0.  1.
    10030    2    1    2    0    0  0.00000000000E+00  0.00000000000E+00 -0.73009129372E+03  0.21600519770E+04  0.20329267685E+04 0.  0.
        2    1    3    3  502    0 -0.69038854325E+03  0.44893668023E+02 -0.11562911726E+04  0.13474646778E+04  0.25500000920E-02 0.  1.
       -2    1    3    3    0  502  0.69038854325E+03 -0.44893668023E+02  0.42619987888E+03  0.81258729921E+03  0.25500000920E-02 0. -1.
</event>
<event>
 5   0  0.4577279E-05  0.1995416E+04  0.7818609E-02  0.8608767E-01
       -2   -1    0    0    0  501  0.00000000000E+00  0.00000000000E+00  0.81415006899E+03  0.81415006900E+03  0.25500000920E-02 0.  1.
        2   -1    0    0  501    0  0.00000000000E+00  0.00000000000E+00 -0.12226505479E+04  0.12226505479E+04  0.25500000920E-02 0. -1.
    10030    2    1    2    0    0  0.00000000000E+00  0.00000000000E+00 -0.40850047886E+03  0.20368006169E+04  0.19954157741E+04 0.  0.
        1    1    3    3  502    0  0.65025712890E+03 -0.75349602413E+03 -0.13330744772E+03  0.10041720309E+04  0.50400001928E-02 0.  1.
       -1    1    3    3    0  502 -0.65025712890E+03  0.75349602413E+03 -0.27519303114E+03  0.10326285859E+04  0.50400001928E-02 0. -1.
</event>
<event>
 5   0  0.4447313E-05  0.1990216E+04  0.7818609E-02  0.8611209E-01
       -2   -1    0    0    0  501  0.00000000000E+00  0.00000000000E+00  0.59757663703E+03  0.59757663703E+03  0.25500000920E-02 0.  1.
        2   -1    0    0  501    0  0.00000000000E+00  0.00000000000E+00 -0.16570923046E+04  0.16570923046E+04  0.25500000920E-02 0. -1.
    10030    2    1    2    0    0  0.00000000000E+00  0.00000000000E+00 -0.10595156676E+04  0.22546689417E+04  0.19902157136E+04 0.  0.
        5    1    3    3  502    0 -0.20522754003E+03 -0.80816944343E+03 -0.11450270665E+04  0.14164622358E+04  0.46999998093E+01 0. -1.
       -5    1    3    3    0  502  0.20522754003E+03  0.80816944343E+03  0.85511398844E+02  0.83820670589E+03  0.46999998093E+01 0.  1.
</event>
<event>
 5   0  0.4577279E-05  0.2006322E+04  0.7818609E-02  0.8603670E-01
       -2   -1    0    0    0  501  0.00000000000E+00  0.00000000000E+00  0.68177170648E+03  0.68177170649E+03  0.25500000920E-02 0.  1.
        2   -1    0    0  501    0  0.00000000000E+00  0.00000000000E+00 -0.14760547844E+04  0.14760547844E+04  0.25500000920E-02 0. -1.
    10030    2    1    2    0    0  0.00000000000E+00  0.00000000000E+00 -0.79428307787E+03  0.21578264908E+04  0.20063223960E+04 0.  0.
        1    1    3    3  502    0 -0.61948355764E+02 -0.33194778766E+03 -0.14130920983E+04  0.14528785947E+04  0.50400001928E-02 0. -1.
       -1    1    3    3    0  502  0.61948355764E+02  0.33194778766E+03  0.61880902044E+03  0.70494789617E+03  0.50400001928E-02 0.  1.
</event>
<event>
 5   0  0.2007644E-05  0.1997632E+04  0.7818609E-02  0.8607729E-01
        1   -1    0    0  501    0  0.00000000000E+00  0.00000000000E+00  0.55653012658E+03  0.55653012660E+03  0.50400001928E-02 0.  1.
       -1   -1    0    0    0  501  0.00000000000E+00  0.00000000000E+00 -0.17925949913E+04  0.17925949913E+04  0.50400001928E-02 0. -1.
    10030    2    1    2    0    0  0.00000000000E+00  0.00000000000E+00 -0.12360648647E+04  0.23491251179E+04  0.19976317153E+04 0.  0.
        1    1    3    3  502    0  0.96299071156E+03 -0.13613961107E+02 -0.92937564907E+03  0.13383854256E+04  0.50400001928E-02 0.  1.
       -1    1    3    3    0  502 -0.96299071156E+03  0.13613961107E+02 -0.30668921565E+03  0.10107396923E+04  0.50400001928E-02 0. -1.
</event>
<event>
 5   0  0.4447313E-05  0.1987953E+04  0.7818609E-02  0.8612274E-01
        2   -1    0    0  501    0  0.00000000000E+00  0.00000000000E+00  0.15033398529E+04  0.15033398529E+04  0.25500000920E-02 0.  1.
       -2   -1    0    0    0  501  0.00000000000E+00  0.00000000000E+00 -0.65719599350E+03  0.65719599350E+03  0.25500000920E-02 0. -1.
    10030    2    1    2    0    0  0.00000000000E+00  0.00000000000E+00  0.84614385938E+03  0.21605358464E+04  0.19879526435E+04 0.  0.
        5    1    3    3  502    0  0.52951359984E+03 -0.70546073922E+03  0.92100302137E+03  0.12752757201E+04  0.46999998093E+01 0.  1.
       -5    1    3    3    0  502 -0.52951359984E+03  0.70546073922E+03 -0.74859161992E+02  0.88526012625E+03  0.46999998093E+01 0. -1.
</event>
<event>
 5   0  0.1601500E-05  0.1898651E+04  0.7818609E-02  0.8655528E-01
        3   -1    0    0  501    0  0.00000000000E+00  0.00000000000E+00  0.18679630945E+04  0.18679630973E+04  0.10100000352E+00 0. -1.
       -3   -1    0    0    0  501  0.00000000000E+00  0.00000000000E+00 -0.48246055241E+03  0.48246056299E+03  0.10100000352E+00 0.  1.
    10030    2    1    2    0    0  0.00000000000E+00  0.00000000000E+00  0.13855025421E+04  0.23504236602E+04  0.18986505967E+04 0.  0.
        3    1    3    3  502    0  0.62503383687E+01  0.66667739306E+03 -0.14386527082E+03  0.68205207975E+03  0.10100000352E+00 0.  1.
       -3    1    3    3    0  502 -0.62503383687E+01 -0.66667739306E+03  0.15293678129E+04  0.16683715805E+04  0.10100000352E+00 0. -1.
</event>
<event>
 5   0  0.4412054E-05  0.1984999E+04  0.7818609E-02  0.8613666E-01
       -2   -1    0    0    0  501  0.00000000000E+00  0.00000000000E+00  0.55879960190E+03  0.55879960191E+03  0.25500000920E-02 0.  1.
        2   -1    0    0  501    0  0.00000000000E+00  0.00000000000E+00 -0.17628057711E+04  0.17628057711E+04  0.25500000920E-02 0. -1.
    10030    2    1    2    0    0  0.00000000000E+00  0.00000000000E+00 -0.12040061692E+04  0.23216053730E+04  0.19849989049E+04 0.  0.
        4    1    3    3  502    0  0.24767933928E+03 -0.36723694217E+03  0.43677818775E+03  0.62208104376E+03  0.12699999809E+01 0.  1.
       -4    1    3    3    0  502 -0.24767933928E+03  0.36723694217E+03 -0.16407843569E+04  0.16995243292E+04  0.12699999809E+01 0. -1.
</event>
<event>
 5   0  0.4412054E-05  0.2007783E+04  0.7818609E-02  0.8602990E-01
        2   -1    0    0  501    0  0.00000000000E+00  0.00000000000E+00  0.13570923359E+04  0.13570923359E+04  0.25500000920E-02 0.  1.
       -2   -1    0    0    0  501  0.00000000000E+00  0.00000000000E+00 -0.74261579579E+03  0.74261579579E+03  0.25500000920E-02 0. -1.
    10030    2    1    2    0    0  0.00000000000E+00  0.00000000000E+00  0.61447654012E+03  0.20997081317E+04  0.20077830610E+04 0.  0.
        4    1    3    3  502    0  0.58250477868E+03  0.62682980905E+03 -0.24174290784E+03  0.88919552017E+03  0.12699999809E+01 0. -1.
       -4    1    3    3    0  502 -0.58250477868E+03 -0.62682980905E+03  0.85621944796E+03  0.12105126115E+04  0.12699999809E+01 0.  1.
</event>
<event>
 5   0  0.2093980E-05  0.2001305E+04  0.7818609E-02  0.8606011E-01
        1   -1    0    0  501    0  0.00000000000E+00  0.00000000000E+00  0.81913609698E+03  0.81913609699E+03  0.50400001928E-02 0.  1.
       -1   -1    0    0    0  501  0.00000000000E+00  0.00000000000E+00 -0.12223924459E+04  0.12223924459E+04  0.50400001928E-02 0. -1.
    10030    2    1    2    0    0  0.00000000000E+00  0.00000000000E+00 -0.40325634895E+03  0.20415285429E+04  0.20013053512E+04 0.  0.
        2    1    3    3  502    0  0.36010263719E+02 -0.12341206726E+02  0.81839722761E+03  0.81928204340E+03  0.25500000920E-02 0.  1.
       -2    1    3    3    0  502 -0.36010263719E+02  0.12341206726E+02 -0.12216535766E+04  0.12222464995E+04  0.25500000920E-02 0. -1.
</event>
<event>
 5   0  0.2007644E-05  0.1982891E+04  0.7818609E-02  0.8614661E-01
       -1   -1    0    0    0  501  0.00000000000E+00  0.00000000000E+00  0.62044988486E+03  0.62044988488E+03  0.50400001928E-02 0.  1.
        1   -1    0    0  501    0  0.00000000000E+00  0.00000000000E+00 -0.15842772094E+04  0.15842772095E+04  0.50400001928E-02 0. -1.
    10030    2    1    2    0    0  0.00000000000E+00  0.00000000000E+00 -0.96382732458E+03  0.22047270943E+04  0.19828914365E+04 0.  0.
        1    1    3    3  502    0 -0.82161214500E+03  0.38117813234E+03 -0.33535294069E+02  0.90634866435E+03  0.50400001928E-02 0.  1.
       -1    1    3    3    0  502  0.82161214500E+03 -0.38117813234E+03 -0.93029203052E+03  0.12983784300E+04  0.50400001928E-02 0. -1.
</event>
<event>
 5   0  0.2256868E-05  0.2004792E+04  0.7818609E-02  0.8604383E-01
        1   -1    0    0  501    0  0.00000000000E+00  0.00000000000E+00  0.85589822502E+03  0.85589822504E+03  0.50400001928E-02 0.  1.
       -1   -1    0    0    0  501  0.00000000000E+00  0.00000000000E+00 -0.11739691047E+04  0.11739691047E+04  0.50400001928E-02 0. -1.
    10030    2    1    2    0    0  0.00000000000E+00  0.00000000000E+00 -0.31807087969E+03  0.20298673298E+04  0.20047923314E+04 0.  0.
        5    1    3    3  502    0  0.58209765653E+03  0.34937491190E+03  0.58766773525E+03  0.89792870978E+03  0.46999998093E+01 0.  1.
       -5    1    3    3    0  502 -0.58209765653E+03 -0.34937491190E+03 -0.90573861494E+03  0.11319386200E+04  0.46999998093E+01 0. -1.
</event>
<event>
 5   0  0.4412054E-05  0.1993492E+04  0.7818609E-02  0.8609669E-01
       -2   -1    0    0    0  501  0.00000000000E+00  0.00000000000E+00  0.10138301134E+04  0.10138301134E+04  0.25500000920E-02 0.  1.
        2   -1    0    0  501    0  0.00000000000E+00  0.00000000000E+00 -0.97994986465E+03  0.97994986465E+03  0.25500000920E-02 0. -1.
    10030    2    1    2    0    0  0.00000000000E+00  0.00000000000E+00  0.33880248787E+02  0.19937799781E+04  0.19934920942E+04 0.  0.
        4    1    3    3  502    0  0.51854323598E+03 -0.71497506900E+03 -0.44510563007E+03  0.98903845814E+03  0.12699999809E+01 0. -1.
       -4    1    3    3    0  502 -0.51854323598E+03  0.71497506900E+03  0.47898587885E+03  0.10047415199E+04  0.12699999809E+01 0.  1.
</event>
<event>
 5   0  0.4447313E-05  0.2005018E+04  0.7818609E-02  0.8604278E-01
        2   -1    0    0  501    0  0.00000000000E+00  0.00000000000E+00  0.15252239750E+04  0.15252239750E+04  0.25500000920E-02 0. -1.
       -2   -1    0    0    0  501  0.00000000000E+00  0.00000000000E+00 -0.65893543262E+03  0.65893543263E+03  0.25500000920E-02 0.  1.
    10030    2    1    2    0    0  0.00000000000E+00  0.00000000000E+00  0.86628854238E+03  0.21841594076E+04  0.20050178252E+04 0.  0.
        5    1    3    3  502    0  0.39471114292E+03 -0.89961069326E+03  0.21553179044E+03  0.10057695206E+04  0.46999998093E+01 0. -1.
       -5    1    3    3    0  502 -0.39471114292E+03  0.89961069326E+03  0.65075675194E+03  0.11783898871E+04  0.46999998093E+01 0.  1.
</event>
<event>
 5   0  0.4577279E-05  0.2001545E+04  0.7818609E-02  0.8605898E-01
        2   -1    0    0  501    0  0.00000000000E+00  0.00000000000E+00  0.73033420869E+03  0.73033420870E+03  0.25500000920E-02 0. -1.
       -2   -1    0    0    0  501  0.00000000000E+00  0.00000000000E+00 -0.13713531200E+04  0.13713531200E+04  0.25500000920E-02 0.  1.
    10030    2    1    2    0    0  0.00000000000E+00  0.00000000000E+00 -0.64101891130E+03  0.21016873287E+04  0.20015454986E+04 0.  0.
        1    1    3    3  502    0  0.32225773828E+03 -0.94278098297E+03 -0.22167211135E+03  0.10206980732E+04  0.50400001928E-02 0.  1.
       -1    1    3    3    0  502 -0.32225773828E+03  0.94278098297E+03 -0.41934679995E+03  0.10809892554E+04  0.50400001928E-02 0. -1.
</event>
<event>
 5   0  0.4577279E-05  0.1998748E+04  0.7818609E-02  0.8607206E-01
       -2   -1    0    0    0  501  0.00000000000E+00  0.00000000000E+00  0.10825162327E+04  0.10825162327E+04  0.25500000920E-02 0.  1.
        2   -1    0    0  501    0  0.00000000000E+00  0.00000000000E+00 -0.92261755302E+03  0.92261755302E+03  0.25500000920E-02 0. -1.
    10030    2    1    2    0    0  0.00000000000E+00  0.00000000000E+00  0.15989867964E+03  0.20051337857E+04  0.19987480859E+04 0.  0.
        1    1    3    3  502    0 -0.59627173233E+03 -0.23929231098E+03 -0.68796842873E+03  0.94132956387E+03  0.50400001928E-02 0. -1.
       -1    1    3    3    0  502  0.59627173233E+03  0.23929231098E+03  0.84786710837E+03  0.10638042218E+04  0.50400001928E-02 0.  1.
</event>
<event>
 5   0  0.2256868E-05  0.2001215E+04  0.7818609E-02  0.8606053E-01
       -1   -1    0    0    0  501  0.00000000000E+00  0.00000000000E+00  0.92025958115E+03  0.92025958116E+03  0.50400001928E-02 0. -1.
        1   -1    0    0  501    0  0.00000000000E+00  0.00000000000E+00 -0.10879709380E+04  0.10879709380E+04  0.50400001928E-02 0.  1.
    10030    2    1    2    0    0  0.00000000000E+00  0.00000000000E+00 -0.16771135683E+03  0.20082305191E+04  0.20012153105E+04 0.  0.
        5    1    3    3  502    0  0.83212537387E+03  0.28643107285E+03  0.39396278913E+03  0.96421168140E+03  0.46999998093E+01 0.  1.
       -5    1    3    3    0  502 -0.83212537387E+03 -0.28643107285E+03 -0.56167414596E+03  0.10440188377E+04  0.46999998093E+01 0. -1.
</event>
<event>
 5   0  0.2256868E-05  0.1992951E+04  0.7818609E-02  0.8609924E-01
        1   -1    0    0  501    0  0.00000000000E+00  0.00000000000E+00  0.13088820739E+04  0.13088820739E+04  0.50400001928E-02 0. -1.
       -1   -1    0    0    0  501  0.00000000000E+00  0.00000000000E+00 -0.75863456655E+03  0.75863456656E+03  0.50400001928E-02 0.  1.
    10030    2    1    2    0    0  0.00000000000E+00  0.00000000000E+00  0.55024750736E+03  0.20675166405E+04  0.19929507619E+04 0.  0.
        5    1    3    3  502    0  0.42715469670E+03  0.12287493568E+03 -0.65008608973E+03  0.78752358618E+03  0.46999998093E+01 0.  1.
       -5    1    3    3    0  502 -0.42715469670E+03 -0.12287493568E+03  0.12003335971E+04  0.12799930543E+04  0.46999998093E+01 0. -1.
</event>
<event>
 5   0  0.4412054E-05  0.2007800E+04  0.7818609E-02  0.8602983E-01
       -2   -1    0    0    0  501  0.00000000000E+00  0.00000000000E+00  0.76583016887E+03  0.76583016887E+03  0.25500000920E-02 0.  1.
        2   -1    0    0  501    0  0.00000000000E+00  0.00000000000E+00 -0.13159772650E+04  0.13159772650E+04  0.25500000920E-02 0. -1.
    10030    2    1    2    0    0  0.00000000000E+00  0.00000000000E+00 -0.55014709618E+03  0.20818074339E+04  0.20077998816E+04 0.  0.
        4    1    3    3  502    0  0.10971014735E+03  0.48867129799E+03  0.62704086830E+03  0.80250720703E+03  0.12699999809E+01 0.  1.
       -4    1    3    3    0  502 -0.10971014735E+03 -0.48867129799E+03 -0.11771879645E+04  0.12793002269E+04  0.12699999809E+01 0. -1.
</event>
<event>
 5   0  0.2110896E-05  0.1999246E+04  0.7818609E-02  0.8606973E-01
       -1   -1    0    0    0  501  0.00000000000E+00  0.00000000000E+00  0.61559298049E+03  0.61559298051E+03  0.50400001928E-02 0.  1.
        1   -1    0    0  501    0  0.00000000000E+00  0.00000000000E+00 -0.16232258156E+04  0.16232258157E+04  0.50400001928E-02 0. -1.
    10030    2    1    2    0    0  0.00000000000E+00  0.00000000000E+00 -0.10076328352E+04  0.22388187962E+04  0.19992462759E+04 0.  0.
        4    1    3    3  502    0 -0.22358915238E+03 -0.62109396236E+03 -0.13444324654E+04  0.14977483387E+04  0.12699999809E+01 0. -1.
       -4    1    3    3    0  502  0.22358915238E+03  0.62109396236E+03  0.33679963023E+03  0.74107045748E+03  0.12699999809E+01 0.  1.
</event>
<event>
 5   0  0.4412054E-05  0.1998256E+04  0.7818609E-02  0.8607437E-01
        2   -1    0    0  501    0  0.00000000000E+00  0.00000000000E+00  0.88936226655E+03  0.88936226655E+03  0.25500000920E-02 0.  1.
       -2   -1    0    0    0  501  0.00000000000E+00  0.00000000000E+00 -0.11224405469E+04  0.11224405469E+04  0.25500000920E-02 0. -1.
    10030    2    1    2    0    0  0.00000000000E+00  0.00000000000E+00 -0.23307828033E+03  0.20118028134E+04  0.19982555080E+04 0.  0.
        4    1    3    3  502    0  0.11606995211E+03  0.94452220275E+03 -0.42300427995E+03  0.10414070573E+04  0.12699999809E+01 0.  1.
       -4    1    3    3    0  502 -0.11606995211E+03 -0.94452220275E+03  0.18992599962E+03  0.97039575612E+03  0.12699999809E+01 0. -1.
</event>
<event>
 5   0  0.2142551E-05  0.1960524E+04  0.7818609E-02  0.8625303E-01
        1   -1    0    0  501    0  0.00000000000E+00  0.00000000000E+00  0.14844952667E+04  0.14844952667E+04  0.50400001928E-02 0. -1.
       -1   -1    0    0    0  501  0.00000000000E+00  0.00000000000E+00 -0.64729982660E+03  0.64729982661E+03  0.50400001928E-02 0.  1.
    10030    2    1    2    0    0  0.00000000000E+00  0.00000000000E+00  0.83719544006E+03  0.21317950933E+04  0.19605239389E+04 0.  0.
        3    1    3    3  502    0  0.75959654500E+03 -0.28632911124E+03  0.10160940613E+04  0.13005454328E+04  0.10100000352E+00 0. -1.
       -3    1    3    3    0  502 -0.75959654500E+03  0.28632911124E+03 -0.17889862128E+03  0.83124966047E+03  0.10100000352E+00 0.  1.
</event>
<event>
 5   0  0.2110896E-05  0.1990860E+04  0.7818609E-02  0.8610906E-01
        1   -1    0    0  501    0  0.00000000000E+00  0.00000000000E+00  0.10511817270E+04  0.10511817270E+04  0.50400001928E-02 0.  1.
       -1   -1    0    0    0  501  0.00000000000E+00  0.00000000000E+00 -0.94263482239E+03  0.94263482241E+03  0.50400001928E-02 0. -1.
    10030    2    1    2    0    0  0.00000000000E+00  0.00000000000E+00  0.10854690456E+03  0.19938165494E+04  0.19908596138E+04 0.  0.
        4    1    3    3  502    0  0.12773426662E+03 -0.89419128019E+03  0.47320659672E+03  0.10197157371E+04  0.12699999809E+01 0. -1.
       -4    1    3    3    0  502 -0.12773426662E+03  0.89419128019E+03 -0.36465969216E+03  0.97410081225E+03  0.12699999809E+01 0.  1.
</event>
<event>
 5   0  0.2093980E-05  0.1989715E+04  0.7818609E-02  0.8611444E-01
        1   -1    0    0  501    0  0.00000000000E+00  0.00000000000E+00  0.18337355540E+04  0.18337355540E+04  0.50400001928E-02 0. -1.
       -1   -1    0    0    0  501  0.00000000000E+00  0.00000000000E+00 -0.53974067608E+03  0.53974067611E+03  0.50400001928E-02 0.  1.
    10030    2    1    2    0    0  0.00000000000E+00  0.00000000000E+00  0.12939948779E+04  0.23734762301E+04  0.19897152235E+04 0.  0.
        2    1    3    3  502    0  0.97604474560E+03 -0.17975444670E+03  0.56464032773E+03  0.11418378634E+04  0.25500000920E-02 0. -1.
       -2    1    3    3    0  502 -0.97604474560E+03  0.17975444670E+03  0.72935455016E+03  0.12316383667E+04  0.25500000920E-02 0.  1.
</event>
<event>
 5   0  0.4577279E-05  0.2001127E+04  0.7818609E-02  0.8606094E-01
        2   -1    0    0  501    0  0.00000000000E+00  0.00000000000E+00  0.89561692279E+03  0.89561692280E+03  0.25500000920E-02 0.  1.
       -2   -1    0    0    0  501  0.00000000000E+00  0.00000000000E+00 -0.11178074928E+04  0.11178074928E+04  0.25500000920E-02 0. -1.
    10030    2    1    2    0    0  0.00000000000E+00  0.00000000000E+00 -0.22219057005E+03  0.20134244156E+04  0.20011269895E+04 0.  0.
        1    1    3    3  502    0  0.30375366577E+03 -0.11896108595E+03 -0.10627987526E+04  0.11117370274E+04  0.50400001928E-02 0. -1.
       -1    1    3    3    0  502 -0.30375366577E+03  0.11896108595E+03  0.84060818260E+03  0.90168738824E+03  0.50400001928E-02 0.  1.
</event>
<event>
 5   0  0.2007644E-05  0.2002997E+04  0.7818609E-02  0.8605221E-01
       -1   -1    0    0    0  501  0.00000000000E+00  0.00000000000E+00  0.76776904679E+03  0.76776904681E+03  0.50400001928E-02 0.  1.
        1   -1    0    0  501    0  0.00000000000E+00  0.00000000000E+00 -0.13063809574E+04  0.13063809574E+04  0.50400001928E-02 0. -1.
    10030    2    1    2    0    0  0.00000000000E+00  0.00000000000E+00 -0.53861191062E+03  0.20741500042E+04  0.20029966175E+04 0.  0.
        1    1    3    3  502    0  0.79860655317E+03 -0.36669995966E+03 -0.76674277631E+03  0.11662485894E+04  0.50400001928E-02 0. -1.
       -1    1    3    3    0  502 -0.79860655317E+03  0.36669995966E+03  0.22813086569E+03  0.90790141485E+03  0.50400001928E-02 0.  1.
</event>
<event>
 5   0  0.4577279E-05  0.1991693E+04  0.7818609E-02  0.8610514E-01
       -2   -1    0    0    0  501  0.00000000000E+00  0.00000000000E+00  0.69884385336E+03  0.69884385336E+03  0.25500000920E-02 0. -1.
        2   -1    0    0  501    0  0.00000000000E+00  0.00000000000E+00 -0.14190730809E+04  0.14190730809E+04  0.25500000920E-02 0.  1.
    10030    2    1    2    0    0  0.00000000000E+00  0.00000000000E+00 -0.72022922756E+03  0.21179169343E+04  0.19916932496E+04 0.  0.
        1    1    3    3  502    0  0.34440138643E+03 -0.82594066988E+03 -0.82475013243E+03  0.12169647021E+04  0.50400001928E-02 0.  1.
       -1    1    3    3    0  502 -0.34440138643E+03  0.82594066988E+03  0.10452090487E+03  0.90095223221E+03  0.50400001928E-02 0. -1.
</event>
<event>
 5   0  0.4473361E-05  0.2000773E+04  0.7818609E-02  0.8606259E-01
        2   -1    0    0  501    0  0.00000000000E+00  0.00000000000E+00  0.17098228454E+04  0.17098228455E+04  0.25500000920E-02 0. -1.
       -2   -1    0    0    0  501  0.00000000000E+00  0.00000000000E+00 -0.58530816393E+03  0.58530816394E+03  0.25500000920E-02 0.  1.
    10030    2    1    2    0    0  0.00000000000E+00  0.00000000000E+00  0.11245146815E+04  0.22951310094E+04  0.20007731209E+04 0.  0.
        2    1    3    3  502    0 -0.10296171887E+03 -0.91657195305E+03  0.10066365151E+04  0.13652920326E+04  0.25500000920E-02 0. -1.
       -2    1    3    3    0  502  0.10296171887E+03  0.91657195305E+03  0.11787816641E+03  0.92983897681E+03  0.25500000920E-02 0.  1.
</event>
<event>
 5   0  0.4412054E-05  0.2000480E+04  0.7818609E-02  0.8606396E-01
        2   -1    0    0  501    0  0.00000000000E+00  0.00000000000E+00  0.40109973951E+03  0.40109973952E+03  0.25500000920E-02 0. -1.
       -2   -1    0    0    0  501  0.00000000000E+00  0.00000000000E+00 -0.24943416823E+04  0.24943416823E+04  0.25500000920E-02 0.  1.
    10030    2    1    2    0    0  0.00000000000E+00  0.00000000000E+00 -0.20932419428E+04  0.28954414218E+04  0.20004797415E+04 0.  0.
        4    1    3    3  502    0  0.59518800153E+03 -0.69868832040E+03 -0.16220571877E+04  0.18637288589E+04  0.12699999809E+01 0.  1.
       -4    1    3    3    0  502 -0.59518800153E+03  0.69868832040E+03 -0.47118475505E+03  0.10317125629E+04  0.12699999809E+01 0. -1.
</event>
<event>
 5   0  0.2110896E-05  0.1990532E+04  0.7818609E-02  0.8611060E-01
        1   -1    0    0  501    0  0.00000000000E+00  0.00000000000E+00  0.10010799797E+04  0.10010799797E+04  0.50400001928E-02 0.  1.
       -1   -1    0    0    0  501  0.00000000000E+00  0.00000000000E+00 -0.98948573964E+03  0.98948573965E+03  0.50400001928E-02 0. -1.
    10030    2    1    2    0    0  0.00000000000E+00  0.00000000000E+00  0.11594240072E+02  0.19905657194E+04  0.19905319532E+04 0.  0.
        4    1    3    3  502    0  0.82534064373E+03  0.52379551810E+03  0.19289339444E+03  0.99637261980E+03  0.12699999809E+01 0.  1.
       -4    1    3    3    0  502 -0.82534064373E+03 -0.52379551810E+03 -0.18129915437E+03  0.99419309957E+03  0.12699999809E+01 0. -1.
</event>
<event>
 5   0  0.2007644E-05  0.2000045E+04  0.7818609E-02  0.8606600E-01
       -1   -1    0    0    0  501  0.00000000000E+00  0.00000000000E+00  0.69676733892E+03  0.69676733894E+03  0.50400001928E-02 0. -1.
        1   -1    0    0  501    0  0.00000000000E+00  0.00000000000E+00 -0.14352633975E+04  0.14352633975E+04  0.50400001928E-02 0.  1.
    10030    2    1    2    0    0  0.00000000000E+00  0.00000000000E+00 -0.73849605860E+03  0.21320307365E+04  0.20000446577E+04 0.  0.
        1    1    3    3  502    0 -0.67393512318E+03  0.72676669249E+03 -0.51093383851E+03  0.11150927150E+04  0.50400001928E-02 0.  1.
       -1    1    3    3    0  502  0.67393512318E+03 -0.72676669249E+03 -0.22756222010E+03  0.10169380215E+04  0.50400001928E-02 0. -1.
</event>
<event>
 5   0  0.4412054E-05  0.1987330E+04  0.7818609E-02  0.8612567E-01
        2   -1    0    0  501    0  0.00000000000E+00  0.00000000000E+00  0.11246101607E+04  0.11246101607E+04  0.25500000920E-02 0. -1.
       -2   -1    0    0    0  501  0.00000000000E+00  0.00000000000E+00 -0.87796629199E+03  0.87796629200E+03  0.25500000920E-02 0.  1.
    10030    2    1    2    0    0  0.00000000000E+00  0.00000000000E+00  0.24664386868E+03  0.20025764527E+04  0.19873296785E+04 0.  0.
        4    1    3    3  502    0  0.52418267447E+03  0.55536378943E+03  0.76394442725E+03  0.10801893888E+04  0.12699999809E+01 0. -1.
       -4    1    3    3    0  502 -0.52418267447E+03 -0.55536378943E+03 -0.51730055856E+03  0.92238706389E+03  0.12699999809E+01 0.  1.
</event>
<event>
 5   0  0.4447313E-05  0.2000692E+04  0.7818609E-02  0.8606297E-01
       -2   -1    0    0    0  501  0.00000000000E+00  0.00000000000E+00  0.57284716360E+03  0.57284716361E+03  0.25500000920E-02 0.  1.
        2   -1    0    0  501    0  0.00000000000E+00  0.00000000000E+00 -0.17468740555E+04  0.17468740555E+04  0.25500000920E-02 0. -1.
    10030    2    1    2    0    0  0.00000000000E+00  0.00000000000E+00 -0.11740268919E+04  0.23197212191E+04  0.20006917282E+04 0.  0.
        5    1    3    3  502    0 -0.97252801846E+03  0.13433838303E+03 -0.80947325698E+03  0.12724490527E+04  0.46999998093E+01 0. -1.
       -5    1    3    3    0  502  0.97252801846E+03 -0.13433838303E+03 -0.36455363489E+03  0.10472721664E+04  0.46999998093E+01 0.  1.
</event>
<event>
 5   0  0.2093980E-05  0.2006511E+04  0.7818609E-02  0.8603583E-01
       -1   -1    0    0    0  501  0.00000000000E+00  0.00000000000E+00  0.43085530434E+03  0.43085530437E+03  0.50400001928E-02 0. -1.
        1   -1    0    0  501    0  0.00000000000E+00  0.00000000000E+00 -0.23361009686E+04  0.23361009686E+04  0.50400001928E-02 0.  1.
    10030    2    1    2    0    0  0.00000000000E+00  0.00000000000E+00 -0.19052456643E+04  0.27669562730E+04  0.20065108959E+04 0.  0.
        2    1    3    3  502    0 -0.73837848259E+03 -0.16778195331E+03 -0.45034467454E+02  0.75853916885E+03  0.25500000920E-02 0. -1.
       -2    1    3    3    0  502  0.73837848259E+03  0.16778195331E+03 -0.18602111969E+04  0.20084171042E+04  0.25500000920E-02 0.  1.
</event>
<event>
 5   0  0.2142551E-05  0.2003448E+04  0.7818609E-02  0.8605010E-01
       -1   -1    0    0    0  501  0.00000000000E+00  0.00000000000E+00  0.11467174880E+04  0.11467174880E+04  0.50400001928E-02 0. -1.
        1   -1    0    0  501    0  0.00000000000E+00  0.00000000000E+00 -0.87506375224E+03  0.87506375225E+03  0.50400001928E-02 0.  1.
    10030    2    1    2    0    0  0.00000000000E+00  0.00000000000E+00  0.27165373575E+03  0.20217812402E+04  0.20034479358E+04 0.  0.
        3    1    3    3  502    0  0.60333527768E+03  0.54542493537E+03  0.72594209567E+03  0.10901806061E+04  0.10100000352E+00 0. -1.
       -3    1    3    3    0  502 -0.60333527768E+03 -0.54542493537E+03 -0.45428835992E+03  0.93160063416E+03  0.10100000352E+00 0.  1.
</event>
<event>
 5   0  0.4473361E-05  0.1949866E+04  0.7818609E-02  0.8630425E-01
        2   -1    0    0  501    0  0.00000000000E+00  0.00000000000E+00  0.55896394415E+03  0.55896394415E+03  0.25500000920E-02 0. -1.
       -2   -1    0    0    0  501  0.00000000000E+00  0.00000000000E+00 -0.17004571844E+04  0.17004571844E+04  0.25500000920E-02 0.  1.
    10030    2    1    2    0    0  0.00000000000E+00  0.00000000000E+00 -0.11414932402E+04  0.22594211285E+04  0.19498658976E+04 0.  0.
        2    1    3    3  502    0  0.79911339449E+03 -0.47695130858E+03 -0.90744382898E+03  0.12998150141E+04  0.25500000920E-02 0. -1.
       -2    1    3    3    0  502 -0.79911339449E+03  0.47695130858E+03 -0.23404941123E+03  0.95960611446E+03  0.25500000920E-02 0.  1.
</event>
<event>
 5   0  0.4412054E-05  0.1994603E+04  0.7818609E-02  0.8609148E-01
        2   -1    0    0  501    0  0.00000000000E+00  0.00000000000E+00  0.13090518095E+04  0.13090518095E+04  0.25500000920E-02 0.  1.
       -2   -1    0    0    0  501  0.00000000000E+00  0.00000000000E+00 -0.75979469042E+03  0.75979469043E+03  0.25500000920E-02 0. -1.
    10030    2    1    2    0    0  0.00000000000E+00  0.00000000000E+00  0.54925711910E+03  0.20688465000E+04  0.19946033334E+04 0.  0.
        4    1    3    3  502    0 -0.43985427828E+03 -0.79121100950E+03  0.70868131888E+03  0.11496597202E+04  0.12699999809E+01 0.  1.
       -4    1    3    3    0  502  0.43985427828E+03  0.79121100950E+03 -0.15942419978E+03  0.91918677974E+03  0.12699999809E+01 0. -1.
</event>
<event>
 5   0  0.2007644E-05  0.2015386E+04  0.7818609E-02  0.8599461E-01
        1   -1    0    0  501    0  0.00000000000E+00  0.00000000000E+00  0.10863338971E+04  0.10863338971E+04  0.50400001928E-02 0.  1.
       -1   -1    0    0    0  501  0.00000000000E+00  0.00000000000E+00 -0.93474476342E+03  0.93474476343E+03  0.50400001928E-02 0. -1.
    10030    2    1    2    0    0  0.00000000000E+00  0.00000000000E+00  0.15158913365E+03  0.20210786605E+04  0.20153857414E+04 0.  0.
        1    1    3    3  502    0 -0.72691248433E+03 -0.30399580092E+02  0.77498639699E+03  0.10629815661E+04  0.50400001928E-02 0.  1.
       -1    1    3    3    0  502  0.72691248433E+03  0.30399580092E+02 -0.62339726334E+03  0.95809709441E+03  0.50400001928E-02 0. -1.
</event>
<event>
 5   0  0.2007644E-05  0.2001342E+04  0.7818609E-02  0.8605994E-01
        1   -1    0    0  501    0  0.00000000000E+00  0.00000000000E+00  0.10687180360E+04  0.10687180360E+04  0.50400001928E-02 0. -1.
       -1   -1    0    0    0  501  0.00000000000E+00  0.00000000000E+00 -0.93695644818E+03  0.93695644819E+03  0.50400001928E-02 0.  1.
    10030    2    1    2    0    0  0.00000000000E+00  0.00000000000E+00  0.13176158780E+03  0.20056744842E+04  0.20013418050E+04 0.  0.
        1    1    3    3  502    0 -0.83610895193E+03 -0.24463212421E+03  0.55930754225E+03  0.10352526177E+04  0.50400001928E-02 0. -1.
       -1    1    3    3    0  502  0.83610895193E+03  0.24463212421E+03 -0.42754595445E+03  0.97042186645E+03  0.50400001928E-02 0.  1.
</event>
<event>
 5   0  0.4514680E-05  0.2018103E+04  0.7818609E-02  0.8598204E-01
       -2   -1    0    0    0  501  0.00000000000E+00  0.00000000000E+00  0.15502104020E+04  0.15502104020E+04  0.25500000920E-02 0. -1.
        2   -1    0    0  501    0  0.00000000000E+00  0.00000000000E+00 -0.65680414079E+03  0.65680414079E+03  0.25500000920E-02 0.  1.
    10030    2    1    2    0    0  0.00000000000E+00  0.00000000000E+00  0.89340626123E+03  0.22070145428E+04  0.20181026844E+04 0.  0.
        3    1    3    3  502    0  0.58236958938E+03 -0.54321908170E+03 -0.23093131925E+03  0.82919876614E+03  0.10100000352E+00 0.  1.
       -3    1    3    3    0  502 -0.58236958938E+03  0.54321908170E+03  0.11243375805E+04  0.13778157767E+04  0.10100000352E+00 0. -1.
</event>
<event>
 5   0  0.2110896E-05  0.2008149E+04  0.7818609E-02  0.8602820E-01
       -1   -1    0    0    0  501  0.00000000000E+00  0.00000000000E+00  0.12776496494E+04  0.12776496494E+04  0.50400001928E-02 0.  1.
        1   -1    0    0  501    0  0.00000000000E+00  0.00000000000E+00 -0.78907852343E+03  0.78907852344E+03  0.50400001928E-02 0. -1.
    10030    2    1    2    0    0  0.00000000000E+00  0.00000000000E+00  0.48857112592E+03  0.20667281728E+04  0.20081492960E+04 0.  0.
        4    1    3    3  502    0 -0.78993802028E+03  0.57908328439E+03  0.47169444320E+03  0.10871231700E+04  0.12699999809E+01 0.  1.
       -4    1    3    3    0  502  0.78993802028E+03 -0.57908328439E+03  0.16876682725E+02  0.97960500278E+03  0.12699999809E+01 0. -1.
</event>
<event>
 5   0  0.2007644E-05  0.2032301E+04  0.7818609E-02  0.8591666E-01
        1   -1    0    0  501    0  0.00000000000E+00  0.00000000000E+00  0.92697036954E+03  0.92697036955E+03  0.50400001928E-02 0. -1.
       -1   -1    0    0    0  501  0.00000000000E+00  0.00000000000E+00 -0.11139105254E+04  0.11139105254E+04  0.50400001928E-02 0.  1.
    10030    2    1    2    0    0  0.00000000000E+00  0.00000000000E+00 -0.18694015584E+03  0.20408808949E+04  0.20323012093E+04 0.  0.
        1    1    3    3  502    0  0.59708139216E+03 -0.62274382735E+03  0.44568192160E+03  0.97105532212E+03  0.50400001928E-02 0. -1.
       -1    1    3    3    0  502 -0.59708139216E+03  0.62274382735E+03 -0.63262207744E+03  0.10698255728E+04  0.50400001928E-02 0.  1.
</event>
<event>
 5   0  0.2007644E-05  0.2005450E+04  0.7818609E-02  0.8604077E-01
        1   -1    0    0  501    0  0.00000000000E+00  0.00000000000E+00  0.12797320678E+04  0.12797320678E+04  0.50400001928E-02 0. -1.
       -1   -1    0    0    0  501  0.00000000000E+00  0.00000000000E+00 -0.78567835094E+03  0.78567835096E+03  0.50400001928E-02 0.  1.
    10030    2    1    2    0    0  0.00000000000E+00  0.00000000000E+00  0.49405371683E+03  0.20654104187E+04  0.20054503541E+04 0.  0.
        1    1    3    3  502    0  0.57938547196E+03  0.46458667205E+03  0.94091368460E+03  0.11986854729E+04  0.50400001928E-02 0. -1.
       -1    1    3    3    0  502 -0.57938547196E+03 -0.46458667205E+03 -0.44685996777E+03  0.86672494587E+03  0.50400001928E-02 0.  1.
</event>
<event>
 5   0  0.2142551E-05  0.1999904E+04  0.7818609E-02  0.8606666E-01
       -1   -1    0    0    0  501  0.00000000000E+00  0.00000000000E+00  0.15356492965E+04  0.15356492966E+04  0.50400001928E-02 0.  1.
        1   -1    0    0  501    0  0.00000000000E+00  0.00000000000E+00 -0.65112768493E+03  0.65112768495E+03  0.50400001928E-02 0. -1.
    10030    2    1    2    0    0  0.00000000000E+00  0.00000000000E+00  0.88452161162E+03  0.21867769815E+04  0.19999037690E+04 0.  0.
        3    1    3    3  502    0  0.58755593602E+03  0.62636224168E+03  0.10023248452E+04  0.13199267939E+04  0.10100000352E+00 0. -1.
       -3    1    3    3    0  502 -0.58755593602E+03 -0.62636224168E+03 -0.11780323356E+03  0.86685018763E+03  0.10100000352E+00 0.  1.
</event>
<event>
 5   0  0.4447313E-05  0.2032643E+04  0.7818609E-02  0.8591509E-01
        2   -1    0    0  501    0  0.00000000000E+00  0.00000000000E+00  0.17889850982E+04  0.17889850982E+04  0.25500000920E-02 0.  1.
       -2   -1    0    0    0  501  0.00000000000E+00  0.00000000000E+00 -0.57737198636E+03  0.57737198636E+03  0.25500000920E-02 0. -1.
    10030    2    1    2    0    0  0.00000000000E+00  0.00000000000E+00  0.12116131119E+04  0.23663570846E+04  0.20326434805E+04 0.  0.
        5    1    3    3  502    0 -0.61921779716E+03 -0.58437937010E+02  0.15415342537E+04  0.16622862624E+04  0.46999998093E+01 0.  1.
       -5    1    3    3    0  502  0.61921779716E+03  0.58437937010E+02 -0.32992114185E+03  0.70407082218E+03  0.46999998093E+01 0. -1.
</event>
<event>
 5   0  0.2110896E-05  0.2002262E+04  0.7818609E-02  0.8605564E-01
       -1   -1    0    0    0  501  0.00000000000E+00  0.00000000000E+00  0.45260028435E+03  0.45260028437E+03  0.50400001928E-02 0.  1.
        1   -1    0    0  501    0  0.00000000000E+00  0.00000000000E+00 -0.22144560860E+04  0.22144560860E+04  0.50400001928E-02 0. -1.
    10030    2    1    2    0    0  0.00000000000E+00  0.00000000000E+00 -0.17618558016E+04  0.26670563703E+04  0.20022621749E+04 0.  0.
        4    1    3    3  502    0 -0.52553051871E+03 -0.24490671981E+03 -0.19680567940E+04  0.20516848649E+04  0.12699999809E+01 0. -1.
       -4    1    3    3    0  502  0.52553051871E+03  0.24490671981E+03  0.20620099242E+03  0.61537150542E+03  0.12699999809E+01 0.  1.
</event>
<event>
 5   0  0.2007644E-05  0.2006054E+04  0.7818609E-02  0.8603795E-01
        1   -1    0    0  501    0  0.00000000000E+00  0.00000000000E+00  0.22649473748E+04  0.22649473748E+04  0.50400001928E-02 0.  1.
       -1   -1    0    0    0  501  0.00000000000E+00  0.00000000000E+00 -0.44418832173E+03  0.44418832175E+03  0.50400001928E-02 0. -1.
    10030    2    1    2    0    0  0.00000000000E+00  0.00000000000E+00  0.18207590531E+04  0.27091356965E+04  0.20060540105E+04 0.  0.
        1    1    3    3  502    0  0.28209050057E+03 -0.75696227906E+03  0.10744426489E+03  0.81493018873E+03  0.50400001928E-02 0. -1.
       -1    1    3    3    0  502 -0.28209050057E+03  0.75696227906E+03  0.17133147882E+04  0.18942055078E+04  0.50400001928E-02 0.  1.
</event>
<event>
 5   0  0.2007644E-05  0.1996267E+04  0.7818609E-02  0.8608368E-01
        1   -1    0    0  501    0  0.00000000000E+00  0.00000000000E+00  0.75607881496E+03  0.75607881497E+03  0.50400001928E-02 0.  1.
       -1   -1    0    0    0  501  0.00000000000E+00  0.00000000000E+00 -0.13176810102E+04  0.13176810102E+04  0.50400001928E-02 0. -1.
    10030    2    1    2    0    0  0.00000000000E+00  0.00000000000E+00 -0.56160219525E+03  0.20737598252E+04  0.19962672133E+04 0.  0.
        1    1    3    3  502    0 -0.81225529197E+01 -0.84395136626E+03 -0.83435681451E+03  0.11867902841E+04  0.50400001928E-02 0. -1.
       -1    1    3    3    0  502  0.81225529197E+01  0.84395136626E+03  0.27275461926E+03  0.88696954109E+03  0.50400001928E-02 0.  1.
</event>
<event>
 5   0  0.4447313E-05  0.1997648E+04  0.7818609E-02  0.8607721E-01
        2   -1    0    0  501    0  0.00000000000E+00  0.00000000000E+00  0.16837021095E+04  0.16837021095E+04  0.25500000920E-02 0. -1.
       -2   -1    0    0    0  501  0.00000000000E+00  0.00000000000E+00 -0.59253340155E+03  0.59253340155E+03  0.25500000920E-02 0.  1.
    10030    2    1    2    0    0  0.00000000000E+00  0.00000000000E+00  0.10911687079E+04  0.22762355110E+04  0.19976483556E+04 0.  0.
        5    1    3    3  502    0 -0.80202456219E+03 -0.44826257190E+03  0.99193318808E+03  0.13520858964E+04  0.46999998093E+01 0. -1.
       -5    1    3    3    0  502  0.80202456219E+03  0.44826257190E+03  0.99235519832E+02  0.92414961458E+03  0.46999998093E+01 0.  1.
</event>
<event>
 5   0  0.4412054E-05  0.1992548E+04  0.7818609E-02  0.8610113E-01
        2   -1    0    0  501    0  0.00000000000E+00  0.00000000000E+00  0.10775385079E+04  0.10775385079E+04  0.25500000920E-02 0.  1.
       -2   -1    0    0    0  501  0.00000000000E+00  0.00000000000E+00 -0.92113837805E+03  0.92113837805E+03  0.25500000920E-02 0. -1.
    10030    2    1    2    0    0  0.00000000000E+00  0.00000000000E+00  0.15640012990E+03  0.19986768860E+04  0.19925481911E+04 0.  0.
        4    1    3    3  502    0 -0.71685294013E+01 -0.81807550004E+03 -0.49210966486E+03  0.95471066127E+03  0.12699999809E+01 0. -1.
       -4    1    3    3    0  502  0.71685294013E+01  0.81807550004E+03  0.64850979476E+03  0.10439662247E+04  0.12699999809E+01 0.  1.
</event>
<event>
 5   0  0.2256868E-05  0.1998698E+04  0.7818609E-02  0.8607230E-01
       -1   -1    0    0    0  501  0.00000000000E+00  0.00000000000E+00  0.75206303346E+03  0.75206303348E+03  0.50400001928E-02 0.  1.
        1   -1    0    0  501    0  0.00000000000E+00  0.00000000000E+00 -0.13279445116E+04  0.13279445116E+04  0.50400001928E-02 0. -1.
    10030    2    1    2    0    0  0.00000000000E+00  0.00000000000E+00 -0.57588147813E+03  0.20800075451E+04  0.19986975536E+04 0.  0.
        5    1    3    3  502    0  0.80125725814E+03  0.28355907290E+03  0.25904302155E+03  0.88856306392E+03  0.46999998093E+01 0.  1.
       -5    1    3    3    0  502 -0.80125725814E+03 -0.28355907290E+03 -0.83492449968E+03  0.11914444812E+04  0.46999998093E+01 0. -1.
</event>
<event>
 5   0  0.4412054E-05  0.2013431E+04  0.7818609E-02  0.8600367E-01
        2   -1    0    0  501    0  0.00000000000E+00  0.00000000000E+00  0.13352967905E+04  0.13352967905E+04  0.25500000920E-02 0. -1.
       -2   -1    0    0    0  501  0.00000000000E+00  0.00000000000E+00 -0.75898968609E+03  0.75898968610E+03  0.25500000920E-02 0.  1.
    10030    2    1    2    0    0  0.00000000000E+00  0.00000000000E+00  0.57630710441E+03  0.20942864766E+04  0.20134313913E+04 0.  0.
        4    1    3    3  502    0 -0.63769457670E+03  0.47275638583E+03  0.93214644161E+03  0.12243576173E+04  0.12699999809E+01 0. -1.
       -4    1    3    3    0  502  0.63769457670E+03 -0.47275638583E+03 -0.35583933719E+03  0.86992885933E+03  0.12699999809E+01 0.  1.
</event>
<event>
 5   0  0.2142551E-05  0.2003298E+04  0.7818609E-02  0.8605081E-01
       -1   -1    0    0    0  501  0.00000000000E+00  0.00000000000E+00  0.12008888454E+04  0.12008888455E+04  0.50400001928E-02 0.  1.
        1   -1    0    0  501    0  0.00000000000E+00  0.00000000000E+00 -0.83546470550E+03  0.83546470551E+03  0.50400001928E-02 0. -1.
    10030    2    1    2    0    0  0.00000000000E+00  0.00000000000E+00  0.36542413995E+03  0.20363535510E+04  0.20032975272E+04 0.  0.
        3    1    3    3  502    0 -0.16492138907E+03 -0.94675687149E+03 -0.10435286370E+03  0.96666290332E+03  0.10100000352E+00 0. -1.
       -3    1    3    3    0  502  0.16492138907E+03  0.94675687149E+03  0.46977700364E+03  0.10696906476E+04  0.10100000352E+00 0.  1.
</event>
<event>
 5   0  0.4473361E-05  0.1998863E+04  0.7818609E-02  0.8607152E-01
        2   -1    0    0  501    0  0.00000000000E+00  0.00000000000E+00  0.20548615650E+04  0.20548615650E+04  0.25500000920E-02 0.  1.
       -2   -1    0    0    0  501  0.00000000000E+00  0.00000000000E+00 -0.48609783473E+03  0.48609783474E+03  0.25500000920E-02 0. -1.
    10030    2    1    2    0    0  0.00000000000E+00  0.00000000000E+00  0.15687637303E+04  0.25409593998E+04  0.19988634345E+04 0.  0.
        2    1    3    3  502    0  0.29311054032E+03 -0.88311270306E+03  0.12480865664E+04  0.15567664925E+04  0.25500000920E-02 0.  1.
       -2    1    3    3    0  502 -0.29311054032E+03  0.88311270306E+03  0.32067716394E+03  0.98419290722E+03  0.25500000920E-02 0. -1.
</event>
<event>
 5   0  0.4577279E-05  0.1996203E+04  0.7818609E-02  0.8608398E-01
       -2   -1    0    0    0  501  0.00000000000E+00  0.00000000000E+00  0.87179662077E+03  0.87179662078E+03  0.25500000920E-02 0.  1.
        2   -1    0    0  501    0  0.00000000000E+00  0.00000000000E+00 -0.11427052616E+04  0.11427052616E+04  0.25500000920E-02 0. -1.
    10030    2    1    2    0    0  0.00000000000E+00  0.00000000000E+00 -0.27090864084E+03  0.20145018824E+04  0.19962029813E+04 0.  0.
        1    1    3    3  502    0 -0.45815087297E+03  0.31638052124E+03 -0.97142448966E+03  0.11196715571E+04  0.50400001928E-02 0. -1.
       -1    1    3    3    0  502  0.45815087297E+03 -0.31638052124E+03  0.70051584881E+03  0.89483032531E+03  0.50400001928E-02 0.  1.
</event>
<event>
 5   0  0.2110896E-05  0.1992734E+04  0.7818609E-02  0.8610025E-01
        1   -1    0    0  501    0  0.00000000000E+00  0.00000000000E+00  0.10428003922E+04  0.10428003922E+04  0.50400001928E-02 0.  1.
       -1   -1    0    0    0  501  0.00000000000E+00  0.00000000000E+00 -0.95200097204E+03  0.95200097205E+03  0.50400001928E-02 0. -1.
    10030    2    1    2    0    0  0.00000000000E+00  0.00000000000E+00  0.90799420180E+02  0.19948013643E+04  0.19927337876E+04 0.  0.
        4    1    3    3  502    0 -0.92546676563E+03  0.64435748326E+02  0.40923889012E+03  0.10139619234E+04  0.12699999809E+01 0.  1.
       -4    1    3    3    0  502  0.92546676563E+03 -0.64435748326E+02 -0.31843946994E+03  0.98083944092E+03  0.12699999809E+01 0. -1.
</event>
<event>
 5   0  0.4577279E-05  0.1994413E+04  0.7818609E-02  0.8609237E-01
       -2   -1    0    0    0  501  0.00000000000E+00  0.00000000000E+00  0.48437517220E+03  0.48437517221E+03  0.25500000920E-02 0. -1.
        2   -1    0    0  501    0  0.00000000000E+00  0.00000000000E+00 -0.20529979952E+04  0.20529979952E+04  0.25500000920E-02 0.  1.
    10030    2    1    2    0    0  0.00000000000E+00  0.00000000000E+00 -0.15686228230E+04  0.25373731674E+04  0.19944134551E+04 0.  0.
        1    1    3    3  502    0  0.21676316675E+03 -0.67561260761E+03  0.10714927268E+03  0.71757900797E+03  0.50400001928E-02 0. -1.
       -1    1    3    3    0  502 -0.21676316675E+03  0.67561260761E+03 -0.16757720957E+04  0.18197941595E+04  0.50400001928E-02 0.  1.
</event>
<event>
 5   0  0.2093980E-05  0.1964191E+04  0.7818609E-02  0.8623548E-01
        1   -1    0    0  501    0  0.00000000000E+00  0.00000000000E+00  0.97845308716E+03  0.97845308717E+03  0.50400001928E-02 0.  1.
       -1   -1    0    0    0  501  0.00000000000E+00  0.00000000000E+00 -0.98575146748E+03  0.98575146749E+03  0.50400001928E-02 0. -1.
    10030    2    1    2    0    0  0.00000000000E+00  0.00000000000E+00 -0.72983803178E+01  0.19642045547E+04  0.19641909953E+04 0.  0.
        2    1    3    3  502    0 -0.85282274236E+03  0.39987618947E+03  0.27438864368E+03  0.98106917421E+03  0.25500000920E-02 0. -1.
       -2    1    3    3    0  502  0.85282274236E+03 -0.39987618947E+03 -0.28168702400E+03  0.98313538045E+03  0.25500000920E-02 0.  1.
</event>
<event>
 5   0  0.4412054E-05  0.1997701E+04  0.7818609E-02  0.8607696E-01
        2   -1    0    0  501    0  0.00000000000E+00  0.00000000000E+00  0.97232949495E+03  0.97232949495E+03  0.25500000920E-02 0.  1.
       -2   -1    0    0    0  501  0.00000000000E+00  0.00000000000E+00 -0.10260947174E+04  0.10260947174E+04  0.25500000920E-02 0. -1.
    10030    2    1    2    0    0  0.00000000000E+00  0.00000000000E+00 -0.53765222494E+02  0.19984242124E+04  0.19977008369E+04 0.  0.
        4    1    3    3  502    0  0.16584968840E+03  0.41168676801E+03  0.86826453638E+03  0.97512923868E+03  0.12699999809E+01 0.  1.
       -4    1    3    3    0  502 -0.16584968840E+03 -0.41168676801E+03 -0.92202975888E+03  0.10232949737E+04  0.12699999809E+01 0. -1.
</event>
<event>
 5   0  0.4514680E-05  0.2007810E+04  0.7818609E-02  0.8602978E-01
        2   -1    0    0  501    0  0.00000000000E+00  0.00000000000E+00  0.11560819508E+04  0.11560819508E+04  0.25500000920E-02 0.  1.
       -2   -1    0    0    0  501  0.00000000000E+00  0.00000000000E+00 -0.87175956868E+03  0.87175956868E+03  0.25500000920E-02 0. -1.
    10030    2    1    2    0    0  0.00000000000E+00  0.00000000000E+00  0.28432238215E+03  0.20278415195E+04  0.20078102528E+04 0.  0.
        3    1    3    3  502    0  0.66072178397E+03  0.72234219384E+03  0.36685313240E+03  0.10454246753E+04  0.10100000352E+00 0.  1.
       -3    1    3    3    0  502 -0.66072178397E+03 -0.72234219384E+03 -0.82530750258E+02  0.98241684419E+03  0.10100000352E+00 0. -1.
</event>
<event>
 5   0  0.2093980E-05  0.2002049E+04  0.7818609E-02  0.8605663E-01
       -1   -1    0    0    0  501  0.00000000000E+00  0.00000000000E+00  0.14998801424E+04  0.14998801425E+04  0.50400001928E-02 0. -1.
        1   -1    0    0  501    0  0.00000000000E+00  0.00000000000E+00 -0.66808663753E+03  0.66808663755E+03  0.50400001928E-02 0.  1.
    10030    2    1    2    0    0  0.00000000000E+00  0.00000000000E+00  0.83179350492E+03  0.21679667800E+04  0.20020488317E+04 0.  0.
        2    1    3    3  502    0 -0.43549529767E+03 -0.73502594452E+03 -0.14899682474E+03  0.86724814626E+03  0.25500000920E-02 0.  1.
       -2    1    3    3    0  502  0.43549529767E+03  0.73502594452E+03  0.98079032966E+03  0.13007186337E+04  0.25500000920E-02 0. -1.
</event>
<event>
 5   0  0.2110896E-05  0.2002484E+04  0.7818609E-02  0.8605460E-01
       -1   -1    0    0    0  501  0.00000000000E+00  0.00000000000E+00  0.15940669630E+04  0.15940669630E+04  0.50400001928E-02 0. -1.
        1   -1    0    0  501    0  0.00000000000E+00  0.00000000000E+00 -0.62888576417E+03  0.62888576419E+03  0.50400001928E-02 0.  1.
    10030    2    1    2    0    0  0.00000000000E+00  0.00000000000E+00  0.96518119879E+03  0.22229527272E+04  0.20024844770E+04 0.  0.
        4    1    3    3  502    0  0.66961486070E+03  0.19095138240E+03 -0.31609179029E+03  0.76469740741E+03  0.12699999809E+01 0.  1.
       -4    1    3    3    0  502 -0.66961486070E+03 -0.19095138240E+03  0.12812729891E+04  0.14582553197E+04  0.12699999809E+01 0. -1.
</event>
<event>
 5   0  0.2142551E-05  0.1994269E+04  0.7818609E-02  0.8609305E-01
        1   -1    0    0  501    0  0.00000000000E+00  0.00000000000E+00  0.16928602270E+04  0.16928602270E+04  0.50400001928E-02 0. -1.
       -1   -1    0    0    0  501  0.00000000000E+00  0.00000000000E+00 -0.58733565947E+03  0.58733565949E+03  0.50400001928E-02 0.  1.
    10030    2    1    2    0    0  0.00000000000E+00  0.00000000000E+00  0.11055245676E+04  0.22801958865E+04  0.19942689667E+04 0.  0.
        3    1    3    3  502    0 -0.19341300471E+03 -0.88375263456E+03  0.10322300746E+04  0.13725619282E+04  0.10100000352E+00 0. -1.
       -3    1    3    3    0  502  0.19341300471E+03  0.88375263456E+03  0.73294492929E+02  0.90763395836E+03  0.10100000352E+00 0.  1.
</event>
<event>
 5   0  0.2142551E-05  0.1995362E+04  0.7818609E-02  0.8608792E-01
        1   -1    0    0  501    0  0.00000000000E+00  0.00000000000E+00  0.10651018990E+04  0.10651018990E+04  0.50400001928E-02 0. -1.
       -1   -1    0    0    0  501  0.00000000000E+00  0.00000000000E+00 -0.93452820576E+03  0.93452820578E+03  0.50400001928E-02 0.  1.
    10030    2    1    2    0    0  0.00000000000E+00  0.00000000000E+00  0.13057369322E+03  0.19996301048E+04  0.19953623898E+04 0.  0.
        3    1    3    3  502    0 -0.92304770209E+03  0.11594073466E+03 -0.29591218051E+03  0.97622914475E+03  0.10100000352E+00 0. -1.
       -3    1    3    3    0  502  0.92304770209E+03 -0.11594073466E+03  0.42648587373E+03  0.10234009600E+04  0.10100000352E+00 0.  1.
</event>
<event>
 5   0  0.4577279E-05  0.1999565E+04  0.7818609E-02  0.8606824E-01
       -2   -1    0    0    0  501  0.00000000000E+00  0.00000000000E+00  0.14910031315E+04  0.14910031315E+04  0.25500000920E-02 0. -1.
        2   -1    0    0  501    0  0.00000000000E+00  0.00000000000E+00 -0.67039757519E+03  0.67039757520E+03  0.25500000920E-02 0.  1.
    10030    2    1    2    0    0  0.00000000000E+00  0.00000000000E+00  0.82060555628E+03  0.21614007067E+04  0.19995648366E+04 0.  0.
        1    1    3    3  502    0 -0.27688978864E+03  0.57354025478E+03  0.12433587750E+04  0.13969815397E+04  0.50400001928E-02 0. -1.
       -1    1    3    3    0  502  0.27688978864E+03 -0.57354025478E+03 -0.42275321869E+03  0.76441916698E+03  0.50400001928E-02 0.  1.
</event>
<event>
 5   0  0.4447313E-05  0.2003677E+04  0.7818609E-02  0.8604903E-01
        2   -1    0    0  501    0  0.00000000000E+00  0.00000000000E+00  0.27342959591E+04  0.27342959591E+04  0.25500000920E-02 0.  1.
       -2   -1    0    0    0  501  0.00000000000E+00  0.00000000000E+00 -0.36707087672E+03  0.36707087673E+03  0.25500000920E-02 0. -1.
    10030    2    1    2    0    0  0.00000000000E+00  0.00000000000E+00  0.23672250824E+04  0.31013668359E+04  0.20036770348E+04 0.  0.
        5    1    3    3  502    0 -0.25639933874E+03  0.36539544153E+03  0.25718459605E+04  0.26103004011E+04  0.46999998093E+01 0.  1.
       -5    1    3    3    0  502  0.25639933874E+03 -0.36539544153E+03 -0.20462087807E+03  0.49106643475E+03  0.46999998093E+01 0. -1.
</event>
<event>
 5   0  0.4473361E-05  0.1938853E+04  0.7818609E-02  0.8635755E-01
       -2   -1    0    0    0  501  0.00000000000E+00  0.00000000000E+00  0.10727844020E+04  0.10727844020E+04  0.25500000920E-02 0.  1.
        2   -1    0    0  501    0  0.00000000000E+00  0.00000000000E+00 -0.87602695875E+03  0.87602695876E+03  0.25500000920E-02 0. -1.
    10030    2    1    2    0    0  0.00000000000E+00  0.00000000000E+00  0.19675744321E+03  0.19488113607E+04  0.19388533282E+04 0.  0.
        2    1    3    3  502    0  0.37113583541E+03 -0.77027364281E+03 -0.36083180555E+03  0.92804250174E+03  0.25500000920E-02 0.  1.
       -2    1    3    3    0  502 -0.37113583541E+03  0.77027364281E+03  0.55758924876E+03  0.10207688590E+04  0.25500000920E-02 0. -1.
</event>
<event>
 5   0  0.2007644E-05  0.2006597E+04  0.7818609E-02  0.8603542E-01
       -1   -1    0    0    0  501  0.00000000000E+00  0.00000000000E+00  0.11959792318E+04  0.11959792319E+04  0.50400001928E-02 0.  1.
        1   -1    0    0  501    0  0.00000000000E+00  0.00000000000E+00 -0.84166032530E+03  0.84166032531E+03  0.50400001928E-02 0. -1.
    10030    2    1    2    0    0  0.00000000000E+00  0.00000000000E+00  0.35431890654E+03  0.20376395572E+04  0.20065973880E+04 0.  0.
        1    1    3    3  502    0  0.36417649583E+03  0.93289022481E+03  0.23892455980E+03  0.10295599239E+04  0.50400001928E-02 0. -1.
       -1    1    3    3    0  502 -0.36417649583E+03 -0.93289022481E+03  0.11539434674E+03  0.10080796332E+04  0.50400001928E-02 0.  1.
</event>
<event>
 5   0  0.4473361E-05  0.2007583E+04  0.7818609E-02  0.8603084E-01
       -2   -1    0    0    0  501  0.00000000000E+00  0.00000000000E+00  0.58464516351E+03  0.58464516351E+03  0.25500000920E-02 0. -1.
        2   -1    0    0  501    0  0.00000000000E+00  0.00000000000E+00 -0.17234334684E+04  0.17234334684E+04  0.25500000920E-02 0.  1.
    10030    2    1    2    0    0  0.00000000000E+00  0.00000000000E+00 -0.11387883049E+04  0.23080786319E+04  0.20075826677E+04 0.  0.
        2    1    3    3  502    0  0.66667262364E+03  0.51071385510E+01  0.29334019405E+03  0.72837280250E+03  0.25500000920E-02 0. -1.
       -2    1    3    3    0  502 -0.66667262364E+03 -0.51071385510E+01 -0.14321284989E+04  0.15797058294E+04  0.25500000920E-02 0.  1.
</event>
<event>
 5   0  0.2007644E-05  0.2011228E+04  0.7818609E-02  0.8601389E-01
        1   -1    0    0  501    0  0.00000000000E+00  0.00000000000E+00  0.13244538232E+04  0.13244538232E+04  0.50400001928E-02 0.  1.
       -1   -1    0    0    0  501  0.00000000000E+00  0.00000000000E+00 -0.76352908748E+03  0.76352908750E+03  0.50400001928E-02 0. -1.
    10030    2    1    2    0    0  0.00000000000E+00  0.00000000000E+00  0.56092473576E+03  0.20879829107E+04  0.20112275049E+04 0.  0.
        1    1    3    3  502    0  0.64637648997E+03 -0.41084690949E+02 -0.51816035394E+03  0.82944600248E+03  0.50400001928E-02 0.  1.
       -1    1    3    3    0  502 -0.64637648997E+03  0.41084690949E+02  0.10790850897E+04  0.12585369083E+04  0.50400001928E-02 0. -1.
</event>
<event>
 5   0  0.2256868E-05  0.2001532E+04  0.7818609E-02  0.8605905E-01
       -1   -1    0    0    0  501  0.00000000000E+00  0.00000000000E+00  0.18691730104E+04  0.18691730104E+04  0.50400001928E-02 0. -1.
        1   -1    0    0  501    0  0.00000000000E+00  0.00000000000E+00 -0.53581586855E+03  0.53581586858E+03  0.50400001928E-02 0.  1.
    10030    2    1    2    0    0  0.00000000000E+00  0.00000000000E+00  0.13333571419E+04  0.24049888790E+04  0.20015319734E+04 0.  0.
        5    1    3    3  502    0  0.24423325426E+03  0.81144761266E+03  0.27001624287E+02  0.84784921318E+03  0.46999998093E+01 0.  1.
       -5    1    3    3    0  502 -0.24423325426E+03 -0.81144761266E+03  0.13063555176E+04  0.15571396658E+04  0.46999998093E+01 0. -1.
</event>
<event>
 5   0  0.4412054E-05  0.1997935E+04  0.7818609E-02  0.8607587E-01
        2   -1    0    0  501    0  0.00000000000E+00  0.00000000000E+00  0.22811985930E+04  0.22811985930E+04  0.25500000920E-02 0. -1.
       -2   -1    0    0    0  501  0.00000000000E+00  0.00000000000E+00 -0.43746141012E+03  0.43746141013E+03  0.25500000920E-02 0.  1.
    10030    2    1    2    0    0  0.00000000000E+00  0.00000000000E+00  0.18437371829E+04  0.27186600032E+04  0.19979352875E+04 0.  0.
        4    1    3    3  502    0 -0.75371544183E+03  0.36871593591E+03  0.18418425299E+03  0.85904822950E+03  0.12699999809E+01 0.  1.
       -4    1    3    3    0  502  0.75371544183E+03 -0.36871593591E+03  0.16595529299E+04  0.18596117737E+04  0.12699999809E+01 0. -1.
</event>
<event>
 5   0  0.2007644E-05  0.1999794E+04  0.7818609E-02  0.8606717E-01
        1   -1    0    0  501    0  0.00000000000E+00  0.00000000000E+00  0.91474554366E+03  0.91474554367E+03  0.50400001928E-02 0.  1.
       -1   -1    0    0    0  501  0.00000000000E+00  0.00000000000E+00 -0.10929746837E+04  0.10929746837E+04  0.50400001928E-02 0. -1.
    10030    2    1    2    0    0  0.00000000000E+00  0.00000000000E+00 -0.17822914004E+03  0.20077202274E+04  0.19997937106E+04 0.  0.
        1    1    3    3  502    0  0.89416555341E+03  0.41069239777E+03 -0.26756452617E+03  0.10197014554E+04  0.50400001928E-02 0. -1.
       -1    1    3    3    0  502 -0.89416555341E+03 -0.41069239777E+03  0.89335386133E+02  0.98801877196E+03  0.50400001928E-02 0.  1.
</event>
<event>
 5   0  0.1601500E-05  0.1995542E+04  0.7818609E-02  0.8608708E-01
        3   -1    0    0  501    0  0.00000000000E+00  0.00000000000E+00  0.89648559229E+03  0.89648559798E+03  0.10100000352E+00 0.  1.
       -3   -1    0    0    0  501  0.00000000000E+00  0.00000000000E+00 -0.11104999862E+04  0.11104999908E+04  0.10100000352E+00 0. -1.
    10030    2    1    2    0    0  0.00000000000E+00  0.00000000000E+00 -0.21401439389E+03  0.20069855888E+04  0.19955422804E+04 0.  0.
        4    1    3    3  502    0 -0.71378043640E+03  0.68883982134E+03 -0.21515439849E+03  0.10150250435E+04  0.12699999809E+01 0. -1.
       -4    1    3    3    0  502  0.71378043640E+03 -0.68883982134E+03  0.11400046022E+01  0.99196054526E+03  0.12699999809E+01 0.  1.
</event>
<event>
 5   0  0.2007644E-05  0.2006015E+04  0.7818609E-02  0.8603814E-01
        1   -1    0    0  501    0  0.00000000000E+00  0.00000000000E+00  0.11703850656E+04  0.11703850656E+04  0.50400001928E-02 0. -1.
       -1   -1    0    0    0  501  0.00000000000E+00  0.00000000000E+00 -0.85956647937E+03  0.85956647938E+03  0.50400001928E-02 0.  1.
    10030    2    1    2    0    0  0.00000000000E+00  0.00000000000E+00  0.31081858620E+03  0.20299515450E+04  0.20060147261E+04 0.  0.
        1    1    3    3  502    0 -0.44358769519E+03 -0.44518169197E+03 -0.63562619155E+03  0.89385537846E+03  0.50400001928E-02 0.  1.
       -1    1    3    3    0  502  0.44358769519E+03  0.44518169197E+03  0.94644477774E+03  0.11360961665E+04  0.50400001928E-02 0. -1.
</event>
<event>
 5   0  0.2093980E-05  0.2010622E+04  0.7818609E-02  0.8601671E-01
        1   -1    0    0  501    0  0.00000000000E+00  0.00000000000E+00  0.13842317969E+04  0.13842317969E+04  0.50400001928E-02 0.  1.
       -1   -1    0    0    0  501  0.00000000000E+00  0.00000000000E+00 -0.73011627681E+03  0.73011627683E+03  0.50400001928E-02 0. -1.
    10030    2    1    2    0    0  0.00000000000E+00  0.00000000000E+00  0.65411552006E+03  0.21143480737E+04  0.20106219593E+04 0.  0.
        2    1    3    3  502    0  0.62096306439E+03  0.78919655514E+03  0.27746738163E+03  0.10418322695E+04  0.25500000920E-02 0.  1.
       -2    1    3    3    0  502 -0.62096306439E+03 -0.78919655514E+03  0.37664813843E+03  0.10725158042E+04  0.25500000920E-02 0. -1.
</event>
<event>
 5   0  0.2110896E-05  0.1995872E+04  0.7818609E-02  0.8608553E-01
        1   -1    0    0  501    0  0.00000000000E+00  0.00000000000E+00  0.11822029341E+04  0.11822029341E+04  0.50400001928E-02 0.  1.
       -1   -1    0    0    0  501  0.00000000000E+00  0.00000000000E+00 -0.84239060332E+03  0.84239060333E+03  0.50400001928E-02 0. -1.
    10030    2    1    2    0    0  0.00000000000E+00  0.00000000000E+00  0.33981233080E+03  0.20245935375E+04  0.19958723836E+04 0.  0.
        4    1    3    3  502    0 -0.45559526508E+03 -0.27877935064E+03  0.10250017044E+04  0.11558179263E+04  0.12699999809E+01 0.  1.
       -4    1    3    3    0  502  0.45559526508E+03  0.27877935064E+03 -0.68518937359E+03  0.86877561113E+03  0.12699999809E+01 0. -1.
</event>
<event>
 5   0  0.2256868E-05  0.1996636E+04  0.7818609E-02  0.8608195E-01
       -1   -1    0    0    0  501  0.00000000000E+00  0.00000000000E+00  0.12053931080E+04  0.12053931080E+04  0.50400001928E-02 0. -1.
        1   -1    0    0  501    0  0.00000000000E+00  0.00000000000E+00 -0.82681670329E+03  0.82681670330E+03  0.50400001928E-02 0.  1.
    10030    2    1    2    0    0  0.00000000000E+00  0.00000000000E+00  0.37857640471E+03  0.20322098113E+04  0.19966363272E+04 0.  0.
        5    1    3    3  502    0  0.12569346659E+03  0.24056024181E+03  0.11671070955E+04  0.11982608814E+04  0.46999998093E+01 0. -1.
       -5    1    3    3    0  502 -0.12569346659E+03 -0.24056024181E+03 -0.78853069077E+03  0.83394892995E+03  0.46999998093E+01 0.  1.
</event>
<event>
 5   0  0.4577279E-05  0.1995884E+04  0.7818609E-02  0.8608548E-01
       -2   -1    0    0    0  501  0.00000000000E+00  0.00000000000E+00  0.59430741857E+03  0.59430741858E+03  0.25500000920E-02 0.  1.
        2   -1    0    0  501    0  0.00000000000E+00  0.00000000000E+00 -0.16757115898E+04  0.16757115899E+04  0.25500000920E-02 0. -1.
    10030    2    1    2    0    0  0.00000000000E+00  0.00000000000E+00 -0.10814041713E+04  0.22700190084E+04  0.19958835930E+04 0.  0.
        1    1    3    3  502    0  0.71350614991E+03 -0.56216617087E+03 -0.10106989798E+04  0.13589092161E+04  0.50400001928E-02 0. -1.
       -1    1    3    3    0  502 -0.71350614991E+03  0.56216617087E+03 -0.70705191433E+02  0.91110979236E+03  0.50400001928E-02 0.  1.
</event>
<event>
 5   0  0.2093980E-05  0.2004926E+04  0.7818609E-02  0.8604321E-01
        1   -1    0    0  501    0  0.00000000000E+00  0.00000000000E+00  0.10280758529E+04  0.10280758529E+04  0.50400001928E-02 0.  1.
       -1   -1    0    0    0  501  0.00000000000E+00  0.00000000000E+00 -0.97748797793E+03  0.97748797795E+03  0.50400001928E-02 0. -1.
    10030    2    1    2    0    0  0.00000000000E+00  0.00000000000E+00  0.50587874999E+02  0.20055638309E+04  0.20049257210E+04 0.  0.
        2    1    3    3  502    0  0.70016124079E+03  0.62048299214E+03 -0.33496910122E+03  0.99369472446E+03  0.25500000920E-02 0. -1.
       -2    1    3    3    0  502 -0.70016124079E+03 -0.62048299214E+03  0.38555697622E+03  0.10118691064E+04  0.25500000920E-02 0.  1.
</event>
<event>
 5   0  0.4514680E-05  0.1999309E+04  0.7818609E-02  0.8606944E-01
        2   -1    0    0  501    0  0.00000000000E+00  0.00000000000E+00  0.10963255300E+04  0.10963255300E+04  0.25500000920E-02 0.  1.
       -2   -1    0    0    0  501  0.00000000000E+00  0.00000000000E+00 -0.91150780190E+03  0.91150780191E+03  0.25500000920E-02 0. -1.
    10030    2    1    2    0    0  0.00000000000E+00  0.00000000000E+00  0.18481772811E+03  0.20078333319E+04  0.19993091547E+04 0.  0.
        3    1    3    3  502    0  0.89409140466E+03  0.36536785270E+03  0.35122096226E+03  0.10277398903E+04  0.10100000352E+00 0.  1.
       -3    1    3    3    0  502 -0.89409140466E+03 -0.36536785270E+03 -0.16640323415E+03  0.98009344157E+03  0.10100000352E+00 0. -1.
</event>
<event>
 5   0  0.2110896E-05  0.1998601E+04  0.7818609E-02  0.8607275E-01
       -1   -1    0    0    0  501  0.00000000000E+00  0.00000000000E+00  0.55283983072E+03  0.55283983074E+03  0.50400001928E-02 0.  1.
        1   -1    0    0  501    0  0.00000000000E+00  0.00000000000E+00 -0.18063127305E+04  0.18063127305E+04  0.50400001928E-02 0. -1.
    10030    2    1    2    0    0  0.00000000000E+00  0.00000000000E+00 -0.12534728998E+04  0.23591525613E+04  0.19986011350E+04 0.  0.
        4    1    3    3  502    0 -0.46600463583E+03  0.75946776955E+03 -0.11607276145E+04  0.14632982682E+04  0.12699999809E+01 0. -1.
       -4    1    3    3    0  502  0.46600463583E+03 -0.75946776955E+03 -0.92745285262E+02  0.89585429309E+03  0.12699999809E+01 0.  1.
</event>
<event>
 5   0  0.4577279E-05  0.2001242E+04  0.7818609E-02  0.8606040E-01
       -2   -1    0    0    0  501  0.00000000000E+00  0.00000000000E+00  0.89049373270E+03  0.89049373270E+03  0.25500000920E-02 0. -1.
        2   -1    0    0  501    0  0.00000000000E+00  0.00000000000E+00 -0.11243675755E+04  0.11243675755E+04  0.25500000920E-02 0.  1.
    10030    2    1    2    0    0  0.00000000000E+00  0.00000000000E+00 -0.23387384281E+03  0.20148613082E+04  0.20012418937E+04 0.  0.
        1    1    3    3  502    0  0.33116417569E+03 -0.84218696627E+03 -0.54680122230E+03  0.10573269003E+04  0.50400001928E-02 0.  1.
       -1    1    3    3    0  502 -0.33116417569E+03  0.84218696627E+03  0.31292737949E+03  0.95753440788E+03  0.50400001928E-02 0. -1.
</event>
<event>
 5   0  0.2142551E-05  0.1997727E+04  0.7818609E-02  0.8607684E-01
       -1   -1    0    0    0  501  0.00000000000E+00  0.00000000000E+00  0.34496569285E+03  0.34496569288E+03  0.50400001928E-02 0. -1.
        1   -1    0    0  501    0  0.00000000000E+00  0.00000000000E+00 -0.28922550887E+04  0.28922550887E+04  0.50400001928E-02 0.  1.
    10030    2    1    2    0    0  0.00000000000E+00  0.00000000000E+00 -0.25472893958E+04  0.32372207815E+04  0.19977274895E+04 0.  0.
        3    1    3    3  502    0 -0.25497841503E+03  0.43474857800E+02 -0.28370444077E+04  0.28488111620E+04  0.10100000352E+00 0.  1.
       -3    1    3    3    0  502  0.25497841503E+03 -0.43474857800E+02  0.28975501191E+03  0.38840961950E+03  0.10100000352E+00 0. -1.
</event>
<event>
 5   0  0.4412054E-05  0.1998867E+04  0.7818609E-02  0.8607151E-01
        2   -1    0    0  501    0  0.00000000000E+00  0.00000000000E+00  0.13005482045E+04  0.13005482045E+04  0.25500000920E-02 0. -1.
       -2   -1    0    0    0  501  0.00000000000E+00  0.00000000000E+00 -0.76803556373E+03  0.76803556373E+03  0.25500000920E-02 0.  1.
    10030    2    1    2    0    0  0.00000000000E+00  0.00000000000E+00  0.53251264076E+03  0.20685837682E+04  0.19988669524E+04 0.  0.
        4    1    3    3  502    0 -0.86817026582E+03 -0.48881160961E+03  0.34780354019E+03  0.10552844714E+04  0.12699999809E+01 0.  1.
       -4    1    3    3    0  502  0.86817026582E+03  0.48881160961E+03  0.18470910056E+03  0.10132992968E+04  0.12699999809E+01 0. -1.
</event>
<event>
 5   0  0.4412054E-05  0.2004401E+04  0.7818609E-02  0.8604566E-01
        2   -1    0    0  501    0  0.00000000000E+00  0.00000000000E+00  0.15754516425E+04  0.15754516425E+04  0.25500000920E-02 0. -1.
       -2   -1    0    0    0  501  0.00000000000E+00  0.00000000000E+00 -0.63753543458E+03  0.63753543459E+03  0.25500000920E-02 0.  1.
    10030    2    1    2    0    0  0.00000000000E+00  0.00000000000E+00  0.93791620787E+03  0.22129870770E+04  0.20044014045E+04 0.  0.
        4    1    3    3  502    0 -0.23677246485E+02 -0.14181712538E+03  0.15640046066E+04  0.15706001182E+04  0.12699999809E+01 0. -1.
       -4    1    3    3    0  502  0.23677246485E+02  0.14181712538E+03 -0.62608839868E+03  0.64238695886E+03  0.12699999809E+01 0.  1.
</event>
<event>
 5   0  0.4447313E-05  0.1992369E+04  0.7818609E-02  0.8610197E-01
       -2   -1    0    0    0  501  0.00000000000E+00  0.00000000000E+00  0.11629716439E+04  0.11629716439E+04  0.25500000920E-02 0. -1.
        2   -1    0    0  501    0  0.00000000000E+00  0.00000000000E+00 -0.85331702440E+03  0.85331702440E+03  0.25500000920E-02 0.  1.
    10030    2    1    2    0    0  0.00000000000E+00  0.00000000000E+00  0.30965461953E+03  0.20162886683E+04  0.19923689444E+04 0.  0.
        5    1    3    3  502    0 -0.68479681798E+03  0.15314023961E+03  0.87039675930E+03  0.11180390080E+04  0.46999998093E+01 0. -1.
       -5    1    3    3    0  502  0.68479681798E+03 -0.15314023961E+03 -0.56074213977E+03  0.89824966029E+03  0.46999998093E+01 0.  1.
</event>
<event>
 5   0  0.4473361E-05  0.2008945E+04  0.7818609E-02  0.8602450E-01
        2   -1    0    0  501    0  0.00000000000E+00  0.00000000000E+00  0.10689848875E+04  0.10689848875E+04  0.25500000920E-02 0.  1.
       -2   -1    0    0    0  501  0.00000000000E+00  0.00000000000E+00 -0.94385291587E+03  0.94385291587E+03  0.25500000920E-02 0. -1.
    10030    2    1    2    0    0  0.00000000000E+00  0.00000000000E+00  0.12513197161E+03  0.20128378033E+04  0.20089445020E+04 0.  0.
        2    1    3    3  502    0 -0.31065486187E+03 -0.83683225630E+03 -0.39894565523E+03  0.97772813411E+03  0.25500000920E-02 0. -1.
       -2    1    3    3    0  502  0.31065486187E+03  0.83683225630E+03  0.52407762684E+03  0.10351096692E+04  0.25500000920E-02 0.  1.
</event>
<event>
 5   0  0.4514680E-05  0.1991689E+04  0.7818609E-02  0.8610516E-01
       -2   -1    0    0    0  501  0.00000000000E+00  0.00000000000E+00  0.93247158777E+03  0.93247158777E+03  0.25500000920E-02 0.  1.
        2   -1    0    0  501    0  0.00000000000E+00  0.00000000000E+00 -0.10635241022E+04  0.10635241023E+04  0.25500000920E-02 0. -1.
    10030    2    1    2    0    0  0.00000000000E+00  0.00000000000E+00 -0.13105251448E+03  0.19959956900E+04  0.19916887390E+04 0.  0.
        3    1    3    3  502    0  0.47973005950E+03  0.78458239269E+03  0.31739362921E+03  0.97285620056E+03  0.10100000352E+00 0. -1.
       -3    1    3    3    0  502 -0.47973005950E+03 -0.78458239269E+03 -0.44844614369E+03  0.10231394895E+04  0.10100000352E+00 0.  1.
</event>
<event>
 5   0  0.4514680E-05  0.2003188E+04  0.7818609E-02  0.8605132E-01
        2   -1    0    0  501    0  0.00000000000E+00  0.00000000000E+00  0.10506922501E+04  0.10506922501E+04  0.25500000920E-02 0.  1.
       -2   -1    0    0    0  501  0.00000000000E+00  0.00000000000E+00 -0.95479014843E+03  0.95479014844E+03  0.25500000920E-02 0. -1.
    10030    2    1    2    0    0  0.00000000000E+00  0.00000000000E+00  0.95902101685E+02  0.20054823986E+04  0.20031880685E+04 0.  0.
        3    1    3    3  502    0  0.19931865399E+03  0.98075134584E+03  0.87864884333E+02  0.10046498775E+04  0.10100000352E+00 0.  1.
       -3    1    3    3    0  502 -0.19931865399E+03 -0.98075134584E+03  0.80372173513E+01  0.10008325211E+04  0.10100000352E+00 0. -1.
</event>
<event>
 5   0  0.4473361E-05  0.1999691E+04  0.7818609E-02  0.8606765E-01
        2   -1    0    0  501    0  0.00000000000E+00  0.00000000000E+00  0.14496034917E+04  0.14496034917E+04  0.25500000920E-02 0. -1.
       -2   -1    0    0    0  501  0.00000000000E+00  0.00000000000E+00 -0.68963074336E+03  0.68963074337E+03  0.25500000920E-02 0.  1.
    10030    2    1    2    0    0  0.00000000000E+00  0.00000000000E+00  0.75997274835E+03  0.21392342351E+04  0.19996911097E+04 0.  0.
        2    1    3    3  502    0 -0.24332955912E+03  0.21800020877E+03 -0.63091988192E+03  0.71048804548E+03  0.25500000920E-02 0.  1.
       -2    1    3    3    0  502  0.24332955912E+03 -0.21800020877E+03  0.13908926303E+04  0.14287461896E+04  0.25500000920E-02 0. -1.
</event>
<event>
 5   0  0.1601500E-05  0.2004032E+04  0.7818609E-02  0.8604738E-01
        3   -1    0    0  501    0  0.00000000000E+00  0.00000000000E+00  0.70297084693E+03  0.70297085418E+03  0.10100000352E+00 0.  1.
       -3   -1    0    0    0  501  0.00000000000E+00  0.00000000000E+00 -0.14282756150E+04  0.14282756186E+04  0.10100000352E+00 0. -1.
    10030    2    1    2    0    0  0.00000000000E+00  0.00000000000E+00 -0.72530476807E+03  0.21312464727E+04  0.20040320659E+04 0.  0.
        3    1    3    3  502    0  0.46272063870E+02  0.21837372752E+03  0.67619206220E+03  0.71208419724E+03  0.10100000352E+00 0.  1.
       -3    1    3    3    0  502 -0.46272063870E+02 -0.21837372752E+03 -0.14014968303E+04  0.14191622755E+04  0.10100000352E+00 0. -1.
</event>
<event>
 5   0  0.1601500E-05  0.2002670E+04  0.7818609E-02  0.8605373E-01
        4   -1    0    0  501    0  0.00000000000E+00  0.00000000000E+00  0.93345013283E+03  0.93345099678E+03  0.12699999809E+01 0.  1.
       -4   -1    0    0    0  501  0.00000000000E+00  0.00000000000E+00 -0.10741552759E+04  0.10741560267E+04  0.12699999809E+01 0. -1.
    10030    2    1    2    0    0  0.00000000000E+00  0.00000000000E+00 -0.14070514307E+03  0.20076070235E+04  0.20026702233E+04 0.  0.
        2    1    3    3  502    0  0.91716418409E+03 -0.24773190734E+03 -0.38753539512E+03  0.10260335867E+04  0.25500000920E-02 0. -1.
       -2    1    3    3    0  502 -0.91716418409E+03  0.24773190734E+03  0.24683025205E+03  0.98157343679E+03  0.25500000920E-02 0.  1.
</event>
<event>
 5   0  0.4514680E-05  0.2003891E+04  0.7818609E-02  0.8604804E-01
       -2   -1    0    0    0  501  0.00000000000E+00  0.00000000000E+00  0.78201962389E+03  0.78201962390E+03  0.25500000920E-02 0. -1.
        2   -1    0    0  501    0  0.00000000000E+00  0.00000000000E+00 -0.12837205558E+04  0.12837205559E+04  0.25500000920E-02 0.  1.
    10030    2    1    2    0    0  0.00000000000E+00  0.00000000000E+00 -0.50170093196E+03  0.20657401797E+04  0.20038908815E+04 0.  0.
        3    1    3    3  502    0  0.54715108757E+03 -0.69220964115E+03  0.23852926342E+03  0.91401571083E+03  0.10100000352E+00 0. -1.
       -3    1    3    3    0  502 -0.54715108757E+03  0.69220964115E+03 -0.74023019538E+03  0.11517244689E+04  0.10100000352E+00 0.  1.
</event>
<event>
 5   0  0.2110896E-05  0.2003535E+04  0.7818609E-02  0.8604970E-01
        1   -1    0    0  501    0  0.00000000000E+00  0.00000000000E+00  0.71157501926E+03  0.71157501928E+03  0.50400001928E-02 0.  1.
       -1   -1    0    0    0  501  0.00000000000E+00  0.00000000000E+00 -0.14103054395E+04  0.14103054395E+04  0.50400001928E-02 0. -1.
    10030    2    1    2    0    0  0.00000000000E+00  0.00000000000E+00 -0.69873042023E+03  0.21218804588E+04  0.20035349962E+04 0.  0.
        4    1    3    3  502    0  0.64851652169E+03  0.80329218097E+02  0.45476692867E+03  0.79614134078E+03  0.12699999809E+01 0.  1.
       -4    1    3    3    0  502 -0.64851652169E+03 -0.80329218097E+02 -0.11534973489E+04  0.13257391180E+04  0.12699999809E+01 0. -1.
</event>
<event>
 5   0  0.4577279E-05  0.2002537E+04  0.7818609E-02  0.8605436E-01
       -2   -1    0    0    0  501  0.00000000000E+00  0.00000000000E+00  0.10774803865E+04  0.10774803865E+04  0.25500000920E-02 0. -1.
        2   -1    0    0  501    0  0.00000000000E+00  0.00000000000E+00 -0.93044703071E+03  0.93044703071E+03  0.25500000920E-02 0.  1.
    10030    2    1    2    0    0  0.00000000000E+00  0.00000000000E+00  0.14703335584E+03  0.20079274173E+04  0.20025368175E+04 0.  0.
        1    1    3    3  502    0  0.74202106095E+03  0.63932694926E+03  0.28193245961E+03  0.10192252522E+04  0.50400001928E-02 0. -1.
       -1    1    3    3    0  502 -0.74202106095E+03 -0.63932694926E+03 -0.13489910377E+03  0.98870216505E+03  0.50400001928E-02 0.  1.
</event>
<event>
 5   0  0.4473361E-05  0.1994580E+04  0.7818609E-02  0.8609159E-01
        2   -1    0    0  501    0  0.00000000000E+00  0.00000000000E+00  0.17151616670E+04  0.17151616670E+04  0.25500000920E-02 0.  1.
       -2   -1    0    0    0  501  0.00000000000E+00  0.00000000000E+00 -0.57987950179E+03  0.57987950179E+03  0.25500000920E-02 0. -1.
    10030    2    1    2    0    0  0.00000000000E+00  0.00000000000E+00  0.11352821653E+04  0.22950411688E+04  0.19945797482E+04 0.  0.
        2    1    3    3  502    0 -0.35206101288E+03  0.59040111120E+03 -0.26374367233E+03  0.73626160677E+03  0.25500000920E-02 0. -1.
       -2    1    3    3    0  502  0.35206101288E+03 -0.59040111120E+03  0.13990258376E+04  0.15587795621E+04  0.25500000920E-02 0.  1.
</event>
<event>
 5   0  0.2093980E-05  0.1967520E+04  0.7818609E-02  0.8621958E-01
        1   -1    0    0  501    0  0.00000000000E+00  0.00000000000E+00  0.17218944584E+04  0.17218944584E+04  0.50400001928E-02 0.  1.
       -1   -1    0    0    0  501  0.00000000000E+00  0.00000000000E+00 -0.56204615119E+03  0.56204615121E+03  0.50400001928E-02 0. -1.
    10030    2    1    2    0    0  0.00000000000E+00  0.00000000000E+00  0.11598483073E+04  0.22839406097E+04  0.19675204224E+04 0.  0.
        2    1    3    3  502    0  0.28039837090E+03 -0.76477239903E+03  0.12202561100E+04  0.14671486096E+04  0.25500000920E-02 0.  1.
       -2    1    3    3    0  502 -0.28039837090E+03  0.76477239903E+03 -0.60407802711E+02  0.81679200006E+03  0.25500000920E-02 0. -1.
</event>
<event>
 5   0  0.4447313E-05  0.2033139E+04  0.7818609E-02  0.8591282E-01
       -2   -1    0    0    0  501  0.00000000000E+00  0.00000000000E+00  0.49042854202E+03  0.49042854202E+03  0.25500000920E-02 0.  1.
        2   -1    0    0  501    0  0.00000000000E+00  0.00000000000E+00 -0.21071651461E+04  0.21071651461E+04  0.25500000920E-02 0. -1.
    10030    2    1    2    0    0  0.00000000000E+00  0.00000000000E+00 -0.16167366041E+04  0.25975936881E+04  0.20331393759E+04 0.  0.
        5    1    3    3  502    0 -0.88704638833E+03  0.18689959363E+03 -0.22064727903E+03  0.93300057068E+03  0.46999998093E+01 0.  1.
       -5    1    3    3    0  502  0.88704638833E+03 -0.18689959363E+03 -0.13960893251E+04  0.16645931175E+04  0.46999998093E+01 0. -1.
</event>
<event>
 5   0  0.2142551E-05  0.1989154E+04  0.7818609E-02  0.8611708E-01
        1   -1    0    0  501    0  0.00000000000E+00  0.00000000000E+00  0.14910110620E+04  0.14910110621E+04  0.50400001928E-02 0. -1.
       -1   -1    0    0    0  501  0.00000000000E+00  0.00000000000E+00 -0.66343158892E+03  0.66343158893E+03  0.50400001928E-02 0.  1.
    10030    2    1    2    0    0  0.00000000000E+00  0.00000000000E+00  0.82757947313E+03  0.21544426510E+04  0.19891544314E+04 0.  0.
        3    1    3    3  502    0  0.67436190790E+03 -0.71114283969E+03  0.59726389216E+03  0.11476986923E+04  0.10100000352E+00 0. -1.
       -3    1    3    3    0  502 -0.67436190790E+03  0.71114283969E+03  0.23031558097E+03  0.10067439587E+04  0.10100000352E+00 0.  1.
</event>
<event>
 5   0  0.2142551E-05  0.2003095E+04  0.7818609E-02  0.8605175E-01
        1   -1    0    0  501    0  0.00000000000E+00  0.00000000000E+00  0.17022083953E+04  0.17022083954E+04  0.50400001928E-02 0.  1.
       -1   -1    0    0    0  501  0.00000000000E+00  0.00000000000E+00 -0.58929168422E+03  0.58929168424E+03  0.50400001928E-02 0. -1.
    10030    2    1    2    0    0  0.00000000000E+00  0.00000000000E+00  0.11129167111E+04  0.22915000796E+04  0.20030948577E+04 0.  0.
        3    1    3    3  502    0 -0.96811722741E+03  0.11115413410E+03  0.82103948081E+03  0.12742496014E+04  0.10100000352E+00 0.  1.
       -3    1    3    3    0  502  0.96811722741E+03 -0.11115413410E+03  0.29187723031E+03  0.10172504782E+04  0.10100000352E+00 0. -1.
</event>
<event>
 5   0  0.2110896E-05  0.2040425E+04  0.7818609E-02  0.8587951E-01
       -1   -1    0    0    0  501  0.00000000000E+00  0.00000000000E+00  0.62244378027E+03  0.62244378029E+03  0.50400001928E-02 0. -1.
        1   -1    0    0  501    0  0.00000000000E+00  0.00000000000E+00 -0.16721723087E+04  0.16721723087E+04  0.50400001928E-02 0.  1.
    10030    2    1    2    0    0  0.00000000000E+00  0.00000000000E+00 -0.10497285284E+04  0.22946160890E+04  0.20404247138E+04 0.  0.
        4    1    3    3  502    0  0.18462246027E+03 -0.17690892706E+03 -0.16355516421E+04  0.16554192847E+04  0.12699999809E+01 0.  1.
       -4    1    3    3    0  502 -0.18462246027E+03  0.17690892706E+03  0.58582311363E+03  0.63919680434E+03  0.12699999809E+01 0. -1.
</event>
<event>
 5   0  0.4412054E-05  0.2000530E+04  0.7818609E-02  0.8606373E-01
       -2   -1    0    0    0  501  0.00000000000E+00  0.00000000000E+00  0.11594015114E+04  0.11594015114E+04  0.25500000920E-02 0.  1.
        2   -1    0    0  501    0  0.00000000000E+00  0.00000000000E+00 -0.86297100819E+03  0.86297100819E+03  0.25500000920E-02 0. -1.
    10030    2    1    2    0    0  0.00000000000E+00  0.00000000000E+00  0.29643050326E+03  0.20223725196E+04  0.20005298211E+04 0.  0.
        4    1    3    3  502    0  0.72898879499E+02  0.49048925696E+03 -0.72996648758E+03  0.88246622809E+03  0.12699999809E+01 0. -1.
       -4    1    3    3    0  502 -0.72898879499E+02 -0.49048925696E+03  0.10263969908E+04  0.11399062916E+04  0.12699999809E+01 0.  1.
</event>
<event>
 5   0  0.4473361E-05  0.2001889E+04  0.7818609E-02  0.8605738E-01
        2   -1    0    0  501    0  0.00000000000E+00  0.00000000000E+00  0.97824217859E+03  0.97824217860E+03  0.25500000920E-02 0. -1.
       -2   -1    0    0    0  501  0.00000000000E+00  0.00000000000E+00 -0.10241741431E+04  0.10241741431E+04  0.25500000920E-02 0.  1.
    10030    2    1    2    0    0  0.00000000000E+00  0.00000000000E+00 -0.45931964531E+02  0.20024163217E+04  0.20018894525E+04 0.  0.
        2    1    3    3  502    0 -0.65657123076E+03 -0.36508962653E+03 -0.68458857410E+03  0.10163846379E+04  0.25500000920E-02 0.  1.
       -2    1    3    3    0  502  0.65657123076E+03  0.36508962653E+03  0.63865660957E+03  0.98603168378E+03  0.25500000920E-02 0. -1.
</event>
<event>
 5   0  0.4412054E-05  0.2004604E+04  0.7818609E-02  0.8604471E-01
        2   -1    0    0  501    0  0.00000000000E+00  0.00000000000E+00  0.11779601484E+04  0.11779601484E+04  0.25500000920E-02 0.  1.
       -2   -1    0    0    0  501  0.00000000000E+00  0.00000000000E+00 -0.85283809831E+03  0.85283809831E+03  0.25500000920E-02 0. -1.
    10030    2    1    2    0    0  0.00000000000E+00  0.00000000000E+00  0.32512205006E+03  0.20307982467E+04  0.20046039936E+04 0.  0.
        4    1    3    3  502    0 -0.42634030619E+02  0.43319709596E+03 -0.75208216634E+03  0.86896868893E+03  0.12699999809E+01 0. -1.
       -4    1    3    3    0  502  0.42634030619E+02 -0.43319709596E+03  0.10772042164E+04  0.11618295578E+04  0.12699999809E+01 0.  1.
</event>
<event>
 5   0  0.4577279E-05  0.2002943E+04  0.7818609E-02  0.8605246E-01
        2   -1    0    0  501    0  0.00000000000E+00  0.00000000000E+00  0.79509874491E+03  0.79509874492E+03  0.25500000920E-02 0.  1.
       -2   -1    0    0    0  501  0.00000000000E+00  0.00000000000E+00 -0.12614093710E+04  0.12614093710E+04  0.25500000920E-02 0. -1.
    10030    2    1    2    0    0  0.00000000000E+00  0.00000000000E+00 -0.46631062604E+03  0.20565081159E+04  0.20029428426E+04 0.  0.
        1    1    3    3  502    0 -0.64758382320E+03 -0.19603980916E+03  0.52493215843E+03  0.85635867825E+03  0.50400001928E-02 0.  1.
       -1    1    3    3    0  502  0.64758382320E+03  0.19603980916E+03 -0.99124278447E+03  0.12001494376E+04  0.50400001928E-02 0. -1.
</event>
<event>
 5   0  0.4514680E-05  0.2043986E+04  0.7818609E-02  0.8586327E-01
        2   -1    0    0  501    0  0.00000000000E+00  0.00000000000E+00  0.14367966054E+04  0.14367966054E+04  0.25500000920E-02 0. -1.
       -2   -1    0    0    0  501  0.00000000000E+00  0.00000000000E+00 -0.72694341408E+03  0.72694341408E+03  0.25500000920E-02 0.  1.
    10030    2    1    2    0    0  0.00000000000E+00  0.00000000000E+00  0.70985319137E+03  0.21637400195E+04  0.20439861347E+04 0.  0.
        3    1    3    3  502    0  0.20066400454E+03 -0.72444147024E+03 -0.37801751968E+03  0.84141472647E+03  0.10100000352E+00 0.  1.
       -3    1    3    3    0  502 -0.20066400454E+03  0.72444147024E+03  0.10878707110E+04  0.13223252931E+04  0.10100000352E+00 0. -1.
</event>
<event>
 5   0  0.2007644E-05  0.2017285E+04  0.7818609E-02  0.8598582E-01
       -1   -1    0    0    0  501  0.00000000000E+00  0.00000000000E+00  0.54021877762E+03  0.54021877764E+03  0.50400001928E-02 0.  1.
        1   -1    0    0  501    0  0.00000000000E+00  0.00000000000E+00 -0.18832360729E+04  0.18832360729E+04  0.50400001928E-02 0. -1.
    10030    2    1    2    0    0  0.00000000000E+00  0.00000000000E+00 -0.13430172952E+04  0.24234548505E+04  0.20172847982E+04 0.  0.
        1    1    3    3  502    0 -0.98874817375E+02 -0.52813558566E+03  0.35397563585E+03  0.64343000952E+03  0.50400001928E-02 0.  1.
       -1    1    3    3    0  502  0.98874817375E+02  0.52813558566E+03 -0.16969929311E+04  0.17800248410E+04  0.50400001928E-02 0. -1.
</event>
<event>
 5   0  0.4473361E-05  0.1969353E+04  0.7818609E-02  0.8621085E-01
        2   -1    0    0  501    0  0.00000000000E+00  0.00000000000E+00  0.88789833487E+03  0.88789833488E+03  0.25500000920E-02 0.  1.
       -2   -1    0    0    0  501  0.00000000000E+00  0.00000000000E+00 -0.10920032271E+04  0.10920032271E+04  0.25500000920E-02 0. -1.
    10030    2    1    2    0    0  0.00000000000E+00  0.00000000000E+00 -0.20410489223E+03  0.19799015620E+04  0.19693530380E+04 0.  0.
        2    1    3    3  502    0 -0.62137577941E+03  0.24084579082E+03 -0.83083059882E+03  0.10650793577E+04  0.25500000920E-02 0. -1.
       -2    1    3    3    0  502  0.62137577941E+03 -0.24084579082E+03  0.62672570659E+03  0.91482220431E+03  0.25500000920E-02 0.  1.
</event>
<event>
 5   0  0.2093980E-05  0.2006915E+04  0.7818609E-02  0.8603394E-01
       -1   -1    0    0    0  501  0.00000000000E+00  0.00000000000E+00  0.13388054860E+04  0.13388054860E+04  0.50400001928E-02 0. -1.
        1   -1    0    0  501    0  0.00000000000E+00  0.00000000000E+00 -0.75210848108E+03  0.75210848110E+03  0.50400001928E-02 0.  1.
    10030    2    1    2    0    0  0.00000000000E+00  0.00000000000E+00  0.58669700491E+03  0.20909139671E+04  0.20069150062E+04 0.  0.
        2    1    3    3  502    0 -0.42737362830E+03  0.67599704931E+03 -0.33807628581E+03  0.86828325095E+03  0.25500000920E-02 0.  1.
       -2    1    3    3    0  502  0.42737362830E+03 -0.67599704931E+03  0.92477329072E+03  0.12226307162E+04  0.25500000920E-02 0. -1.
</event>
<event>
 5   0  0.4473361E-05  0.1998434E+04  0.7818609E-02  0.8607353E-01
        2   -1    0    0  501    0  0.00000000000E+00  0.00000000000E+00  0.10208221740E+04  0.10208221740E+04  0.25500000920E-02 0. -1.
       -2   -1    0    0    0  501  0.00000000000E+00  0.00000000000E+00 -0.97806911598E+03  0.97806911598E+03  0.25500000920E-02 0.  1.
    10030    2    1    2    0    0  0.00000000000E+00  0.00000000000E+00  0.42753058048E+02  0.19988912900E+04  0.19984340283E+04 0.  0.
        2    1    3    3  502    0  0.38714957883E+03  0.28753211226E+03  0.89671968989E+03  0.10181678222E+04  0.25500000920E-02 0. -1.
       -2    1    3    3    0  502 -0.38714957883E+03 -0.28753211226E+03 -0.85396663184E+03  0.98072346779E+03  0.25500000920E-02 0.  1.
</event>
<event>
 5   0  0.4412054E-05  0.1999442E+04  0.7818609E-02  0.8606882E-01
        2   -1    0    0  501    0  0.00000000000E+00  0.00000000000E+00  0.94906779291E+03  0.94906779291E+03  0.25500000920E-02 0.  1.
       -2   -1    0    0    0  501  0.00000000000E+00  0.00000000000E+00 -0.10530777628E+04  0.10530777628E+04  0.25500000920E-02 0. -1.
    10030    2    1    2    0    0  0.00000000000E+00  0.00000000000E+00 -0.10400996989E+03  0.20021455557E+04  0.19994421103E+04 0.  0.
        4    1    3    3  502    0  0.99147443871E+03 -0.12081686175E+03 -0.92588774354E+01  0.99885214942E+03  0.12699999809E+01 0.  1.
       -4    1    3    3    0  502 -0.99147443871E+03  0.12081686175E+03 -0.94751092459E+02  0.10032934063E+04  0.12699999809E+01 0. -1.
</event>
<event>
 5   0  0.2007644E-05  0.1997150E+04  0.7818609E-02  0.8607954E-01
       -1   -1    0    0    0  501  0.00000000000E+00  0.00000000000E+00  0.90478103334E+03  0.90478103336E+03  0.50400001928E-02 0. -1.
        1   -1    0    0  501    0  0.00000000000E+00  0.00000000000E+00 -0.11020922659E+04  0.11020922659E+04  0.50400001928E-02 0.  1.
    10030    2    1    2    0    0  0.00000000000E+00  0.00000000000E+00 -0.19731123258E+03  0.20068732993E+04  0.19971501488E+04 0.  0.
        1    1    3    3  502    0  0.77067683597E+03 -0.56373189166E+03 -0.39233821343E+03  0.10323108567E+04  0.50400001928E-02 0. -1.
       -1    1    3    3    0  502 -0.77067683597E+03  0.56373189166E+03  0.19502698085E+03  0.97456244256E+03  0.50400001928E-02 0.  1.
</event>
<event>
 5   0  0.2142551E-05  0.2008391E+04  0.7818609E-02  0.8602707E-01
        1   -1    0    0  501    0  0.00000000000E+00  0.00000000000E+00  0.19393479380E+04  0.19393479380E+04  0.50400001928E-02 0.  1.
       -1   -1    0    0    0  501  0.00000000000E+00  0.00000000000E+00 -0.51997326007E+03  0.51997326010E+03  0.50400001928E-02 0. -1.
    10030    2    1    2    0    0  0.00000000000E+00  0.00000000000E+00  0.14193746779E+04  0.24593211981E+04  0.20083914656E+04 0.  0.
        3    1    3    3  502    0 -0.94853155905E+03 -0.27993840231E+03  0.49642540516E+03  0.11065784295E+04  0.10100000352E+00 0.  1.
       -3    1    3    3    0  502  0.94853155905E+03  0.27993840231E+03  0.92294927272E+03  0.13527427685E+04  0.10100000352E+00 0. -1.
</event>
<event>
 5   0  0.4514680E-05  0.2003783E+04  0.7818609E-02  0.8604854E-01
       -2   -1    0    0    0  501  0.00000000000E+00  0.00000000000E+00  0.10020017116E+04  0.10020017116E+04  0.25500000920E-02 0.  1.
        2   -1    0    0  501    0  0.00000000000E+00  0.00000000000E+00 -0.10017815483E+04  0.10017815483E+04  0.25500000920E-02 0. -1.
    10030    2    1    2    0    0  0.00000000000E+00  0.00000000000E+00  0.22016329810E+00  0.20037832599E+04  0.20037832478E+04 0.  0.
        3    1    3    3  502    0 -0.55132429212E+02 -0.39849967658E+03  0.91768582730E+03  0.10019924475E+04  0.10100000352E+00 0.  1.
       -3    1    3    3    0  502  0.55132429212E+02  0.39849967658E+03 -0.91746566400E+03  0.10017908124E+04  0.10100000352E+00 0. -1.
</event>
<event>
 5   0  0.2256868E-05  0.2009556E+04  0.7818609E-02  0.8602166E-01
       -1   -1    0    0    0  501  0.00000000000E+00  0.00000000000E+00  0.73015008775E+03  0.73015008776E+03  0.50400001928E-02 0. -1.
        1   -1    0    0  501    0  0.00000000000E+00  0.00000000000E+00 -0.13827003442E+04  0.13827003442E+04  0.50400001928E-02 0.  1.
    10030    2    1    2    0    0  0.00000000000E+00  0.00000000000E+00 -0.65255025649E+03  0.21128504320E+04  0.20095559487E+04 0.  0.
        5    1    3    3  502    0  0.46992621280E+03  0.28904774736E+03 -0.12091880199E+04  0.13291113585E+04  0.46999998093E+01 0.  1.
       -5    1    3    3    0  502 -0.46992621280E+03 -0.28904774736E+03  0.55663776342E+03  0.78373907354E+03  0.46999998093E+01 0. -1.
</event>
<event>
 5   0  0.2110896E-05  0.2003116E+04  0.7818609E-02  0.8605165E-01
        1   -1    0    0  501    0  0.00000000000E+00  0.00000000000E+00  0.22031700997E+04  0.22031700997E+04  0.50400001928E-02 0.  1.
       -1   -1    0    0    0  501  0.00000000000E+00  0.00000000000E+00 -0.45530684099E+03  0.45530684102E+03  0.50400001928E-02 0. -1.
    10030    2    1    2    0    0  0.00000000000E+00  0.00000000000E+00  0.17478632587E+04  0.26584769407E+04  0.20031159910E+04 0.  0.
        4    1    3    3  502    0 -0.46404329328E+03  0.37858411552E+03  0.19393569052E+04  0.20297213920E+04  0.12699999809E+01 0.  1.
       -4    1    3    3    0  502  0.46404329328E+03 -0.37858411552E+03 -0.19149364644E+03  0.62875554876E+03  0.12699999809E+01 0. -1.
</event>
<event>
 5   0  0.4412054E-05  0.1992656E+04  0.7818609E-02  0.8610062E-01
       -2   -1    0    0    0  501  0.00000000000E+00  0.00000000000E+00  0.52749420072E+03  0.52749420073E+03  0.25500000920E-02 0.  1.
        2   -1    0    0  501    0  0.00000000000E+00  0.00000000000E+00 -0.18818593429E+04  0.18818593429E+04  0.25500000920E-02 0. -1.
    10030    2    1    2    0    0  0.00000000000E+00  0.00000000000E+00 -0.13543651422E+04  0.24093535436E+04  0.19926564079E+04 0.  0.
        4    1    3    3  502    0 -0.31405206763E+03 -0.30337176296E+03  0.40563848029E+03  0.59599271584E+03  0.12699999809E+01 0.  1.
       -4    1    3    3    0  502  0.31405206763E+03  0.30337176296E+03 -0.17600036224E+04  0.18133608278E+04  0.12699999809E+01 0. -1.
</event>
<event>
 5   0  0.4577279E-05  0.2000236E+04  0.7818609E-02  0.8606510E-01
        2   -1    0    0  501    0  0.00000000000E+00  0.00000000000E+00  0.27767616954E+04  0.27767616954E+04  0.25500000920E-02 0.  1.
       -2   -1    0    0    0  501  0.00000000000E+00  0.00000000000E+00 -0.36021678348E+03  0.36021678349E+03  0.25500000920E-02 0. -1.
    10030    2    1    2    0    0  0.00000000000E+00  0.00000000000E+00  0.24165449120E+04  0.31369784789E+04  0.20002361525E+04 0.  0.
        1    1    3    3  502    0 -0.91507955225E+03  0.39180997012E+03  0.13599245133E+04  0.16853131227E+04  0.50400001928E-02 0.  1.
       -1    1    3    3    0  502  0.91507955225E+03 -0.39180997012E+03  0.10566203987E+04  0.14516653563E+04  0.50400001928E-02 0. -1.
</event>
<event>
 5   0  0.2093980E-05  0.1990410E+04  0.7818609E-02  0.8611117E-01
        1   -1    0    0  501    0  0.00000000000E+00  0.00000000000E+00  0.62110692491E+03  0.62110692494E+03  0.50400001928E-02 0. -1.
       -1   -1    0    0    0  501  0.00000000000E+00  0.00000000000E+00 -0.15946259048E+04  0.15946259048E+04  0.50400001928E-02 0.  1.
    10030    2    1    2    0    0  0.00000000000E+00  0.00000000000E+00 -0.97351897989E+03  0.22157328298E+04  0.19904102011E+04 0.  0.
        2    1    3    3  502    0 -0.27613018363E+03 -0.95387402891E+03 -0.41367994324E+03  0.10757577036E+04  0.25500000920E-02 0. -1.
       -2    1    3    3    0  502  0.27613018363E+03  0.95387402891E+03 -0.55983903666E+03  0.11399751262E+04  0.25500000920E-02 0.  1.
</event>
<event>
 5   0  0.4473361E-05  0.1992974E+04  0.7818609E-02  0.8609913E-01
        2   -1    0    0  501    0  0.00000000000E+00  0.00000000000E+00  0.10982280359E+04  0.10982280359E+04  0.25500000920E-02 0.  1.
       -2   -1    0    0    0  501  0.00000000000E+00  0.00000000000E+00 -0.90417105070E+03  0.90417105071E+03  0.25500000920E-02 0. -1.
    10030    2    1    2    0    0  0.00000000000E+00  0.00000000000E+00  0.19405698515E+03  0.20023990866E+04  0.19929736547E+04 0.  0.
        2    1    3    3  502    0 -0.85170788290E+03 -0.49125021223E+03 -0.65765281400E+02  0.98542283364E+03  0.25500000920E-02 0.  1.
       -2    1    3    3    0  502  0.85170788290E+03  0.49125021223E+03  0.25982226655E+03  0.10169762529E+04  0.25500000920E-02 0. -1.
</event>
<event>
 5   0  0.4577279E-05  0.2131255E+04  0.7818609E-02  0.8547599E-01
        2   -1    0    0  501    0  0.00000000000E+00  0.00000000000E+00  0.11268488103E+04  0.11268488103E+04  0.25500000920E-02 0.  1.
       -2   -1    0    0    0  501  0.00000000000E+00  0.00000000000E+00 -0.10077324204E+04  0.10077324205E+04  0.25500000920E-02 0. -1.
    10030    2    1    2    0    0  0.00000000000E+00  0.00000000000E+00  0.11911638987E+03  0.21345812308E+04  0.21312551036E+04 0.  0.
        1    1    3    3  502    0  0.51122590219E+03  0.48242695931E+03  0.86172910669E+03  0.11120542916E+04  0.50400001928E-02 0.  1.
       -1    1    3    3    0  502 -0.51122590219E+03 -0.48242695931E+03 -0.74261271682E+03  0.10225269392E+04  0.50400001928E-02 0. -1.
</event>
<event>
 5   0  0.4514680E-05  0.2000326E+04  0.7818609E-02  0.8606468E-01
       -2   -1    0    0    0  501  0.00000000000E+00  0.00000000000E+00  0.75219173128E+03  0.75219173128E+03  0.25500000920E-02 0.  1.
        2   -1    0    0  501    0  0.00000000000E+00  0.00000000000E+00 -0.13298811191E+04  0.13298811191E+04  0.25500000920E-02 0. -1.
    10030    2    1    2    0    0  0.00000000000E+00  0.00000000000E+00 -0.57768938782E+03  0.20820728504E+04  0.20003255549E+04 0.  0.
        3    1    3    3  502    0 -0.20307476740E+03  0.76680092111E+03  0.34523261454E+03  0.86510611032E+03  0.10100000352E+00 0.  1.
       -3    1    3    3    0  502  0.20307476740E+03 -0.76680092111E+03 -0.92292200237E+03  0.12169667401E+04  0.10100000352E+00 0. -1.
</event>
<event>
 5   0  0.4473361E-05  0.1993707E+04  0.7818609E-02  0.8609569E-01
       -2   -1    0    0    0  501  0.00000000000E+00  0.00000000000E+00  0.55164538104E+03  0.55164538104E+03  0.25500000920E-02 0.  1.
        2   -1    0    0  501    0  0.00000000000E+00  0.00000000000E+00 -0.18013686407E+04  0.18013686407E+04  0.25500000920E-02 0. -1.
    10030    2    1    2    0    0  0.00000000000E+00  0.00000000000E+00 -0.12497232597E+04  0.23530140218E+04  0.19937067891E+04 0.  0.
        2    1    3    3  502    0 -0.41550241839E+03 -0.85272403300E+03 -0.98658753748E+03  0.13686254072E+04  0.25500000920E-02 0. -1.
       -2    1    3    3    0  502  0.41550241839E+03  0.85272403300E+03 -0.26313572219E+03  0.98438861455E+03  0.25500000920E-02 0.  1.
</event>
<event>
 5   0  0.2256868E-05  0.2006339E+04  0.7818609E-02  0.8603663E-01
       -1   -1    0    0    0  501  0.00000000000E+00  0.00000000000E+00  0.14944998161E+04  0.14944998161E+04  0.50400001928E-02 0. -1.
        1   -1    0    0  501    0  0.00000000000E+00  0.00000000000E+00 -0.67336814433E+03  0.67336814435E+03  0.50400001928E-02 0.  1.
    10030    2    1    2    0    0  0.00000000000E+00  0.00000000000E+00  0.82113167173E+03  0.21678679604E+04  0.20063385236E+04 0.  0.
        5    1    3    3  502    0 -0.50916516446E+03  0.57012391663E+02 -0.52132395726E+03  0.73095850492E+03  0.46999998093E+01 0.  1.
       -5    1    3    3    0  502  0.50916516446E+03 -0.57012391663E+02  0.13424556290E+04  0.14369094555E+04  0.46999998093E+01 0. -1.
</event>
<event>
 5   0  0.4412054E-05  0.2006524E+04  0.7818609E-02  0.8603577E-01
       -2   -1    0    0    0  501  0.00000000000E+00  0.00000000000E+00  0.77454407163E+03  0.77454407163E+03  0.25500000920E-02 0. -1.
        2   -1    0    0  501    0  0.00000000000E+00  0.00000000000E+00 -0.12995183761E+04  0.12995183761E+04  0.25500000920E-02 0.  1.
    10030    2    1    2    0    0  0.00000000000E+00  0.00000000000E+00 -0.52497430445E+03  0.20740624477E+04  0.20065236148E+04 0.  0.
        4    1    3    3  502    0  0.39355230010E+03  0.61067224081E+03  0.45270420780E+03  0.85600625656E+03  0.12699999809E+01 0. -1.
       -4    1    3    3    0  502 -0.39355230010E+03 -0.61067224081E+03 -0.97767851225E+03  0.12180561912E+04  0.12699999809E+01 0.  1.
</event>
<event>
 5   0  0.2142551E-05  0.2002057E+04  0.7818609E-02  0.8605660E-01
       -1   -1    0    0    0  501  0.00000000000E+00  0.00000000000E+00  0.63118124853E+03  0.63118124855E+03  0.50400001928E-02 0.  1.
        1   -1    0    0  501    0  0.00000000000E+00  0.00000000000E+00 -0.15875915749E+04  0.15875915750E+04  0.50400001928E-02 0. -1.
    10030    2    1    2    0    0  0.00000000000E+00  0.00000000000E+00 -0.95641032642E+03  0.22187728235E+04  0.20020569747E+04 0.  0.
        3    1    3    3  502    0  0.34624298226E+03  0.84989794692E+03 -0.92129221288E+03  0.13003807422E+04  0.10100000352E+00 0. -1.
       -3    1    3    3    0  502 -0.34624298226E+03 -0.84989794692E+03 -0.35118113545E+02  0.91839208132E+03  0.10100000352E+00 0.  1.
</event>
<event>
 5   0  0.2007644E-05  0.2004099E+04  0.7818609E-02  0.8604707E-01
        1   -1    0    0  501    0  0.00000000000E+00  0.00000000000E+00  0.87554564157E+03  0.87554564158E+03  0.50400001928E-02 0. -1.
       -1   -1    0    0    0  501  0.00000000000E+00  0.00000000000E+00 -0.11468309247E+04  0.11468309247E+04  0.50400001928E-02 0.  1.
    10030    2    1    2    0    0  0.00000000000E+00  0.00000000000E+00 -0.27128528317E+03  0.20223765663E+04  0.20040986181E+04 0.  0.
        1    1    3    3  502    0 -0.54142029701E+03  0.81011084427E+03  0.10034332413E+03  0.97953269508E+03  0.50400001928E-02 0.  1.
       -1    1    3    3    0  502  0.54142029701E+03 -0.81011084427E+03 -0.37162860730E+03  0.10428438712E+04  0.50400001928E-02 0. -1.
</event>
<event>
 5   0  0.4514680E-05  0.2003161E+04  0.7818609E-02  0.8605144E-01
        2   -1    0    0  501    0  0.00000000000E+00  0.00000000000E+00  0.23843276252E+04  0.23843276252E+04  0.25500000920E-02 0.  1.
       -2   -1    0    0    0  501  0.00000000000E+00  0.00000000000E+00 -0.42073233026E+03  0.42073233027E+03  0.25500000920E-02 0. -1.
    10030    2    1    2    0    0  0.00000000000E+00  0.00000000000E+00  0.19635952950E+04  0.28050599555E+04  0.20031612196E+04 0.  0.
        3    1    3    3  502    0 -0.37787869761E+03 -0.41817692288E+03 -0.17759302641E+03  0.59093446521E+03  0.10100000352E+00 0. -1.
       -3    1    3    3    0  502  0.37787869761E+03  0.41817692288E+03  0.21411883214E+04  0.22141254903E+04  0.10100000352E+00 0.  1.
</event>
<event>
 5   0  0.1601500E-05  0.2003914E+04  0.7818609E-02  0.8604793E-01
        3   -1    0    0  501    0  0.00000000000E+00  0.00000000000E+00  0.26356521015E+04  0.26356521035E+04  0.10100000352E+00 0. -1.
       -3   -1    0    0    0  501  0.00000000000E+00  0.00000000000E+00 -0.38089933895E+03  0.38089935234E+03  0.10100000352E+00 0.  1.
    10030    2    1    2    0    0  0.00000000000E+00  0.00000000000E+00  0.22547527626E+04  0.30165514558E+04  0.20039143358E+04 0.  0.
        4    1    3    3  502    0 -0.12770985552E+02  0.59949065075E+03 -0.80986455024E+02  0.60507235700E+03  0.12699999809E+01 0.  1.
       -4    1    3    3    0  502  0.12770985552E+02 -0.59949065075E+03  0.23357392176E+04  0.24114790988E+04  0.12699999809E+01 0. -1.
</event>
<event>
 5   0  0.2142551E-05  0.2000250E+04  0.7818609E-02  0.8606504E-01
       -1   -1    0    0    0  501  0.00000000000E+00  0.00000000000E+00  0.66134431977E+03  0.66134431979E+03  0.50400001928E-02 0. -1.
        1   -1    0    0  501    0  0.00000000000E+00  0.00000000000E+00 -0.15124499885E+04  0.15124499886E+04  0.50400001928E-02 0.  1.
    10030    2    1    2    0    0  0.00000000000E+00  0.00000000000E+00 -0.85110566877E+03  0.21737943083E+04  0.20002501932E+04 0.  0.
        3    1    3    3  502    0  0.57852358488E+02 -0.38446480240E+03  0.57585508076E+03  0.69481592088E+03  0.10100000352E+00 0. -1.
       -3    1    3    3    0  502 -0.57852358488E+02  0.38446480240E+03 -0.14269607495E+04  0.14789783875E+04  0.10100000352E+00 0.  1.
</event>
<event>
 5   0  0.2110896E-05  0.1980137E+04  0.7818609E-02  0.8615964E-01
       -1   -1    0    0    0  501  0.00000000000E+00  0.00000000000E+00  0.13054628186E+04  0.13054628186E+04  0.50400001928E-02 0.  1.
        1   -1    0    0  501    0  0.00000000000E+00  0.00000000000E+00 -0.75087238767E+03  0.75087238768E+03  0.50400001928E-02 0. -1.
    10030    2    1    2    0    0  0.00000000000E+00  0.00000000000E+00  0.55459043096E+03  0.20563352063E+04  0.19801373525E+04 0.  0.
        4    1    3    3  502    0  0.49817596290E+03 -0.66205677035E+03  0.84012506138E+03  0.11799619438E+04  0.12699999809E+01 0.  1.
       -4    1    3    3    0  502 -0.49817596290E+03  0.66205677035E+03 -0.28553463042E+03  0.87637326251E+03  0.12699999809E+01 0. -1.
</event>
<event>
 5   0  0.2256868E-05  0.1972209E+04  0.7818609E-02  0.8619725E-01
       -1   -1    0    0    0  501  0.00000000000E+00  0.00000000000E+00  0.10944385097E+04  0.10944385098E+04  0.50400001928E-02 0. -1.
        1   -1    0    0  501    0  0.00000000000E+00  0.00000000000E+00 -0.88849443403E+03  0.88849443404E+03  0.50400001928E-02 0.  1.
    10030    2    1    2    0    0  0.00000000000E+00  0.00000000000E+00  0.20594407572E+03  0.19829329438E+04  0.19722094456E+04 0.  0.
        5    1    3    3  502    0  0.74955537344E+03 -0.23600274734E+03 -0.49595969652E+03  0.92926243074E+03  0.46999998093E+01 0.  1.
       -5    1    3    3    0  502 -0.74955537344E+03  0.23600274734E+03  0.70190377224E+03  0.10536705131E+04  0.46999998093E+01 0. -1.
</event>
<event>
 5   0  0.2110896E-05  0.2003942E+04  0.7818609E-02  0.8604780E-01
        1   -1    0    0  501    0  0.00000000000E+00  0.00000000000E+00  0.77252020229E+03  0.77252020231E+03  0.50400001928E-02 0. -1.
       -1   -1    0    0    0  501  0.00000000000E+00  0.00000000000E+00 -0.12995729059E+04  0.12995729059E+04  0.50400001928E-02 0.  1.
    10030    2    1    2    0    0  0.00000000000E+00  0.00000000000E+00 -0.52705270356E+03  0.20720931082E+04  0.20039424384E+04 0.  0.
        4    1    3    3  502    0  0.57457849871E+03  0.44932100109E+03  0.44679663252E+03  0.85537047934E+03  0.12699999809E+01 0. -1.
       -4    1    3    3    0  502 -0.57457849871E+03 -0.44932100109E+03 -0.97384933609E+03  0.12167226288E+04  0.12699999809E+01 0.  1.
</event>
<event>
 5   0  0.4514680E-05  0.1986645E+04  0.7818609E-02  0.8612890E-01
        2   -1    0    0  501    0  0.00000000000E+00  0.00000000000E+00  0.25382281723E+04  0.25382281723E+04  0.25500000920E-02 0.  1.
       -2   -1    0    0    0  501  0.00000000000E+00  0.00000000000E+00 -0.38873163464E+03  0.38873163465E+03  0.25500000920E-02 0. -1.
    10030    2    1    2    0    0  0.00000000000E+00  0.00000000000E+00  0.21494965377E+04  0.29269598070E+04  0.19866449975E+04 0.  0.
        3    1    3    3  502    0 -0.65206694755E+03  0.20067233785E+02  0.21783564566E+04  0.22739460988E+04  0.10100000352E+00 0.  1.
       -3    1    3    3    0  502  0.65206694755E+03 -0.20067233785E+02 -0.28859918925E+02  0.65301370818E+03  0.10100000352E+00 0. -1.
</event>
<event>
 5   0  0.2007644E-05  0.2007963E+04  0.7818609E-02  0.8602907E-01
        1   -1    0    0  501    0  0.00000000000E+00  0.00000000000E+00  0.95017343781E+03  0.95017343782E+03  0.50400001928E-02 0.  1.
       -1   -1    0    0    0  501  0.00000000000E+00  0.00000000000E+00 -0.10608368444E+04  0.10608368444E+04  0.50400001928E-02 0. -1.
    10030    2    1    2    0    0  0.00000000000E+00  0.00000000000E+00 -0.11066340660E+03  0.20110102822E+04  0.20079631385E+04 0.  0.
        1    1    3    3  502    0  0.69408226807E+03 -0.45198733481E+03  0.51292359386E+03  0.97423475551E+03  0.50400001928E-02 0.  1.
       -1    1    3    3    0  502 -0.69408226807E+03  0.45198733481E+03 -0.62358700045E+03  0.10367755267E+04  0.50400001928E-02 0. -1.
</event>
<event>
 5   0  0.4514680E-05  0.1994170E+04  0.7818609E-02  0.8609351E-01
       -2   -1    0    0    0  501  0.00000000000E+00  0.00000000000E+00  0.72113573343E+03  0.72113573343E+03  0.25500000920E-02 0. -1.
        2   -1    0    0  501    0  0.00000000000E+00  0.00000000000E+00 -0.13786294290E+04  0.13786294290E+04  0.25500000920E-02 0.  1.
    10030    2    1    2    0    0  0.00000000000E+00  0.00000000000E+00 -0.65749369554E+03  0.20997651624E+04  0.19941704485E+04 0.  0.
        3    1    3    3  502    0 -0.48512548484E+03  0.23046617915E+03  0.55580624459E+03  0.77290490198E+03  0.10100000352E+00 0. -1.
       -3    1    3    3    0  502  0.48512548484E+03 -0.23046617915E+03 -0.12132999401E+04  0.13268602604E+04  0.10100000352E+00 0.  1.
</event>
<event>
 5   0  0.4412054E-05  0.1978540E+04  0.7818609E-02  0.8616720E-01
       -2   -1    0    0    0  501  0.00000000000E+00  0.00000000000E+00  0.10477409954E+04  0.10477409954E+04  0.25500000920E-02 0.  1.
        2   -1    0    0  501    0  0.00000000000E+00  0.00000000000E+00 -0.93406235046E+03  0.93406235046E+03  0.25500000920E-02 0. -1.
    10030    2    1    2    0    0  0.00000000000E+00  0.00000000000E+00  0.11367864489E+03  0.19818033458E+04  0.19785402870E+04 0.  0.
        4    1    3    3  502    0 -0.40365757659E+03 -0.56298095973E+03  0.76423830329E+03  0.10314789369E+04  0.12699999809E+01 0.  1.
       -4    1    3    3    0  502  0.40365757659E+03  0.56298095973E+03 -0.65055965839E+03  0.95032440892E+03  0.12699999809E+01 0. -1.
</event>
<event>
 5   0  0.2110896E-05  0.2002144E+04  0.7818609E-02  0.8605619E-01
        1   -1    0    0  501    0  0.00000000000E+00  0.00000000000E+00  0.76536142900E+03  0.76536142902E+03  0.50400001928E-02 0. -1.
       -1   -1    0    0    0  501  0.00000000000E+00  0.00000000000E+00 -0.13093745783E+04  0.13093745783E+04  0.50400001928E-02 0.  1.
    10030    2    1    2    0    0  0.00000000000E+00  0.00000000000E+00 -0.54401314926E+03  0.20747360073E+04  0.20021436495E+04 0.  0.
        4    1    3    3  502    0 -0.86836023236E+03 -0.43968155613E+03 -0.51453024449E+03  0.11009597401E+04  0.12699999809E+01 0. -1.
       -4    1    3    3    0  502  0.86836023236E+03  0.43968155613E+03 -0.29482904775E+02  0.97377626718E+03  0.12699999809E+01 0.  1.
</event>
<event>
 5   0  0.2007644E-05  0.2003384E+04  0.7818609E-02  0.8605040E-01
        1   -1    0    0  501    0  0.00000000000E+00  0.00000000000E+00  0.17107882838E+04  0.17107882838E+04  0.50400001928E-02 0.  1.
       -1   -1    0    0    0  501  0.00000000000E+00  0.00000000000E+00 -0.58650567471E+03  0.58650567474E+03  0.50400001928E-02 0. -1.
    10030    2    1    2    0    0  0.00000000000E+00  0.00000000000E+00  0.11242826091E+04  0.22972939585E+04  0.20033841736E+04 0.  0.
        1    1    3    3  502    0 -0.59479152995E+03  0.29845517208E+03 -0.29638486516E+03  0.72848915034E+03  0.50400001928E-02 0. -1.
       -1    1    3    3    0  502  0.59479152995E+03 -0.29845517208E+03  0.14206674742E+04  0.15688048082E+04  0.50400001928E-02 0.  1.
</event>
<event>
 5   0  0.4473361E-05  0.1996320E+04  0.7818609E-02  0.8608343E-01
        2   -1    0    0  501    0  0.00000000000E+00  0.00000000000E+00  0.23272292459E+04  0.23272292459E+04  0.25500000920E-02 0. -1.
       -2   -1    0    0    0  501  0.00000000000E+00  0.00000000000E+00 -0.42811571766E+03  0.42811571767E+03  0.25500000920E-02 0.  1.
    10030    2    1    2    0    0  0.00000000000E+00  0.00000000000E+00  0.18991135282E+04  0.27553449635E+04  0.19963200332E+04 0.  0.
        2    1    3    3  502    0 -0.88752214150E+03 -0.41306733178E+03  0.68049241122E+03  0.11922206566E+04  0.25500000920E-02 0.  1.
       -2    1    3    3    0  502  0.88752214150E+03  0.41306733178E+03  0.12186211170E+04  0.15631243070E+04  0.25500000920E-02 0. -1.
</event>
<event>
 5   0  0.4514680E-05  0.1998559E+04  0.7818609E-02  0.8607295E-01
       -2   -1    0    0    0  501  0.00000000000E+00  0.00000000000E+00  0.45244649282E+03  0.45244649283E+03  0.25500000920E-02 0. -1.
        2   -1    0    0  501    0  0.00000000000E+00  0.00000000000E+00 -0.22070228201E+04  0.22070228201E+04  0.25500000920E-02 0.  1.
    10030    2    1    2    0    0  0.00000000000E+00  0.00000000000E+00 -0.17545763273E+04  0.26594693129E+04  0.19985592156E+04 0.  0.
        3    1    3    3  502    0  0.78991320506E+03  0.14364574480E+03 -0.85595273209E+02  0.80741781781E+03  0.10100000352E+00 0. -1.
       -3    1    3    3    0  502 -0.78991320506E+03 -0.14364574480E+03 -0.16689810541E+04  0.18520514951E+04  0.10100000352E+00 0.  1.
</event>
<event>
 5   0  0.2110896E-05  0.1995169E+04  0.7818609E-02  0.8608883E-01
       -1   -1    0    0    0  501  0.00000000000E+00  0.00000000000E+00  0.48991380468E+03  0.48991380470E+03  0.50400001928E-02 0. -1.
        1   -1    0    0  501    0  0.00000000000E+00  0.00000000000E+00 -0.20313264802E+04  0.20313264802E+04  0.50400001928E-02 0.  1.
    10030    2    1    2    0    0  0.00000000000E+00  0.00000000000E+00 -0.15414126755E+04  0.25212402849E+04  0.19951690500E+04 0.  0.
        4    1    3    3  502    0 -0.21342419561E+03 -0.92002094732E+03 -0.11766282425E+04  0.15087889397E+04  0.12699999809E+01 0.  1.
       -4    1    3    3    0  502  0.21342419561E+03  0.92002094732E+03 -0.36478443299E+03  0.10124513451E+04  0.12699999809E+01 0. -1.
</event>
<event>
 5   0  0.2093980E-05  0.2001825E+04  0.7818609E-02  0.8605768E-01
       -1   -1    0    0    0  501  0.00000000000E+00  0.00000000000E+00  0.10536514163E+04  0.10536514163E+04  0.50400001928E-02 0.  1.
        1   -1    0    0  501    0  0.00000000000E+00  0.00000000000E+00 -0.95081325907E+03  0.95081325909E+03  0.50400001928E-02 0. -1.
    10030    2    1    2    0    0  0.00000000000E+00  0.00000000000E+00  0.10283815722E+03  0.20044646754E+04  0.20018249045E+04 0.  0.
        2    1    3    3  502    0  0.58388002257E+02  0.44346516032E+03 -0.84516953650E+03  0.95623326268E+03  0.25500000920E-02 0. -1.
       -2    1    3    3    0  502 -0.58388002257E+02 -0.44346516032E+03  0.94800769372E+03  0.10482314127E+04  0.25500000920E-02 0.  1.
</event>
<event>
 5   0  0.2007644E-05  0.1960075E+04  0.7818609E-02  0.8625518E-01
       -1   -1    0    0    0  501  0.00000000000E+00  0.00000000000E+00  0.16871352397E+04  0.16871352397E+04  0.50400001928E-02 0. -1.
        1   -1    0    0  501    0  0.00000000000E+00  0.00000000000E+00 -0.56929231002E+03  0.56929231004E+03  0.50400001928E-02 0.  1.
    10030    2    1    2    0    0  0.00000000000E+00  0.00000000000E+00  0.11178429297E+04  0.22564275498E+04  0.19600746088E+04 0.  0.
        1    1    3    3  502    0  0.68352644772E+03  0.13557438367E+03  0.13522310407E+04  0.15212224051E+04  0.50400001928E-02 0. -1.
       -1    1    3    3    0  502 -0.68352644772E+03 -0.13557438367E+03 -0.23438811097E+03  0.73520514472E+03  0.50400001928E-02 0.  1.
</event>
<event>
 5   0  0.4473361E-05  0.1988866E+04  0.7818609E-02  0.8611844E-01
       -2   -1    0    0    0  501  0.00000000000E+00  0.00000000000E+00  0.23343273012E+04  0.23343273012E+04  0.25500000920E-02 0.  1.
        2   -1    0    0  501    0  0.00000000000E+00  0.00000000000E+00 -0.42363254482E+03  0.42363254483E+03  0.25500000920E-02 0. -1.
    10030    2    1    2    0    0  0.00000000000E+00  0.00000000000E+00  0.19106947563E+04  0.27579598460E+04  0.19888660237E+04 0.  0.
        2    1    3    3  502    0 -0.81736195593E+02  0.10778739492E+02  0.23295800577E+04  0.23310384450E+04  0.25500000920E-02 0.  1.
       -2    1    3    3    0  502  0.81736195593E+02 -0.10778739492E+02 -0.41888530137E+03  0.42692140097E+03  0.25500000920E-02 0. -1.
</event>
<event>
 5   0  0.2256868E-05  0.2001764E+04  0.7818609E-02  0.8605796E-01
        1   -1    0    0  501    0  0.00000000000E+00  0.00000000000E+00  0.15424070002E+04  0.15424070002E+04  0.50400001928E-02 0.  1.
       -1   -1    0    0    0  501  0.00000000000E+00  0.00000000000E+00 -0.64948169164E+03  0.64948169166E+03  0.50400001928E-02 0. -1.
    10030    2    1    2    0    0  0.00000000000E+00  0.00000000000E+00  0.89292530856E+03  0.21918886919E+04  0.20017643295E+04 0.  0.
        5    1    3    3  502    0  0.49841308175E+03 -0.86524103364E+03  0.52141367633E+03  0.11264776776E+04  0.46999998093E+01 0.  1.
       -5    1    3    3    0  502 -0.49841308175E+03  0.86524103364E+03  0.37151163223E+03  0.10654110142E+04  0.46999998093E+01 0. -1.
</event>
<event>
 5   0  0.2142551E-05  0.2005081E+04  0.7818609E-02  0.8604249E-01
        1   -1    0    0  501    0  0.00000000000E+00  0.00000000000E+00  0.16415994204E+04  0.16415994205E+04  0.50400001928E-02 0.  1.
       -1   -1    0    0    0  501  0.00000000000E+00  0.00000000000E+00 -0.61226090315E+03  0.61226090317E+03  0.50400001928E-02 0. -1.
    10030    2    1    2    0    0  0.00000000000E+00  0.00000000000E+00  0.10293385173E+04  0.22538603236E+04  0.20050806905E+04 0.  0.
        3    1    3    3  502    0 -0.71058115992E+03  0.70395268020E+03  0.59100851580E+03  0.11617943177E+04  0.10100000352E+00 0.  1.
       -3    1    3    3    0  502  0.71058115992E+03 -0.70395268020E+03  0.43833000149E+03  0.10920660059E+04  0.10100000352E+00 0. -1.
</event>
<event>
 5   0  0.4514680E-05  0.2000010E+04  0.7818609E-02  0.8606616E-01
        2   -1    0    0  501    0  0.00000000000E+00  0.00000000000E+00  0.12400026794E+04  0.12400026794E+04  0.25500000920E-02 0. -1.
       -2   -1    0    0    0  501  0.00000000000E+00  0.00000000000E+00 -0.80645780140E+03  0.80645780140E+03  0.25500000920E-02 0.  1.
    10030    2    1    2    0    0  0.00000000000E+00  0.00000000000E+00  0.43354487800E+03  0.20464604808E+04  0.20000098345E+04 0.  0.
        3    1    3    3  502    0 -0.57241245440E+03  0.34364633546E+03  0.97855038028E+03  0.11846137256E+04  0.10100000352E+00 0. -1.
       -3    1    3    3    0  502  0.57241245440E+03 -0.34364633546E+03 -0.54500550228E+03  0.86184675525E+03  0.10100000352E+00 0.  1.
</event>
<event>
 5   0  0.4514680E-05  0.1992795E+04  0.7818609E-02  0.8609997E-01
       -2   -1    0    0    0  501  0.00000000000E+00  0.00000000000E+00  0.56703310066E+03  0.56703310067E+03  0.25500000920E-02 0.  1.
        2   -1    0    0  501    0  0.00000000000E+00  0.00000000000E+00 -0.17508819659E+04  0.17508819659E+04  0.25500000920E-02 0. -1.
    10030    2    1    2    0    0  0.00000000000E+00  0.00000000000E+00 -0.11838488653E+04  0.23179150666E+04  0.19927950522E+04 0.  0.
        3    1    3    3  502    0  0.91930525904E+02  0.15983160264E+03  0.54701678063E+03  0.57725620940E+03  0.10100000352E+00 0.  1.
       -3    1    3    3    0  502 -0.91930525904E+02 -0.15983160264E+03 -0.17308656459E+04  0.17406588572E+04  0.10100000352E+00 0. -1.
</event>
<event>
 5   0  0.2007644E-05  0.1998455E+04  0.7818609E-02  0.8607343E-01
       -1   -1    0    0    0  501  0.00000000000E+00  0.00000000000E+00  0.72701715074E+03  0.72701715075E+03  0.50400001928E-02 0.  1.
        1   -1    0    0  501    0  0.00000000000E+00  0.00000000000E+00 -0.13733596497E+04  0.13733596497E+04  0.50400001928E-02 0. -1.
    10030    2    1    2    0    0  0.00000000000E+00  0.00000000000E+00 -0.64634249898E+03  0.21003768005E+04  0.19984554231E+04 0.  0.
        1    1    3    3  502    0 -0.62977675493E+03  0.65338027464E+02 -0.11356209567E+04  0.13002010522E+04  0.50400001928E-02 0. -1.
       -1    1    3    3    0  502  0.62977675493E+03 -0.65338027464E+02  0.48927845772E+03  0.80017574826E+03  0.50400001928E-02 0.  1.
</event>
<event>
 5   0  0.4577279E-05  0.2008792E+04  0.7818609E-02  0.8602521E-01
        2   -1    0    0  501    0  0.00000000000E+00  0.00000000000E+00  0.90989763708E+03  0.90989763709E+03  0.25500000920E-02 0. -1.
       -2   -1    0    0    0  501  0.00000000000E+00  0.00000000000E+00 -0.11087091187E+04  0.11087091187E+04  0.25500000920E-02 0.  1.
    10030    2    1    2    0    0  0.00000000000E+00  0.00000000000E+00 -0.19881148161E+03  0.20186067558E+04  0.20087924804E+04 0.  0.
        1    1    3    3  502    0 -0.59813478496E+03 -0.77156983633E+01  0.71137388085E+03  0.92945013388E+03  0.50400001928E-02 0. -1.
       -1    1    3    3    0  502  0.59813478496E+03  0.77156983633E+01 -0.91018536246E+03  0.10891566219E+04  0.50400001928E-02 0.  1.
</event>
<event>
 5   0  0.2093980E-05  0.1997316E+04  0.7818609E-02  0.8607877E-01
        1   -1    0    0  501    0  0.00000000000E+00  0.00000000000E+00  0.17077253874E+04  0.17077253874E+04  0.50400001928E-02 0.  1.
       -1   -1    0    0    0  501  0.00000000000E+00  0.00000000000E+00 -0.58400360888E+03  0.58400360890E+03  0.50400001928E-02 0. -1.
    10030    2    1    2    0    0  0.00000000000E+00  0.00000000000E+00  0.11237217785E+04  0.22917289963E+04  0.19973159883E+04 0.  0.
        2    1    3    3  502    0  0.81514541758E+02 -0.99401539085E+03  0.50328062845E+03  0.11171403711E+04  0.25500000920E-02 0.  1.
       -2    1    3    3    0  502 -0.81514541758E+02  0.99401539085E+03  0.62044115009E+03  0.11745886252E+04  0.25500000920E-02 0. -1.
</event>
<event>
 5   0  0.2007644E-05  0.2018303E+04  0.7818609E-02  0.8598111E-01
       -1   -1    0    0    0  501  0.00000000000E+00  0.00000000000E+00  0.96227075116E+03  0.96227075117E+03  0.50400001928E-02 0.  1.
        1   -1    0    0  501    0  0.00000000000E+00  0.00000000000E+00 -0.10583161628E+04  0.10583161628E+04  0.50400001928E-02 0. -1.
    10030    2    1    2    0    0  0.00000000000E+00  0.00000000000E+00 -0.96045411619E+02  0.20205869140E+04  0.20183029396E+04 0.  0.
        1    1    3    3  502    0  0.86571212218E+02 -0.28081315846E+03 -0.10145353647E+04  0.10562351116E+04  0.50400001928E-02 0. -1.
       -1    1    3    3    0  502 -0.86571212218E+02  0.28081315846E+03  0.91848995309E+03  0.96435180235E+03  0.50400001928E-02 0.  1.
</event>
<event>
 5   0  0.1601500E-05  0.1999849E+04  0.7818609E-02  0.8606691E-01
        4   -1    0    0  501    0  0.00000000000E+00  0.00000000000E+00  0.11291688250E+04  0.11291695392E+04  0.12699999809E+01 0.  1.
       -4   -1    0    0    0  501  0.00000000000E+00  0.00000000000E+00 -0.88547192508E+03  0.88547283584E+03  0.12699999809E+01 0. -1.
    10030    2    1    2    0    0  0.00000000000E+00  0.00000000000E+00  0.24369689993E+03  0.20146423750E+04  0.19998489244E+04 0.  0.
        1    1    3    3  502    0  0.40204730608E+02 -0.55718818090E+02  0.11267886791E+04  0.11288816300E+04  0.50400001928E-02 0.  1.
       -1    1    3    3    0  502 -0.40204730608E+02  0.55718818090E+02 -0.88309177918E+03  0.88576074509E+03  0.50400001928E-02 0. -1.
</event>
<event>
 5   0  0.4577279E-05  0.1994700E+04  0.7818609E-02  0.8609103E-01
        2   -1    0    0  501    0  0.00000000000E+00  0.00000000000E+00  0.26930346321E+04  0.26930346321E+04  0.25500000920E-02 0. -1.
       -2   -1    0    0    0  501  0.00000000000E+00  0.00000000000E+00 -0.36936270180E+03  0.36936270181E+03  0.25500000920E-02 0.  1.
    10030    2    1    2    0    0  0.00000000000E+00  0.00000000000E+00  0.23236719303E+04  0.30623973339E+04  0.19946995240E+04 0.  0.
        1    1    3    3  502    0  0.50945510122E+03 -0.10977182369E+03  0.24673660874E+04  0.25218028794E+04  0.50400001928E-02 0. -1.
       -1    1    3    3    0  502 -0.50945510122E+03  0.10977182369E+03 -0.14369415708E+03  0.54059445450E+03  0.50400001928E-02 0.  1.
</event>
<event>
 5   0  0.2093980E-05  0.1995527E+04  0.7818609E-02  0.8608715E-01
        1   -1    0    0  501    0  0.00000000000E+00  0.00000000000E+00  0.90639574602E+03  0.90639574604E+03  0.50400001928E-02 0.  1.
       -1   -1    0    0    0  501  0.00000000000E+00  0.00000000000E+00 -0.10983415179E+04  0.10983415179E+04  0.50400001928E-02 0. -1.
    10030    2    1    2    0    0  0.00000000000E+00  0.00000000000E+00 -0.19194577185E+03  0.20047372639E+04  0.19955270778E+04 0.  0.
        2    1    3    3  502    0  0.18058471244E+03  0.45542990681E+03  0.77723663767E+03  0.91876222677E+03  0.25500000920E-02 0.  1.
       -2    1    3    3    0  502 -0.18058471244E+03 -0.45542990681E+03 -0.96918240953E+03  0.10859750372E+04  0.25500000920E-02 0. -1.
</event>
<event>
 5   0  0.2093980E-05  0.2026420E+04  0.7818609E-02  0.8594367E-01
        1   -1    0    0  501    0  0.00000000000E+00  0.00000000000E+00  0.14069393980E+04  0.14069393980E+04  0.50400001928E-02 0.  1.
       -1   -1    0    0    0  501  0.00000000000E+00  0.00000000000E+00 -0.72966489371E+03  0.72966489372E+03  0.50400001928E-02 0. -1.
    10030    2    1    2    0    0  0.00000000000E+00  0.00000000000E+00  0.67727450433E+03  0.21366042918E+04  0.20264197851E+04 0.  0.
        2    1    3    3  502    0 -0.26683542435E+02 -0.89838431811E+02 -0.72508518537E+03  0.73111659899E+03  0.25500000920E-02 0. -1.
       -2    1    3    3    0  502  0.26683542435E+02  0.89838431811E+02  0.14023596897E+04  0.14054876928E+04  0.25500000920E-02 0.  1.
</event>
<event>
 5   0  0.4473361E-05  0.1999586E+04  0.7818609E-02  0.8606814E-01
        2   -1    0    0  501    0  0.00000000000E+00  0.00000000000E+00  0.12811529628E+04  0.12811529628E+04  0.25500000920E-02 0. -1.
       -2   -1    0    0    0  501  0.00000000000E+00  0.00000000000E+00 -0.78022419281E+03  0.78022419281E+03  0.25500000920E-02 0.  1.
    10030    2    1    2    0    0  0.00000000000E+00  0.00000000000E+00  0.50092876999E+03  0.20613771556E+04  0.19995864935E+04 0.  0.
        2    1    3    3  502    0  0.89699553706E+03 -0.32654903934E+03 -0.55960235463E+02  0.95622529592E+03  0.25500000920E-02 0.  1.
       -2    1    3    3    0  502 -0.89699553706E+03  0.32654903934E+03  0.55688900545E+03  0.11051518597E+04  0.25500000920E-02 0. -1.
</event>
<event>
 5   0  0.2142551E-05  0.1995761E+04  0.7818609E-02  0.8608605E-01
       -1   -1    0    0    0  501  0.00000000000E+00  0.00000000000E+00  0.43164897279E+03  0.43164897282E+03  0.50400001928E-02 0.  1.
        1   -1    0    0  501    0  0.00000000000E+00  0.00000000000E+00 -0.23068877372E+04  0.23068877372E+04  0.50400001928E-02 0. -1.
    10030    2    1    2    0    0  0.00000000000E+00  0.00000000000E+00 -0.18752387644E+04  0.27385367101E+04  0.19957612304E+04 0.  0.
        3    1    3    3  502    0  0.17619425128E+03 -0.57723186041E+02  0.40780605532E+03  0.44797563477E+03  0.10100000352E+00 0.  1.
       -3    1    3    3    0  502 -0.17619425128E+03  0.57723186041E+02 -0.22830448198E+04  0.22905610753E+04  0.10100000352E+00 0. -1.
</event>
<event>
 5   0  0.4447313E-05  0.2009414E+04  0.7818609E-02  0.8602232E-01
       -2   -1    0    0    0  501  0.00000000000E+00  0.00000000000E+00  0.71508904824E+03  0.71508904824E+03  0.25500000920E-02 0.  1.
        2   -1    0    0  501    0  0.00000000000E+00  0.00000000000E+00 -0.14116231522E+04  0.14116231522E+04  0.25500000920E-02 0. -1.
    10030    2    1    2    0    0  0.00000000000E+00  0.00000000000E+00 -0.69653410393E+03  0.21267122004E+04  0.20094141000E+04 0.  0.
        5    1    3    3  502    0  0.55909548070E+03  0.61820463063E+03  0.24541341724E+03  0.86891573656E+03  0.46999998093E+01 0.  1.
       -5    1    3    3    0  502 -0.55909548070E+03 -0.61820463063E+03 -0.94194752117E+03  0.12577964639E+04  0.46999998093E+01 0. -1.
</event>
<event>
 5   0  0.2142551E-05  0.1998130E+04  0.7818609E-02  0.8607495E-01
        1   -1    0    0  501    0  0.00000000000E+00  0.00000000000E+00  0.12103263684E+04  0.12103263684E+04  0.50400001928E-02 0. -1.
       -1   -1    0    0    0  501  0.00000000000E+00  0.00000000000E+00 -0.82467903076E+03  0.82467903078E+03  0.50400001928E-02 0.  1.
    10030    2    1    2    0    0  0.00000000000E+00  0.00000000000E+00  0.38564733765E+03  0.20350053992E+04  0.19981299021E+04 0.  0.
        3    1    3    3  502    0 -0.95608204262E+03  0.65982541751E+02  0.48031711598E+03  0.10719846595E+04  0.10100000352E+00 0. -1.
       -3    1    3    3    0  502  0.95608204262E+03 -0.65982541751E+02 -0.94669778325E+02  0.96302073974E+03  0.10100000352E+00 0.  1.
</event>
<event>
 5   0  0.4473361E-05  0.1999297E+04  0.7818609E-02  0.8606949E-01
       -2   -1    0    0    0  501  0.00000000000E+00  0.00000000000E+00  0.87481663219E+03  0.87481663219E+03  0.25500000920E-02 0.  1.
        2   -1    0    0  501    0  0.00000000000E+00  0.00000000000E+00 -0.11422935385E+04  0.11422935385E+04  0.25500000920E-02 0. -1.
    10030    2    1    2    0    0  0.00000000000E+00  0.00000000000E+00 -0.26747690634E+03  0.20171101707E+04  0.19992972629E+04 0.  0.
        2    1    3    3  502    0  0.40026178479E+03  0.58227892336E+03  0.57969628165E+03  0.91395077544E+03  0.25500000920E-02 0.  1.
       -2    1    3    3    0  502 -0.40026178479E+03 -0.58227892336E+03 -0.84717318799E+03  0.11031593953E+04  0.25500000920E-02 0. -1.
</event>
<event>
 5   0  0.4473361E-05  0.1997703E+04  0.7818609E-02  0.8607696E-01
        2   -1    0    0  501    0  0.00000000000E+00  0.00000000000E+00  0.54798817520E+03  0.54798817520E+03  0.25500000920E-02 0. -1.
       -2   -1    0    0    0  501  0.00000000000E+00  0.00000000000E+00 -0.18206669073E+04  0.18206669073E+04  0.25500000920E-02 0.  1.
    10030    2    1    2    0    0  0.00000000000E+00  0.00000000000E+00 -0.12726787321E+04  0.23686550825E+04  0.19977026167E+04 0.  0.
        2    1    3    3  502    0 -0.67439979488E+03 -0.36296860376E+03 -0.13966083076E+04  0.15928201579E+04  0.25500000920E-02 0.  1.
       -2    1    3    3    0  502  0.67439979488E+03  0.36296860376E+03  0.12392957541E+03  0.77583492465E+03  0.25500000920E-02 0. -1.
</event>
<event>
 5   0  0.2007644E-05  0.1993620E+04  0.7818609E-02  0.8609609E-01
       -1   -1    0    0    0  501  0.00000000000E+00  0.00000000000E+00  0.60108710055E+03  0.60108710058E+03  0.50400001928E-02 0. -1.
        1   -1    0    0  501    0  0.00000000000E+00  0.00000000000E+00 -0.16530559907E+04  0.16530559907E+04  0.50400001928E-02 0.  1.
    10030    2    1    2    0    0  0.00000000000E+00  0.00000000000E+00 -0.10519688901E+04  0.22541430913E+04  0.19936204579E+04 0.  0.
        1    1    3    3  502    0 -0.83061460116E+03 -0.21817882639E+02 -0.11486114380E+04  0.14176406001E+04  0.50400001928E-02 0.  1.
       -1    1    3    3    0  502  0.83061460116E+03  0.21817882639E+02  0.96642547806E+02  0.83650249117E+03  0.50400001928E-02 0. -1.
</event>
<event>
 5   0  0.4514680E-05  0.1986572E+04  0.7818609E-02  0.8612925E-01
       -2   -1    0    0    0  501  0.00000000000E+00  0.00000000000E+00  0.94532861798E+03  0.94532861798E+03  0.25500000920E-02 0. -1.
        2   -1    0    0  501    0  0.00000000000E+00  0.00000000000E+00 -0.10436760324E+04  0.10436760324E+04  0.25500000920E-02 0.  1.
    10030    2    1    2    0    0  0.00000000000E+00  0.00000000000E+00 -0.98347414394E+02  0.19890046504E+04  0.19865717418E+04 0.  0.
        3    1    3    3  502    0  0.85124575842E+03 -0.38011497495E+03 -0.39239094991E+03  0.10114728880E+04  0.10100000352E+00 0.  1.
       -3    1    3    3    0  502 -0.85124575842E+03  0.38011497495E+03  0.29404353552E+03  0.97753176235E+03  0.10100000352E+00 0. -1.
</event>
<event>
 5   0  0.4473361E-05  0.1971774E+04  0.7818609E-02  0.8619932E-01
       -2   -1    0    0    0  501  0.00000000000E+00  0.00000000000E+00  0.54520322685E+03  0.54520322686E+03  0.25500000920E-02 0. -1.
        2   -1    0    0  501    0  0.00000000000E+00  0.00000000000E+00 -0.17827718915E+04  0.17827718915E+04  0.25500000920E-02 0.  1.
    10030    2    1    2    0    0  0.00000000000E+00  0.00000000000E+00 -0.12375686646E+04  0.23279751183E+04  0.19717738085E+04 0.  0.
        2    1    3    3  502    0  0.66397962644E+03  0.31431009457E+03  0.15749941370E+03  0.75130942041E+03  0.25500000920E-02 0. -1.
       -2    1    3    3    0  502 -0.66397962644E+03 -0.31431009457E+03 -0.13950680783E+04  0.15766656979E+04  0.25500000920E-02 0.  1.
</event>
<event>
 5   0  0.2142551E-05  0.2006383E+04  0.7818609E-02  0.8603642E-01
       -1   -1    0    0    0  501  0.00000000000E+00  0.00000000000E+00  0.54855791692E+03  0.54855791694E+03  0.50400001928E-02 0.  1.
        1   -1    0    0  501    0  0.00000000000E+00  0.00000000000E+00 -0.18346160581E+04  0.18346160581E+04  0.50400001928E-02 0. -1.
    10030    2    1    2    0    0  0.00000000000E+00  0.00000000000E+00 -0.12860581412E+04  0.23831739751E+04  0.20063829776E+04 0.  0.
        3    1    3    3  502    0  0.76227543576E+03 -0.95884133664E+02 -0.14092593679E+04  0.16050761923E+04  0.10100000352E+00 0. -1.
       -3    1    3    3    0  502 -0.76227543576E+03  0.95884133664E+02  0.12320122668E+03  0.77809778274E+03  0.10100000352E+00 0.  1.
</event>
<event>
 5   0  0.2142551E-05  0.1989932E+04  0.7818609E-02  0.8611342E-01
        1   -1    0    0  501    0  0.00000000000E+00  0.00000000000E+00  0.24419788878E+04  0.24419788878E+04  0.50400001928E-02 0.  1.
       -1   -1    0    0    0  501  0.00000000000E+00  0.00000000000E+00 -0.40539131589E+03  0.40539131592E+03  0.50400001928E-02 0. -1.
    10030    2    1    2    0    0  0.00000000000E+00  0.00000000000E+00  0.20365875719E+04  0.28473702038E+04  0.19899316921E+04 0.  0.
        3    1    3    3  502    0 -0.76313948080E+03 -0.19088189177E+03  0.14657939336E+03  0.80018953537E+03  0.10100000352E+00 0. -1.
       -3    1    3    3    0  502  0.76313948080E+03  0.19088189177E+03  0.18900081786E+04  0.20471806684E+04  0.10100000352E+00 0.  1.
</event>
<event>
 5   0  0.2110896E-05  0.1996323E+04  0.7818609E-02  0.8608342E-01
       -1   -1    0    0    0  501  0.00000000000E+00  0.00000000000E+00  0.69937199135E+03  0.69937199137E+03  0.50400001928E-02 0. -1.
        1   -1    0    0  501    0  0.00000000000E+00  0.00000000000E+00 -0.14246010528E+04  0.14246010528E+04  0.50400001928E-02 0.  1.
    10030    2    1    2    0    0  0.00000000000E+00  0.00000000000E+00 -0.72522906148E+03  0.21239730442E+04  0.19963226946E+04 0.  0.
        4    1    3    3  502    0 -0.32845109246E+03 -0.89322032999E+03 -0.68286268258E+03  0.11713350222E+04  0.12699999809E+01 0.  1.
       -4    1    3    3    0  502  0.32845109246E+03  0.89322032999E+03 -0.42366378903E+02  0.95263802203E+03  0.12699999809E+01 0. -1.
</event>
<event>
 5   0  0.4514680E-05  0.1992675E+04  0.7818609E-02  0.8610053E-01
        2   -1    0    0  501    0  0.00000000000E+00  0.00000000000E+00  0.13328114545E+04  0.13328114546E+04  0.25500000920E-02 0.  1.
       -2   -1    0    0    0  501  0.00000000000E+00  0.00000000000E+00 -0.74480799346E+03  0.74480799347E+03  0.25500000920E-02 0. -1.
    10030    2    1    2    0    0  0.00000000000E+00  0.00000000000E+00  0.58800346109E+03  0.20776194480E+04  0.19926752120E+04 0.  0.
        3    1    3    3  502    0 -0.36015027222E+02  0.30991078632E+03  0.12805654388E+04  0.13180248977E+04  0.10100000352E+00 0.  1.
       -3    1    3    3    0  502  0.36015027222E+02 -0.30991078632E+03 -0.69256197773E+03  0.75959455032E+03  0.10100000352E+00 0. -1.
</event>
<event>
 5   0  0.4473361E-05  0.2010399E+04  0.7818609E-02  0.8601774E-01
       -2   -1    0    0    0  501  0.00000000000E+00  0.00000000000E+00  0.75520709174E+03  0.75520709175E+03  0.25500000920E-02 0. -1.
        2   -1    0    0  501    0  0.00000000000E+00  0.00000000000E+00 -0.13379453254E+04  0.13379453254E+04  0.25500000920E-02 0.  1.
    10030    2    1    2    0    0  0.00000000000E+00  0.00000000000E+00 -0.58273823365E+03  0.20931524171E+04  0.20103987645E+04 0.  0.
        2    1    3    3  502    0  0.82163700154E+03  0.28997122290E+03 -0.81325567351E+03  0.11918705731E+04  0.25500000920E-02 0. -1.
       -2    1    3    3    0  502 -0.82163700154E+03 -0.28997122290E+03  0.23051743986E+03  0.90128184409E+03  0.25500000920E-02 0.  1.
</event>
<event>
 5   0  0.4412054E-05  0.1996853E+04  0.7818609E-02  0.8608094E-01
       -2   -1    0    0    0  501  0.00000000000E+00  0.00000000000E+00  0.91696853388E+03  0.91696853389E+03  0.25500000920E-02 0. -1.
        2   -1    0    0  501    0  0.00000000000E+00  0.00000000000E+00 -0.10871203854E+04  0.10871203854E+04  0.25500000920E-02 0.  1.
    10030    2    1    2    0    0  0.00000000000E+00  0.00000000000E+00 -0.17015185151E+03  0.20040889193E+04  0.19968527096E+04 0.  0.
        4    1    3    3  502    0  0.12807738901E+03  0.18587524046E+03  0.89102247707E+03  0.91917141499E+03  0.12699999809E+01 0. -1.
       -4    1    3    3    0  502 -0.12807738901E+03 -0.18587524046E+03 -0.10611743286E+04  0.10849175043E+04  0.12699999809E+01 0.  1.
</event>
<event>
 5   0  0.2093980E-05  0.2010124E+04  0.7818609E-02  0.8601902E-01
        1   -1    0    0  501    0  0.00000000000E+00  0.00000000000E+00  0.74487090098E+03  0.74487090099E+03  0.50400001928E-02 0.  1.
       -1   -1    0    0    0  501  0.00000000000E+00  0.00000000000E+00 -0.13561409092E+04  0.13561409093E+04  0.50400001928E-02 0. -1.
    10030    2    1    2    0    0  0.00000000000E+00  0.00000000000E+00 -0.61127000827E+03  0.21010118102E+04  0.20101242757E+04 0.  0.
        2    1    3    3  502    0 -0.25094168317E+03  0.75586190031E+02  0.70852773874E+03  0.75544460885E+03  0.25500000920E-02 0.  1.
       -2    1    3    3    0  502  0.25094168317E+03 -0.75586190031E+02 -0.13197977470E+04  0.13455672014E+04  0.25500000920E-02 0. -1.
</event>
<event>
 5   0  0.1601500E-05  0.1999857E+04  0.7818609E-02  0.8606687E-01
       -3   -1    0    0    0  501  0.00000000000E+00  0.00000000000E+00  0.10056976280E+04  0.10056976330E+04  0.10100000352E+00 0.  1.
        3   -1    0    0  501    0  0.00000000000E+00  0.00000000000E+00 -0.99419260986E+03  0.99419261499E+03  0.10100000352E+00 0. -1.
    10030    2    1    2    0    0  0.00000000000E+00  0.00000000000E+00  0.11505018098E+02  0.19998902480E+04  0.19998571546E+04 0.  0.
        1    1    3    3  502    0  0.56229018520E+02  0.32094384833E+02 -0.99209435306E+03  0.99420468590E+03  0.50400001928E-02 0. -1.
       -1    1    3    3    0  502 -0.56229018520E+02 -0.32094384833E+02  0.10035993712E+04  0.10056855621E+04  0.50400001928E-02 0.  1.
</event>
<event>
 5   0  0.4577279E-05  0.1996516E+04  0.7818609E-02  0.8608251E-01
        2   -1    0    0  501    0  0.00000000000E+00  0.00000000000E+00  0.84673079605E+03  0.84673079605E+03  0.25500000920E-02 0. -1.
       -2   -1    0    0    0  501  0.00000000000E+00  0.00000000000E+00 -0.11769017995E+04  0.11769017995E+04  0.25500000920E-02 0.  1.
    10030    2    1    2    0    0  0.00000000000E+00  0.00000000000E+00 -0.33017100342E+03  0.20236325955E+04  0.19965159629E+04 0.  0.
        1    1    3    3  502    0  0.20924481013E+02 -0.87170827005E+03  0.32752561584E+03  0.93144305840E+03  0.50400001928E-02 0. -1.
       -1    1    3    3    0  502 -0.20924481013E+02  0.87170827005E+03 -0.65769661927E+03  0.10921895371E+04  0.50400001928E-02 0.  1.
</event>
<event>
 5   0  0.4473361E-05  0.1999654E+04  0.7818609E-02  0.8606783E-01
       -2   -1    0    0    0  501  0.00000000000E+00  0.00000000000E+00  0.88086772559E+03  0.88086772559E+03  0.25500000920E-02 0. -1.
        2   -1    0    0  501    0  0.00000000000E+00  0.00000000000E+00 -0.11348512072E+04  0.11348512072E+04  0.25500000920E-02 0.  1.
    10030    2    1    2    0    0  0.00000000000E+00  0.00000000000E+00 -0.25398348165E+03  0.20157189328E+04  0.19996537718E+04 0.  0.
        2    1    3    3  502    0  0.53217860787E+03  0.81618961495E+03 -0.35301229778E+03  0.10363383813E+04  0.25500000920E-02 0.  1.
       -2    1    3    3    0  502 -0.53217860787E+03 -0.81618961495E+03  0.99028816135E+02  0.97938055150E+03  0.25500000920E-02 0. -1.
</event>
<event>
 5   0  0.2007644E-05  0.2001440E+04  0.7818609E-02  0.8605948E-01
        1   -1    0    0  501    0  0.00000000000E+00  0.00000000000E+00  0.14471722981E+04  0.14471722981E+04  0.50400001928E-02 0.  1.
       -1   -1    0    0    0  501  0.00000000000E+00  0.00000000000E+00 -0.69199794497E+03  0.69199794499E+03  0.50400001928E-02 0. -1.
    10030    2    1    2    0    0  0.00000000000E+00  0.00000000000E+00  0.75517435313E+03  0.21391702431E+04  0.20014397381E+04 0.  0.
        1    1    3    3  502    0  0.21368222552E+03  0.53022375902E+03 -0.50030224630E+03  0.75967076145E+03  0.50400001928E-02 0. -1.
       -1    1    3    3    0  502 -0.21368222552E+03 -0.53022375902E+03  0.12554765994E+04  0.13794994817E+04  0.50400001928E-02 0.  1.
</event>
<event>
 5   0  0.2142551E-05  0.2003322E+04  0.7818609E-02  0.8605069E-01
        1   -1    0    0  501    0  0.00000000000E+00  0.00000000000E+00  0.10355476179E+04  0.10355476179E+04  0.50400001928E-02 0. -1.
       -1   -1    0    0    0  501  0.00000000000E+00  0.00000000000E+00 -0.96888293314E+03  0.96888293316E+03  0.50400001928E-02 0.  1.
    10030    2    1    2    0    0  0.00000000000E+00  0.00000000000E+00  0.66664684739E+02  0.20044305511E+04  0.20033216551E+04 0.  0.
        3    1    3    3  502    0 -0.29870498596E+03  0.49933220457E+03  0.84911615137E+03  0.10293471562E+04  0.10100000352E+00 0. -1.
       -3    1    3    3    0  502  0.29870498596E+03 -0.49933220457E+03 -0.78245146663E+03  0.97508339490E+03  0.10100000352E+00 0.  1.
</event>
<event>
 5   0  0.2110896E-05  0.1992170E+04  0.7818609E-02  0.8610290E-01
        1   -1    0    0  501    0  0.00000000000E+00  0.00000000000E+00  0.15519141063E+04  0.15519141063E+04  0.50400001928E-02 0. -1.
       -1   -1    0    0    0  501  0.00000000000E+00  0.00000000000E+00 -0.63932987571E+03  0.63932987573E+03  0.50400001928E-02 0.  1.
    10030    2    1    2    0    0  0.00000000000E+00  0.00000000000E+00  0.91258423055E+03  0.21912439820E+04  0.19921697244E+04 0.  0.
        4    1    3    3  502    0  0.13574081503E+03 -0.27289945530E+02  0.15412771575E+04  0.15474841515E+04  0.12699999809E+01 0. -1.
       -4    1    3    3    0  502 -0.13574081503E+03  0.27289945530E+02 -0.62869292698E+03  0.64375983047E+03  0.12699999809E+01 0.  1.
</event>
<event>
 5   0  0.2007644E-05  0.2013902E+04  0.7818609E-02  0.8600149E-01
        1   -1    0    0  501    0  0.00000000000E+00  0.00000000000E+00  0.29813948770E+04  0.29813948770E+04  0.50400001928E-02 0.  1.
       -1   -1    0    0    0  501  0.00000000000E+00  0.00000000000E+00 -0.34009247178E+03  0.34009247181E+03  0.50400001928E-02 0. -1.
    10030    2    1    2    0    0  0.00000000000E+00  0.00000000000E+00  0.26413024052E+04  0.33214873488E+04  0.20139016392E+04 0.  0.
        1    1    3    3  502    0  0.48588772861E+03  0.46554193092E+03  0.85194432330E+02  0.67828774542E+03  0.50400001928E-02 0. -1.
       -1    1    3    3    0  502 -0.48588772861E+03 -0.46554193092E+03  0.25561079729E+04  0.26431996034E+04  0.50400001928E-02 0.  1.
</event>
<event>
 5   0  0.4514680E-05  0.1999973E+04  0.7818609E-02  0.8606633E-01
       -2   -1    0    0    0  501  0.00000000000E+00  0.00000000000E+00  0.11403852671E+04  0.11403852671E+04  0.25500000920E-02 0.  1.
        2   -1    0    0  501    0  0.00000000000E+00  0.00000000000E+00 -0.87687276735E+03  0.87687276735E+03  0.25500000920E-02 0. -1.
    10030    2    1    2    0    0  0.00000000000E+00  0.00000000000E+00  0.26351249971E+03  0.20172580344E+04  0.19999727848E+04 0.  0.
        3    1    3    3  502    0  0.11087341542E+02 -0.30751553095E+03 -0.82793116773E+03  0.88326596199E+03  0.10100000352E+00 0. -1.
       -3    1    3    3    0  502 -0.11087341542E+02  0.30751553095E+03  0.10914436674E+04  0.11339920724E+04  0.10100000352E+00 0.  1.
</event>
<event>
 5   0  0.2093980E-05  0.2012047E+04  0.7818609E-02  0.8601009E-01
       -1   -1    0    0    0  501  0.00000000000E+00  0.00000000000E+00  0.54956894194E+03  0.54956894197E+03  0.50400001928E-02 0.  1.
        1   -1    0    0  501    0  0.00000000000E+00  0.00000000000E+00 -0.18415943232E+04  0.18415943232E+04  0.50400001928E-02 0. -1.
    10030    2    1    2    0    0  0.00000000000E+00  0.00000000000E+00 -0.12920253812E+04  0.23911632652E+04  0.20120467626E+04 0.  0.
        2    1    3    3  502    0 -0.29240600039E+03  0.81905076468E+03 -0.12470043837E+04  0.15203175185E+04  0.25500000920E-02 0. -1.
       -2    1    3    3    0  502  0.29240600039E+03 -0.81905076468E+03 -0.45020997542E+02  0.87084574663E+03  0.25500000920E-02 0.  1.
</event>
<event>
 5   0  0.4577279E-05  0.1944300E+04  0.7818609E-02  0.8633114E-01
        2   -1    0    0  501    0  0.00000000000E+00  0.00000000000E+00  0.13336116032E+04  0.13336116032E+04  0.25500000920E-02 0.  1.
       -2   -1    0    0    0  501  0.00000000000E+00  0.00000000000E+00 -0.70865880444E+03  0.70865880444E+03  0.25500000920E-02 0. -1.
    10030    2    1    2    0    0  0.00000000000E+00  0.00000000000E+00  0.62495279878E+03  0.20422704077E+04  0.19442999813E+04 0.  0.
        1    1    3    3  502    0  0.75080298889E+03  0.14056348282E+03  0.94411930079E+03  0.12144235155E+04  0.50400001928E-02 0.  1.
       -1    1    3    3    0  502 -0.75080298889E+03 -0.14056348282E+03 -0.31916650202E+03  0.82784689216E+03  0.50400001928E-02 0. -1.
</event>
<event>
 5   0  0.2093980E-05  0.1999276E+04  0.7818609E-02  0.8606959E-01
       -1   -1    0    0    0  501  0.00000000000E+00  0.00000000000E+00  0.12819082136E+04  0.12819082136E+04  0.50400001928E-02 0.  1.
        1   -1    0    0  501    0  0.00000000000E+00  0.00000000000E+00 -0.77952238164E+03  0.77952238165E+03  0.50400001928E-02 0. -1.
    10030    2    1    2    0    0  0.00000000000E+00  0.00000000000E+00  0.50238583200E+03  0.20614305953E+04  0.19992760127E+04 0.  0.
        2    1    3    3  502    0 -0.11363220525E+03  0.47518557426E+03 -0.64802184314E+03  0.81157003225E+03  0.25500000920E-02 0. -1.
       -2    1    3    3    0  502  0.11363220525E+03 -0.47518557426E+03  0.11504076751E+04  0.12498605631E+04  0.25500000920E-02 0.  1.
</event>
<event>
 5   0  0.2142551E-05  0.2002356E+04  0.7818609E-02  0.8605520E-01
       -1   -1    0    0    0  501  0.00000000000E+00  0.00000000000E+00  0.67149721244E+03  0.67149721246E+03  0.50400001928E-02 0. -1.
        1   -1    0    0  501    0  0.00000000000E+00  0.00000000000E+00 -0.14927205162E+04  0.14927205162E+04  0.50400001928E-02 0.  1.
    10030    2    1    2    0    0  0.00000000000E+00  0.00000000000E+00 -0.82122330378E+03  0.21642177287E+04  0.20023562776E+04 0.  0.
        3    1    3    3  502    0 -0.19210267337E+03  0.35756952490E+03  0.57857324796E+03  0.70675767821E+03  0.10100000352E+00 0. -1.
       -3    1    3    3    0  502  0.19210267337E+03 -0.35756952490E+03 -0.13997965517E+04  0.14574600505E+04  0.10100000352E+00 0.  1.
</event>
<event>
 5   0  0.4412054E-05  0.1993442E+04  0.7818609E-02  0.8609693E-01
       -2   -1    0    0    0  501  0.00000000000E+00  0.00000000000E+00  0.68691623390E+03  0.68691623390E+03  0.25500000920E-02 0. -1.
        2   -1    0    0  501    0  0.00000000000E+00  0.00000000000E+00 -0.14462507103E+04  0.14462507103E+04  0.25500000920E-02 0.  1.
    10030    2    1    2    0    0  0.00000000000E+00  0.00000000000E+00 -0.75933447639E+03  0.21331669442E+04  0.19934423405E+04 0.  0.
        4    1    3    3  502    0 -0.18070160791E+03  0.67355935932E+03  0.38236774217E+03  0.79532508120E+03  0.12699999809E+01 0. -1.
       -4    1    3    3    0  502  0.18070160791E+03 -0.67355935932E+03 -0.11417022186E+04  0.13378418630E+04  0.12699999809E+01 0.  1.
</event>
<event>
 5   0  0.2110896E-05  0.1994189E+04  0.7818609E-02  0.8609342E-01
       -1   -1    0    0    0  501  0.00000000000E+00  0.00000000000E+00  0.92360808806E+03  0.92360808808E+03  0.50400001928E-02 0. -1.
        1   -1    0    0  501    0  0.00000000000E+00  0.00000000000E+00 -0.10764278280E+04  0.10764278280E+04  0.50400001928E-02 0.  1.
    10030    2    1    2    0    0  0.00000000000E+00  0.00000000000E+00 -0.15281973994E+03  0.20000359161E+04  0.19941890063E+04 0.  0.
        4    1    3    3  502    0 -0.70004921459E+03 -0.66074950568E+03  0.18423095056E+03  0.98010278448E+03  0.12699999809E+01 0. -1.
       -4    1    3    3    0  502  0.70004921459E+03  0.66074950568E+03 -0.33705069050E+03  0.10199331316E+04  0.12699999809E+01 0.  1.
</event>
<event>
 5   0  0.4473361E-05  0.2000614E+04  0.7818609E-02  0.8606334E-01
       -2   -1    0    0    0  501  0.00000000000E+00  0.00000000000E+00  0.47761277080E+03  0.47761277081E+03  0.25500000920E-02 0.  1.
        2   -1    0    0  501    0  0.00000000000E+00  0.00000000000E+00 -0.20950322214E+04  0.20950322214E+04  0.25500000920E-02 0. -1.
    10030    2    1    2    0    0  0.00000000000E+00  0.00000000000E+00 -0.16174194506E+04  0.25726449922E+04  0.20006140499E+04 0.  0.
        2    1    3    3  502    0 -0.37285733175E+03  0.62606634124E+03  0.72533139756E+02  0.73228594814E+03  0.25500000920E-02 0.  1.
       -2    1    3    3    0  502  0.37285733175E+03 -0.62606634124E+03 -0.16899525904E+04  0.18403590441E+04  0.25500000920E-02 0. -1.
</event>
<event>
 5   0  0.2256868E-05  0.1997869E+04  0.7818609E-02  0.8607618E-01
       -1   -1    0    0    0  501  0.00000000000E+00  0.00000000000E+00  0.15175636170E+04  0.15175636170E+04  0.50400001928E-02 0. -1.
        1   -1    0    0  501    0  0.00000000000E+00  0.00000000000E+00 -0.65754720817E+03  0.65754720818E+03  0.50400001928E-02 0.  1.
    10030    2    1    2    0    0  0.00000000000E+00  0.00000000000E+00  0.86001640886E+03  0.21751108252E+04  0.19978685839E+04 0.  0.
        5    1    3    3  502    0 -0.56470814313E+03  0.45492042771E+03 -0.31796382060E+03  0.79181498070E+03  0.46999998093E+01 0.  1.
       -5    1    3    3    0  502  0.56470814313E+03 -0.45492042771E+03  0.11779802295E+04  0.13832958445E+04  0.46999998093E+01 0. -1.
</event>
<event>
 5   0  0.4514680E-05  0.2004915E+04  0.7818609E-02  0.8604326E-01
       -2   -1    0    0    0  501  0.00000000000E+00  0.00000000000E+00  0.58891316531E+03  0.58891316531E+03  0.25500000920E-02 0. -1.
        2   -1    0    0  501    0  0.00000000000E+00  0.00000000000E+00 -0.17063997154E+04  0.17063997154E+04  0.25500000920E-02 0.  1.
    10030    2    1    2    0    0  0.00000000000E+00  0.00000000000E+00 -0.11174865501E+04  0.22953128807E+04  0.20049152178E+04 0.  0.
        3    1    3    3  502    0 -0.80969673463E+03 -0.32297681183E+03 -0.11254097599E+04  0.14235413450E+04  0.10100000352E+00 0.  1.
       -3    1    3    3    0  502  0.80969673463E+03  0.32297681183E+03  0.79232097937E+01  0.87177153573E+03  0.10100000352E+00 0. -1.
</event>
<event>
 5   0  0.2093980E-05  0.2017827E+04  0.7818609E-02  0.8598331E-01
       -1   -1    0    0    0  501  0.00000000000E+00  0.00000000000E+00  0.50454542683E+03  0.50454542685E+03  0.50400001928E-02 0.  1.
        1   -1    0    0  501    0  0.00000000000E+00  0.00000000000E+00 -0.20174713674E+04  0.20174713674E+04  0.50400001928E-02 0. -1.
    10030    2    1    2    0    0  0.00000000000E+00  0.00000000000E+00 -0.15129259406E+04  0.25220167943E+04  0.20178265062E+04 0.  0.
        2    1    3    3  502    0 -0.77992164815E+03  0.41716753566E+03 -0.14979472676E+03  0.89707579960E+03  0.25500000920E-02 0.  1.
       -2    1    3    3    0  502  0.77992164815E+03 -0.41716753566E+03 -0.13631312138E+04  0.16249409947E+04  0.25500000920E-02 0. -1.
</event>
<event>
 5   0  0.4473361E-05  0.1998070E+04  0.7818609E-02  0.8607524E-01
        2   -1    0    0  501    0  0.00000000000E+00  0.00000000000E+00  0.18565582486E+04  0.18565582486E+04  0.25500000920E-02 0.  1.
       -2   -1    0    0    0  501  0.00000000000E+00  0.00000000000E+00 -0.53759187544E+03  0.53759187545E+03  0.25500000920E-02 0. -1.
    10030    2    1    2    0    0  0.00000000000E+00  0.00000000000E+00  0.13189663732E+04  0.23941501241E+04  0.19980696992E+04 0.  0.
        2    1    3    3  502    0  0.22619891036E+03 -0.42322291351E+03 -0.39044872664E+03  0.61865482274E+03  0.25500000920E-02 0. -1.
       -2    1    3    3    0  502 -0.22619891036E+03  0.42322291351E+03  0.17094150998E+04  0.17754953013E+04  0.25500000920E-02 0.  1.
</event>
<event>
 5   0  0.4577279E-05  0.1995202E+04  0.7818609E-02  0.8608867E-01
        2   -1    0    0  501    0  0.00000000000E+00  0.00000000000E+00  0.17825764336E+04  0.17825764336E+04  0.25500000920E-02 0. -1.
       -2   -1    0    0    0  501  0.00000000000E+00  0.00000000000E+00 -0.55829731167E+03  0.55829731168E+03  0.25500000920E-02 0.  1.
    10030    2    1    2    0    0  0.00000000000E+00  0.00000000000E+00  0.12242791219E+04  0.23408737453E+04  0.19952018752E+04 0.  0.
        1    1    3    3  502    0 -0.48137377426E+03  0.19346146689E+03  0.16118570201E+04  0.16932900233E+04  0.50400001928E-02 0. -1.
       -1    1    3    3    0  502  0.48137377426E+03 -0.19346146689E+03 -0.38757789822E+03  0.64758372194E+03  0.50400001928E-02 0.  1.
</event>
<event>
 5   0  0.2142551E-05  0.2005987E+04  0.7818609E-02  0.8603827E-01
       -1   -1    0    0    0  501  0.00000000000E+00  0.00000000000E+00  0.71212960689E+03  0.71212960691E+03  0.50400001928E-02 0. -1.
        1   -1    0    0  501    0  0.00000000000E+00  0.00000000000E+00 -0.14126584016E+04  0.14126584016E+04  0.50400001928E-02 0.  1.
    10030    2    1    2    0    0  0.00000000000E+00  0.00000000000E+00 -0.70052879475E+03  0.21247880086E+04  0.20059869115E+04 0.  0.
        3    1    3    3  502    0 -0.85017599209E+03 -0.45117190456E+01 -0.91392275989E+03  0.12482285025E+04  0.10100000352E+00 0.  1.
       -3    1    3    3    0  502  0.85017599209E+03  0.45117190456E+01  0.21339396514E+03  0.87655950608E+03  0.10100000352E+00 0. -1.
</event>
<event>
 5   0  0.2110896E-05  0.2073846E+04  0.7818609E-02  0.8572853E-01
        1   -1    0    0  501    0  0.00000000000E+00  0.00000000000E+00  0.16604836260E+04  0.16604836260E+04  0.50400001928E-02 0. -1.
       -1   -1    0    0    0  501  0.00000000000E+00  0.00000000000E+00 -0.64752779384E+03  0.64752779385E+03  0.50400001928E-02 0.  1.
    10030    2    1    2    0    0  0.00000000000E+00  0.00000000000E+00  0.10129558322E+04  0.23080114199E+04  0.20738459915E+04 0.  0.
        4    1    3    3  502    0  0.56080889538E+03 -0.45373707449E+03  0.13354482103E+04  0.15178298605E+04  0.12699999809E+01 0. -1.
       -4    1    3    3    0  502 -0.56080889538E+03  0.45373707449E+03 -0.32249237819E+03  0.79018155939E+03  0.12699999809E+01 0.  1.
</event>
<event>
 5   0  0.4473361E-05  0.2002254E+04  0.7818609E-02  0.8605567E-01
        2   -1    0    0  501    0  0.00000000000E+00  0.00000000000E+00  0.21800072171E+04  0.21800072171E+04  0.25500000920E-02 0.  1.
       -2   -1    0    0    0  501  0.00000000000E+00  0.00000000000E+00 -0.45974869275E+03  0.45974869275E+03  0.25500000920E-02 0. -1.
    10030    2    1    2    0    0  0.00000000000E+00  0.00000000000E+00  0.17202585244E+04  0.26397559099E+04  0.20022541979E+04 0.  0.
        2    1    3    3  502    0 -0.49483971704E+03  0.19622533990E+03  0.19779552188E+04  0.20483353185E+04  0.25500000920E-02 0.  1.
       -2    1    3    3    0  502  0.49483971704E+03 -0.19622533990E+03 -0.25769669440E+03  0.59142059136E+03  0.25500000920E-02 0. -1.
</event>
<event>
 5   0  0.4412054E-05  0.1987418E+04  0.7818609E-02  0.8612526E-01
       -2   -1    0    0    0  501  0.00000000000E+00  0.00000000000E+00  0.14670442741E+04  0.14670442741E+04  0.25500000920E-02 0.  1.
        2   -1    0    0  501    0  0.00000000000E+00  0.00000000000E+00 -0.67309311229E+03  0.67309311230E+03  0.25500000920E-02 0. -1.
    10030    2    1    2    0    0  0.00000000000E+00  0.00000000000E+00  0.79395116183E+03  0.21401373864E+04  0.19874178185E+04 0.  0.
        4    1    3    3  502    0 -0.12008387002E+03  0.51826993071E+03  0.13007748590E+04  0.14053614139E+04  0.12699999809E+01 0.  1.
       -4    1    3    3    0  502  0.12008387002E+03 -0.51826993071E+03 -0.50682369717E+03  0.73477597254E+03  0.12699999809E+01 0. -1.
</event>
<event>
 5   0  0.4514680E-05  0.1984996E+04  0.7818609E-02  0.8613668E-01
       -2   -1    0    0    0  501  0.00000000000E+00  0.00000000000E+00  0.94924709388E+03  0.94924709388E+03  0.25500000920E-02 0. -1.
        2   -1    0    0  501    0  0.00000000000E+00  0.00000000000E+00 -0.10377194733E+04  0.10377194733E+04  0.25500000920E-02 0.  1.
    10030    2    1    2    0    0  0.00000000000E+00  0.00000000000E+00 -0.88472379454E+02  0.19869665672E+04  0.19849959137E+04 0.  0.
        3    1    3    3  502    0  0.18880548256E+03  0.31433863421E+03  0.87895698360E+03  0.95237685631E+03  0.10100000352E+00 0. -1.
       -3    1    3    3    0  502 -0.18880548256E+03 -0.31433863421E+03 -0.96742936306E+03  0.10345897109E+04  0.10100000352E+00 0.  1.
</event>
<event>
 5   0  0.4447313E-05  0.2000134E+04  0.7818609E-02  0.8606558E-01
        2   -1    0    0  501    0  0.00000000000E+00  0.00000000000E+00  0.14803392857E+04  0.14803392857E+04  0.25500000920E-02 0.  1.
       -2   -1    0    0    0  501  0.00000000000E+00  0.00000000000E+00 -0.67561134098E+03  0.67561134099E+03  0.25500000920E-02 0. -1.
    10030    2    1    2    0    0  0.00000000000E+00  0.00000000000E+00  0.80472794472E+03  0.21559506267E+04  0.20001340054E+04 0.  0.
        5    1    3    3  502    0 -0.12863133988E+03 -0.78588701339E+03  0.10544262999E+04  0.13213634365E+04  0.46999998093E+01 0.  1.
       -5    1    3    3    0  502  0.12863133988E+03  0.78588701339E+03 -0.24969835519E+03  0.83458719017E+03  0.46999998093E+01 0. -1.
</event>
<event>
 5   0  0.2110896E-05  0.1999909E+04  0.7818609E-02  0.8606663E-01
       -1   -1    0    0    0  501  0.00000000000E+00  0.00000000000E+00  0.80666961022E+03  0.80666961024E+03  0.50400001928E-02 0.  1.
        1   -1    0    0  501    0  0.00000000000E+00  0.00000000000E+00 -0.12395526138E+04  0.12395526139E+04  0.50400001928E-02 0. -1.
    10030    2    1    2    0    0  0.00000000000E+00  0.00000000000E+00 -0.43288300362E+03  0.20462222241E+04  0.19999094218E+04 0.  0.
        4    1    3    3  502    0 -0.98150651882E+03 -0.10838910190E+03 -0.55299669803E+02  0.98902118798E+03  0.12699999809E+01 0. -1.
       -4    1    3    3    0  502  0.98150651882E+03  0.10838910190E+03 -0.37758333382E+03  0.10572010361E+04  0.12699999809E+01 0.  1.
</event>
<event>
 5   0  0.2142551E-05  0.1989607E+04  0.7818609E-02  0.8611495E-01
       -1   -1    0    0    0  501  0.00000000000E+00  0.00000000000E+00  0.69912777232E+03  0.69912777234E+03  0.50400001928E-02 0. -1.
        1   -1    0    0  501    0  0.00000000000E+00  0.00000000000E+00 -0.14155264118E+04  0.14155264118E+04  0.50400001928E-02 0.  1.
    10030    2    1    2    0    0  0.00000000000E+00  0.00000000000E+00 -0.71639863943E+03  0.21146541841E+04  0.19896068224E+04 0.  0.
        3    1    3    3  502    0  0.47150907024E+03  0.35457664644E+03 -0.12095340509E+04  0.13457407002E+04  0.10100000352E+00 0.  1.
       -3    1    3    3    0  502 -0.47150907024E+03 -0.35457664644E+03  0.49313541150E+03  0.76891348394E+03  0.10100000352E+00 0. -1.
</event>
<event>
 5   0  0.2007644E-05  0.2004913E+04  0.7818609E-02  0.8604327E-01
        1   -1    0    0  501    0  0.00000000000E+00  0.00000000000E+00  0.11876319557E+04  0.11876319557E+04  0.50400001928E-02 0.  1.
       -1   -1    0    0    0  501  0.00000000000E+00  0.00000000000E+00 -0.84615336377E+03  0.84615336378E+03  0.50400001928E-02 0. -1.
    10030    2    1    2    0    0  0.00000000000E+00  0.00000000000E+00  0.34147859191E+03  0.20337853195E+04  0.20049127405E+04 0.  0.
        1    1    3    3  502    0 -0.86057287275E+03  0.50044817767E+03  0.29026967459E+03  0.10369621651E+04  0.50400001928E-02 0. -1.
       -1    1    3    3    0  502  0.86057287275E+03 -0.50044817767E+03  0.51208917323E+02  0.99682315437E+03  0.50400001928E-02 0.  1.
</event>
<event>
 5   0  0.4412054E-05  0.1968234E+04  0.7818609E-02  0.8621618E-01
       -2   -1    0    0    0  501  0.00000000000E+00  0.00000000000E+00  0.57486858214E+03  0.57486858215E+03  0.25500000920E-02 0. -1.
        2   -1    0    0  501    0  0.00000000000E+00  0.00000000000E+00 -0.16847093454E+04  0.16847093454E+04  0.25500000920E-02 0.  1.
    10030    2    1    2    0    0  0.00000000000E+00  0.00000000000E+00 -0.11098407632E+04  0.22595779275E+04  0.19682342063E+04 0.  0.
        4    1    3    3  502    0  0.21181154920E+03 -0.22675929666E+03  0.51723770585E+03  0.60317523842E+03  0.12699999809E+01 0. -1.
       -4    1    3    3    0  502 -0.21181154920E+03  0.22675929666E+03 -0.16270784691E+04  0.16564026891E+04  0.12699999809E+01 0.  1.
</event>
<event>
 5   0  0.4412054E-05  0.1982976E+04  0.7818609E-02  0.8614622E-01
        2   -1    0    0  501    0  0.00000000000E+00  0.00000000000E+00  0.20794697616E+04  0.20794697616E+04  0.25500000920E-02 0. -1.
       -2   -1    0    0    0  501  0.00000000000E+00  0.00000000000E+00 -0.47273993676E+03  0.47273993677E+03  0.25500000920E-02 0.  1.
    10030    2    1    2    0    0  0.00000000000E+00  0.00000000000E+00  0.16067298249E+04  0.25522096984E+04  0.19829759491E+04 0.  0.
        4    1    3    3  502    0 -0.82598176743E+03  0.53255170104E+03  0.97211023628E+03  0.13823375560E+04  0.12699999809E+01 0.  1.
       -4    1    3    3    0  502  0.82598176743E+03 -0.53255170104E+03  0.63461958861E+03  0.11698721424E+04  0.12699999809E+01 0. -1.
</event>
<event>
 5   0  0.1601500E-05  0.1995317E+04  0.7818609E-02  0.8608813E-01
       -3   -1    0    0    0  501  0.00000000000E+00  0.00000000000E+00  0.28119152751E+04  0.28119152769E+04  0.10100000352E+00 0. -1.
        3   -1    0    0  501    0  0.00000000000E+00  0.00000000000E+00 -0.35396599854E+03  0.35396601295E+03  0.10100000352E+00 0.  1.
    10030    2    1    2    0    0  0.00000000000E+00  0.00000000000E+00  0.24579492765E+04  0.31658812898E+04  0.19953169411E+04 0.  0.
        2    1    3    3  502    0  0.99291394173E+02 -0.75106583920E+03  0.19903607241E+03  0.78330966667E+03  0.25500000920E-02 0.  1.
       -2    1    3    3    0  502 -0.99291394173E+02  0.75106583920E+03  0.22589132041E+04  0.23825716232E+04  0.25500000920E-02 0. -1.
</event>
<event>
 5   0  0.4473361E-05  0.2003085E+04  0.7818609E-02  0.8605180E-01
       -2   -1    0    0    0  501  0.00000000000E+00  0.00000000000E+00  0.65656438286E+03  0.65656438287E+03  0.25500000920E-02 0.  1.
        2   -1    0    0  501    0  0.00000000000E+00  0.00000000000E+00 -0.15277823165E+04  0.15277823165E+04  0.25500000920E-02 0. -1.
    10030    2    1    2    0    0  0.00000000000E+00  0.00000000000E+00 -0.87121793368E+03  0.21843466994E+04  0.20030850744E+04 0.  0.
        2    1    3    3  502    0  0.56785980732E+03  0.65855896760E+03  0.10627057390E+03  0.87604686488E+03  0.25500000920E-02 0.  1.
       -2    1    3    3    0  502 -0.56785980732E+03 -0.65855896760E+03 -0.97748850757E+03  0.13082998345E+04  0.25500000920E-02 0. -1.
</event>
<event>
 5   0  0.2093980E-05  0.1995893E+04  0.7818609E-02  0.8608543E-01
        1   -1    0    0  501    0  0.00000000000E+00  0.00000000000E+00  0.12283441327E+04  0.12283441327E+04  0.50400001928E-02 0. -1.
       -1   -1    0    0    0  501  0.00000000000E+00  0.00000000000E+00 -0.81076407037E+03  0.81076407038E+03  0.50400001928E-02 0.  1.
    10030    2    1    2    0    0  0.00000000000E+00  0.00000000000E+00  0.41758006236E+03  0.20391082031E+04  0.19958930722E+04 0.  0.
        2    1    3    3  502    0  0.57008548049E+03 -0.81904763927E+03  0.20082386851E+03  0.10179227459E+04  0.25500000920E-02 0. -1.
       -2    1    3    3    0  502 -0.57008548049E+03  0.81904763927E+03  0.21675619385E+03  0.10211854572E+04  0.25500000920E-02 0.  1.
</event>
<event>
 5   0  0.2142551E-05  0.2002615E+04  0.7818609E-02  0.8605399E-01
       -1   -1    0    0    0  501  0.00000000000E+00  0.00000000000E+00  0.76674682216E+03  0.76674682218E+03  0.50400001928E-02 0.  1.
        1   -1    0    0  501    0  0.00000000000E+00  0.00000000000E+00 -0.13076237599E+04  0.13076237599E+04  0.50400001928E-02 0. -1.
    10030    2    1    2    0    0  0.00000000000E+00  0.00000000000E+00 -0.54087693773E+03  0.20743705821E+04  0.20026146534E+04 0.  0.
        3    1    3    3  502    0 -0.58581090028E+03 -0.70078807077E+03  0.15455285508E+03  0.92637191572E+03  0.10100000352E+00 0.  1.
       -3    1    3    3    0  502  0.58581090028E+03  0.70078807077E+03 -0.69542979281E+03  0.11479986664E+04  0.10100000352E+00 0. -1.
</event>
<event>
 5   0  0.4447313E-05  0.1999650E+04  0.7818609E-02  0.8606784E-01
        2   -1    0    0  501    0  0.00000000000E+00  0.00000000000E+00  0.13812901195E+04  0.13812901195E+04  0.25500000920E-02 0.  1.
       -2   -1    0    0    0  501  0.00000000000E+00  0.00000000000E+00 -0.72370748534E+03  0.72370748535E+03  0.25500000920E-02 0. -1.
    10030    2    1    2    0    0  0.00000000000E+00  0.00000000000E+00  0.65758263411E+03  0.21049976048E+04  0.19996499683E+04 0.  0.
        5    1    3    3  502    0  0.12573604369E+03 -0.77180068654E+02  0.13697567779E+04  0.13776872056E+04  0.46999998093E+01 0.  1.
       -5    1    3    3    0  502 -0.12573604369E+03  0.77180068654E+02 -0.71217414383E+03  0.72731039923E+03  0.46999998093E+01 0. -1.
</event>
<event>
 5   0  0.4577279E-05  0.2004802E+04  0.7818609E-02  0.8604379E-01
       -2   -1    0    0    0  501  0.00000000000E+00  0.00000000000E+00  0.69844838561E+03  0.69844838561E+03  0.25500000920E-02 0.  1.
        2   -1    0    0  501    0  0.00000000000E+00  0.00000000000E+00 -0.14386279746E+04  0.14386279746E+04  0.25500000920E-02 0. -1.
    10030    2    1    2    0    0  0.00000000000E+00  0.00000000000E+00 -0.74017958900E+03  0.21370763602E+04  0.20048016225E+04 0.  0.
        1    1    3    3  502    0  0.65679203824E+03  0.58058491470E+03  0.14814787273E+03  0.88904579010E+03  0.50400001928E-02 0.  1.
       -1    1    3    3    0  502 -0.65679203824E+03 -0.58058491470E+03 -0.88832746173E+03  0.12480305701E+04  0.50400001928E-02 0. -1.
</event>
<event>
 5   0  0.2110896E-05  0.2002900E+04  0.7818609E-02  0.8605266E-01
       -1   -1    0    0    0  501  0.00000000000E+00  0.00000000000E+00  0.96649629198E+03  0.96649629200E+03  0.50400001928E-02 0. -1.
        1   -1    0    0  501    0  0.00000000000E+00  0.00000000000E+00 -0.10376681259E+04  0.10376681259E+04  0.50400001928E-02 0.  1.
    10030    2    1    2    0    0  0.00000000000E+00  0.00000000000E+00 -0.71171833919E+02  0.20041644179E+04  0.20029002931E+04 0.  0.
        4    1    3    3  502    0 -0.33659563697E+03  0.76007689584E+01 -0.97933885724E+03  0.10355967385E+04  0.12699999809E+01 0.  1.
       -4    1    3    3    0  502  0.33659563697E+03 -0.76007689584E+01  0.90816702332E+03  0.96856767945E+03  0.12699999809E+01 0. -1.
</event>
<event>
 5   0  0.2110896E-05  0.2003447E+04  0.7818609E-02  0.8605011E-01
       -1   -1    0    0    0  501  0.00000000000E+00  0.00000000000E+00  0.16744505237E+04  0.16744505237E+04  0.50400001928E-02 0.  1.
        1   -1    0    0  501    0  0.00000000000E+00  0.00000000000E+00 -0.59927097905E+03  0.59927097908E+03  0.50400001928E-02 0. -1.
    10030    2    1    2    0    0  0.00000000000E+00  0.00000000000E+00  0.10751795446E+04  0.22737215027E+04  0.20034466349E+04 0.  0.
        4    1    3    3  502    0 -0.23507690253E+03  0.74960232764E+03  0.12429523193E+04  0.14704070459E+04  0.12699999809E+01 0.  1.
       -4    1    3    3    0  502  0.23507690253E+03 -0.74960232764E+03 -0.16777277471E+03  0.80331445682E+03  0.12699999809E+01 0. -1.
</event>
<event>
 5   0  0.2142551E-05  0.1994659E+04  0.7818609E-02  0.8609122E-01
        1   -1    0    0  501    0  0.00000000000E+00  0.00000000000E+00  0.19888630325E+04  0.19888630325E+04  0.50400001928E-02 0.  1.
       -1   -1    0    0    0  501  0.00000000000E+00  0.00000000000E+00 -0.50011787056E+03  0.50011787059E+03  0.50400001928E-02 0. -1.
    10030    2    1    2    0    0  0.00000000000E+00  0.00000000000E+00  0.14887451620E+04  0.24889809031E+04  0.19946588126E+04 0.  0.
        3    1    3    3  502    0 -0.17647408132E+03 -0.43686288488E+03  0.18412320687E+04  0.19005598708E+04  0.10100000352E+00 0.  1.
       -3    1    3    3    0  502  0.17647408132E+03  0.43686288488E+03 -0.35248690677E+03  0.58842103227E+03  0.10100000352E+00 0. -1.
</event>
<event>
 5   0  0.4412054E-05  0.1992851E+04  0.7818609E-02  0.8609971E-01
       -2   -1    0    0    0  501  0.00000000000E+00  0.00000000000E+00  0.67851483800E+03  0.67851483800E+03  0.25500000920E-02 0. -1.
        2   -1    0    0  501    0  0.00000000000E+00  0.00000000000E+00 -0.14632889874E+04  0.14632889874E+04  0.25500000920E-02 0.  1.
    10030    2    1    2    0    0  0.00000000000E+00  0.00000000000E+00 -0.78477414936E+03  0.21418038254E+04  0.19928505114E+04 0.  0.
        4    1    3    3  502    0 -0.78660454706E+03 -0.21695818117E+03  0.22223497195E+03  0.84569945104E+03  0.12699999809E+01 0.  1.
       -4    1    3    3    0  502  0.78660454706E+03  0.21695818117E+03 -0.10070091213E+04  0.12961043743E+04  0.12699999809E+01 0. -1.
</event>
<event>
 5   0  0.2256868E-05  0.1999355E+04  0.7818609E-02  0.8606922E-01
       -1   -1    0    0    0  501  0.00000000000E+00  0.00000000000E+00  0.72045757565E+03  0.72045757567E+03  0.50400001928E-02 0.  1.
        1   -1    0    0  501    0  0.00000000000E+00  0.00000000000E+00 -0.13871118386E+04  0.13871118386E+04  0.50400001928E-02 0. -1.
    10030    2    1    2    0    0  0.00000000000E+00  0.00000000000E+00 -0.66665426296E+03  0.21075694143E+04  0.19993551285E+04 0.  0.
        5    1    3    3  502    0  0.18224523955E+03 -0.61964875235E+03 -0.11376146912E+04  0.13081923327E+04  0.46999998093E+01 0. -1.
       -5    1    3    3    0  502 -0.18224523955E+03  0.61964875235E+03  0.47096042826E+03  0.79937708161E+03  0.46999998093E+01 0.  1.
</event>
<event>
 5   0  0.4514680E-05  0.2000837E+04  0.7818609E-02  0.8606229E-01
       -2   -1    0    0    0  501  0.00000000000E+00  0.00000000000E+00  0.88036245354E+03  0.88036245354E+03  0.25500000920E-02 0. -1.
        2   -1    0    0  501    0  0.00000000000E+00  0.00000000000E+00 -0.11368468583E+04  0.11368468583E+04  0.25500000920E-02 0.  1.
    10030    2    1    2    0    0  0.00000000000E+00  0.00000000000E+00 -0.25648440475E+03  0.20172093118E+04  0.20008371143E+04 0.  0.
        3    1    3    3  502    0  0.62774825199E+03 -0.18815493921E+03 -0.89031569525E+03  0.11055008803E+04  0.10100000352E+00 0.  1.
       -3    1    3    3    0  502 -0.62774825199E+03  0.18815493921E+03  0.63383129050E+03  0.91170843149E+03  0.10100000352E+00 0. -1.
</event>
<event>
 5   0  0.4514680E-05  0.2000823E+04  0.7818609E-02  0.8606236E-01
        2   -1    0    0  501    0  0.00000000000E+00  0.00000000000E+00  0.17896832260E+04  0.17896832260E+04  0.25500000920E-02 0. -1.
       -2   -1    0    0    0  501  0.00000000000E+00  0.00000000000E+00 -0.55921812319E+03  0.55921812320E+03  0.25500000920E-02 0.  1.
    10030    2    1    2    0    0  0.00000000000E+00  0.00000000000E+00  0.12304651028E+04  0.23489013492E+04  0.20008231254E+04 0.  0.
        3    1    3    3  502    0  0.12672032714E+02 -0.98837882942E+03  0.43423586988E+03  0.10796360923E+04  0.10100000352E+00 0. -1.
       -3    1    3    3    0  502 -0.12672032714E+02  0.98837882942E+03  0.79622923293E+03  0.12692652569E+04  0.10100000352E+00 0.  1.
</event>
<event>
 5   0  0.1601500E-05  0.1997791E+04  0.7818609E-02  0.8607654E-01
       -3   -1    0    0    0  501  0.00000000000E+00  0.00000000000E+00  0.36043108001E+03  0.36043109416E+03  0.10100000352E+00 0.  1.
        3   -1    0    0  501    0  0.00000000000E+00  0.00000000000E+00 -0.27683308767E+04  0.27683308785E+04  0.10100000352E+00 0. -1.
    10030    2    1    2    0    0  0.00000000000E+00  0.00000000000E+00 -0.24078997967E+04  0.31287619727E+04  0.19977912931E+04 0.  0.
        4    1    3    3  502    0  0.41910915731E+03  0.13031604247E+03 -0.26092285992E+04  0.26458855327E+04  0.12699999809E+01 0. -1.
       -4    1    3    3    0  502 -0.41910915731E+03 -0.13031604247E+03  0.20132880248E+03  0.48287643997E+03  0.12699999809E+01 0.  1.
</event>
<event>
 5   0  0.2256868E-05  0.2012765E+04  0.7818609E-02  0.8600676E-01
        1   -1    0    0  501    0  0.00000000000E+00  0.00000000000E+00  0.64502352231E+03  0.64502352233E+03  0.50400001928E-02 0. -1.
       -1   -1    0    0    0  501  0.00000000000E+00  0.00000000000E+00 -0.15701841013E+04  0.15701841013E+04  0.50400001928E-02 0.  1.
    10030    2    1    2    0    0  0.00000000000E+00  0.00000000000E+00 -0.92516057898E+03  0.22152076236E+04  0.20127649438E+04 0.  0.
        5    1    3    3  502    0 -0.12948415622E+03 -0.74826197846E+03 -0.11893973344E+04  0.14111520982E+04  0.46999998093E+01 0.  1.
       -5    1    3    3    0  502  0.12948415622E+03  0.74826197846E+03  0.26423675540E+03  0.80405552546E+03  0.46999998093E+01 0. -1.
</event>
<event>
 5   0  0.4514680E-05  0.1988899E+04  0.7818609E-02  0.8611828E-01
       -2   -1    0    0    0  501  0.00000000000E+00  0.00000000000E+00  0.68704408500E+03  0.68704408501E+03  0.25500000920E-02 0.  1.
        2   -1    0    0  501    0  0.00000000000E+00  0.00000000000E+00 -0.14393985304E+04  0.14393985304E+04  0.25500000920E-02 0. -1.
    10030    2    1    2    0    0  0.00000000000E+00  0.00000000000E+00 -0.75235444541E+03  0.21264426154E+04  0.19888994407E+04 0.  0.
        3    1    3    3  502    0 -0.37359052611E+03  0.74640505600E+03 -0.95415422441E+03  0.12677147483E+04  0.10100000352E+00 0.  1.
       -3    1    3    3    0  502  0.37359052611E+03 -0.74640505600E+03  0.20179977900E+03  0.85872786715E+03  0.10100000352E+00 0. -1.
</event>
<event>
 5   0  0.1601500E-05  0.2001055E+04  0.7818609E-02  0.8606128E-01
        3   -1    0    0  501    0  0.00000000000E+00  0.00000000000E+00  0.14537806973E+04  0.14537807008E+04  0.10100000352E+00 0. -1.
       -3   -1    0    0    0  501  0.00000000000E+00  0.00000000000E+00 -0.68858755665E+03  0.68858756406E+03  0.10100000352E+00 0.  1.
    10030    2    1    2    0    0  0.00000000000E+00  0.00000000000E+00  0.76519314062E+03  0.21423682648E+04  0.20010550317E+04 0.  0.
        3    1    3    3  502    0 -0.12971412597E+03 -0.10733329973E+03  0.14385057979E+04  0.14483249403E+04  0.10100000352E+00 0. -1.
       -3    1    3    3    0  502  0.12971412597E+03  0.10733329973E+03 -0.67331265731E+03  0.69404332458E+03  0.10100000352E+00 0.  1.
</event>
<event>
 5   0  0.4473361E-05  0.2013943E+04  0.7818609E-02  0.8600129E-01
        2   -1    0    0  501    0  0.00000000000E+00  0.00000000000E+00  0.20318197318E+04  0.20318197318E+04  0.25500000920E-02 0.  1.
       -2   -1    0    0    0  501  0.00000000000E+00  0.00000000000E+00 -0.49905592930E+03  0.49905592931E+03  0.25500000920E-02 0. -1.
    10030    2    1    2    0    0  0.00000000000E+00  0.00000000000E+00  0.15327638025E+04  0.25308756612E+04  0.20139430821E+04 0.  0.
        2    1    3    3  502    0  0.98943089199E+03  0.17935587473E+03  0.83346613959E+03  0.13060657815E+04  0.25500000920E-02 0.  1.
       -2    1    3    3    0  502 -0.98943089199E+03 -0.17935587473E+03  0.69929766295E+03  0.12248098796E+04  0.25500000920E-02 0. -1.
</event>
<event>
 5   0  0.4577279E-05  0.2052761E+04  0.7818609E-02  0.8582343E-01
        2   -1    0    0  501    0  0.00000000000E+00  0.00000000000E+00  0.11536211986E+04  0.11536211986E+04  0.25500000920E-02 0. -1.
       -2   -1    0    0    0  501  0.00000000000E+00  0.00000000000E+00 -0.91317383529E+03  0.91317383530E+03  0.25500000920E-02 0.  1.
    10030    2    1    2    0    0  0.00000000000E+00  0.00000000000E+00  0.24044736328E+03  0.20667950339E+04  0.20527607697E+04 0.  0.
        1    1    3    3  502    0  0.85765820448E+03 -0.35487005758E+03  0.56133579977E+03  0.10847157386E+04  0.50400001928E-02 0. -1.
       -1    1    3    3    0  502 -0.85765820448E+03  0.35487005758E+03 -0.32088843649E+03  0.98207929526E+03  0.50400001928E-02 0.  1.
</event>
<event>
 5   0  0.2007644E-05  0.1996354E+04  0.7818609E-02  0.8608327E-01
        1   -1    0    0  501    0  0.00000000000E+00  0.00000000000E+00  0.15534189266E+04  0.15534189266E+04  0.50400001928E-02 0. -1.
       -1   -1    0    0    0  501  0.00000000000E+00  0.00000000000E+00 -0.64139653607E+03  0.64139653609E+03  0.50400001928E-02 0.  1.
    10030    2    1    2    0    0  0.00000000000E+00  0.00000000000E+00  0.91202239054E+03  0.21948154627E+04  0.19963541957E+04 0.  0.
        1    1    3    3  502    0  0.56459207068E+03  0.73352244875E+03  0.86669432482E+03  0.12680608983E+04  0.50400001928E-02 0. -1.
       -1    1    3    3    0  502 -0.56459207068E+03 -0.73352244875E+03  0.45328065720E+02  0.92675456441E+03  0.50400001928E-02 0.  1.
</event>
<event>
 5   0  0.4412054E-05  0.1991177E+04  0.7818609E-02  0.8610757E-01
       -2   -1    0    0    0  501  0.00000000000E+00  0.00000000000E+00  0.78425937350E+03  0.78425937351E+03  0.25500000920E-02 0.  1.
        2   -1    0    0  501    0  0.00000000000E+00  0.00000000000E+00 -0.12638631826E+04  0.12638631826E+04  0.25500000920E-02 0. -1.
    10030    2    1    2    0    0  0.00000000000E+00  0.00000000000E+00 -0.47960380912E+03  0.20481225561E+04  0.19911770869E+04 0.  0.
        4    1    3    3  502    0  0.24762533105E+03 -0.16149056526E+03 -0.12176729905E+04  0.12530469392E+04  0.12699999809E+01 0. -1.
       -4    1    3    3    0  502 -0.24762533105E+03  0.16149056526E+03  0.73806918136E+03  0.79507561691E+03  0.12699999809E+01 0.  1.
</event>
<event>
 5   0  0.4412054E-05  0.1998112E+04  0.7818609E-02  0.8607504E-01
       -2   -1    0    0    0  501  0.00000000000E+00  0.00000000000E+00  0.45322828209E+03  0.45322828210E+03  0.25500000920E-02 0. -1.
        2   -1    0    0  501    0  0.00000000000E+00  0.00000000000E+00 -0.22022306615E+04  0.22022306615E+04  0.25500000920E-02 0.  1.
    10030    2    1    2    0    0  0.00000000000E+00  0.00000000000E+00 -0.17490023794E+04  0.26554589436E+04  0.19981123287E+04 0.  0.
        4    1    3    3  502    0  0.16904747511E+03 -0.69530395547E+03 -0.18010678731E+04  0.19380071558E+04  0.12699999809E+01 0.  1.
       -4    1    3    3    0  502 -0.16904747511E+03  0.69530395547E+03  0.52065493702E+02  0.71745178784E+03  0.12699999809E+01 0. -1.
</event>
<event>
 5   0  0.4447313E-05  0.2047420E+04  0.7818609E-02  0.8584766E-01
        2   -1    0    0  501    0  0.00000000000E+00  0.00000000000E+00  0.11020698383E+04  0.11020698383E+04  0.25500000920E-02 0.  1.
       -2   -1    0    0    0  501  0.00000000000E+00  0.00000000000E+00 -0.95092190150E+03  0.95092190150E+03  0.25500000920E-02 0. -1.
    10030    2    1    2    0    0  0.00000000000E+00  0.00000000000E+00  0.15114793680E+03  0.20529917398E+04  0.20474201779E+04 0.  0.
        5    1    3    3  502    0 -0.44213619249E+03 -0.91853451751E+03  0.16947807105E+03  0.10334093957E+04  0.46999998093E+01 0.  1.
       -5    1    3    3    0  502  0.44213619249E+03  0.91853451751E+03 -0.18330134254E+02  0.10195823441E+04  0.46999998093E+01 0. -1.
</event>
<event>
 5   0  0.2110896E-05  0.1999451E+04  0.7818609E-02  0.8606877E-01
       -1   -1    0    0    0  501  0.00000000000E+00  0.00000000000E+00  0.92525982157E+03  0.92525982158E+03  0.50400001928E-02 0.  1.
        1   -1    0    0  501    0  0.00000000000E+00  0.00000000000E+00 -0.10801843767E+04  0.10801843767E+04  0.50400001928E-02 0. -1.
    10030    2    1    2    0    0  0.00000000000E+00  0.00000000000E+00 -0.15492455513E+03  0.20054441983E+04  0.19994511284E+04 0.  0.
        4    1    3    3  502    0  0.95420840095E+02  0.90423587337E+03 -0.49428213056E+03  0.10349222623E+04  0.12699999809E+01 0. -1.
       -4    1    3    3    0  502 -0.95420840095E+02 -0.90423587337E+03  0.33935757543E+03  0.97052193603E+03  0.12699999809E+01 0.  1.
</event>
<event>
 5   0  0.2093980E-05  0.2004489E+04  0.7818609E-02  0.8604525E-01
        1   -1    0    0  501    0  0.00000000000E+00  0.00000000000E+00  0.18998313313E+04  0.18998313313E+04  0.50400001928E-02 0. -1.
       -1   -1    0    0    0  501  0.00000000000E+00  0.00000000000E+00 -0.52872797002E+03  0.52872797005E+03  0.50400001928E-02 0.  1.
    10030    2    1    2    0    0  0.00000000000E+00  0.00000000000E+00  0.13711033613E+04  0.24285593014E+04  0.20044889256E+04 0.  0.
        2    1    3    3  502    0 -0.83431248674E+03  0.24630706790E+03  0.82504328348E+02  0.87381431748E+03  0.25500000920E-02 0.  1.
       -2    1    3    3    0  502  0.83431248674E+03 -0.24630706790E+03  0.12885990329E+04  0.15547449839E+04  0.25500000920E-02 0. -1.
</event>
<event>
 5   0  0.4514680E-05  0.1993236E+04  0.7818609E-02  0.8609790E-01
       -2   -1    0    0    0  501  0.00000000000E+00  0.00000000000E+00  0.12239481946E+04  0.12239481946E+04  0.25500000920E-02 0. -1.
        2   -1    0    0  501    0  0.00000000000E+00  0.00000000000E+00 -0.81151062447E+03  0.81151062447E+03  0.25500000920E-02 0.  1.
    10030    2    1    2    0    0  0.00000000000E+00  0.00000000000E+00  0.41243757014E+03  0.20354588191E+04  0.19932355242E+04 0.  0.
        3    1    3    3  502    0 -0.56761095274E+03  0.51304077161E+03  0.85838158929E+03  0.11498747715E+04  0.10100000352E+00 0. -1.
       -3    1    3    3    0  502  0.56761095274E+03 -0.51304077161E+03 -0.44594401914E+03  0.88558404763E+03  0.10100000352E+00 0.  1.
</event>
<event>
 5   0  0.4412054E-05  0.2019911E+04  0.7818609E-02  0.8597368E-01
       -2   -1    0    0    0  501  0.00000000000E+00  0.00000000000E+00  0.52702451501E+03  0.52702451502E+03  0.25500000920E-02 0.  1.
        2   -1    0    0  501    0  0.00000000000E+00  0.00000000000E+00 -0.19354137410E+04  0.19354137410E+04  0.25500000920E-02 0. -1.
    10030    2    1    2    0    0  0.00000000000E+00  0.00000000000E+00 -0.14083892259E+04  0.24624382560E+04  0.20199113725E+04 0.  0.
        4    1    3    3  502    0 -0.87340562234E+02  0.35867261968E+03  0.44182995696E+03  0.57575146173E+03  0.12699999809E+01 0.  1.
       -4    1    3    3    0  502  0.87340562234E+02 -0.35867261968E+03 -0.18502191829E+04  0.18866867942E+04  0.12699999809E+01 0. -1.
</event>
<event>
 5   0  0.4412054E-05  0.1997196E+04  0.7818609E-02  0.8607933E-01
        2   -1    0    0  501    0  0.00000000000E+00  0.00000000000E+00  0.19404762249E+04  0.19404762249E+04  0.25500000920E-02 0.  1.
       -2   -1    0    0    0  501  0.00000000000E+00  0.00000000000E+00 -0.51389322563E+03  0.51389322564E+03  0.25500000920E-02 0. -1.
    10030    2    1    2    0    0  0.00000000000E+00  0.00000000000E+00  0.14265829992E+04  0.24543694505E+04  0.19971956203E+04 0.  0.
        4    1    3    3  502    0  0.29556246689E+03 -0.13406805476E+03  0.18738546705E+04  0.19017529687E+04  0.12699999809E+01 0.  1.
       -4    1    3    3    0  502 -0.29556246689E+03  0.13406805476E+03 -0.44727167123E+03  0.55261648177E+03  0.12699999809E+01 0. -1.
</event>
<event>
 5   0  0.2142551E-05  0.2004620E+04  0.7818609E-02  0.8604464E-01
        1   -1    0    0  501    0  0.00000000000E+00  0.00000000000E+00  0.10461083410E+04  0.10461083410E+04  0.50400001928E-02 0.  1.
       -1   -1    0    0    0  501  0.00000000000E+00  0.00000000000E+00 -0.96034539689E+03  0.96034539690E+03  0.50400001928E-02 0. -1.
    10030    2    1    2    0    0  0.00000000000E+00  0.00000000000E+00  0.85762944142E+02  0.20064537379E+04  0.20046199939E+04 0.  0.
        3    1    3    3  502    0 -0.17490070141E+03  0.87468773648E+03  0.50041714548E+03  0.10227835653E+04  0.10100000352E+00 0.  1.
       -3    1    3    3    0  502  0.17490070141E+03 -0.87468773648E+03 -0.41465420134E+03  0.98367017267E+03  0.10100000352E+00 0. -1.
</event>
<event>
 5   0  0.2007644E-05  0.1998051E+04  0.7818609E-02  0.8607532E-01
       -1   -1    0    0    0  501  0.00000000000E+00  0.00000000000E+00  0.59895973889E+03  0.59895973891E+03  0.50400001928E-02 0.  1.
        1   -1    0    0  501    0  0.00000000000E+00  0.00000000000E+00 -0.16663091139E+04  0.16663091139E+04  0.50400001928E-02 0. -1.
    10030    2    1    2    0    0  0.00000000000E+00  0.00000000000E+00 -0.10673493750E+04  0.22652688528E+04  0.19980511223E+04 0.  0.
        1    1    3    3  502    0 -0.86374990361E+03  0.32918073401E+03 -0.96334272370E+03  0.13350854111E+04  0.50400001928E-02 0. -1.
       -1    1    3    3    0  502  0.86374990361E+03 -0.32918073401E+03 -0.10400665128E+03  0.93018344167E+03  0.50400001928E-02 0.  1.
</event>
<event>
 5   0  0.2093980E-05  0.2018398E+04  0.7818609E-02  0.8598067E-01
        1   -1    0    0  501    0  0.00000000000E+00  0.00000000000E+00  0.25378356833E+04  0.25378356833E+04  0.50400001928E-02 0.  1.
       -1   -1    0    0    0  501  0.00000000000E+00  0.00000000000E+00 -0.40131944327E+03  0.40131944331E+03  0.50400001928E-02 0. -1.
    10030    2    1    2    0    0  0.00000000000E+00  0.00000000000E+00  0.21365162400E+04  0.29391551266E+04  0.20183981803E+04 0.  0.
        2    1    3    3  502    0 -0.70669366592E+03  0.58371469733E+03  0.16832153845E+04  0.19165992841E+04  0.25500000920E-02 0.  1.
       -2    1    3    3    0  502  0.70669366592E+03 -0.58371469733E+03  0.45330085552E+03  0.10225558425E+04  0.25500000920E-02 0. -1.
</event>
<event>
 5   0  0.4577279E-05  0.1999172E+04  0.7818609E-02  0.8607008E-01
       -2   -1    0    0    0  501  0.00000000000E+00  0.00000000000E+00  0.10624794401E+04  0.10624794401E+04  0.25500000920E-02 0. -1.
        2   -1    0    0  501    0  0.00000000000E+00  0.00000000000E+00 -0.94041566693E+03  0.94041566694E+03  0.25500000920E-02 0.  1.
    10030    2    1    2    0    0  0.00000000000E+00  0.00000000000E+00  0.12206377316E+03  0.20028951070E+04  0.19991721399E+04 0.  0.
        1    1    3    3  502    0 -0.60945220769E+03  0.32809014213E+03 -0.66148876130E+03  0.95741449549E+03  0.50400001928E-02 0.  1.
       -1    1    3    3    0  502  0.60945220769E+03 -0.32809014213E+03  0.78355253445E+03  0.10454806115E+04  0.50400001928E-02 0. -1.
</event>
<event>
 5   0  0.4412054E-05  0.2026074E+04  0.7818609E-02  0.8594526E-01
       -2   -1    0    0    0  501  0.00000000000E+00  0.00000000000E+00  0.71143277553E+03  0.71143277553E+03  0.25500000920E-02 0. -1.
        2   -1    0    0  501    0  0.00000000000E+00  0.00000000000E+00 -0.14425029466E+04  0.14425029466E+04  0.25500000920E-02 0.  1.
    10030    2    1    2    0    0  0.00000000000E+00  0.00000000000E+00 -0.73107017106E+03  0.21539357221E+04  0.20260739128E+04 0.  0.
        4    1    3    3  502    0 -0.24620330825E+03 -0.66766710688E+03 -0.11320403697E+04  0.13371284329E+04  0.12699999809E+01 0.  1.
       -4    1    3    3    0  502  0.24620330825E+03  0.66766710688E+03  0.40097019863E+03  0.81680728920E+03  0.12699999809E+01 0. -1.
</event>
<event>
 5   0  0.2256868E-05  0.2007201E+04  0.7818609E-02  0.8603261E-01
        1   -1    0    0  501    0  0.00000000000E+00  0.00000000000E+00  0.23582059473E+04  0.23582059473E+04  0.50400001928E-02 0.  1.
       -1   -1    0    0    0  501  0.00000000000E+00  0.00000000000E+00 -0.42711019632E+03  0.42711019635E+03  0.50400001928E-02 0. -1.
    10030    2    1    2    0    0  0.00000000000E+00  0.00000000000E+00  0.19310957510E+04  0.27853161437E+04  0.20072008421E+04 0.  0.
        5    1    3    3  502    0 -0.37391924875E+03  0.93008424754E+03  0.10323779244E+04  0.14389922102E+04  0.46999998093E+01 0.  1.
       -5    1    3    3    0  502  0.37391924875E+03 -0.93008424754E+03  0.89871782657E+03  0.13463239335E+04  0.46999998093E+01 0. -1.
</event>
<event>
 5   0  0.4577279E-05  0.2000955E+04  0.7818609E-02  0.8606175E-01
       -2   -1    0    0    0  501  0.00000000000E+00  0.00000000000E+00  0.53965165630E+03  0.53965165630E+03  0.25500000920E-02 0. -1.
        2   -1    0    0  501    0  0.00000000000E+00  0.00000000000E+00 -0.18548164726E+04  0.18548164726E+04  0.25500000920E-02 0.  1.
    10030    2    1    2    0    0  0.00000000000E+00  0.00000000000E+00 -0.13151648163E+04  0.23944681289E+04  0.20009545538E+04 0.  0.
        1    1    3    3  502    0 -0.90687952942E+03 -0.21815008045E+03 -0.10905939294E+04  0.14350662205E+04  0.50400001928E-02 0. -1.
       -1    1    3    3    0  502  0.90687952942E+03  0.21815008045E+03 -0.22457088691E+03  0.95940190836E+03  0.50400001928E-02 0.  1.
</event>
<event>
 5   0  0.2142551E-05  0.1983164E+04  0.7818609E-02  0.8614533E-01
       -1   -1    0    0    0  501  0.00000000000E+00  0.00000000000E+00  0.53357731237E+03  0.53357731240E+03  0.50400001928E-02 0.  1.
        1   -1    0    0  501    0  0.00000000000E+00  0.00000000000E+00 -0.18427221101E+04  0.18427221101E+04  0.50400001928E-02 0. -1.
    10030    2    1    2    0    0  0.00000000000E+00  0.00000000000E+00 -0.13091447978E+04  0.23762994225E+04  0.19831638470E+04 0.  0.
        3    1    3    3  502    0  0.16440625433E+03 -0.76593002969E+03 -0.13829942633E+04  0.15894500211E+04  0.10100000352E+00 0. -1.
       -3    1    3    3    0  502 -0.16440625433E+03  0.76593002969E+03  0.73849465562E+02  0.78684940148E+03  0.10100000352E+00 0.  1.
</event>
<event>
 5   0  0.2256868E-05  0.2031111E+04  0.7818609E-02  0.8592212E-01
       -1   -1    0    0    0  501  0.00000000000E+00  0.00000000000E+00  0.55065732826E+03  0.55065732829E+03  0.50400001928E-02 0. -1.
        1   -1    0    0  501    0  0.00000000000E+00  0.00000000000E+00 -0.18729479668E+04  0.18729479668E+04  0.50400001928E-02 0.  1.
    10030    2    1    2    0    0  0.00000000000E+00  0.00000000000E+00 -0.13222906385E+04  0.24236052951E+04  0.20311105567E+04 0.  0.
        5    1    3    3  502    0 -0.99997723350E+03 -0.71524270653E+02 -0.85451025037E+03  0.13173002873E+04  0.46999998093E+01 0.  1.
       -5    1    3    3    0  502  0.99997723350E+03  0.71524270653E+02 -0.46778038817E+03  0.11063050078E+04  0.46999998093E+01 0. -1.
</event>
<event>
 5   0  0.2256868E-05  0.1998516E+04  0.7818609E-02  0.8607315E-01
        1   -1    0    0  501    0  0.00000000000E+00  0.00000000000E+00  0.80885171083E+03  0.80885171085E+03  0.50400001928E-02 0. -1.
       -1   -1    0    0    0  501  0.00000000000E+00  0.00000000000E+00 -0.12344861719E+04  0.12344861719E+04  0.50400001928E-02 0.  1.
    10030    2    1    2    0    0  0.00000000000E+00  0.00000000000E+00 -0.42563446109E+03  0.20433378828E+04  0.19985157014E+04 0.  0.
        5    1    3    3  502    0  0.78952136798E+03 -0.56781690067E+03 -0.44760666618E+03  0.10705764059E+04  0.46999998093E+01 0.  1.
       -5    1    3    3    0  502 -0.78952136798E+03  0.56781690067E+03  0.21972205085E+02  0.97276147692E+03  0.46999998093E+01 0. -1.
</event>
<event>
 5   0  0.4447313E-05  0.2001136E+04  0.7818609E-02  0.8606090E-01
        2   -1    0    0  501    0  0.00000000000E+00  0.00000000000E+00  0.70264018416E+03  0.70264018416E+03  0.25500000920E-02 0.  1.
       -2   -1    0    0    0  501  0.00000000000E+00  0.00000000000E+00 -0.14248211409E+04  0.14248211409E+04  0.25500000920E-02 0. -1.
    10030    2    1    2    0    0  0.00000000000E+00  0.00000000000E+00 -0.72218095674E+03  0.21274613251E+04  0.20011362661E+04 0.  0.
        5    1    3    3  502    0 -0.13164407949E+02  0.79976376373E+02 -0.14213134877E+04  0.14236304446E+04  0.46999998093E+01 0. -1.
       -5    1    3    3    0  502  0.13164407949E+02 -0.79976376373E+02  0.69913253098E+03  0.70383088046E+03  0.46999998093E+01 0.  1.
</event>
<event>
 5   0  0.4447313E-05  0.2014343E+04  0.7818609E-02  0.8599944E-01
        2   -1    0    0  501    0  0.00000000000E+00  0.00000000000E+00  0.17630333424E+04  0.17630333424E+04  0.25500000920E-02 0. -1.
       -2   -1    0    0    0  501  0.00000000000E+00  0.00000000000E+00 -0.57536887378E+03  0.57536887378E+03  0.25500000920E-02 0.  1.
    10030    2    1    2    0    0  0.00000000000E+00  0.00000000000E+00  0.11876644687E+04  0.23384022162E+04  0.20143430777E+04 0.  0.
        5    1    3    3  502    0  0.66830741649E+03 -0.29084194155E+03 -0.21307967922E+03  0.75937400377E+03  0.46999998093E+01 0.  1.
       -5    1    3    3    0  502 -0.66830741649E+03  0.29084194155E+03  0.14007441479E+04  0.15790282125E+04  0.46999998093E+01 0. -1.
</event>
<event>
 5   0  0.4412054E-05  0.2003536E+04  0.7818609E-02  0.8604969E-01
        2   -1    0    0  501    0  0.00000000000E+00  0.00000000000E+00  0.11600345361E+04  0.11600345361E+04  0.25500000920E-02 0. -1.
       -2   -1    0    0    0  501  0.00000000000E+00  0.00000000000E+00 -0.86509457805E+03  0.86509457805E+03  0.25500000920E-02 0.  1.
    10030    2    1    2    0    0  0.00000000000E+00  0.00000000000E+00  0.29493995810E+03  0.20251291142E+04  0.20035364609E+04 0.  0.
        4    1    3    3  502    0 -0.48883776891E+03 -0.49005799907E+03 -0.58450220905E+03  0.90596007200E+03  0.12699999809E+01 0.  1.
       -4    1    3    3    0  502  0.48883776891E+03  0.49005799907E+03  0.87944216715E+03  0.11191690422E+04  0.12699999809E+01 0. -1.
</event>
<event>
 5   0  0.2007644E-05  0.1993915E+04  0.7818609E-02  0.8609471E-01
       -1   -1    0    0    0  501  0.00000000000E+00  0.00000000000E+00  0.12311342391E+04  0.12311342391E+04  0.50400001928E-02 0.  1.
        1   -1    0    0  501    0  0.00000000000E+00  0.00000000000E+00 -0.80732425629E+03  0.80732425630E+03  0.50400001928E-02 0. -1.
    10030    2    1    2    0    0  0.00000000000E+00  0.00000000000E+00  0.42380998278E+03  0.20384584954E+04  0.19939152780E+04 0.  0.
        1    1    3    3  502    0 -0.23148671338E+02 -0.70698987174E+03 -0.50632329910E+03  0.86990449072E+03  0.50400001928E-02 0. -1.
       -1    1    3    3    0  502  0.23148671338E+02  0.70698987174E+03  0.93013328188E+03  0.11685540047E+04  0.50400001928E-02 0.  1.
</event>
<event>
 5   0  0.4447313E-05  0.2001660E+04  0.7818609E-02  0.8605845E-01
       -2   -1    0    0    0  501  0.00000000000E+00  0.00000000000E+00  0.65992284116E+03  0.65992284116E+03  0.25500000920E-02 0.  1.
        2   -1    0    0  501    0  0.00000000000E+00  0.00000000000E+00 -0.15178445227E+04  0.15178445227E+04  0.25500000920E-02 0. -1.
    10030    2    1    2    0    0  0.00000000000E+00  0.00000000000E+00 -0.85792168154E+03  0.21777673639E+04  0.20016595813E+04 0.  0.
        5    1    3    3  502    0 -0.86482710364E+03  0.24105292877E+03 -0.91014582878E+03  0.12784443489E+04  0.46999998093E+01 0. -1.
       -5    1    3    3    0  502  0.86482710364E+03 -0.24105292877E+03  0.52224147237E+02  0.89932301494E+03  0.46999998093E+01 0.  1.
</event>
<event>
 5   0  0.2256868E-05  0.1996711E+04  0.7818609E-02  0.8608160E-01
        1   -1    0    0  501    0  0.00000000000E+00  0.00000000000E+00  0.17829012717E+04  0.17829012717E+04  0.50400001928E-02 0. -1.
       -1   -1    0    0    0  501  0.00000000000E+00  0.00000000000E+00 -0.55904037530E+03  0.55904037532E+03  0.50400001928E-02 0.  1.
    10030    2    1    2    0    0  0.00000000000E+00  0.00000000000E+00  0.12238608964E+04  0.23419416471E+04  0.19967110919E+04 0.  0.
        5    1    3    3  502    0 -0.84106433640E+03  0.50869466836E+03  0.40698416396E+03  0.10638692040E+04  0.46999998093E+01 0.  1.
       -5    1    3    3    0  502  0.84106433640E+03 -0.50869466836E+03  0.81687673249E+03  0.12780724430E+04  0.46999998093E+01 0. -1.
</event>
<event>
 5   0  0.4514680E-05  0.1996449E+04  0.7818609E-02  0.8608283E-01
        2   -1    0    0  501    0  0.00000000000E+00  0.00000000000E+00  0.11139697811E+04  0.11139697811E+04  0.25500000920E-02 0. -1.
       -2   -1    0    0    0  501  0.00000000000E+00  0.00000000000E+00 -0.89450566107E+03  0.89450566107E+03  0.25500000920E-02 0.  1.
    10030    2    1    2    0    0  0.00000000000E+00  0.00000000000E+00  0.21946412006E+03  0.20084754422E+04  0.19964491233E+04 0.  0.
        3    1    3    3  502    0 -0.36145253432E+03  0.81123628182E+03  0.56821856147E+03  0.10543360865E+04  0.10100000352E+00 0. -1.
       -3    1    3    3    0  502  0.36145253432E+03 -0.81123628182E+03 -0.34875444141E+03  0.95413935570E+03  0.10100000352E+00 0.  1.
</event>
<event>
 5   0  0.4447313E-05  0.2017983E+04  0.7818609E-02  0.8598259E-01
       -2   -1    0    0    0  501  0.00000000000E+00  0.00000000000E+00  0.85799808138E+03  0.85799808138E+03  0.25500000920E-02 0.  1.
        2   -1    0    0  501    0  0.00000000000E+00  0.00000000000E+00 -0.11865577996E+04  0.11865577996E+04  0.25500000920E-02 0. -1.
    10030    2    1    2    0    0  0.00000000000E+00  0.00000000000E+00 -0.32855971818E+03  0.20445558809E+04  0.20179834642E+04 0.  0.
        5    1    3    3  502    0 -0.33686503145E+03  0.37466281114E+03 -0.10499716353E+04  0.11646084305E+04  0.46999998093E+01 0. -1.
       -5    1    3    3    0  502  0.33686503145E+03 -0.37466281114E+03  0.72141191709E+03  0.87994745047E+03  0.46999998093E+01 0.  1.
</event>
<event>
 5   0  0.2110896E-05  0.1952792E+04  0.7818609E-02  0.8629016E-01
       -1   -1    0    0    0  501  0.00000000000E+00  0.00000000000E+00  0.70612093665E+03  0.70612093667E+03  0.50400001928E-02 0.  1.
        1   -1    0    0  501    0  0.00000000000E+00  0.00000000000E+00 -0.13501216807E+04  0.13501216807E+04  0.50400001928E-02 0. -1.
    10030    2    1    2    0    0  0.00000000000E+00  0.00000000000E+00 -0.64400074401E+03  0.20562426173E+04  0.19527920378E+04 0.  0.
        4    1    3    3  502    0 -0.39706601131E+02 -0.39843619774E+03  0.61569183940E+03  0.73444269473E+03  0.12699999809E+01 0.  1.
       -4    1    3    3    0  502  0.39706601131E+02  0.39843619774E+03 -0.12596925834E+04  0.13217999226E+04  0.12699999809E+01 0. -1.
</event>
<event>
 5   0  0.4514680E-05  0.2031745E+04  0.7818609E-02  0.8591921E-01
       -2   -1    0    0    0  501  0.00000000000E+00  0.00000000000E+00  0.65914223896E+03  0.65914223897E+03  0.25500000920E-02 0. -1.
        2   -1    0    0  501    0  0.00000000000E+00  0.00000000000E+00 -0.15656662871E+04  0.15656662871E+04  0.25500000920E-02 0.  1.
    10030    2    1    2    0    0  0.00000000000E+00  0.00000000000E+00 -0.90652404809E+03  0.22248085260E+04  0.20317448481E+04 0.  0.
        3    1    3    3  502    0  0.26509409553E+03 -0.69499744676E+03  0.30436487726E+03  0.80370039143E+03  0.10100000352E+00 0. -1.
       -3    1    3    3    0  502 -0.26509409553E+03  0.69499744676E+03 -0.12108889253E+04  0.14211081346E+04  0.10100000352E+00 0.  1.
</event>
<event>
 5   0  0.4473361E-05  0.1997815E+04  0.7818609E-02  0.8607643E-01
       -2   -1    0    0    0  501  0.00000000000E+00  0.00000000000E+00  0.66196797830E+03  0.66196797831E+03  0.25500000920E-02 0. -1.
        2   -1    0    0  501    0  0.00000000000E+00  0.00000000000E+00 -0.15073483624E+04  0.15073483624E+04  0.25500000920E-02 0.  1.
    10030    2    1    2    0    0  0.00000000000E+00  0.00000000000E+00 -0.84538038408E+03  0.21693163407E+04  0.19978151547E+04 0.  0.
        2    1    3    3  502    0  0.43341447229E+03 -0.87508886401E+03 -0.19443619174E+03  0.99570781727E+03  0.25500000920E-02 0.  1.
       -2    1    3    3    0  502 -0.43341447229E+03  0.87508886401E+03 -0.65094419234E+03  0.11736085234E+04  0.25500000920E-02 0. -1.
</event>
<event>
 5   0  0.4412054E-05  0.1997762E+04  0.7818609E-02  0.8607668E-01
        2   -1    0    0  501    0  0.00000000000E+00  0.00000000000E+00  0.18351610443E+04  0.18351610443E+04  0.25500000920E-02 0.  1.
       -2   -1    0    0    0  501  0.00000000000E+00  0.00000000000E+00 -0.54369234838E+03  0.54369234838E+03  0.25500000920E-02 0. -1.
    10030    2    1    2    0    0  0.00000000000E+00  0.00000000000E+00  0.12914686959E+04  0.23788533927E+04  0.19977617654E+04 0.  0.
        4    1    3    3  502    0  0.80352577958E+03  0.52467799128E+03  0.97577178119E+03  0.13686025189E+04  0.12699999809E+01 0.  1.
       -4    1    3    3    0  502 -0.80352577958E+03 -0.52467799128E+03  0.31569691470E+03  0.10102508737E+04  0.12699999809E+01 0. -1.
</event>
<event>
 5   0  0.4447313E-05  0.2004954E+04  0.7818609E-02  0.8604308E-01
       -2   -1    0    0    0  501  0.00000000000E+00  0.00000000000E+00  0.70896464716E+03  0.70896464716E+03  0.25500000920E-02 0.  1.
        2   -1    0    0  501    0  0.00000000000E+00  0.00000000000E+00 -0.14175038567E+04  0.14175038567E+04  0.25500000920E-02 0. -1.
    10030    2    1    2    0    0  0.00000000000E+00  0.00000000000E+00 -0.70853920950E+03  0.21264685038E+04  0.20049539861E+04 0.  0.
        5    1    3    3  502    0 -0.93319972539E+03 -0.24545300909E+03 -0.64245263500E+03  0.11592568246E+04  0.46999998093E+01 0. -1.
       -5    1    3    3    0  502  0.93319972539E+03  0.24545300909E+03 -0.66086574505E+02  0.96721167924E+03  0.46999998093E+01 0.  1.
</event>
<event>
 5   0  0.4577279E-05  0.2004741E+04  0.7818609E-02  0.8604407E-01
       -2   -1    0    0    0  501  0.00000000000E+00  0.00000000000E+00  0.50926701627E+03  0.50926701627E+03  0.25500000920E-02 0. -1.
        2   -1    0    0  501    0  0.00000000000E+00  0.00000000000E+00 -0.19729263506E+04  0.19729263506E+04  0.25500000920E-02 0.  1.
    10030    2    1    2    0    0  0.00000000000E+00  0.00000000000E+00 -0.14636593343E+04  0.24821933668E+04  0.20047406973E+04 0.  0.
        1    1    3    3  502    0 -0.22184701377E+02  0.73879193552E+03  0.10650795139E+03  0.74675941822E+03  0.50400001928E-02 0. -1.
       -1    1    3    3    0  502  0.22184701377E+02 -0.73879193552E+03 -0.15701672857E+04  0.17354339486E+04  0.50400001928E-02 0.  1.
</event>
<event>
 5   0  0.4577279E-05  0.2002942E+04  0.7818609E-02  0.8605246E-01
        2   -1    0    0  501    0  0.00000000000E+00  0.00000000000E+00  0.82732882696E+03  0.82732882697E+03  0.25500000920E-02 0. -1.
       -2   -1    0    0    0  501  0.00000000000E+00  0.00000000000E+00 -0.12122682787E+04  0.12122682787E+04  0.25500000920E-02 0.  1.
    10030    2    1    2    0    0  0.00000000000E+00  0.00000000000E+00 -0.38493945173E+03  0.20395971057E+04  0.20029423287E+04 0.  0.
        1    1    3    3  502    0 -0.29564450298E+03 -0.20144860221E+03  0.76003988665E+03  0.84002847619E+03  0.50400001928E-02 0. -1.
       -1    1    3    3    0  502  0.29564450298E+03  0.20144860221E+03 -0.11449793384E+04  0.11995686295E+04  0.50400001928E-02 0.  1.
</event>
<event>
 5   0  0.2007644E-05  0.1995140E+04  0.7818609E-02  0.8608896E-01
        1   -1    0    0  501    0  0.00000000000E+00  0.00000000000E+00  0.84771441104E+03  0.84771441105E+03  0.50400001928E-02 0.  1.
       -1   -1    0    0    0  501  0.00000000000E+00  0.00000000000E+00 -0.11739164907E+04  0.11739164907E+04  0.50400001928E-02 0. -1.
    10030    2    1    2    0    0  0.00000000000E+00  0.00000000000E+00 -0.32620207967E+03  0.20216309018E+04  0.19951400217E+04 0.  0.
        1    1    3    3  502    0 -0.44369725376E+03 -0.74667298144E+03  0.33408505021E+03  0.93059154037E+03  0.50400001928E-02 0.  1.
       -1    1    3    3    0  502  0.44369725376E+03  0.74667298144E+03 -0.66028712988E+03  0.10910393614E+04  0.50400001928E-02 0. -1.
</event>
<event>
 5   0  0.2093980E-05  0.1951671E+04  0.7818609E-02  0.8629556E-01
        1   -1    0    0  501    0  0.00000000000E+00  0.00000000000E+00  0.67298740329E+03  0.67298740331E+03  0.50400001928E-02 0.  1.
       -1   -1    0    0    0  501  0.00000000000E+00  0.00000000000E+00 -0.14149665030E+04  0.14149665030E+04  0.50400001928E-02 0. -1.
    10030    2    1    2    0    0  0.00000000000E+00  0.00000000000E+00 -0.74197909972E+03  0.20879539063E+04  0.19516707024E+04 0.  0.
        2    1    3    3  502    0  0.45660893421E+03  0.84097121439E+03 -0.57546499594E+03  0.11166397198E+04  0.25500000920E-02 0. -1.
       -2    1    3    3    0  502 -0.45660893421E+03 -0.84097121439E+03 -0.16651410378E+03  0.97131418655E+03  0.25500000920E-02 0.  1.
</event>
<event>
 5   0  0.4577279E-05  0.2001916E+04  0.7818609E-02  0.8605726E-01
        2   -1    0    0  501    0  0.00000000000E+00  0.00000000000E+00  0.10984201515E+04  0.10984201516E+04  0.25500000920E-02 0.  1.
       -2   -1    0    0    0  501  0.00000000000E+00  0.00000000000E+00 -0.91214323943E+03  0.91214323944E+03  0.25500000920E-02 0. -1.
    10030    2    1    2    0    0  0.00000000000E+00  0.00000000000E+00  0.18627691212E+03  0.20105633910E+04  0.20019155979E+04 0.  0.
        1    1    3    3  502    0 -0.45671980747E+03 -0.48119263828E+03  0.84589415657E+03  0.10750238424E+04  0.50400001928E-02 0.  1.
       -1    1    3    3    0  502  0.45671980747E+03  0.48119263828E+03 -0.65961724446E+03  0.93553954854E+03  0.50400001928E-02 0. -1.
</event>
<event>
 5   0  0.2142551E-05  0.2003265E+04  0.7818609E-02  0.8605096E-01
        1   -1    0    0  501    0  0.00000000000E+00  0.00000000000E+00  0.90204816768E+03  0.90204816769E+03  0.50400001928E-02 0. -1.
       -1   -1    0    0    0  501  0.00000000000E+00  0.00000000000E+00 -0.11122102265E+04  0.11122102265E+04  0.50400001928E-02 0.  1.
    10030    2    1    2    0    0  0.00000000000E+00  0.00000000000E+00 -0.21016205879E+03  0.20142583942E+04  0.20032645326E+04 0.  0.
        3    1    3    3  502    0 -0.83085288741E+03  0.93107987424E+02 -0.65972552021E+03  0.10649992442E+04  0.10100000352E+00 0.  1.
       -3    1    3    3    0  502  0.83085288741E+03 -0.93107987424E+02  0.44956346142E+03  0.94925915001E+03  0.10100000352E+00 0. -1.
</event>
<event>
 5   0  0.4447313E-05  0.2000228E+04  0.7818609E-02  0.8606514E-01
       -2   -1    0    0    0  501  0.00000000000E+00  0.00000000000E+00  0.78990865467E+03  0.78990865468E+03  0.25500000920E-02 0. -1.
        2   -1    0    0  501    0  0.00000000000E+00  0.00000000000E+00 -0.12662578496E+04  0.12662578496E+04  0.25500000920E-02 0.  1.
    10030    2    1    2    0    0  0.00000000000E+00  0.00000000000E+00 -0.47634919495E+03  0.20561665043E+04  0.20002280215E+04 0.  0.
        5    1    3    3  502    0  0.18320628833E+03 -0.11803617205E+02  0.77242743739E+03  0.79395850364E+03  0.46999998093E+01 0. -1.
       -5    1    3    3    0  502 -0.18320628833E+03  0.11803617205E+02 -0.12487766323E+04  0.12622080007E+04  0.46999998093E+01 0.  1.
</event>
<event>
 5   0  0.2142551E-05  0.2006737E+04  0.7818609E-02  0.8603478E-01
       -1   -1    0    0    0  501  0.00000000000E+00  0.00000000000E+00  0.10102693762E+04  0.10102693762E+04  0.50400001928E-02 0.  1.
        1   -1    0    0  501    0  0.00000000000E+00  0.00000000000E+00 -0.99651436082E+03  0.99651436084E+03  0.50400001928E-02 0. -1.
    10030    2    1    2    0    0  0.00000000000E+00  0.00000000000E+00  0.13755015377E+02  0.20067837371E+04  0.20067365963E+04 0.  0.
        3    1    3    3  502    0 -0.71605603557E+03 -0.21345650156E+03  0.67655584603E+03  0.10079820173E+04  0.10100000352E+00 0.  1.
       -3    1    3    3    0  502  0.71605603557E+03  0.21345650156E+03 -0.66280083065E+03  0.99880171979E+03  0.10100000352E+00 0. -1.
</event>
<event>
 5   0  0.4473361E-05  0.2002314E+04  0.7818609E-02  0.8605540E-01
       -2   -1    0    0    0  501  0.00000000000E+00  0.00000000000E+00  0.37749350862E+03  0.37749350863E+03  0.25500000920E-02 0.  1.
        2   -1    0    0  501    0  0.00000000000E+00  0.00000000000E+00 -0.26551853017E+04  0.26551853017E+04  0.25500000920E-02 0. -1.
    10030    2    1    2    0    0  0.00000000000E+00  0.00000000000E+00 -0.22776917931E+04  0.30326788104E+04  0.20023138771E+04 0.  0.
        2    1    3    3  502    0  0.61029528580E+03  0.79343463350E+03 -0.11119065859E+04  0.14961066504E+04  0.25500000920E-02 0. -1.
       -2    1    3    3    0  502 -0.61029528580E+03 -0.79343463350E+03 -0.11657852072E+04  0.15365721600E+04  0.25500000920E-02 0.  1.
</event>
<event>
 5   0  0.2110896E-05  0.1993534E+04  0.7818609E-02  0.8609650E-01
        1   -1    0    0  501    0  0.00000000000E+00  0.00000000000E+00  0.23851251584E+04  0.23851251584E+04  0.50400001928E-02 0. -1.
       -1   -1    0    0    0  501  0.00000000000E+00  0.00000000000E+00 -0.41655876524E+03  0.41655876527E+03  0.50400001928E-02 0.  1.
    10030    2    1    2    0    0  0.00000000000E+00  0.00000000000E+00  0.19685663931E+04  0.28016839236E+04  0.19935343398E+04 0.  0.
        4    1    3    3  502    0 -0.15856302558E+03 -0.89057623140E+03  0.15726596812E+04  0.18142569671E+04  0.12699999809E+01 0. -1.
       -4    1    3    3    0  502  0.15856302558E+03  0.89057623140E+03  0.39590671195E+03  0.98742695654E+03  0.12699999809E+01 0.  1.
</event>
<event>
 5   0  0.2256868E-05  0.2004248E+04  0.7818609E-02  0.8604637E-01
       -1   -1    0    0    0  501  0.00000000000E+00  0.00000000000E+00  0.76899726653E+03  0.76899726655E+03  0.50400001928E-02 0.  1.
        1   -1    0    0  501    0  0.00000000000E+00  0.00000000000E+00 -0.13059249658E+04  0.13059249658E+04  0.50400001928E-02 0. -1.
    10030    2    1    2    0    0  0.00000000000E+00  0.00000000000E+00 -0.53692769924E+03  0.20749222323E+04  0.20042482172E+04 0.  0.
        5    1    3    3  502    0  0.29064451567E+01 -0.83955253276E+03  0.29798039294E+03  0.89088231954E+03  0.46999998093E+01 0.  1.
       -5    1    3    3    0  502 -0.29064451567E+01  0.83955253276E+03 -0.83490809218E+03  0.11840399128E+04  0.46999998093E+01 0. -1.
</event>
<event>
 5   0  0.2007644E-05  0.2004654E+04  0.7818609E-02  0.8604448E-01
       -1   -1    0    0    0  501  0.00000000000E+00  0.00000000000E+00  0.74615271643E+03  0.74615271644E+03  0.50400001928E-02 0. -1.
        1   -1    0    0  501    0  0.00000000000E+00  0.00000000000E+00 -0.13464530705E+04  0.13464530705E+04  0.50400001928E-02 0.  1.
    10030    2    1    2    0    0  0.00000000000E+00  0.00000000000E+00 -0.60030035404E+03  0.20926057869E+04  0.20046542007E+04 0.  0.
        1    1    3    3  502    0 -0.41415107247E+03 -0.64468684138E+03  0.37435491686E+03  0.85280937968E+03  0.50400001928E-02 0. -1.
       -1    1    3    3    0  502  0.41415107247E+03  0.64468684138E+03 -0.97465527090E+03  0.12397964072E+04  0.50400001928E-02 0.  1.
</event>
<event>
 5   0  0.2093980E-05  0.1998788E+04  0.7818609E-02  0.8607188E-01
        1   -1    0    0  501    0  0.00000000000E+00  0.00000000000E+00  0.21448877892E+04  0.21448877892E+04  0.50400001928E-02 0. -1.
       -1   -1    0    0    0  501  0.00000000000E+00  0.00000000000E+00 -0.46565987195E+03  0.46565987198E+03  0.50400001928E-02 0.  1.
    10030    2    1    2    0    0  0.00000000000E+00  0.00000000000E+00  0.16792279173E+04  0.26105476612E+04  0.19987878060E+04 0.  0.
        2    1    3    3  502    0 -0.59940088985E+03 -0.51541754254E+03  0.41041181895E+02  0.79159399223E+03  0.25500000920E-02 0.  1.
       -2    1    3    3    0  502  0.59940088985E+03  0.51541754254E+03  0.16381867354E+04  0.18189536690E+04  0.25500000920E-02 0. -1.
</event>
<event>
 5   0  0.4514680E-05  0.2000698E+04  0.7818609E-02  0.8606295E-01
        2   -1    0    0  501    0  0.00000000000E+00  0.00000000000E+00  0.20087847664E+04  0.20087847664E+04  0.25500000920E-02 0.  1.
       -2   -1    0    0    0  501  0.00000000000E+00  0.00000000000E+00 -0.49816083289E+03  0.49816083290E+03  0.25500000920E-02 0. -1.
    10030    2    1    2    0    0  0.00000000000E+00  0.00000000000E+00  0.15106239335E+04  0.25069455993E+04  0.20006977706E+04 0.  0.
        3    1    3    3  502    0  0.50815301651E+03 -0.22924913521E+03 -0.28547969696E+03  0.62631726925E+03  0.10100000352E+00 0. -1.
       -3    1    3    3    0  502 -0.50815301651E+03  0.22924913521E+03  0.17961036305E+04  0.18806283300E+04  0.10100000352E+00 0.  1.
</event>
<event>
 5   0  0.4577279E-05  0.1993184E+04  0.7818609E-02  0.8609814E-01
        2   -1    0    0  501    0  0.00000000000E+00  0.00000000000E+00  0.61564040664E+03  0.61564040665E+03  0.25500000920E-02 0. -1.
       -2   -1    0    0    0  501  0.00000000000E+00  0.00000000000E+00 -0.16132715645E+04  0.16132715645E+04  0.25500000920E-02 0.  1.
    10030    2    1    2    0    0  0.00000000000E+00  0.00000000000E+00 -0.99763115785E+03  0.22289119711E+04  0.19931835460E+04 0.  0.
        1    1    3    3  502    0  0.51865265887E+03 -0.75521637521E+02  0.44907085748E+03  0.69019470684E+03  0.50400001928E-02 0. -1.
       -1    1    3    3    0  502 -0.51865265887E+03  0.75521637521E+02 -0.14467020153E+04  0.15387172643E+04  0.50400001928E-02 0.  1.
</event>
<event>
 5   0  0.2093980E-05  0.2001886E+04  0.7818609E-02  0.8605739E-01
       -1   -1    0    0    0  501  0.00000000000E+00  0.00000000000E+00  0.59635522571E+03  0.59635522573E+03  0.50400001928E-02 0.  1.
        1   -1    0    0  501    0  0.00000000000E+00  0.00000000000E+00 -0.16800172787E+04  0.16800172788E+04  0.50400001928E-02 0. -1.
    10030    2    1    2    0    0  0.00000000000E+00  0.00000000000E+00 -0.10836620530E+04  0.22763725045E+04  0.20018861941E+04 0.  0.
        2    1    3    3  502    0 -0.23583463334E+03 -0.47944734886E+03  0.42062642229E+03  0.68001053062E+03  0.25500000920E-02 0.  1.
       -2    1    3    3    0  502  0.23583463334E+03  0.47944734886E+03 -0.15042884753E+04  0.15963619739E+04  0.25500000920E-02 0. -1.
</event>
<event>
 5   0  0.2110896E-05  0.2001440E+04  0.7818609E-02  0.8605948E-01
       -1   -1    0    0    0  501  0.00000000000E+00  0.00000000000E+00  0.81005417537E+03  0.81005417538E+03  0.50400001928E-02 0.  1.
        1   -1    0    0  501    0  0.00000000000E+00  0.00000000000E+00 -0.12362637421E+04  0.12362637421E+04  0.50400001928E-02 0. -1.
    10030    2    1    2    0    0  0.00000000000E+00  0.00000000000E+00 -0.42620956670E+03  0.20463179175E+04  0.20014400877E+04 0.  0.
        4    1    3    3  502    0  0.39149468421E+03 -0.76655152142E+03 -0.73501096954E+03  0.11318622094E+04  0.12699999809E+01 0. -1.
       -4    1    3    3    0  502 -0.39149468421E+03  0.76655152142E+03  0.30880140284E+03  0.91445570809E+03  0.12699999809E+01 0.  1.
</event>
<event>
 5   0  0.2142551E-05  0.1994289E+04  0.7818609E-02  0.8609295E-01
       -1   -1    0    0    0  501  0.00000000000E+00  0.00000000000E+00  0.54027938929E+03  0.54027938931E+03  0.50400001928E-02 0.  1.
        1   -1    0    0  501    0  0.00000000000E+00  0.00000000000E+00 -0.18403394112E+04  0.18403394112E+04  0.50400001928E-02 0. -1.
    10030    2    1    2    0    0  0.00000000000E+00  0.00000000000E+00 -0.13000600219E+04  0.23806188005E+04  0.19942893002E+04 0.  0.
        3    1    3    3  502    0 -0.19991265754E+03 -0.67314231451E+03 -0.14951382622E+04  0.16518244700E+04  0.10100000352E+00 0. -1.
       -3    1    3    3    0  502  0.19991265754E+03  0.67314231451E+03  0.19507824030E+03  0.72879433056E+03  0.10100000352E+00 0.  1.
</event>
<event>
 5   0  0.2110896E-05  0.1998956E+04  0.7818609E-02  0.8607109E-01
        1   -1    0    0  501    0  0.00000000000E+00  0.00000000000E+00  0.10516225585E+04  0.10516225585E+04  0.50400001928E-02 0.  1.
       -1   -1    0    0    0  501  0.00000000000E+00  0.00000000000E+00 -0.94991904119E+03  0.94991904121E+03  0.50400001928E-02 0. -1.
    10030    2    1    2    0    0  0.00000000000E+00  0.00000000000E+00  0.10170351730E+03  0.20015415997E+04  0.19989560200E+04 0.  0.
        4    1    3    3  502    0 -0.91388379242E+03 -0.94517028125E+02  0.44485485265E+03  0.10207911184E+04  0.12699999809E+01 0.  1.
       -4    1    3    3    0  502  0.91388379242E+03  0.94517028125E+02 -0.34315133535E+03  0.98075048127E+03  0.12699999809E+01 0. -1.
</event>
<event>
 5   0  0.4473361E-05  0.1997714E+04  0.7818609E-02  0.8607690E-01
        2   -1    0    0  501    0  0.00000000000E+00  0.00000000000E+00  0.57005944185E+03  0.57005944186E+03  0.25500000920E-02 0. -1.
       -2   -1    0    0    0  501  0.00000000000E+00  0.00000000000E+00 -0.17501958574E+04  0.17501958574E+04  0.25500000920E-02 0.  1.
    10030    2    1    2    0    0  0.00000000000E+00  0.00000000000E+00 -0.11801364155E+04  0.23202552992E+04  0.19977143676E+04 0.  0.
        2    1    3    3  502    0  0.35229912282E+03  0.90477921353E+03 -0.31774335597E+03  0.10216168252E+04  0.25500000920E-02 0. -1.
       -2    1    3    3    0  502 -0.35229912282E+03 -0.90477921353E+03 -0.86239305955E+03  0.12986384741E+04  0.25500000920E-02 0.  1.
</event>
<event>
 5   0  0.4577279E-05  0.1991048E+04  0.7818609E-02  0.8610818E-01
        2   -1    0    0  501    0  0.00000000000E+00  0.00000000000E+00  0.15986273511E+04  0.15986273511E+04  0.25500000920E-02 0.  1.
       -2   -1    0    0    0  501  0.00000000000E+00  0.00000000000E+00 -0.61994920134E+03  0.61994920135E+03  0.25500000920E-02 0. -1.
    10030    2    1    2    0    0  0.00000000000E+00  0.00000000000E+00  0.97867814976E+03  0.22185765524E+04  0.19910477137E+04 0.  0.
        1    1    3    3  502    0 -0.20568249425E+03  0.19462264354E+03  0.15528070204E+04  0.15784146808E+04  0.50400001928E-02 0.  1.
       -1    1    3    3    0  502  0.20568249425E+03 -0.19462264354E+03 -0.57412887065E+03  0.64016187168E+03  0.50400001928E-02 0. -1.
</event>
<event>
 5   0  0.2007644E-05  0.2008848E+04  0.7818609E-02  0.8602495E-01
       -1   -1    0    0    0  501  0.00000000000E+00  0.00000000000E+00  0.76987853388E+03  0.76987853390E+03  0.50400001928E-02 0.  1.
        1   -1    0    0  501    0  0.00000000000E+00  0.00000000000E+00 -0.13104242669E+04  0.13104242669E+04  0.50400001928E-02 0. -1.
    10030    2    1    2    0    0  0.00000000000E+00  0.00000000000E+00 -0.54054573299E+03  0.20803028008E+04  0.20088479419E+04 0.  0.
        1    1    3    3  502    0 -0.22145724715E+03 -0.26614423420E+03  0.70612828031E+03  0.78644339529E+03  0.50400001928E-02 0.  1.
       -1    1    3    3    0  502  0.22145724715E+03  0.26614423420E+03 -0.12466740133E+04  0.12938594055E+04  0.50400001928E-02 0. -1.
</event>
<event>
 5   0  0.4473361E-05  0.1997492E+04  0.7818609E-02  0.8607794E-01
        2   -1    0    0  501    0  0.00000000000E+00  0.00000000000E+00  0.88508685252E+03  0.88508685253E+03  0.25500000920E-02 0. -1.
       -2   -1    0    0    0  501  0.00000000000E+00  0.00000000000E+00 -0.11270006797E+04  0.11270006797E+04  0.25500000920E-02 0.  1.
    10030    2    1    2    0    0  0.00000000000E+00  0.00000000000E+00 -0.24191382717E+03  0.20120875322E+04  0.19974919118E+04 0.  0.
        2    1    3    3  502    0  0.13200968498E+03  0.91167331843E+03 -0.50967651533E+03  0.10527796288E+04  0.25500000920E-02 0.  1.
       -2    1    3    3    0  502 -0.13200968498E+03 -0.91167331843E+03  0.26776268815E+03  0.95930790346E+03  0.25500000920E-02 0. -1.
</event>
<event>
 5   0  0.2142551E-05  0.2013149E+04  0.7818609E-02  0.8600498E-01
        1   -1    0    0  501    0  0.00000000000E+00  0.00000000000E+00  0.11742744702E+04  0.11742744703E+04  0.50400001928E-02 0.  1.
       -1   -1    0    0    0  501  0.00000000000E+00  0.00000000000E+00 -0.86282368051E+03  0.86282368052E+03  0.50400001928E-02 0. -1.
    10030    2    1    2    0    0  0.00000000000E+00  0.00000000000E+00  0.31145078974E+03  0.20370981508E+04  0.20131485990E+04 0.  0.
        3    1    3    3  502    0 -0.67908045187E+03 -0.74253578207E+03  0.18215435120E+03  0.10225897836E+04  0.10100000352E+00 0.  1.
       -3    1    3    3    0  502  0.67908045187E+03  0.74253578207E+03  0.12929643855E+03  0.10145083671E+04  0.10100000352E+00 0. -1.
</event>
<event>
 5   0  0.4577279E-05  0.1999383E+04  0.7818609E-02  0.8606909E-01
       -2   -1    0    0    0  501  0.00000000000E+00  0.00000000000E+00  0.90137927814E+03  0.90137927814E+03  0.25500000920E-02 0. -1.
        2   -1    0    0  501    0  0.00000000000E+00  0.00000000000E+00 -0.11087262626E+04  0.11087262626E+04  0.25500000920E-02 0.  1.
    10030    2    1    2    0    0  0.00000000000E+00  0.00000000000E+00 -0.20734698445E+03  0.20101055407E+04  0.19993827830E+04 0.  0.
        1    1    3    3  502    0 -0.11761864456E+03  0.35393366568E+03 -0.10361604116E+04  0.11012409291E+04  0.50400001928E-02 0.  1.
       -1    1    3    3    0  502  0.11761864456E+03 -0.35393366568E+03  0.82881342716E+03  0.90886461165E+03  0.50400001928E-02 0. -1.
</event>
<event>
 5   0  0.2142551E-05  0.2000744E+04  0.7818609E-02  0.8606273E-01
       -1   -1    0    0    0  501  0.00000000000E+00  0.00000000000E+00  0.22095173268E+04  0.22095173268E+04  0.50400001928E-02 0.  1.
        1   -1    0    0  501    0  0.00000000000E+00  0.00000000000E+00 -0.45292439976E+03  0.45292439979E+03  0.50400001928E-02 0. -1.
    10030    2    1    2    0    0  0.00000000000E+00  0.00000000000E+00  0.17565929271E+04  0.26624417266E+04  0.20007441706E+04 0.  0.
        3    1    3    3  502    0  0.46760351672E+02  0.75335172066E+03  0.46479650450E+01  0.75481584462E+03  0.10100000352E+00 0. -1.
       -3    1    3    3    0  502 -0.46760351672E+02 -0.75335172066E+03  0.17519449620E+04  0.19076258820E+04  0.10100000352E+00 0.  1.
</event>
<event>
 5   0  0.4447313E-05  0.1999635E+04  0.7818609E-02  0.8606791E-01
       -2   -1    0    0    0  501  0.00000000000E+00  0.00000000000E+00  0.83576541091E+03  0.83576541091E+03  0.25500000920E-02 0.  1.
        2   -1    0    0  501    0  0.00000000000E+00  0.00000000000E+00 -0.11960718585E+04  0.11960718585E+04  0.25500000920E-02 0. -1.
    10030    2    1    2    0    0  0.00000000000E+00  0.00000000000E+00 -0.36030644761E+03  0.20318372694E+04  0.19996354551E+04 0.  0.
        5    1    3    3  502    0 -0.74561491664E+03  0.64702965238E+03 -0.19414641743E+02  0.98741480305E+03  0.46999998093E+01 0. -1.
       -5    1    3    3    0  502  0.74561491664E+03 -0.64702965238E+03 -0.34089180587E+03  0.10444224664E+04  0.46999998093E+01 0.  1.
</event>
<event>
 5   0  0.4577279E-05  0.1999576E+04  0.7818609E-02  0.8606819E-01
        2   -1    0    0  501    0  0.00000000000E+00  0.00000000000E+00  0.20983781046E+04  0.20983781046E+04  0.25500000920E-02 0. -1.
       -2   -1    0    0    0  501  0.00000000000E+00  0.00000000000E+00 -0.47635670382E+03  0.47635670383E+03  0.25500000920E-02 0.  1.
    10030    2    1    2    0    0  0.00000000000E+00  0.00000000000E+00  0.16220214008E+04  0.25747348084E+04  0.19995764324E+04 0.  0.
        1    1    3    3  502    0  0.40455867206E+03  0.75173218226E+03  0.14093352285E+03  0.86523479523E+03  0.50400001928E-02 0.  1.
       -1    1    3    3    0  502 -0.40455867206E+03 -0.75173218226E+03  0.14810878779E+04  0.17095000132E+04  0.50400001928E-02 0. -1.
</event>
<event>
 5   0  0.2093980E-05  0.2000354E+04  0.7818609E-02  0.8606455E-01
       -1   -1    0    0    0  501  0.00000000000E+00  0.00000000000E+00  0.44670886692E+03  0.44670886695E+03  0.50400001928E-02 0. -1.
        1   -1    0    0  501    0  0.00000000000E+00  0.00000000000E+00 -0.22393878730E+04  0.22393878730E+04  0.50400001928E-02 0.  1.
    10030    2    1    2    0    0  0.00000000000E+00  0.00000000000E+00 -0.17926790060E+04  0.26860967399E+04  0.20003543880E+04 0.  0.
        2    1    3    3  502    0  0.40834912587E+03 -0.35207340709E+03 -0.20275325486E+04  0.20979973614E+04  0.25500000920E-02 0.  1.
       -2    1    3    3    0  502 -0.40834912587E+03  0.35207340709E+03  0.23485354258E+03  0.58809937855E+03  0.25500000920E-02 0. -1.
</event>
<event>
 5   0  0.4473361E-05  0.2001477E+04  0.7818609E-02  0.8605930E-01
       -2   -1    0    0    0  501  0.00000000000E+00  0.00000000000E+00  0.15188353054E+04  0.15188353054E+04  0.25500000920E-02 0.  1.
        2   -1    0    0  501    0  0.00000000000E+00  0.00000000000E+00 -0.65937225255E+03  0.65937225255E+03  0.25500000920E-02 0. -1.
    10030    2    1    2    0    0  0.00000000000E+00  0.00000000000E+00  0.85946305288E+03  0.21782075580E+04  0.20014773110E+04 0.  0.
        2    1    3    3  502    0  0.20752604961E+03  0.33410882424E+02 -0.63507663968E+03  0.66895865837E+03  0.25500000920E-02 0. -1.
       -2    1    3    3    0  502 -0.20752604961E+03 -0.33410882424E+02  0.14945396926E+04  0.15092488996E+04  0.25500000920E-02 0.  1.
</event>
<event>
 5   0  0.4577279E-05  0.2003993E+04  0.7818609E-02  0.8604756E-01
        2   -1    0    0  501    0  0.00000000000E+00  0.00000000000E+00  0.13533701012E+04  0.13533701012E+04  0.25500000920E-02 0. -1.
       -2   -1    0    0    0  501  0.00000000000E+00  0.00000000000E+00 -0.74184924474E+03  0.74184924474E+03  0.25500000920E-02 0.  1.
    10030    2    1    2    0    0  0.00000000000E+00  0.00000000000E+00  0.61152085642E+03  0.20952193459E+04  0.20039926022E+04 0.  0.
        1    1    3    3  502    0 -0.34526215672E+03  0.60670511521E+01  0.12891930379E+04  0.13346390730E+04  0.50400001928E-02 0. -1.
       -1    1    3    3    0  502  0.34526215672E+03 -0.60670511521E+01 -0.67767218152E+03  0.76058027295E+03  0.50400001928E-02 0.  1.
</event>
<event>
 5   0  0.2093980E-05  0.1999075E+04  0.7818609E-02  0.8607053E-01
        1   -1    0    0  501    0  0.00000000000E+00  0.00000000000E+00  0.74607726446E+03  0.74607726448E+03  0.50400001928E-02 0.  1.
       -1   -1    0    0    0  501  0.00000000000E+00  0.00000000000E+00 -0.13391047206E+04  0.13391047206E+04  0.50400001928E-02 0. -1.
    10030    2    1    2    0    0  0.00000000000E+00  0.00000000000E+00 -0.59302745614E+03  0.20851819851E+04  0.19990753731E+04 0.  0.
        2    1    3    3  502    0 -0.97390720977E+02 -0.39965007308E+03  0.65369703696E+03  0.77235027648E+03  0.25500000920E-02 0.  1.
       -2    1    3    3    0  502  0.97390720977E+02  0.39965007308E+03 -0.12467244931E+04  0.13128317086E+04  0.25500000920E-02 0. -1.
</event>
<event>
 5   0  0.2110896E-05  0.1979375E+04  0.7818609E-02  0.8616325E-01
        1   -1    0    0  501    0  0.00000000000E+00  0.00000000000E+00  0.59909869885E+03  0.59909869888E+03  0.50400001928E-02 0. -1.
       -1   -1    0    0    0  501  0.00000000000E+00  0.00000000000E+00 -0.16349253259E+04  0.16349253259E+04  0.50400001928E-02 0.  1.
    10030    2    1    2    0    0  0.00000000000E+00  0.00000000000E+00 -0.10358266270E+04  0.22340240248E+04  0.19793752908E+04 0.  0.
        4    1    3    3  502    0  0.20287832667E+03 -0.91464756106E+03 -0.87791628610E+03  0.12839308372E+04  0.12699999809E+01 0.  1.
       -4    1    3    3    0  502 -0.20287832667E+03  0.91464756106E+03 -0.15791034092E+03  0.95009318757E+03  0.12699999809E+01 0. -1.
</event>
<event>
 5   0  0.4447313E-05  0.1979857E+04  0.7818609E-02  0.8616096E-01
       -2   -1    0    0    0  501  0.00000000000E+00  0.00000000000E+00  0.59852434473E+03  0.59852434474E+03  0.25500000920E-02 0. -1.
        2   -1    0    0  501    0  0.00000000000E+00  0.00000000000E+00 -0.16372911621E+04  0.16372911621E+04  0.25500000920E-02 0.  1.
    10030    2    1    2    0    0  0.00000000000E+00  0.00000000000E+00 -0.10387668174E+04  0.22358155068E+04  0.19798571867E+04 0.  0.
        5    1    3    3  502    0  0.56072562387E+03 -0.72040136467E+03 -0.95168602772E+03  0.13187568907E+04  0.46999998093E+01 0. -1.
       -5    1    3    3    0  502 -0.56072562387E+03  0.72040136467E+03 -0.87080789659E+02  0.91705861612E+03  0.46999998093E+01 0.  1.
</event>
<event>
 5   0  0.2142551E-05  0.2001957E+04  0.7818609E-02  0.8605706E-01
       -1   -1    0    0    0  501  0.00000000000E+00  0.00000000000E+00  0.72456051327E+03  0.72456051328E+03  0.50400001928E-02 0.  1.
        1   -1    0    0  501    0  0.00000000000E+00  0.00000000000E+00 -0.13828490682E+04  0.13828490683E+04  0.50400001928E-02 0. -1.
    10030    2    1    2    0    0  0.00000000000E+00  0.00000000000E+00 -0.65828855498E+03  0.21074095815E+04  0.20019568733E+04 0.  0.
        3    1    3    3  502    0 -0.97735770125E+03 -0.18096667640E+03 -0.45361303157E+03  0.10925849197E+04  0.10100000352E+00 0.  1.
       -3    1    3    3    0  502  0.97735770125E+03  0.18096667640E+03 -0.20467552341E+03  0.10148246618E+04  0.10100000352E+00 0. -1.
</event>
<event>
 5   0  0.2142551E-05  0.1990488E+04  0.7818609E-02  0.8611081E-01
        1   -1    0    0  501    0  0.00000000000E+00  0.00000000000E+00  0.12115409059E+04  0.12115409059E+04  0.50400001928E-02 0.  1.
       -1   -1    0    0    0  501  0.00000000000E+00  0.00000000000E+00 -0.81756246727E+03  0.81756246729E+03  0.50400001928E-02 0. -1.
    10030    2    1    2    0    0  0.00000000000E+00  0.00000000000E+00  0.39397843863E+03  0.20291033732E+04  0.19904877515E+04 0.  0.
        3    1    3    3  502    0 -0.45075772677E+03  0.74705278522E+03  0.68506789625E+03  0.11093189013E+04  0.10100000352E+00 0.  1.
       -3    1    3    3    0  502  0.45075772677E+03 -0.74705278522E+03 -0.29108945762E+03  0.91978447187E+03  0.10100000352E+00 0. -1.
</event>
<event>
 5   0  0.4514680E-05  0.1968097E+04  0.7818609E-02  0.8621683E-01
        2   -1    0    0  501    0  0.00000000000E+00  0.00000000000E+00  0.10594320323E+04  0.10594320323E+04  0.25500000920E-02 0.  1.
       -2   -1    0    0    0  501  0.00000000000E+00  0.00000000000E+00 -0.91402856538E+03  0.91402856538E+03  0.25500000920E-02 0. -1.
    10030    2    1    2    0    0  0.00000000000E+00  0.00000000000E+00  0.14540346696E+03  0.19734605977E+04  0.19680966853E+04 0.  0.
        3    1    3    3  502    0 -0.46045152369E+03  0.10835573462E+02  0.94467981430E+03  0.10509771535E+04  0.10100000352E+00 0.  1.
       -3    1    3    3    0  502  0.46045152369E+03 -0.10835573462E+02 -0.79927634734E+03  0.92248344427E+03  0.10100000352E+00 0. -1.
</event>
<event>
 5   0  0.4447313E-05  0.1995735E+04  0.7818609E-02  0.8608617E-01
       -2   -1    0    0    0  501  0.00000000000E+00  0.00000000000E+00  0.50017891300E+03  0.50017891300E+03  0.25500000920E-02 0.  1.
        2   -1    0    0  501    0  0.00000000000E+00  0.00000000000E+00 -0.19907661538E+04  0.19907661538E+04  0.25500000920E-02 0. -1.
    10030    2    1    2    0    0  0.00000000000E+00  0.00000000000E+00 -0.14905872408E+04  0.24909450668E+04  0.19957347027E+04 0.  0.
        5    1    3    3  502    0 -0.40093142571E+03  0.39760429073E+03 -0.17721691800E+04  0.18599572234E+04  0.46999998093E+01 0. -1.
       -5    1    3    3    0  502  0.40093142571E+03 -0.39760429073E+03  0.28158193920E+03  0.63098784347E+03  0.46999998093E+01 0.  1.
</event>
<event>
 5   0  0.2256868E-05  0.2008707E+04  0.7818609E-02  0.8602561E-01
       -1   -1    0    0    0  501  0.00000000000E+00  0.00000000000E+00  0.48026074995E+03  0.48026074998E+03  0.50400001928E-02 0. -1.
        1   -1    0    0  501    0  0.00000000000E+00  0.00000000000E+00 -0.21003716023E+04  0.21003716023E+04  0.50400001928E-02 0.  1.
    10030    2    1    2    0    0  0.00000000000E+00  0.00000000000E+00 -0.16201108524E+04  0.25806323523E+04  0.20087070876E+04 0.  0.
        5    1    3    3  502    0 -0.62733781086E+02  0.63076367545E+02 -0.20952857383E+04  0.20971787169E+04  0.46999998093E+01 0.  1.
       -5    1    3    3    0  502  0.62733781086E+02 -0.63076367545E+02  0.47517488591E+03  0.48345363545E+03  0.46999998093E+01 0. -1.
</event>
<event>
 5   0  0.2093980E-05  0.1999768E+04  0.7818609E-02  0.8606729E-01
        1   -1    0    0  501    0  0.00000000000E+00  0.00000000000E+00  0.13958162179E+04  0.13958162179E+04  0.50400001928E-02 0.  1.
       -1   -1    0    0    0  501  0.00000000000E+00  0.00000000000E+00 -0.71626076833E+03  0.71626076835E+03  0.50400001928E-02 0. -1.
    10030    2    1    2    0    0  0.00000000000E+00  0.00000000000E+00  0.67955544954E+03  0.21120769862E+04  0.19997683833E+04 0.  0.
        2    1    3    3  502    0 -0.62965077034E+02  0.92022342170E+03  0.74745121241E+03  0.11872064107E+04  0.25500000920E-02 0. -1.
       -2    1    3    3    0  502  0.62965077034E+02 -0.92022342170E+03 -0.67895762866E+02  0.92487057548E+03  0.25500000920E-02 0.  1.
</event>
<event>
 5   0  0.4412054E-05  0.1976954E+04  0.7818609E-02  0.8617472E-01
        2   -1    0    0  501    0  0.00000000000E+00  0.00000000000E+00  0.11663773310E+04  0.11663773310E+04  0.25500000920E-02 0.  1.
       -2   -1    0    0    0  501  0.00000000000E+00  0.00000000000E+00 -0.83771077420E+03  0.83771077420E+03  0.25500000920E-02 0. -1.
    10030    2    1    2    0    0  0.00000000000E+00  0.00000000000E+00  0.32866655677E+03  0.20040881052E+04  0.19769540783E+04 0.  0.
        4    1    3    3  502    0  0.79896120732E+03  0.56742054498E+03  0.29564946330E+03  0.10235796519E+04  0.12699999809E+01 0. -1.
       -4    1    3    3    0  502 -0.79896120732E+03 -0.56742054498E+03  0.33017093464E+02  0.98050845331E+03  0.12699999809E+01 0.  1.
</event>
<event>
 5   0  0.4447313E-05  0.1991877E+04  0.7818609E-02  0.8610428E-01
        2   -1    0    0  501    0  0.00000000000E+00  0.00000000000E+00  0.15828443096E+04  0.15828443096E+04  0.25500000920E-02 0.  1.
       -2   -1    0    0    0  501  0.00000000000E+00  0.00000000000E+00 -0.62665274837E+03  0.62665274838E+03  0.25500000920E-02 0. -1.
    10030    2    1    2    0    0  0.00000000000E+00  0.00000000000E+00  0.95619156127E+03  0.22094970580E+04  0.19918772421E+04 0.  0.
        5    1    3    3  502    0 -0.52811568890E+03 -0.82829385177E+03  0.29618237527E+03  0.10260228921E+04  0.46999998093E+01 0. -1.
       -5    1    3    3    0  502  0.52811568890E+03  0.82829385177E+03  0.66000918600E+03  0.11834741659E+04  0.46999998093E+01 0.  1.
</event>
<event>
 5   0  0.2007644E-05  0.2001717E+04  0.7818609E-02  0.8605819E-01
        1   -1    0    0  501    0  0.00000000000E+00  0.00000000000E+00  0.13558145398E+04  0.13558145398E+04  0.50400001928E-02 0.  1.
       -1   -1    0    0    0  501  0.00000000000E+00  0.00000000000E+00 -0.73883063737E+03  0.73883063738E+03  0.50400001928E-02 0. -1.
    10030    2    1    2    0    0  0.00000000000E+00  0.00000000000E+00  0.61698390242E+03  0.20946451772E+04  0.20017165839E+04 0.  0.
        1    1    3    3  502    0  0.25596991735E+03  0.88851259881E+03 -0.92361124077E+02  0.92925013537E+03  0.50400001928E-02 0. -1.
       -1    1    3    3    0  502 -0.25596991735E+03 -0.88851259881E+03  0.70934502650E+03  0.11653950418E+04  0.50400001928E-02 0.  1.
</event>
<event>
 5   0  0.4473361E-05  0.1991525E+04  0.7818609E-02  0.8610593E-01
       -2   -1    0    0    0  501  0.00000000000E+00  0.00000000000E+00  0.11088990127E+04  0.11088990127E+04  0.25500000920E-02 0. -1.
        2   -1    0    0  501    0  0.00000000000E+00  0.00000000000E+00 -0.89416898246E+03  0.89416898246E+03  0.25500000920E-02 0.  1.
    10030    2    1    2    0    0  0.00000000000E+00  0.00000000000E+00  0.21473003022E+03  0.20030679951E+04  0.19915251460E+04 0.  0.
        2    1    3    3  502    0  0.43509350539E+03 -0.26373637914E+03 -0.75356336832E+03  0.90924198440E+03  0.25500000920E-02 0.  1.
       -2    1    3    3    0  502 -0.43509350539E+03  0.26373637914E+03  0.96829339854E+03  0.10938260107E+04  0.25500000920E-02 0. -1.
</event>
<event>
 5   0  0.2093980E-05  0.1998548E+04  0.7818609E-02  0.8607300E-01
       -1   -1    0    0    0  501  0.00000000000E+00  0.00000000000E+00  0.12111537799E+04  0.12111537799E+04  0.50400001928E-02 0.  1.
        1   -1    0    0  501    0  0.00000000000E+00  0.00000000000E+00 -0.82446053655E+03  0.82446053657E+03  0.50400001928E-02 0. -1.
    10030    2    1    2    0    0  0.00000000000E+00  0.00000000000E+00  0.38669324336E+03  0.20356143165E+04  0.19985479682E+04 0.  0.
        2    1    3    3  502    0  0.69911414354E+03 -0.32907499602E+02 -0.53311709098E+03  0.87980527500E+03  0.25500000920E-02 0. -1.
       -2    1    3    3    0  502 -0.69911414354E+03  0.32907499602E+02  0.91981033434E+03  0.11558090415E+04  0.25500000920E-02 0.  1.
</event>
<event>
 5   0  0.4577279E-05  0.2001101E+04  0.7818609E-02  0.8606106E-01
        2   -1    0    0  501    0  0.00000000000E+00  0.00000000000E+00  0.64323993587E+03  0.64323993587E+03  0.25500000920E-02 0.  1.
       -2   -1    0    0    0  501  0.00000000000E+00  0.00000000000E+00 -0.15563418510E+04  0.15563418510E+04  0.25500000920E-02 0. -1.
    10030    2    1    2    0    0  0.00000000000E+00  0.00000000000E+00 -0.91310191517E+03  0.21995817869E+04  0.20011009294E+04 0.  0.
        1    1    3    3  502    0 -0.86785577520E+02  0.69171525606E+03 -0.12454413839E+04  0.14272792203E+04  0.50400001928E-02 0. -1.
       -1    1    3    3    0  502  0.86785577520E+02 -0.69171525606E+03  0.33233946872E+03  0.77230256663E+03  0.50400001928E-02 0.  1.
</event>
<event>
 5   0  0.2142551E-05  0.2000318E+04  0.7818609E-02  0.8606472E-01
        1   -1    0    0  501    0  0.00000000000E+00  0.00000000000E+00  0.11068200972E+04  0.11068200972E+04  0.50400001928E-02 0. -1.
       -1   -1    0    0    0  501  0.00000000000E+00  0.00000000000E+00 -0.90377692378E+03  0.90377692380E+03  0.50400001928E-02 0.  1.
    10030    2    1    2    0    0  0.00000000000E+00  0.00000000000E+00  0.20304317339E+03  0.20105970210E+04  0.20003184373E+04 0.  0.
        3    1    3    3  502    0 -0.44951616624E+03  0.65470048619E+03  0.71261018626E+03  0.10670102146E+04  0.10100000352E+00 0. -1.
       -3    1    3    3    0  502  0.44951616624E+03 -0.65470048619E+03 -0.50956701287E+03  0.94358680636E+03  0.10100000352E+00 0.  1.
</event>
<event>
 5   0  0.2142551E-05  0.1994647E+04  0.7818609E-02  0.8609127E-01
        1   -1    0    0  501    0  0.00000000000E+00  0.00000000000E+00  0.12239473599E+04  0.12239473599E+04  0.50400001928E-02 0.  1.
       -1   -1    0    0    0  501  0.00000000000E+00  0.00000000000E+00 -0.81266115802E+03  0.81266115804E+03  0.50400001928E-02 0. -1.
    10030    2    1    2    0    0  0.00000000000E+00  0.00000000000E+00  0.41128620191E+03  0.20366085180E+04  0.19946473161E+04 0.  0.
        3    1    3    3  502    0  0.34108336552E+03  0.40667723893E+03  0.10677576096E+04  0.11924053681E+04  0.10100000352E+00 0.  1.
       -3    1    3    3    0  502 -0.34108336552E+03 -0.40667723893E+03 -0.65647140769E+03  0.84420314985E+03  0.10100000352E+00 0. -1.
</event>
<event>
 5   0  0.4412054E-05  0.1996641E+04  0.7818609E-02  0.8608193E-01
        2   -1    0    0  501    0  0.00000000000E+00  0.00000000000E+00  0.21745732930E+04  0.21745732930E+04  0.25500000920E-02 0. -1.
       -2   -1    0    0    0  501  0.00000000000E+00  0.00000000000E+00 -0.45831685601E+03  0.45831685601E+03  0.25500000920E-02 0.  1.
    10030    2    1    2    0    0  0.00000000000E+00  0.00000000000E+00  0.17162564370E+04  0.26328901490E+04  0.19966407737E+04 0.  0.
        4    1    3    3  502    0  0.65975381925E+03  0.47232258280E+01 -0.12985044889E+03  0.67242855595E+03  0.12699999809E+01 0.  1.
       -4    1    3    3    0  502 -0.65975381925E+03 -0.47232258280E+01  0.18461068859E+04  0.19604615930E+04  0.12699999809E+01 0. -1.
</event>
<event>
 5   0  0.4577279E-05  0.1998552E+04  0.7818609E-02  0.8607298E-01
        2   -1    0    0  501    0  0.00000000000E+00  0.00000000000E+00  0.18127878660E+04  0.18127878660E+04  0.25500000920E-02 0. -1.
       -2   -1    0    0    0  501  0.00000000000E+00  0.00000000000E+00 -0.55083828753E+03  0.55083828753E+03  0.25500000920E-02 0.  1.
    10030    2    1    2    0    0  0.00000000000E+00  0.00000000000E+00  0.12619495785E+04  0.23636261536E+04  0.19985524399E+04 0.  0.
        1    1    3    3  502    0  0.87220871859E+03 -0.13394576890E+03  0.76426009664E+02  0.88573723687E+03  0.50400001928E-02 0.  1.
       -1    1    3    3    0  502 -0.87220871859E+03  0.13394576890E+03  0.11855235688E+04  0.14778889167E+04  0.50400001928E-02 0. -1.
</event>
<event>
 5   0  0.1601500E-05  0.2014601E+04  0.7818609E-02  0.8599824E-01
       -4   -1    0    0    0  501  0.00000000000E+00  0.00000000000E+00  0.15518703599E+04  0.15518708796E+04  0.12699999809E+01 0. -1.
        4   -1    0    0  501    0  0.00000000000E+00  0.00000000000E+00 -0.65382575882E+03  0.65382699225E+03  0.12699999809E+01 0.  1.
    10030    2    1    2    0    0  0.00000000000E+00  0.00000000000E+00  0.89804460111E+03  0.22056978719E+04  0.20146014485E+04 0.  0.
        1    1    3    3  502    0 -0.46883812354E+03 -0.14378093822E+03  0.14123538456E+04  0.14950670652E+04  0.50400001928E-02 0. -1.
       -1    1    3    3    0  502  0.46883812354E+03  0.14378093822E+03 -0.51430924452E+03  0.71063080661E+03  0.50400001928E-02 0.  1.
</event>
<event>
 5   0  0.2110896E-05  0.2003270E+04  0.7818609E-02  0.8605093E-01
        1   -1    0    0  501    0  0.00000000000E+00  0.00000000000E+00  0.14490143029E+04  0.14490143029E+04  0.50400001928E-02 0. -1.
       -1   -1    0    0    0  501  0.00000000000E+00  0.00000000000E+00 -0.69238315521E+03  0.69238315523E+03  0.50400001928E-02 0.  1.
    10030    2    1    2    0    0  0.00000000000E+00  0.00000000000E+00  0.75663114772E+03  0.21413974582E+04  0.20032704211E+04 0.  0.
        4    1    3    3  502    0  0.47554826248E+03 -0.48282500956E+03  0.11667385765E+04  0.13492763463E+04  0.12699999809E+01 0. -1.
       -4    1    3    3    0  502 -0.47554826248E+03  0.48282500956E+03 -0.41010742882E+03  0.79212111187E+03  0.12699999809E+01 0.  1.
</event>
<event>
 5   0  0.2256868E-05  0.2005984E+04  0.7818609E-02  0.8603828E-01
        1   -1    0    0  501    0  0.00000000000E+00  0.00000000000E+00  0.16340342837E+04  0.16340342837E+04  0.50400001928E-02 0.  1.
       -1   -1    0    0    0  501  0.00000000000E+00  0.00000000000E+00 -0.61564999783E+03  0.61564999785E+03  0.50400001928E-02 0. -1.
    10030    2    1    2    0    0  0.00000000000E+00  0.00000000000E+00  0.10183842858E+04  0.22496842815E+04  0.20059842504E+04 0.  0.
        5    1    3    3  502    0 -0.90635560481E+03  0.42533651519E+03  0.44209500329E+03  0.10944686909E+04  0.46999998093E+01 0. -1.
       -5    1    3    3    0  502  0.90635560481E+03 -0.42533651519E+03  0.57628928253E+03  0.11552155906E+04  0.46999998093E+01 0.  1.
</event>
<event>
 5   0  0.4473361E-05  0.2010365E+04  0.7818609E-02  0.8601790E-01
       -2   -1    0    0    0  501  0.00000000000E+00  0.00000000000E+00  0.10735892357E+04  0.10735892357E+04  0.25500000920E-02 0.  1.
        2   -1    0    0  501    0  0.00000000000E+00  0.00000000000E+00 -0.94113464553E+03  0.94113464554E+03  0.25500000920E-02 0. -1.
    10030    2    1    2    0    0  0.00000000000E+00  0.00000000000E+00  0.13245459015E+03  0.20147238812E+04  0.20103651656E+04 0.  0.
        2    1    3    3  502    0  0.91824918304E+03  0.28509858955E+03  0.35999977659E+03  0.10266755121E+04  0.25500000920E-02 0.  1.
       -2    1    3    3    0  502 -0.91824918304E+03 -0.28509858955E+03 -0.22754518643E+03  0.98804836916E+03  0.25500000920E-02 0. -1.
</event>
<event>
 5   0  0.2110896E-05  0.2002673E+04  0.7818609E-02  0.8605372E-01
        1   -1    0    0  501    0  0.00000000000E+00  0.00000000000E+00  0.13003269871E+04  0.13003269871E+04  0.50400001928E-02 0. -1.
       -1   -1    0    0    0  501  0.00000000000E+00  0.00000000000E+00 -0.77109404113E+03  0.77109404114E+03  0.50400001928E-02 0.  1.
    10030    2    1    2    0    0  0.00000000000E+00  0.00000000000E+00  0.52923294593E+03  0.20714210282E+04  0.20026726056E+04 0.  0.
        4    1    3    3  502    0 -0.12297765829E+02  0.87343691354E+03 -0.24170758758E+03  0.90634841412E+03  0.12699999809E+01 0.  1.
       -4    1    3    3    0  502  0.12297765829E+02 -0.87343691354E+03  0.77094053351E+03  0.11650726141E+04  0.12699999809E+01 0. -1.
</event>
<event>
 5   0  0.4447313E-05  0.1994236E+04  0.7818609E-02  0.8609320E-01
       -2   -1    0    0    0  501  0.00000000000E+00  0.00000000000E+00  0.13309550486E+04  0.13309550486E+04  0.25500000920E-02 0.  1.
        2   -1    0    0  501    0  0.00000000000E+00  0.00000000000E+00 -0.74701572383E+03  0.74701572383E+03  0.25500000920E-02 0. -1.
    10030    2    1    2    0    0  0.00000000000E+00  0.00000000000E+00  0.58393932473E+03  0.20779707724E+04  0.19942360432E+04 0.  0.
        5    1    3    3  502    0  0.29743066338E+03 -0.65407710451E+02 -0.69735925289E+03  0.76096989802E+03  0.46999998093E+01 0. -1.
       -5    1    3    3    0  502 -0.29743066338E+03  0.65407710451E+02  0.12812985776E+04  0.13170008744E+04  0.46999998093E+01 0.  1.
</event>
<event>
 5   0  0.2256868E-05  0.2004648E+04  0.7818609E-02  0.8604451E-01
        1   -1    0    0  501    0  0.00000000000E+00  0.00000000000E+00  0.12029341943E+04  0.12029341943E+04  0.50400001928E-02 0.  1.
       -1   -1    0    0    0  501  0.00000000000E+00  0.00000000000E+00 -0.83516928079E+03  0.83516928080E+03  0.50400001928E-02 0. -1.
    10030    2    1    2    0    0  0.00000000000E+00  0.00000000000E+00  0.36776491355E+03  0.20381034752E+04  0.20046482843E+04 0.  0.
        5    1    3    3  502    0  0.61150254728E+03  0.72716154297E+03 -0.14071416796E+03  0.96048000602E+03  0.46999998093E+01 0. -1.
       -5    1    3    3    0  502 -0.61150254728E+03 -0.72716154297E+03  0.50847908151E+03  0.10776234691E+04  0.46999998093E+01 0.  1.
</event>
<event>
 5   0  0.2007644E-05  0.1997436E+04  0.7818609E-02  0.8607820E-01
       -1   -1    0    0    0  501  0.00000000000E+00  0.00000000000E+00  0.15553601070E+04  0.15553601070E+04  0.50400001928E-02 0. -1.
        1   -1    0    0  501    0  0.00000000000E+00  0.00000000000E+00 -0.64129029096E+03  0.64129029098E+03  0.50400001928E-02 0.  1.
    10030    2    1    2    0    0  0.00000000000E+00  0.00000000000E+00  0.91406981608E+03  0.21966503980E+04  0.19974356917E+04 0.  0.
        1    1    3    3  502    0 -0.63809862327E+03  0.39672132269E+03 -0.26652040156E+03  0.79723947806E+03  0.50400001928E-02 0.  1.
       -1    1    3    3    0  502  0.63809862327E+03 -0.39672132269E+03  0.11805902176E+04  0.13994109200E+04  0.50400001928E-02 0. -1.
</event>
<event>
 5   0  0.4473361E-05  0.2005666E+04  0.7818609E-02  0.8603976E-01
       -2   -1    0    0    0  501  0.00000000000E+00  0.00000000000E+00  0.52357473637E+03  0.52357473638E+03  0.25500000920E-02 0.  1.
        2   -1    0    0  501    0  0.00000000000E+00  0.00000000000E+00 -0.19207846693E+04  0.19207846693E+04  0.25500000920E-02 0. -1.
    10030    2    1    2    0    0  0.00000000000E+00  0.00000000000E+00 -0.13972099329E+04  0.24443594057E+04  0.20056663001E+04 0.  0.
        2    1    3    3  502    0  0.93729370673E+03  0.35609499996E+03 -0.67576610366E+03  0.12091248771E+04  0.25500000920E-02 0.  1.
       -2    1    3    3    0  502 -0.93729370673E+03 -0.35609499996E+03 -0.72144382928E+03  0.12352345285E+04  0.25500000920E-02 0. -1.
</event>
<event>
 5   0  0.2256868E-05  0.1977026E+04  0.7818609E-02  0.8617438E-01
       -1   -1    0    0    0  501  0.00000000000E+00  0.00000000000E+00  0.45256522731E+03  0.45256522734E+03  0.50400001928E-02 0.  1.
        1   -1    0    0  501    0  0.00000000000E+00  0.00000000000E+00 -0.21591535072E+04  0.21591535073E+04  0.50400001928E-02 0. -1.
    10030    2    1    2    0    0  0.00000000000E+00  0.00000000000E+00 -0.17065882799E+04  0.26117187346E+04  0.19770258449E+04 0.  0.
        5    1    3    3  502    0 -0.91941214248E+03  0.12672488526E+03 -0.13027522632E+04  0.15995510100E+04  0.46999998093E+01 0. -1.
       -5    1    3    3    0  502  0.91941214248E+03 -0.12672488526E+03 -0.40383601670E+03  0.10121677246E+04  0.46999998093E+01 0.  1.
</event>
<event>
 5   0  0.4577279E-05  0.1986191E+04  0.7818609E-02  0.8613104E-01
        2   -1    0    0  501    0  0.00000000000E+00  0.00000000000E+00  0.21032470431E+04  0.21032470431E+04  0.25500000920E-02 0. -1.
       -2   -1    0    0    0  501  0.00000000000E+00  0.00000000000E+00 -0.46891230691E+03  0.46891230692E+03  0.25500000920E-02 0.  1.
    10030    2    1    2    0    0  0.00000000000E+00  0.00000000000E+00  0.16343347362E+04  0.25721593500E+04  0.19861907491E+04 0.  0.
        1    1    3    3  502    0 -0.31524651443E+03 -0.88126748537E+03  0.12471177150E+04  0.15592675655E+04  0.50400001928E-02 0. -1.
       -1    1    3    3    0  502  0.31524651443E+03  0.88126748537E+03  0.38721702112E+03  0.10128917845E+04  0.50400001928E-02 0.  1.
</event>
<event>
 5   0  0.2007644E-05  0.2000215E+04  0.7818609E-02  0.8606520E-01
       -1   -1    0    0    0  501  0.00000000000E+00  0.00000000000E+00  0.64875187775E+03  0.64875187777E+03  0.50400001928E-02 0.  1.
        1   -1    0    0  501    0  0.00000000000E+00  0.00000000000E+00 -0.15417522480E+04  0.15417522480E+04  0.50400001928E-02 0. -1.
    10030    2    1    2    0    0  0.00000000000E+00  0.00000000000E+00 -0.89300037025E+03  0.21905041258E+04  0.20002146544E+04 0.  0.
        1    1    3    3  502    0 -0.47714067838E+03 -0.58428189919E+03  0.27260062020E+03  0.80209704079E+03  0.50400001928E-02 0.  1.
       -1    1    3    3    0  502  0.47714067838E+03  0.58428189919E+03 -0.11656009905E+04  0.13884070850E+04  0.50400001928E-02 0. -1.
</event>
<event>
 5   0  0.2093980E-05  0.2006298E+04  0.7818609E-02  0.8603682E-01
       -1   -1    0    0    0  501  0.00000000000E+00  0.00000000000E+00  0.55638353412E+03  0.55638353415E+03  0.50400001928E-02 0.  1.
        1   -1    0    0  501    0  0.00000000000E+00  0.00000000000E+00 -0.18086593377E+04  0.18086593377E+04  0.50400001928E-02 0. -1.
    10030    2    1    2    0    0  0.00000000000E+00  0.00000000000E+00 -0.12522758035E+04  0.23650428718E+04  0.20062983570E+04 0.  0.
        2    1    3    3  502    0 -0.96118605059E+03 -0.76927113740E+02 -0.30007010608E+03  0.10098705230E+04  0.25500000920E-02 0.  1.
       -2    1    3    3    0  502  0.96118605059E+03  0.76927113740E+02 -0.95220569745E+03  0.13551723488E+04  0.25500000920E-02 0. -1.
</event>
<event>
 5   0  0.4412054E-05  0.1997311E+04  0.7818609E-02  0.8607879E-01
        2   -1    0    0  501    0  0.00000000000E+00  0.00000000000E+00  0.88403112351E+03  0.88403112352E+03  0.25500000920E-02 0. -1.
       -2   -1    0    0    0  501  0.00000000000E+00  0.00000000000E+00 -0.11281420818E+04  0.11281420818E+04  0.25500000920E-02 0.  1.
    10030    2    1    2    0    0  0.00000000000E+00  0.00000000000E+00 -0.24411095827E+03  0.20121732053E+04  0.19973109042E+04 0.  0.
        4    1    3    3  502    0 -0.17559521908E+03  0.91962259263E+03 -0.47216368328E+03  0.10485607043E+04  0.12699999809E+01 0.  1.
       -4    1    3    3    0  502  0.17559521908E+03 -0.91962259263E+03  0.22805272501E+03  0.96361250102E+03  0.12699999809E+01 0. -1.
</event>
<event>
 5   0  0.4473361E-05  0.2003325E+04  0.7818609E-02  0.8605068E-01
       -2   -1    0    0    0  501  0.00000000000E+00  0.00000000000E+00  0.15400737873E+04  0.15400737873E+04  0.25500000920E-02 0.  1.
        2   -1    0    0  501    0  0.00000000000E+00  0.00000000000E+00 -0.65148012285E+03  0.65148012285E+03  0.25500000920E-02 0. -1.
    10030    2    1    2    0    0  0.00000000000E+00  0.00000000000E+00  0.88859366447E+03  0.21915539102E+04  0.20033246968E+04 0.  0.
        2    1    3    3  502    0 -0.17064114783E+03 -0.83691522148E+02 -0.63157374894E+03  0.65955141768E+03  0.25500000920E-02 0. -1.
       -2    1    3    3    0  502  0.17064114783E+03  0.83691522148E+02  0.15201674134E+04  0.15320024925E+04  0.25500000920E-02 0.  1.
</event>
<event>
 5   0  0.4412054E-05  0.2003423E+04  0.7818609E-02  0.8605022E-01
       -2   -1    0    0    0  501  0.00000000000E+00  0.00000000000E+00  0.52947885320E+03  0.52947885321E+03  0.25500000920E-02 0. -1.
        2   -1    0    0  501    0  0.00000000000E+00  0.00000000000E+00 -0.18951193616E+04  0.18951193616E+04  0.25500000920E-02 0.  1.
    10030    2    1    2    0    0  0.00000000000E+00  0.00000000000E+00 -0.13656405084E+04  0.24245982148E+04  0.20034226976E+04 0.  0.
        4    1    3    3  502    0  0.73435005140E+02  0.54697082401E+03  0.32890010779E+03  0.64245363731E+03  0.12699999809E+01 0. -1.
       -4    1    3    3    0  502 -0.73435005140E+02 -0.54697082401E+03 -0.16945406162E+04  0.17821445775E+04  0.12699999809E+01 0.  1.
</event>
<event>
 5   0  0.2093980E-05  0.1995348E+04  0.7818609E-02  0.8608799E-01
       -1   -1    0    0    0  501  0.00000000000E+00  0.00000000000E+00  0.83540622779E+03  0.83540622780E+03  0.50400001928E-02 0.  1.
        1   -1    0    0  501    0  0.00000000000E+00  0.00000000000E+00 -0.11914600976E+04  0.11914600976E+04  0.50400001928E-02 0. -1.
    10030    2    1    2    0    0  0.00000000000E+00  0.00000000000E+00 -0.35605386978E+03  0.20268663254E+04  0.19953477749E+04 0.  0.
        2    1    3    3  502    0  0.13801515451E+03 -0.90798438881E+03 -0.57388689532E+03  0.10829727613E+04  0.25500000920E-02 0. -1.
       -2    1    3    3    0  502 -0.13801515451E+03  0.90798438881E+03  0.21783302555E+03  0.94389356403E+03  0.25500000920E-02 0.  1.
</event>
<event>
 5   0  0.4577279E-05  0.2006084E+04  0.7818609E-02  0.8603781E-01
       -2   -1    0    0    0  501  0.00000000000E+00  0.00000000000E+00  0.58995966333E+03  0.58995966334E+03  0.25500000920E-02 0. -1.
        2   -1    0    0  501    0  0.00000000000E+00  0.00000000000E+00 -0.17053593948E+04  0.17053593948E+04  0.25500000920E-02 0.  1.
    10030    2    1    2    0    0  0.00000000000E+00  0.00000000000E+00 -0.11153997315E+04  0.22953190581E+04  0.20060840007E+04 0.  0.
        1    1    3    3  502    0 -0.38122646430E+03 -0.75602608447E+03  0.57592074935E+02  0.84866124255E+03  0.50400001928E-02 0. -1.
       -1    1    3    3    0  502  0.38122646430E+03  0.75602608447E+03 -0.11729918064E+04  0.14466578156E+04  0.50400001928E-02 0.  1.
</event>
<event>
 5   0  0.2110896E-05  0.1998140E+04  0.7818609E-02  0.8607491E-01
        1   -1    0    0  501    0  0.00000000000E+00  0.00000000000E+00  0.10690118042E+04  0.10690118042E+04  0.50400001928E-02 0.  1.
       -1   -1    0    0    0  501  0.00000000000E+00  0.00000000000E+00 -0.93370389069E+03  0.93370389071E+03  0.50400001928E-02 0. -1.
    10030    2    1    2    0    0  0.00000000000E+00  0.00000000000E+00  0.13530791348E+03  0.20027156949E+04  0.19981396155E+04 0.  0.
        4    1    3    3  502    0 -0.98021790867E+03 -0.96526506772E+02 -0.10004435385E+03  0.99002777770E+03  0.12699999809E+01 0.  1.
       -4    1    3    3    0  502  0.98021790867E+03  0.96526506772E+02  0.23535226734E+03  0.10126879172E+04  0.12699999809E+01 0. -1.
</event>
<event>
 5   0  0.2093980E-05  0.1996726E+04  0.7818609E-02  0.8608153E-01
       -1   -1    0    0    0  501  0.00000000000E+00  0.00000000000E+00  0.69507867661E+03  0.69507867663E+03  0.50400001928E-02 0. -1.
        1   -1    0    0  501    0  0.00000000000E+00  0.00000000000E+00 -0.14339789359E+04  0.14339789359E+04  0.50400001928E-02 0.  1.
    10030    2    1    2    0    0  0.00000000000E+00  0.00000000000E+00 -0.73890025925E+03  0.21290576125E+04  0.19967255005E+04 0.  0.
        2    1    3    3  502    0  0.14283108866E+03 -0.55486967086E+03  0.50232118396E+03  0.76197614359E+03  0.25500000920E-02 0.  1.
       -2    1    3    3    0  502 -0.14283108866E+03  0.55486967086E+03 -0.12412214432E+04  0.13670814689E+04  0.25500000920E-02 0. -1.
</event>
<event>
 5   0  0.2007644E-05  0.1998802E+04  0.7818609E-02  0.8607181E-01
       -1   -1    0    0    0  501  0.00000000000E+00  0.00000000000E+00  0.97383500954E+03  0.97383500955E+03  0.50400001928E-02 0.  1.
        1   -1    0    0  501    0  0.00000000000E+00  0.00000000000E+00 -0.10256385874E+04  0.10256385874E+04  0.50400001928E-02 0. -1.
    10030    2    1    2    0    0  0.00000000000E+00  0.00000000000E+00 -0.51803577830E+02  0.19994735969E+04  0.19988024050E+04 0.  0.
        1    1    3    3  502    0  0.82059975698E+02 -0.25566237887E+03  0.93707699927E+03  0.97478735843E+03  0.50400001928E-02 0.  1.
       -1    1    3    3    0  502 -0.82059975698E+02  0.25566237887E+03 -0.98888057710E+03  0.10246862385E+04  0.50400001928E-02 0. -1.
</event>
<event>
 5   0  0.4577279E-05  0.2000599E+04  0.7818609E-02  0.8606340E-01
       -2   -1    0    0    0  501  0.00000000000E+00  0.00000000000E+00  0.78460007849E+03  0.78460007850E+03  0.25500000920E-02 0. -1.
        2   -1    0    0  501    0  0.00000000000E+00  0.00000000000E+00 -0.12752988472E+04  0.12752988472E+04  0.25500000920E-02 0.  1.
    10030    2    1    2    0    0  0.00000000000E+00  0.00000000000E+00 -0.49069876874E+03  0.20598989257E+04  0.20005994858E+04 0.  0.
        1    1    3    3  502    0 -0.34002903785E+03 -0.53502823326E+03  0.55135886918E+03  0.84016162708E+03  0.50400001928E-02 0. -1.
       -1    1    3    3    0  502  0.34002903785E+03  0.53502823326E+03 -0.10420576379E+04  0.12197372987E+04  0.50400001928E-02 0.  1.
</event>
<event>
 5   0  0.2142551E-05  0.1986905E+04  0.7818609E-02  0.8612768E-01
       -1   -1    0    0    0  501  0.00000000000E+00  0.00000000000E+00  0.47110791303E+03  0.47110791306E+03  0.50400001928E-02 0.  1.
        1   -1    0    0  501    0  0.00000000000E+00  0.00000000000E+00 -0.20949503930E+04  0.20949503930E+04  0.50400001928E-02 0. -1.
    10030    2    1    2    0    0  0.00000000000E+00  0.00000000000E+00 -0.16238424800E+04  0.25660583061E+04  0.19869048368E+04 0.  0.
        3    1    3    3  502    0 -0.24264614695E+02 -0.11963253582E+03 -0.20852281074E+04  0.20887979761E+04  0.10100000352E+00 0. -1.
       -3    1    3    3    0  502  0.24264614695E+02  0.11963253582E+03  0.46138562740E+03  0.47726032993E+03  0.10100000352E+00 0.  1.
</event>
<event>
 5   0  0.2256868E-05  0.1995457E+04  0.7818609E-02  0.8608748E-01
        1   -1    0    0  501    0  0.00000000000E+00  0.00000000000E+00  0.68435035489E+03  0.68435035491E+03  0.50400001928E-02 0. -1.
       -1   -1    0    0    0  501  0.00000000000E+00  0.00000000000E+00 -0.14546090700E+04  0.14546090700E+04  0.50400001928E-02 0.  1.
    10030    2    1    2    0    0  0.00000000000E+00  0.00000000000E+00 -0.77025871511E+03  0.21389594249E+04  0.19954570738E+04 0.  0.
        5    1    3    3  502    0 -0.22156666426E+03 -0.28798622333E+03 -0.13811521350E+04  0.14281565606E+04  0.46999998093E+01 0.  1.
       -5    1    3    3    0  502  0.22156666426E+03  0.28798622333E+03  0.61089341987E+03  0.71080286435E+03  0.46999998093E+01 0. -1.
</event>
<event>
 5   0  0.2142551E-05  0.1989468E+04  0.7818609E-02  0.8611561E-01
       -1   -1    0    0    0  501  0.00000000000E+00  0.00000000000E+00  0.78494796514E+03  0.78494796516E+03  0.50400001928E-02 0. -1.
        1   -1    0    0  501    0  0.00000000000E+00  0.00000000000E+00 -0.12605877434E+04  0.12605877434E+04  0.50400001928E-02 0.  1.
    10030    2    1    2    0    0  0.00000000000E+00  0.00000000000E+00 -0.47563977829E+03  0.20455357086E+04  0.19894680536E+04 0.  0.
        3    1    3    3  502    0  0.25277463900E+02 -0.14139902636E+03 -0.12498683581E+04  0.12580952100E+04  0.10100000352E+00 0.  1.
       -3    1    3    3    0  502 -0.25277463900E+02  0.14139902636E+03  0.77422857977E+03  0.78744049856E+03  0.10100000352E+00 0. -1.
</event>
<event>
 5   0  0.4473361E-05  0.1993012E+04  0.7818609E-02  0.8609895E-01
        2   -1    0    0  501    0  0.00000000000E+00  0.00000000000E+00  0.10425793346E+04  0.10425793346E+04  0.25500000920E-02 0.  1.
       -2   -1    0    0    0  501  0.00000000000E+00  0.00000000000E+00 -0.95246911270E+03  0.95246911270E+03  0.25500000920E-02 0. -1.
    10030    2    1    2    0    0  0.00000000000E+00  0.00000000000E+00  0.90110221859E+02  0.19950484473E+04  0.19930124071E+04 0.  0.
        2    1    3    3  502    0  0.62494526819E+03  0.76961097884E+03  0.14598949681E+03  0.10020831204E+04  0.25500000920E-02 0. -1.
       -2    1    3    3    0  502 -0.62494526819E+03 -0.76961097884E+03 -0.55879274950E+02  0.99296532687E+03  0.25500000920E-02 0.  1.
</event>
<event>
 5   0  0.4473361E-05  0.2001114E+04  0.7818609E-02  0.8606100E-01
        2   -1    0    0  501    0  0.00000000000E+00  0.00000000000E+00  0.10656402741E+04  0.10656402741E+04  0.25500000920E-02 0.  1.
       -2   -1    0    0    0  501  0.00000000000E+00  0.00000000000E+00 -0.93944845573E+03  0.93944845574E+03  0.25500000920E-02 0. -1.
    10030    2    1    2    0    0  0.00000000000E+00  0.00000000000E+00  0.12619181840E+03  0.20050887299E+04  0.20011137998E+04 0.  0.
        2    1    3    3  502    0  0.28192043359E+03  0.70791215574E+03  0.71284011060E+03  0.10434365215E+04  0.25500000920E-02 0.  1.
       -2    1    3    3    0  502 -0.28192043359E+03 -0.70791215574E+03 -0.58664829220E+03  0.96165220837E+03  0.25500000920E-02 0. -1.
</event>
<event>
 5   0  0.4412054E-05  0.2005326E+04  0.7818609E-02  0.8604135E-01
       -2   -1    0    0    0  501  0.00000000000E+00  0.00000000000E+00  0.51322393688E+03  0.51322393689E+03  0.25500000920E-02 0. -1.
        2   -1    0    0  501    0  0.00000000000E+00  0.00000000000E+00 -0.19588584277E+04  0.19588584277E+04  0.25500000920E-02 0.  1.
    10030    2    1    2    0    0  0.00000000000E+00  0.00000000000E+00 -0.14456344908E+04  0.24720823646E+04  0.20053259426E+04 0.  0.
        4    1    3    3  502    0 -0.21998238160E+03  0.43548980600E+03 -0.18026515275E+04  0.18675111143E+04  0.12699999809E+01 0.  1.
       -4    1    3    3    0  502  0.21998238160E+03 -0.43548980600E+03  0.35701703668E+03  0.60457125033E+03  0.12699999809E+01 0. -1.
</event>
<event>
 5   0  0.1601500E-05  0.1998020E+04  0.7818609E-02  0.8607547E-01
       -3   -1    0    0    0  501  0.00000000000E+00  0.00000000000E+00  0.82039590233E+03  0.82039590854E+03  0.10100000352E+00 0. -1.
        3   -1    0    0  501    0  0.00000000000E+00  0.00000000000E+00 -0.12165120008E+04  0.12165120050E+04  0.10100000352E+00 0.  1.
    10030    2    1    2    0    0  0.00000000000E+00  0.00000000000E+00 -0.39611609851E+03  0.20369079136E+04  0.19980204916E+04 0.  0.
        4    1    3    3  502    0 -0.93687672776E+03  0.31058408234E+03 -0.40718930934E+02  0.98785632531E+03  0.12699999809E+01 0.  1.
       -4    1    3    3    0  502  0.93687672776E+03 -0.31058408234E+03 -0.35539716758E+03  0.10490515883E+04  0.12699999809E+01 0. -1.
</event>
<event>
 5   0  0.2142551E-05  0.1995780E+04  0.7818609E-02  0.8608596E-01
       -1   -1    0    0    0  501  0.00000000000E+00  0.00000000000E+00  0.86064510951E+03  0.86064510952E+03  0.50400001928E-02 0. -1.
        1   -1    0    0  501    0  0.00000000000E+00  0.00000000000E+00 -0.11570214529E+04  0.11570214529E+04  0.50400001928E-02 0.  1.
    10030    2    1    2    0    0  0.00000000000E+00  0.00000000000E+00 -0.29637634342E+03  0.20176665625E+04  0.19957804038E+04 0.  0.
        3    1    3    3  502    0  0.88867480217E+02 -0.38761445671E+03 -0.10734528461E+04  0.11447460064E+04  0.10100000352E+00 0.  1.
       -3    1    3    3    0  502 -0.88867480217E+02  0.38761445671E+03  0.77707650266E+03  0.87292055611E+03  0.10100000352E+00 0. -1.
</event>
<event>
 5   0  0.2110896E-05  0.1998792E+04  0.7818609E-02  0.8607186E-01
        1   -1    0    0  501    0  0.00000000000E+00  0.00000000000E+00  0.96831448646E+03  0.96831448647E+03  0.50400001928E-02 0.  1.
       -1   -1    0    0    0  501  0.00000000000E+00  0.00000000000E+00 -0.10314754593E+04  0.10314754593E+04  0.50400001928E-02 0. -1.
    10030    2    1    2    0    0  0.00000000000E+00  0.00000000000E+00 -0.63160972852E+02  0.19997899458E+04  0.19987922650E+04 0.  0.
        4    1    3    3  502    0  0.11266106995E+03  0.54837573399E+03  0.79671108748E+03  0.97373437452E+03  0.12699999809E+01 0.  1.
       -4    1    3    3    0  502 -0.11266106995E+03 -0.54837573399E+03 -0.85987206033E+03  0.10260555713E+04  0.12699999809E+01 0. -1.
</event>
<event>
 5   0  0.4447313E-05  0.1999198E+04  0.7818609E-02  0.8606996E-01
        2   -1    0    0  501    0  0.00000000000E+00  0.00000000000E+00  0.78928583880E+03  0.78928583880E+03  0.25500000920E-02 0.  1.
       -2   -1    0    0    0  501  0.00000000000E+00  0.00000000000E+00 -0.12659520214E+04  0.12659520215E+04  0.25500000920E-02 0. -1.
    10030    2    1    2    0    0  0.00000000000E+00  0.00000000000E+00 -0.47666618265E+03  0.20552378603E+04  0.19991978423E+04 0.  0.
        5    1    3    3  502    0 -0.52862418154E+03 -0.40224405638E+03  0.52955334127E+03  0.84952494811E+03  0.46999998093E+01 0.  1.
       -5    1    3    3    0  502  0.52862418154E+03  0.40224405638E+03 -0.10062195239E+04  0.12057129121E+04  0.46999998093E+01 0. -1.
</event>
<event>
 5   0  0.2142551E-05  0.1993669E+04  0.7818609E-02  0.8609586E-01
        1   -1    0    0  501    0  0.00000000000E+00  0.00000000000E+00  0.14389507937E+04  0.14389507937E+04  0.50400001928E-02 0. -1.
       -1   -1    0    0    0  501  0.00000000000E+00  0.00000000000E+00 -0.69055814650E+03  0.69055814652E+03  0.50400001928E-02 0.  1.
    10030    2    1    2    0    0  0.00000000000E+00  0.00000000000E+00  0.74839264718E+03  0.21295089402E+04  0.19936691732E+04 0.  0.
        3    1    3    3  502    0  0.87651042491E+03  0.30134170542E+03  0.76607520828E+03  0.12024760219E+04  0.10100000352E+00 0. -1.
       -3    1    3    3    0  502 -0.87651042491E+03 -0.30134170542E+03 -0.17682561094E+02  0.92703291828E+03  0.10100000352E+00 0.  1.
</event>
<event>
 5   0  0.2093980E-05  0.2013498E+04  0.7818609E-02  0.8600336E-01
        1   -1    0    0  501    0  0.00000000000E+00  0.00000000000E+00  0.12688046030E+04  0.12688046030E+04  0.50400001928E-02 0. -1.
       -1   -1    0    0    0  501  0.00000000000E+00  0.00000000000E+00 -0.79881795819E+03  0.79881795820E+03  0.50400001928E-02 0.  1.
    10030    2    1    2    0    0  0.00000000000E+00  0.00000000000E+00  0.46998664484E+03  0.20676225612E+04  0.20134983510E+04 0.  0.
        2    1    3    3  502    0  0.41522050910E+03 -0.18610124835E+03 -0.68720165089E+03  0.82418921056E+03  0.25500000920E-02 0.  1.
       -2    1    3    3    0  502 -0.41522050910E+03  0.18610124835E+03  0.11571882957E+04  0.12434333507E+04  0.25500000920E-02 0. -1.
</event>
<event>
 5   0  0.4514680E-05  0.2005389E+04  0.7818609E-02  0.8604105E-01
        2   -1    0    0  501    0  0.00000000000E+00  0.00000000000E+00  0.11215825299E+04  0.11215825299E+04  0.25500000920E-02 0.  1.
       -2   -1    0    0    0  501  0.00000000000E+00  0.00000000000E+00 -0.89640887645E+03  0.89640887645E+03  0.25500000920E-02 0. -1.
    10030    2    1    2    0    0  0.00000000000E+00  0.00000000000E+00  0.22517365345E+03  0.20179914064E+04  0.20053892744E+04 0.  0.
        3    1    3    3  502    0  0.43422866170E+03 -0.77562881869E+03 -0.35427037613E+03  0.95690234853E+03  0.10100000352E+00 0. -1.
       -3    1    3    3    0  502 -0.43422866170E+03  0.77562881869E+03  0.57944402958E+03  0.10610890578E+04  0.10100000352E+00 0.  1.
</event>
<event>
 5   0  0.2142551E-05  0.1999593E+04  0.7818609E-02  0.8606811E-01
        1   -1    0    0  501    0  0.00000000000E+00  0.00000000000E+00  0.15415210179E+04  0.15415210179E+04  0.50400001928E-02 0. -1.
       -1   -1    0    0    0  501  0.00000000000E+00  0.00000000000E+00 -0.64844584022E+03  0.64844584024E+03  0.50400001928E-02 0.  1.
    10030    2    1    2    0    0  0.00000000000E+00  0.00000000000E+00  0.89307517771E+03  0.21899668582E+04  0.19995928503E+04 0.  0.
        3    1    3    3  502    0 -0.28625805872E+03  0.23139643257E+03 -0.57153606864E+03  0.67980988014E+03  0.10100000352E+00 0.  1.
       -3    1    3    3    0  502  0.28625805872E+03 -0.23139643257E+03  0.14646112463E+04  0.15101569780E+04  0.10100000352E+00 0. -1.
</event>
<event>
 5   0  0.2142551E-05  0.1995650E+04  0.7818609E-02  0.8608657E-01
       -1   -1    0    0    0  501  0.00000000000E+00  0.00000000000E+00  0.13927558938E+04  0.13927558938E+04  0.50400001928E-02 0.  1.
        1   -1    0    0  501    0  0.00000000000E+00  0.00000000000E+00 -0.71488090439E+03  0.71488090441E+03  0.50400001928E-02 0. -1.
    10030    2    1    2    0    0  0.00000000000E+00  0.00000000000E+00  0.67787498942E+03  0.21076367982E+04  0.19956498621E+04 0.  0.
        3    1    3    3  502    0  0.13849292087E+03  0.95721286933E+03  0.79773940160E+02  0.97046414569E+03  0.10100000352E+00 0. -1.
       -3    1    3    3    0  502 -0.13849292087E+03 -0.95721286933E+03  0.59810104926E+03  0.11371726525E+04  0.10100000352E+00 0.  1.
</event>
<event>
 5   0  0.2142551E-05  0.1995530E+04  0.7818609E-02  0.8608714E-01
       -1   -1    0    0    0  501  0.00000000000E+00  0.00000000000E+00  0.13768973558E+04  0.13768973558E+04  0.50400001928E-02 0. -1.
        1   -1    0    0  501    0  0.00000000000E+00  0.00000000000E+00 -0.72302750747E+03  0.72302750749E+03  0.50400001928E-02 0.  1.
    10030    2    1    2    0    0  0.00000000000E+00  0.00000000000E+00  0.65386984835E+03  0.20999248633E+04  0.19955296673E+04 0.  0.
        3    1    3    3  502    0 -0.33101780909E+03  0.10883419249E+03  0.13107882219E+04  0.13563124434E+04  0.10100000352E+00 0. -1.
       -3    1    3    3    0  502  0.33101780909E+03 -0.10883419249E+03 -0.65691837351E+03  0.74361241991E+03  0.10100000352E+00 0.  1.
</event>
<event>
 5   0  0.1601500E-05  0.1995946E+04  0.7818609E-02  0.8608518E-01
       -4   -1    0    0    0  501  0.00000000000E+00  0.00000000000E+00  0.81963201575E+03  0.81963299966E+03  0.12699999809E+01 0.  1.
        4   -1    0    0  501    0  0.00000000000E+00  0.00000000000E+00 -0.12151168236E+04  0.12151174873E+04  0.12699999809E+01 0. -1.
    10030    2    1    2    0    0  0.00000000000E+00  0.00000000000E+00 -0.39548480787E+03  0.20347504870E+04  0.19959462194E+04 0.  0.
        3    1    3    3  502    0 -0.36438657438E+03 -0.35842849088E+03 -0.10715541247E+04  0.11872138860E+04  0.10100000352E+00 0. -1.
       -3    1    3    3    0  502  0.36438657438E+03  0.35842849088E+03  0.67606931683E+03  0.84753660100E+03  0.10100000352E+00 0.  1.
</event>
<event>
 5   0  0.2110896E-05  0.1990956E+04  0.7818609E-02  0.8610861E-01
       -1   -1    0    0    0  501  0.00000000000E+00  0.00000000000E+00  0.17327477627E+04  0.17327477627E+04  0.50400001928E-02 0.  1.
        1   -1    0    0  501    0  0.00000000000E+00  0.00000000000E+00 -0.57191027828E+03  0.57191027830E+03  0.50400001928E-02 0. -1.
    10030    2    1    2    0    0  0.00000000000E+00  0.00000000000E+00  0.11608374844E+04  0.23046580410E+04  0.19909558058E+04 0.  0.
        4    1    3    3  502    0 -0.93265473777E+03 -0.12874635709E+03  0.95471503829E+03  0.13408590163E+04  0.12699999809E+01 0.  1.
       -4    1    3    3    0  502  0.93265473777E+03  0.12874635709E+03  0.20612244613E+03  0.96379902471E+03  0.12699999809E+01 0. -1.
</event>
<event>
 5   0  0.2110896E-05  0.2005527E+04  0.7818609E-02  0.8604041E-01
        1   -1    0    0  501    0  0.00000000000E+00  0.00000000000E+00  0.86248486319E+03  0.86248486320E+03  0.50400001928E-02 0. -1.
       -1   -1    0    0    0  501  0.00000000000E+00  0.00000000000E+00 -0.11658572759E+04  0.11658572759E+04  0.50400001928E-02 0.  1.
    10030    2    1    2    0    0  0.00000000000E+00  0.00000000000E+00 -0.30337241269E+03  0.20283421391E+04  0.20055266172E+04 0.  0.
        4    1    3    3  502    0 -0.62064867754E+03  0.77034413847E+03 -0.31755737381E+03  0.10389798704E+04  0.12699999809E+01 0. -1.
       -4    1    3    3    0  502  0.62064867754E+03 -0.77034413847E+03  0.14184961123E+02  0.98936226865E+03  0.12699999809E+01 0.  1.
</event>
<event>
 5   0  0.4514680E-05  0.2007240E+04  0.7818609E-02  0.8603243E-01
        2   -1    0    0  501    0  0.00000000000E+00  0.00000000000E+00  0.17456585238E+04  0.17456585239E+04  0.25500000920E-02 0. -1.
       -2   -1    0    0    0  501  0.00000000000E+00  0.00000000000E+00 -0.57700452597E+03  0.57700452598E+03  0.25500000920E-02 0.  1.
    10030    2    1    2    0    0  0.00000000000E+00  0.00000000000E+00  0.11686539979E+04  0.23226630498E+04  0.20072397655E+04 0.  0.
        3    1    3    3  502    0  0.61431122236E+03  0.57075381053E+03  0.12224518279E+04  0.14824057042E+04  0.10100000352E+00 0. -1.
       -3    1    3    3    0  502 -0.61431122236E+03 -0.57075381053E+03 -0.53797830024E+02  0.84025734562E+03  0.10100000352E+00 0.  1.
</event>
<event>
 5   0  0.4412054E-05  0.1996197E+04  0.7818609E-02  0.8608401E-01
       -2   -1    0    0    0  501  0.00000000000E+00  0.00000000000E+00  0.73988095223E+03  0.73988095224E+03  0.25500000920E-02 0. -1.
        2   -1    0    0  501    0  0.00000000000E+00  0.00000000000E+00 -0.13464329954E+04  0.13464329954E+04  0.25500000920E-02 0.  1.
    10030    2    1    2    0    0  0.00000000000E+00  0.00000000000E+00 -0.60655204318E+03  0.20863139476E+04  0.19961965101E+04 0.  0.
        4    1    3    3  502    0 -0.47660632301E+02 -0.99530066698E+03 -0.36334738508E+03  0.10606214634E+04  0.12699999809E+01 0. -1.
       -4    1    3    3    0  502  0.47660632301E+02  0.99530066698E+03 -0.24320465810E+03  0.10256924842E+04  0.12699999809E+01 0.  1.
</event>
<event>
 5   0  0.4412054E-05  0.1991571E+04  0.7818609E-02  0.8610572E-01
       -2   -1    0    0    0  501  0.00000000000E+00  0.00000000000E+00  0.53631491839E+03  0.53631491839E+03  0.25500000920E-02 0. -1.
        2   -1    0    0  501    0  0.00000000000E+00  0.00000000000E+00 -0.18488931590E+04  0.18488931590E+04  0.25500000920E-02 0.  1.
    10030    2    1    2    0    0  0.00000000000E+00  0.00000000000E+00 -0.13125782407E+04  0.23852080774E+04  0.19915712226E+04 0.  0.
        4    1    3    3  502    0  0.48341074639E+03  0.41804713502E+03 -0.15708573396E+04  0.16958902533E+04  0.12699999809E+01 0.  1.
       -4    1    3    3    0  502 -0.48341074639E+03 -0.41804713502E+03  0.25827909897E+03  0.68931782415E+03  0.12699999809E+01 0. -1.
</event>
<event>
 5   0  0.2256868E-05  0.1997926E+04  0.7818609E-02  0.8607591E-01
        1   -1    0    0  501    0  0.00000000000E+00  0.00000000000E+00  0.10453335869E+04  0.10453335869E+04  0.50400001928E-02 0.  1.
       -1   -1    0    0    0  501  0.00000000000E+00  0.00000000000E+00 -0.95464920638E+03  0.95464920639E+03  0.50400001928E-02 0. -1.
    10030    2    1    2    0    0  0.00000000000E+00  0.00000000000E+00  0.90684380542E+02  0.19999827933E+04  0.19979258036E+04 0.  0.
        5    1    3    3  502    0  0.38944985860E+03  0.20995878123E+03  0.94189307363E+03  0.10406433271E+04  0.46999998093E+01 0.  1.
       -5    1    3    3    0  502 -0.38944985860E+03 -0.20995878123E+03 -0.85120869309E+03  0.95933946618E+03  0.46999998093E+01 0. -1.
</event>
<event>
 5   0  0.2142551E-05  0.1996040E+04  0.7818609E-02  0.8608475E-01
       -1   -1    0    0    0  501  0.00000000000E+00  0.00000000000E+00  0.54105998146E+03  0.54105998149E+03  0.50400001928E-02 0.  1.
        1   -1    0    0  501    0  0.00000000000E+00  0.00000000000E+00 -0.18409115075E+04  0.18409115075E+04  0.50400001928E-02 0. -1.
    10030    2    1    2    0    0  0.00000000000E+00  0.00000000000E+00 -0.12998515261E+04  0.23819714890E+04  0.19960396250E+04 0.  0.
        3    1    3    3  502    0 -0.12048667478E+03 -0.79988491041E+03 -0.13475099754E+04  0.15716602854E+04  0.10100000352E+00 0. -1.
       -3    1    3    3    0  502  0.12048667478E+03  0.79988491041E+03  0.47658449346E+02  0.81031120361E+03  0.10100000352E+00 0.  1.
</event>
<event>
 5   0  0.4412054E-05  0.2000040E+04  0.7818609E-02  0.8606602E-01
        2   -1    0    0  501    0  0.00000000000E+00  0.00000000000E+00  0.76705020570E+03  0.76705020570E+03  0.25500000920E-02 0.  1.
       -2   -1    0    0    0  501  0.00000000000E+00  0.00000000000E+00 -0.13037477926E+04  0.13037477926E+04  0.25500000920E-02 0. -1.
    10030    2    1    2    0    0  0.00000000000E+00  0.00000000000E+00 -0.53669758689E+03  0.20707979983E+04  0.20000400121E+04 0.  0.
        4    1    3    3  502    0 -0.63700844643E+03 -0.24383819109E+03  0.48882468125E+03  0.83915910658E+03  0.12699999809E+01 0.  1.
       -4    1    3    3    0  502  0.63700844643E+03  0.24383819109E+03 -0.10255222681E+04  0.12316388917E+04  0.12699999809E+01 0. -1.
</event>
<event>
 5   0  0.4447313E-05  0.1993221E+04  0.7818609E-02  0.8609797E-01
        2   -1    0    0  501    0  0.00000000000E+00  0.00000000000E+00  0.10542764533E+04  0.10542764533E+04  0.25500000920E-02 0. -1.
       -2   -1    0    0    0  501  0.00000000000E+00  0.00000000000E+00 -0.94209829191E+03  0.94209829191E+03  0.25500000920E-02 0.  1.
    10030    2    1    2    0    0  0.00000000000E+00  0.00000000000E+00  0.11217816142E+03  0.19963747452E+04  0.19932205557E+04 0.  0.
        5    1    3    3  502    0 -0.85244805283E+03 -0.27302112818E+03 -0.38278434887E+03  0.97352666473E+03  0.46999998093E+01 0.  1.
       -5    1    3    3    0  502  0.85244805283E+03  0.27302112818E+03  0.49496251029E+03  0.10228480805E+04  0.46999998093E+01 0. -1.
</event>
<event>
 5   0  0.2256868E-05  0.1999053E+04  0.7818609E-02  0.8607063E-01
       -1   -1    0    0    0  501  0.00000000000E+00  0.00000000000E+00  0.22195618207E+04  0.22195618207E+04  0.50400001928E-02 0. -1.
        1   -1    0    0  501    0  0.00000000000E+00  0.00000000000E+00 -0.45011292366E+03  0.45011292369E+03  0.50400001928E-02 0.  1.
    10030    2    1    2    0    0  0.00000000000E+00  0.00000000000E+00  0.17694488970E+04  0.26696747444E+04  0.19990532363E+04 0.  0.
        5    1    3    3  502    0 -0.98594205881E+03  0.11241820946E+03  0.10444891075E+04  0.14407286985E+04  0.46999998093E+01 0.  1.
       -5    1    3    3    0  502  0.98594205881E+03 -0.11241820946E+03  0.72495978953E+03  0.12289460458E+04  0.46999998093E+01 0. -1.
</event>
<event>
 5   0  0.2142551E-05  0.2001183E+04  0.7818609E-02  0.8606068E-01
       -1   -1    0    0    0  501  0.00000000000E+00  0.00000000000E+00  0.15793458319E+04  0.15793458319E+04  0.50400001928E-02 0. -1.
        1   -1    0    0  501    0  0.00000000000E+00  0.00000000000E+00 -0.63392283791E+03  0.63392283793E+03  0.50400001928E-02 0.  1.
    10030    2    1    2    0    0  0.00000000000E+00  0.00000000000E+00  0.94542299399E+03  0.22132686698E+04  0.20011830419E+04 0.  0.
        3    1    3    3  502    0  0.59266934050E+03  0.47844535994E+03 -0.24491235677E+03  0.80009310853E+03  0.10100000352E+00 0.  1.
       -3    1    3    3    0  502 -0.59266934050E+03 -0.47844535994E+03  0.11903353508E+04  0.14131755613E+04  0.10100000352E+00 0. -1.
</event>
<event>
 5   0  0.4473361E-05  0.1990351E+04  0.7818609E-02  0.8611145E-01
       -2   -1    0    0    0  501  0.00000000000E+00  0.00000000000E+00  0.52550357944E+03  0.52550357945E+03  0.25500000920E-02 0. -1.
        2   -1    0    0  501    0  0.00000000000E+00  0.00000000000E+00 -0.18846202220E+04  0.18846202220E+04  0.25500000920E-02 0.  1.
    10030    2    1    2    0    0  0.00000000000E+00  0.00000000000E+00 -0.13591166426E+04  0.24101238015E+04  0.19903513987E+04 0.  0.
        2    1    3    3  502    0 -0.33465235940E+03 -0.27126959217E+03  0.40674799181E+03  0.59247221212E+03  0.25500000920E-02 0. -1.
       -2    1    3    3    0  502  0.33465235940E+03  0.27126959217E+03 -0.17658646344E+04  0.18176515894E+04  0.25500000920E-02 0.  1.
</event>
<event>
 5   0  0.4447313E-05  0.1982962E+04  0.7818609E-02  0.8614628E-01
       -2   -1    0    0    0  501  0.00000000000E+00  0.00000000000E+00  0.80583208170E+03  0.80583208170E+03  0.25500000920E-02 0. -1.
        2   -1    0    0  501    0  0.00000000000E+00  0.00000000000E+00 -0.12198999719E+04  0.12198999719E+04  0.25500000920E-02 0.  1.
    10030    2    1    2    0    0  0.00000000000E+00  0.00000000000E+00 -0.41406789024E+03  0.20257320536E+04  0.19829619602E+04 0.  0.
        5    1    3    3  502    0  0.50313117596E+03 -0.44716107143E+03 -0.95069002528E+03  0.11648723613E+04  0.46999998093E+01 0.  1.
       -5    1    3    3    0  502 -0.50313117596E+03  0.44716107143E+03  0.53662213505E+03  0.86085969231E+03  0.46999998093E+01 0. -1.
</event>
<event>
 5   0  0.4577279E-05  0.2000632E+04  0.7818609E-02  0.8606325E-01
        2   -1    0    0  501    0  0.00000000000E+00  0.00000000000E+00  0.98064064799E+03  0.98064064799E+03  0.25500000920E-02 0. -1.
       -2   -1    0    0    0  501  0.00000000000E+00  0.00000000000E+00 -0.10203866217E+04  0.10203866217E+04  0.25500000920E-02 0.  1.
    10030    2    1    2    0    0  0.00000000000E+00  0.00000000000E+00 -0.39745973723E+02  0.20010272697E+04  0.20006324979E+04 0.  0.
        1    1    3    3  502    0  0.93780263427E+03 -0.32029659965E+03  0.11642167260E+03  0.99780644339E+03  0.50400001928E-02 0. -1.
       -1    1    3    3    0  502 -0.93780263427E+03  0.32029659965E+03 -0.15616764632E+03  0.10032208263E+04  0.50400001928E-02 0.  1.
</event>
<event>
 5   0  0.4412054E-05  0.2001122E+04  0.7818609E-02  0.8606096E-01
        2   -1    0    0  501    0  0.00000000000E+00  0.00000000000E+00  0.76089590911E+03  0.76089590912E+03  0.25500000920E-02 0. -1.
       -2   -1    0    0    0  501  0.00000000000E+00  0.00000000000E+00 -0.13157151115E+04  0.13157151115E+04  0.25500000920E-02 0.  1.
    10030    2    1    2    0    0  0.00000000000E+00  0.00000000000E+00 -0.55481920240E+03  0.20766110206E+04  0.20011219312E+04 0.  0.
        4    1    3    3  502    0  0.27367598784E+03  0.70132930853E+03 -0.96133094752E+03  0.12210324111E+04  0.12699999809E+01 0.  1.
       -4    1    3    3    0  502 -0.27367598784E+03 -0.70132930853E+03  0.40651174512E+03  0.85557860956E+03  0.12699999809E+01 0. -1.
</event>
<event>
 5   0  0.4447313E-05  0.2007400E+04  0.7818609E-02  0.8603169E-01
        2   -1    0    0  501    0  0.00000000000E+00  0.00000000000E+00  0.62579226838E+03  0.62579226838E+03  0.25500000920E-02 0.  1.
       -2   -1    0    0    0  501  0.00000000000E+00  0.00000000000E+00 -0.16098208765E+04  0.16098208765E+04  0.25500000920E-02 0. -1.
    10030    2    1    2    0    0  0.00000000000E+00  0.00000000000E+00 -0.98402860814E+03  0.22356131449E+04  0.20073997689E+04 0.  0.
        5    1    3    3  502    0 -0.11461405629E+03 -0.99584231922E+03 -0.54828644143E+03  0.11425753448E+04  0.46999998093E+01 0. -1.
       -5    1    3    3    0  502  0.11461405629E+03  0.99584231922E+03 -0.43574216671E+03  0.10930378001E+04  0.46999998093E+01 0.  1.
</event>
<event>
 5   0  0.4514680E-05  0.1998737E+04  0.7818609E-02  0.8607212E-01
       -2   -1    0    0    0  501  0.00000000000E+00  0.00000000000E+00  0.91284624605E+03  0.91284624606E+03  0.25500000920E-02 0. -1.
        2   -1    0    0  501    0  0.00000000000E+00  0.00000000000E+00 -0.10940912038E+04  0.10940912038E+04  0.25500000920E-02 0.  1.
    10030    2    1    2    0    0  0.00000000000E+00  0.00000000000E+00 -0.18124495771E+03  0.20069374498E+04  0.19987366492E+04 0.  0.
        3    1    3    3  502    0  0.96601086297E+03  0.83929895709E+02  0.15227047750E+03  0.98153325123E+03  0.10100000352E+00 0. -1.
       -3    1    3    3    0  502 -0.96601086297E+03 -0.83929895709E+02 -0.33351543520E+03  0.10254041986E+04  0.10100000352E+00 0.  1.
</event>
<event>
 5   0  0.2110896E-05  0.1999025E+04  0.7818609E-02  0.8607077E-01
       -1   -1    0    0    0  501  0.00000000000E+00  0.00000000000E+00  0.11530222479E+04  0.11530222479E+04  0.50400001928E-02 0. -1.
        1   -1    0    0  501    0  0.00000000000E+00  0.00000000000E+00 -0.86644041428E+03  0.86644041430E+03  0.50400001928E-02 0.  1.
    10030    2    1    2    0    0  0.00000000000E+00  0.00000000000E+00  0.28658183358E+03  0.20194626622E+04  0.19990248364E+04 0.  0.
        4    1    3    3  502    0  0.31988786476E+03 -0.31339646914E+03  0.10460026338E+04  0.11378351004E+04  0.12699999809E+01 0. -1.
       -4    1    3    3    0  502 -0.31988786476E+03  0.31339646914E+03 -0.75942080024E+03  0.88162756175E+03  0.12699999809E+01 0.  1.
</event>
<event>
 5   0  0.4447313E-05  0.1999540E+04  0.7818609E-02  0.8606836E-01
       -2   -1    0    0    0  501  0.00000000000E+00  0.00000000000E+00  0.15044176933E+04  0.15044176933E+04  0.25500000920E-02 0.  1.
        2   -1    0    0  501    0  0.00000000000E+00  0.00000000000E+00 -0.66440296902E+03  0.66440296902E+03  0.25500000920E-02 0. -1.
    10030    2    1    2    0    0  0.00000000000E+00  0.00000000000E+00  0.84001472425E+03  0.21688206623E+04  0.19995395290E+04 0.  0.
        5    1    3    3  502    0 -0.30758407540E+03 -0.75392080245E+03  0.10492158033E+04  0.13281116036E+04  0.46999998093E+01 0.  1.
       -5    1    3    3    0  502  0.30758407540E+03  0.75392080245E+03 -0.20920107907E+03  0.84070905864E+03  0.46999998093E+01 0. -1.
</event>
<event>
 5   0  0.2256868E-05  0.1996590E+04  0.7818609E-02  0.8608217E-01
       -1   -1    0    0    0  501  0.00000000000E+00  0.00000000000E+00  0.10900190116E+04  0.10900190117E+04  0.50400001928E-02 0. -1.
        1   -1    0    0  501    0  0.00000000000E+00  0.00000000000E+00 -0.91428914653E+03  0.91428914654E+03  0.50400001928E-02 0.  1.
    10030    2    1    2    0    0  0.00000000000E+00  0.00000000000E+00  0.17572986511E+03  0.20043081582E+04  0.19965896442E+04 0.  0.
        5    1    3    3  502    0  0.49011085324E+03 -0.53715692411E+03 -0.59875601062E+03  0.94195385228E+03  0.46999998093E+01 0.  1.
       -5    1    3    3    0  502 -0.49011085324E+03  0.53715692411E+03  0.77448587573E+03  0.10623543059E+04  0.46999998093E+01 0. -1.
</event>
<event>
 5   0  0.2256868E-05  0.2032608E+04  0.7818609E-02  0.8591525E-01
        1   -1    0    0  501    0  0.00000000000E+00  0.00000000000E+00  0.11865763469E+04  0.11865763469E+04  0.50400001928E-02 0.  1.
       -1   -1    0    0    0  501  0.00000000000E+00  0.00000000000E+00 -0.87046550087E+03  0.87046550088E+03  0.50400001928E-02 0. -1.
    10030    2    1    2    0    0  0.00000000000E+00  0.00000000000E+00  0.31611084607E+03  0.20570418478E+04  0.20326079545E+04 0.  0.
        5    1    3    3  502    0  0.43459397963E+03 -0.44910042712E+03  0.96911844340E+03  0.11531590385E+04  0.46999998093E+01 0.  1.
       -5    1    3    3    0  502 -0.43459397963E+03  0.44910042712E+03 -0.65300759734E+03  0.90388280930E+03  0.46999998093E+01 0. -1.
</event>
<event>
 5   0  0.2256868E-05  0.1998487E+04  0.7818609E-02  0.8607328E-01
        1   -1    0    0  501    0  0.00000000000E+00  0.00000000000E+00  0.12407746009E+04  0.12407746009E+04  0.50400001928E-02 0.  1.
       -1   -1    0    0    0  501  0.00000000000E+00  0.00000000000E+00 -0.80472918356E+03  0.80472918357E+03  0.50400001928E-02 0. -1.
    10030    2    1    2    0    0  0.00000000000E+00  0.00000000000E+00  0.43604541731E+03  0.20455037845E+04  0.19984869592E+04 0.  0.
        5    1    3    3  502    0  0.69409396339E+03  0.35319731326E+03 -0.42276573956E+03  0.88615333473E+03  0.46999998093E+01 0. -1.
       -5    1    3    3    0  502 -0.69409396339E+03 -0.35319731326E+03  0.85881115687E+03  0.11593504497E+04  0.46999998093E+01 0.  1.
</event>
<event>
 5   0  0.2007644E-05  0.1936162E+04  0.7818609E-02  0.8637063E-01
       -1   -1    0    0    0  501  0.00000000000E+00  0.00000000000E+00  0.37075875001E+03  0.37075875005E+03  0.50400001928E-02 0. -1.
        1   -1    0    0  501    0  0.00000000000E+00  0.00000000000E+00 -0.25277376629E+04  0.25277376629E+04  0.50400001928E-02 0.  1.
    10030    2    1    2    0    0  0.00000000000E+00  0.00000000000E+00 -0.21569789128E+04  0.28984964129E+04  0.19361620348E+04 0.  0.
        1    1    3    3  502    0 -0.86687509344E+03 -0.17102652661E+03 -0.16706377039E+04  0.18899081560E+04  0.50400001928E-02 0.  1.
       -1    1    3    3    0  502  0.86687509344E+03  0.17102652661E+03 -0.48634120897E+03  0.10085882569E+04  0.50400001928E-02 0. -1.
</event>
<event>
 5   0  0.4514680E-05  0.2007938E+04  0.7818609E-02  0.8602918E-01
       -2   -1    0    0    0  501  0.00000000000E+00  0.00000000000E+00  0.54158879073E+03  0.54158879073E+03  0.25500000920E-02 0.  1.
        2   -1    0    0  501    0  0.00000000000E+00  0.00000000000E+00 -0.18611053974E+04  0.18611053974E+04  0.25500000920E-02 0. -1.
    10030    2    1    2    0    0  0.00000000000E+00  0.00000000000E+00 -0.13195166067E+04  0.24026941881E+04  0.20079380684E+04 0.  0.
        3    1    3    3  502    0  0.38363021396E+03  0.27168554044E+03  0.40175855765E+03  0.61838104984E+03  0.10100000352E+00 0.  1.
       -3    1    3    3    0  502 -0.38363021396E+03 -0.27168554044E+03 -0.17212751643E+04  0.17843131383E+04  0.10100000352E+00 0. -1.
</event>
<event>
 5   0  0.1601500E-05  0.1988186E+04  0.7818609E-02  0.8612164E-01
        4   -1    0    0  501    0  0.00000000000E+00  0.00000000000E+00  0.54804220677E+03  0.54804367828E+03  0.12699999809E+01 0. -1.
       -4   -1    0    0    0  501  0.00000000000E+00  0.00000000000E+00 -0.18031792484E+04  0.18031796957E+04  0.12699999809E+01 0.  1.
    10030    2    1    2    0    0  0.00000000000E+00  0.00000000000E+00 -0.12551370417E+04  0.23512233740E+04  0.19881856958E+04 0.  0.
        4    1    3    3  502    0 -0.64118211324E+03 -0.56407434152E+03 -0.25808109635E+02  0.85437815780E+03  0.12699999809E+01 0. -1.
       -4    1    3    3    0  502  0.64118211324E+03  0.56407434152E+03 -0.12293289320E+04  0.14968452162E+04  0.12699999809E+01 0.  1.
</event>
<event>
 5   0  0.2110896E-05  0.1985273E+04  0.7818609E-02  0.8613537E-01
        1   -1    0    0  501    0  0.00000000000E+00  0.00000000000E+00  0.84733236876E+03  0.84733236878E+03  0.50400001928E-02 0.  1.
       -1   -1    0    0    0  501  0.00000000000E+00  0.00000000000E+00 -0.11628584579E+04  0.11628584579E+04  0.50400001928E-02 0. -1.
    10030    2    1    2    0    0  0.00000000000E+00  0.00000000000E+00 -0.31552608910E+03  0.20101908266E+04  0.19852733934E+04 0.  0.
        4    1    3    3  502    0  0.12548078349E+03  0.32921846461E+03 -0.10974169208E+04  0.11525865414E+04  0.12699999809E+01 0. -1.
       -4    1    3    3    0  502 -0.12548078349E+03 -0.32921846461E+03  0.78189083171E+03  0.85760428524E+03  0.12699999809E+01 0.  1.
</event>
<event>
 5   0  0.4473361E-05  0.2000229E+04  0.7818609E-02  0.8606514E-01
        2   -1    0    0  501    0  0.00000000000E+00  0.00000000000E+00  0.73954923835E+03  0.73954923836E+03  0.25500000920E-02 0.  1.
       -2   -1    0    0    0  501  0.00000000000E+00  0.00000000000E+00 -0.13524844476E+04  0.13524844476E+04  0.25500000920E-02 0. -1.
    10030    2    1    2    0    0  0.00000000000E+00  0.00000000000E+00 -0.61293520926E+03  0.20920336860E+04  0.20002288300E+04 0.  0.
        2    1    3    3  502    0 -0.80446033316E+03  0.44032684172E+03  0.11082398895E+03  0.92375652187E+03  0.25500000920E-02 0.  1.
       -2    1    3    3    0  502  0.80446033316E+03 -0.44032684172E+03 -0.72375919821E+03  0.11682771641E+04  0.25500000920E-02 0. -1.
</event>
<event>
 5   0  0.4473361E-05  0.2091634E+04  0.7818609E-02  0.8564938E-01
       -2   -1    0    0    0  501  0.00000000000E+00  0.00000000000E+00  0.69088331425E+03  0.69088331426E+03  0.25500000920E-02 0. -1.
        2   -1    0    0  501    0  0.00000000000E+00  0.00000000000E+00 -0.15830933255E+04  0.15830933255E+04  0.25500000920E-02 0.  1.
    10030    2    1    2    0    0  0.00000000000E+00  0.00000000000E+00 -0.89221001121E+03  0.22739766397E+04  0.20916335850E+04 0.  0.
        2    1    3    3  502    0  0.86417531206E+03  0.44120358284E+03 -0.21864513272E+02  0.97053471264E+03  0.25500000920E-02 0. -1.
       -2    1    3    3    0  502 -0.86417531206E+03 -0.44120358284E+03 -0.87034549794E+03  0.13034419271E+04  0.25500000920E-02 0.  1.
</event>
<event>
 5   0  0.2007644E-05  0.1996123E+04  0.7818609E-02  0.8608436E-01
        1   -1    0    0  501    0  0.00000000000E+00  0.00000000000E+00  0.10332272407E+04  0.10332272408E+04  0.50400001928E-02 0.  1.
       -1   -1    0    0    0  501  0.00000000000E+00  0.00000000000E+00 -0.96409225581E+03  0.96409225582E+03  0.50400001928E-02 0. -1.
    10030    2    1    2    0    0  0.00000000000E+00  0.00000000000E+00  0.69134984933E+02  0.19973194966E+04  0.19961226228E+04 0.  0.
        1    1    3    3  502    0 -0.58561027932E+03  0.32810726627E+03 -0.70447716245E+03  0.97307854249E+03  0.50400001928E-02 0. -1.
       -1    1    3    3    0  502  0.58561027932E+03 -0.32810726627E+03  0.77361214738E+03  0.10242409541E+04  0.50400001928E-02 0.  1.
</event>
<event>
 5   0  0.4447313E-05  0.1993976E+04  0.7818609E-02  0.8609442E-01
       -2   -1    0    0    0  501  0.00000000000E+00  0.00000000000E+00  0.48904441062E+03  0.48904441062E+03  0.25500000920E-02 0.  1.
        2   -1    0    0  501    0  0.00000000000E+00  0.00000000000E+00 -0.20325052303E+04  0.20325052303E+04  0.25500000920E-02 0. -1.
    10030    2    1    2    0    0  0.00000000000E+00  0.00000000000E+00 -0.15434608197E+04  0.25215496409E+04  0.19939762510E+04 0.  0.
        5    1    3    3  502    0  0.43546483554E+03  0.89450044617E+03 -0.68975104182E+03  0.12105945898E+04  0.46999998093E+01 0.  1.
       -5    1    3    3    0  502 -0.43546483554E+03 -0.89450044617E+03 -0.85370977784E+03  0.13109550511E+04  0.46999998093E+01 0. -1.
</event>
<event>
 5   0  0.2142551E-05  0.1963180E+04  0.7818609E-02  0.8624031E-01
       -1   -1    0    0    0  501  0.00000000000E+00  0.00000000000E+00  0.59307302900E+03  0.59307302902E+03  0.50400001928E-02 0.  1.
        1   -1    0    0  501    0  0.00000000000E+00  0.00000000000E+00 -0.16246217025E+04  0.16246217025E+04  0.50400001928E-02 0. -1.
    10030    2    1    2    0    0  0.00000000000E+00  0.00000000000E+00 -0.10315486735E+04  0.22176947316E+04  0.19631803933E+04 0.  0.
        3    1    3    3  502    0 -0.18033466651E+03  0.19088384690E+03  0.55265744078E+03  0.61187212063E+03  0.10100000352E+00 0.  1.
       -3    1    3    3    0  502  0.18033466651E+03 -0.19088384690E+03 -0.15842061143E+04  0.16058226109E+04  0.10100000352E+00 0. -1.
</event>
<event>
 5   0  0.4412054E-05  0.2003867E+04  0.7818609E-02  0.8604815E-01
        2   -1    0    0  501    0  0.00000000000E+00  0.00000000000E+00  0.10116830286E+04  0.10116830287E+04  0.25500000920E-02 0. -1.
       -2   -1    0    0    0  501  0.00000000000E+00  0.00000000000E+00 -0.99227749190E+03  0.99227749190E+03  0.25500000920E-02 0.  1.
    10030    2    1    2    0    0  0.00000000000E+00  0.00000000000E+00  0.19405536748E+02  0.20039605206E+04  0.20038665607E+04 0.  0.
        4    1    3    3  502    0  0.67367120130E+03 -0.42754518500E+03 -0.59632970008E+03  0.99611168891E+03  0.12699999809E+01 0.  1.
       -4    1    3    3    0  502 -0.67367120130E+03  0.42754518500E+03  0.61573523683E+03  0.10078488316E+04  0.12699999809E+01 0. -1.
</event>
<event>
 5   0  0.1601500E-05  0.2000890E+04  0.7818609E-02  0.8606205E-01
        3   -1    0    0  501    0  0.00000000000E+00  0.00000000000E+00  0.72574645739E+03  0.72574646442E+03  0.10100000352E+00 0.  1.
       -3   -1    0    0    0  501  0.00000000000E+00  0.00000000000E+00 -0.13791177051E+04  0.13791177088E+04  0.10100000352E+00 0. -1.
    10030    2    1    2    0    0  0.00000000000E+00  0.00000000000E+00 -0.65337124769E+03  0.21048641732E+04  0.20008896022E+04 0.  0.
        5    1    3    3  502    0  0.42066413556E+03  0.81084432158E+03  0.10248595321E+03  0.91921286402E+03  0.46999998093E+01 0.  1.
       -5    1    3    3    0  502 -0.42066413556E+03 -0.81084432158E+03 -0.75585720090E+03  0.11856513092E+04  0.46999998093E+01 0. -1.
</event>
<event>
 5   0  0.1601500E-05  0.1991797E+04  0.7818609E-02  0.8610466E-01
        4   -1    0    0  501    0  0.00000000000E+00  0.00000000000E+00  0.10737998407E+04  0.10738005918E+04  0.12699999809E+01 0.  1.
       -4   -1    0    0    0  501  0.00000000000E+00  0.00000000000E+00 -0.92364695709E+03  0.92364783020E+03  0.12699999809E+01 0. -1.
    10030    2    1    2    0    0  0.00000000000E+00  0.00000000000E+00  0.15015288366E+03  0.19974484220E+04  0.19917967542E+04 0.  0.
        4    1    3    3  502    0 -0.86063739118E+03  0.24322504878E+03  0.51444839234E+03  0.10317528312E+04  0.12699999809E+01 0.  1.
       -4    1    3    3    0  502  0.86063739118E+03 -0.24322504878E+03 -0.36429550869E+03  0.96569559075E+03  0.12699999809E+01 0. -1.
</event>
<event>
 5   0  0.2007644E-05  0.2022706E+04  0.7818609E-02  0.8596078E-01
       -1   -1    0    0    0  501  0.00000000000E+00  0.00000000000E+00  0.52894528855E+03  0.52894528858E+03  0.50400001928E-02 0.  1.
        1   -1    0    0  501    0  0.00000000000E+00  0.00000000000E+00 -0.19337255533E+04  0.19337255533E+04  0.50400001928E-02 0. -1.
    10030    2    1    2    0    0  0.00000000000E+00  0.00000000000E+00 -0.14047802648E+04  0.24626708419E+04  0.20227061287E+04 0.  0.
        1    1    3    3  502    0 -0.11395415626E+03 -0.16017219843E+03  0.50546266395E+03  0.54234047199E+03  0.50400001928E-02 0.  1.
       -1    1    3    3    0  502  0.11395415626E+03  0.16017219843E+03 -0.19102429287E+04  0.19203303699E+04  0.50400001928E-02 0. -1.
</event>
<event>
 5   0  0.2007644E-05  0.1997619E+04  0.7818609E-02  0.8607735E-01
       -1   -1    0    0    0  501  0.00000000000E+00  0.00000000000E+00  0.85716597924E+03  0.85716597925E+03  0.50400001928E-02 0.  1.
        1   -1    0    0  501    0  0.00000000000E+00  0.00000000000E+00 -0.11638586298E+04  0.11638586298E+04  0.50400001928E-02 0. -1.
    10030    2    1    2    0    0  0.00000000000E+00  0.00000000000E+00 -0.30669265053E+03  0.20210246090E+04  0.19976186043E+04 0.  0.
        1    1    3    3  502    0  0.98140576904E+03  0.80978596233E+02 -0.32235213747E+03  0.10361591177E+04  0.50400001928E-02 0. -1.
       -1    1    3    3    0  502 -0.98140576904E+03 -0.80978596233E+02  0.15659486937E+02  0.98486549138E+03  0.50400001928E-02 0.  1.
</event>
<event>
 5   0  0.2142551E-05  0.2041794E+04  0.7818609E-02  0.8587326E-01
        1   -1    0    0  501    0  0.00000000000E+00  0.00000000000E+00  0.23256165394E+04  0.23256165394E+04  0.50400001928E-02 0. -1.
       -1   -1    0    0    0  501  0.00000000000E+00  0.00000000000E+00 -0.44815242064E+03  0.44815242067E+03  0.50400001928E-02 0.  1.
    10030    2    1    2    0    0  0.00000000000E+00  0.00000000000E+00  0.18774641188E+04  0.27737689601E+04  0.20417939971E+04 0.  0.
        3    1    3    3  502    0 -0.19988883366E+03 -0.66615372613E+03  0.19539879661E+04  0.20740745682E+04  0.10100000352E+00 0. -1.
       -3    1    3    3    0  502  0.19988883366E+03  0.66615372613E+03 -0.76523847289E+02  0.69969439191E+03  0.10100000352E+00 0.  1.
</event>
<event>
 5   0  0.4412054E-05  0.1999503E+04  0.7818609E-02  0.8606853E-01
        2   -1    0    0  501    0  0.00000000000E+00  0.00000000000E+00  0.10158466214E+04  0.10158466214E+04  0.25500000920E-02 0. -1.
       -2   -1    0    0    0  501  0.00000000000E+00  0.00000000000E+00 -0.98391098459E+03  0.98391098460E+03  0.25500000920E-02 0.  1.
    10030    2    1    2    0    0  0.00000000000E+00  0.00000000000E+00  0.31935636830E+02  0.19997576060E+04  0.19995025876E+04 0.  0.
        4    1    3    3  502    0  0.40526260454E+03  0.53157638507E+03 -0.72755810239E+03  0.98800487704E+03  0.12699999809E+01 0.  1.
       -4    1    3    3    0  502 -0.40526260454E+03 -0.53157638507E+03  0.75949373922E+03  0.10117527290E+04  0.12699999809E+01 0. -1.
</event>
<event>
 5   0  0.4577279E-05  0.2003684E+04  0.7818609E-02  0.8604900E-01
       -2   -1    0    0    0  501  0.00000000000E+00  0.00000000000E+00  0.81846891563E+03  0.81846891564E+03  0.25500000920E-02 0.  1.
        2   -1    0    0  501    0  0.00000000000E+00  0.00000000000E+00 -0.12262985680E+04  0.12262985680E+04  0.25500000920E-02 0. -1.
    10030    2    1    2    0    0  0.00000000000E+00  0.00000000000E+00 -0.40782965232E+03  0.20447674836E+04  0.20036838664E+04 0.  0.
        1    1    3    3  502    0 -0.45326674551E+03 -0.57857274721E+03 -0.89867506642E+03  0.11609539360E+04  0.50400001928E-02 0. -1.
       -1    1    3    3    0  502  0.45326674551E+03  0.57857274721E+03  0.49084541410E+03  0.88381354763E+03  0.50400001928E-02 0.  1.
</event>
<event>
 5   0  0.1601500E-05  0.2014789E+04  0.7818609E-02  0.8599737E-01
        4   -1    0    0  501    0  0.00000000000E+00  0.00000000000E+00  0.11089653751E+04  0.11089661024E+04  0.12699999809E+01 0. -1.
       -4   -1    0    0    0  501  0.00000000000E+00  0.00000000000E+00 -0.91512529434E+03  0.91512617558E+03  0.12699999809E+01 0.  1.
    10030    2    1    2    0    0  0.00000000000E+00  0.00000000000E+00  0.19384008080E+03  0.20240922779E+04  0.20147892130E+04 0.  0.
        4    1    3    3  502    0 -0.63822057145E+03 -0.33735186860E+03 -0.60896970440E+03  0.94444560185E+03  0.12699999809E+01 0.  1.
       -4    1    3    3    0  502  0.63822057145E+03  0.33735186860E+03  0.80280978520E+03  0.10796466761E+04  0.12699999809E+01 0. -1.
</event>
<event>
 5   0  0.2093980E-05  0.1999223E+04  0.7818609E-02  0.8606984E-01
       -1   -1    0    0    0  501  0.00000000000E+00  0.00000000000E+00  0.15320925259E+04  0.15320925259E+04  0.50400001928E-02 0.  1.
        1   -1    0    0  501    0  0.00000000000E+00  0.00000000000E+00 -0.65219483184E+03  0.65219483186E+03  0.50400001928E-02 0. -1.
    10030    2    1    2    0    0  0.00000000000E+00  0.00000000000E+00  0.87989769404E+03  0.21842873577E+04  0.19992226762E+04 0.  0.
        2    1    3    3  502    0  0.66170515456E+02  0.65155980512E+03 -0.38514939437E+03  0.75976889431E+03  0.25500000920E-02 0. -1.
       -2    1    3    3    0  502 -0.66170515456E+02 -0.65155980512E+03  0.12650470884E+04  0.14245184634E+04  0.25500000920E-02 0.  1.
</event>
<event>
 5   0  0.2256868E-05  0.1998492E+04  0.7818609E-02  0.8607326E-01
       -1   -1    0    0    0  501  0.00000000000E+00  0.00000000000E+00  0.61629225137E+03  0.61629225139E+03  0.50400001928E-02 0.  1.
        1   -1    0    0  501    0  0.00000000000E+00  0.00000000000E+00 -0.16201605797E+04  0.16201605798E+04  0.50400001928E-02 0. -1.
    10030    2    1    2    0    0  0.00000000000E+00  0.00000000000E+00 -0.10038683284E+04  0.22364528311E+04  0.19984918427E+04 0.  0.
        5    1    3    3  502    0  0.10910828503E+03  0.66867005950E+03  0.31998929034E+03  0.74929266796E+03  0.46999998093E+01 0.  1.
       -5    1    3    3    0  502 -0.10910828503E+03 -0.66867005950E+03 -0.13238576187E+04  0.14871601632E+04  0.46999998093E+01 0. -1.
</event>
<event>
 5   0  0.4412054E-05  0.1999289E+04  0.7818609E-02  0.8606953E-01
       -2   -1    0    0    0  501  0.00000000000E+00  0.00000000000E+00  0.14914799031E+04  0.14914799031E+04  0.25500000920E-02 0. -1.
        2   -1    0    0  501    0  0.00000000000E+00  0.00000000000E+00 -0.66999860508E+03  0.66999860509E+03  0.25500000920E-02 0.  1.
    10030    2    1    2    0    0  0.00000000000E+00  0.00000000000E+00  0.82148129805E+03  0.21614785082E+04  0.19992893284E+04 0.  0.
        4    1    3    3  502    0 -0.36674803172E+03  0.29698684137E+03  0.13634689902E+04  0.14428286811E+04  0.12699999809E+01 0. -1.
       -4    1    3    3    0  502  0.36674803172E+03 -0.29698684137E+03 -0.54198769217E+03  0.71864982716E+03  0.12699999809E+01 0.  1.
</event>
<event>
 5   0  0.2142551E-05  0.2045752E+04  0.7818609E-02  0.8585524E-01
       -1   -1    0    0    0  501  0.00000000000E+00  0.00000000000E+00  0.57849878599E+03  0.57849878601E+03  0.50400001928E-02 0.  1.
        1   -1    0    0  501    0  0.00000000000E+00  0.00000000000E+00 -0.18086043706E+04  0.18086043706E+04  0.50400001928E-02 0. -1.
    10030    2    1    2    0    0  0.00000000000E+00  0.00000000000E+00 -0.12301055846E+04  0.23871031566E+04  0.20457521187E+04 0.  0.
        3    1    3    3  502    0 -0.23946431459E+02 -0.53082273333E+03 -0.16349226056E+04  0.17191038777E+04  0.10100000352E+00 0. -1.
       -3    1    3    3    0  502  0.23946431459E+02  0.53082273333E+03  0.40481702107E+03  0.66799927885E+03  0.10100000352E+00 0.  1.
</event>
<event>
 5   0  0.4412054E-05  0.2004447E+04  0.7818609E-02  0.8604544E-01
       -2   -1    0    0    0  501  0.00000000000E+00  0.00000000000E+00  0.94094400323E+03  0.94094400324E+03  0.25500000920E-02 0.  1.
        2   -1    0    0  501    0  0.00000000000E+00  0.00000000000E+00 -0.10674938975E+04  0.10674938975E+04  0.25500000920E-02 0. -1.
    10030    2    1    2    0    0  0.00000000000E+00  0.00000000000E+00 -0.12654989422E+03  0.20084379007E+04  0.20044470373E+04 0.  0.
        4    1    3    3  502    0  0.49771570586E+03  0.24227942781E+03  0.77387047212E+03  0.95147115854E+03  0.12699999809E+01 0.  1.
       -4    1    3    3    0  502 -0.49771570586E+03 -0.24227942781E+03 -0.90042036634E+03  0.10569667422E+04  0.12699999809E+01 0. -1.
</event>
<event>
 5   0  0.2007644E-05  0.1999004E+04  0.7818609E-02  0.8607086E-01
       -1   -1    0    0    0  501  0.00000000000E+00  0.00000000000E+00  0.90261478124E+03  0.90261478125E+03  0.50400001928E-02 0.  1.
        1   -1    0    0  501    0  0.00000000000E+00  0.00000000000E+00 -0.11067897042E+04  0.11067897042E+04  0.50400001928E-02 0. -1.
    10030    2    1    2    0    0  0.00000000000E+00  0.00000000000E+00 -0.20417492292E+03  0.20094044854E+04  0.19990044990E+04 0.  0.
        1    1    3    3  502    0 -0.94990237916E+03 -0.18886549036E+03 -0.35039496957E+03  0.10299326862E+04  0.50400001928E-02 0.  1.
       -1    1    3    3    0  502  0.94990237916E+03  0.18886549036E+03  0.14622004665E+03  0.97947179921E+03  0.50400001928E-02 0. -1.
</event>
<event>
 5   0  0.2007644E-05  0.2006584E+04  0.7818609E-02  0.8603548E-01
       -1   -1    0    0    0  501  0.00000000000E+00  0.00000000000E+00  0.51504915462E+03  0.51504915465E+03  0.50400001928E-02 0.  1.
        1   -1    0    0  501    0  0.00000000000E+00  0.00000000000E+00 -0.19543671166E+04  0.19543671166E+04  0.50400001928E-02 0. -1.
    10030    2    1    2    0    0  0.00000000000E+00  0.00000000000E+00 -0.14393179619E+04  0.24694162712E+04  0.20065842930E+04 0.  0.
        1    1    3    3  502    0 -0.45764093130E+03 -0.88049965972E+03 -0.90169742759E+03  0.13408106219E+04  0.50400001928E-02 0.  1.
       -1    1    3    3    0  502  0.45764093130E+03  0.88049965972E+03 -0.53762053436E+03  0.11286056494E+04  0.50400001928E-02 0. -1.
</event>
<event>
 5   0  0.4412054E-05  0.2002415E+04  0.7818609E-02  0.8605492E-01
        2   -1    0    0  501    0  0.00000000000E+00  0.00000000000E+00  0.16703031094E+04  0.16703031094E+04  0.25500000920E-02 0. -1.
       -2   -1    0    0    0  501  0.00000000000E+00  0.00000000000E+00 -0.60014046150E+03  0.60014046150E+03  0.25500000920E-02 0.  1.
    10030    2    1    2    0    0  0.00000000000E+00  0.00000000000E+00  0.10701626479E+04  0.22704435709E+04  0.20024150208E+04 0.  0.
        4    1    3    3  502    0  0.16847940717E+03  0.27440759029E+03 -0.53982655130E+03  0.62856913274E+03  0.12699999809E+01 0.  1.
       -4    1    3    3    0  502 -0.16847940717E+03 -0.27440759029E+03  0.16099891992E+04  0.16418744382E+04  0.12699999809E+01 0. -1.
</event>
<event>
 5   0  0.4577279E-05  0.1879102E+04  0.7818609E-02  0.8665329E-01
       -2   -1    0    0    0  501  0.00000000000E+00  0.00000000000E+00  0.96977273742E+03  0.96977273742E+03  0.25500000920E-02 0.  1.
        2   -1    0    0  501    0  0.00000000000E+00  0.00000000000E+00 -0.91027061479E+03  0.91027061480E+03  0.25500000920E-02 0. -1.
    10030    2    1    2    0    0  0.00000000000E+00  0.00000000000E+00  0.59502122622E+02  0.18800433522E+04  0.18791015150E+04 0.  0.
        1    1    3    3  502    0 -0.33086318060E+03  0.60062418352E+03 -0.61286034157E+03  0.91968345229E+03  0.50400001928E-02 0. -1.
       -1    1    3    3    0  502  0.33086318060E+03 -0.60062418352E+03  0.67236246420E+03  0.96035989993E+03  0.50400001928E-02 0.  1.
</event>
<event>
 5   0  0.4473361E-05  0.2053278E+04  0.7818609E-02  0.8582109E-01
        2   -1    0    0  501    0  0.00000000000E+00  0.00000000000E+00  0.24397431422E+04  0.24397431422E+04  0.25500000920E-02 0.  1.
       -2   -1    0    0    0  501  0.00000000000E+00  0.00000000000E+00 -0.43200778594E+03  0.43200778594E+03  0.25500000920E-02 0. -1.
    10030    2    1    2    0    0  0.00000000000E+00  0.00000000000E+00  0.20077353563E+04  0.28717509282E+04  0.20532783865E+04 0.  0.
        2    1    3    3  502    0 -0.61573159630E+03  0.44182061914E+03  0.19725121563E+04  0.21130866203E+04  0.25500000920E-02 0.  1.
       -2    1    3    3    0  502  0.61573159630E+03 -0.44182061914E+03  0.35223199981E+02  0.75866430785E+03  0.25500000920E-02 0. -1.
</event>
<event>
 5   0  0.4412054E-05  0.1989322E+04  0.7818609E-02  0.8611629E-01
       -2   -1    0    0    0  501  0.00000000000E+00  0.00000000000E+00  0.11949189275E+04  0.11949189276E+04  0.25500000920E-02 0.  1.
        2   -1    0    0  501    0  0.00000000000E+00  0.00000000000E+00 -0.82796473351E+03  0.82796473351E+03  0.25500000920E-02 0. -1.
    10030    2    1    2    0    0  0.00000000000E+00  0.00000000000E+00  0.36695419404E+03  0.20228836611E+04  0.19893222277E+04 0.  0.
        4    1    3    3  502    0  0.11438567503E+03  0.21537671728E+03  0.11640473986E+04  0.11893187849E+04  0.12699999809E+01 0.  1.
       -4    1    3    3    0  502 -0.11438567503E+03 -0.21537671728E+03 -0.79709320460E+03  0.83356487613E+03  0.12699999809E+01 0. -1.
</event>
<event>
 5   0  0.2007644E-05  0.1997636E+04  0.7818609E-02  0.8607726E-01
        1   -1    0    0  501    0  0.00000000000E+00  0.00000000000E+00  0.11172745368E+04  0.11172745368E+04  0.50400001928E-02 0.  1.
       -1   -1    0    0    0  501  0.00000000000E+00  0.00000000000E+00 -0.89292098312E+03  0.89292098314E+03  0.50400001928E-02 0. -1.
    10030    2    1    2    0    0  0.00000000000E+00  0.00000000000E+00  0.22435355365E+03  0.20101955199E+04  0.19976364813E+04 0.  0.
        1    1    3    3  502    0 -0.96406884523E+03  0.60961114976E+02 -0.14337430997E+03  0.97657625850E+03  0.50400001928E-02 0. -1.
       -1    1    3    3    0  502  0.96406884523E+03 -0.60961114976E+02  0.36772786362E+03  0.10336192614E+04  0.50400001928E-02 0.  1.
</event>
<event>
 5   0  0.2142551E-05  0.1997471E+04  0.7818609E-02  0.8607804E-01
        1   -1    0    0  501    0  0.00000000000E+00  0.00000000000E+00  0.14619278464E+04  0.14619278464E+04  0.50400001928E-02 0. -1.
       -1   -1    0    0    0  501  0.00000000000E+00  0.00000000000E+00 -0.68229936482E+03  0.68229936484E+03  0.50400001928E-02 0.  1.
    10030    2    1    2    0    0  0.00000000000E+00  0.00000000000E+00  0.77962848159E+03  0.21442272113E+04  0.19974708419E+04 0.  0.
        3    1    3    3  502    0  0.92919251495E+01 -0.56482372658E+03  0.12739532451E+04  0.13935813800E+04  0.10100000352E+00 0. -1.
       -3    1    3    3    0  502 -0.92919251495E+01  0.56482372658E+03 -0.49432476346E+03  0.75064583124E+03  0.10100000352E+00 0.  1.
</event>
<event>
 5   0  0.4473361E-05  0.1994555E+04  0.7818609E-02  0.8609170E-01
        2   -1    0    0  501    0  0.00000000000E+00  0.00000000000E+00  0.10473952269E+04  0.10473952269E+04  0.25500000920E-02 0.  1.
       -2   -1    0    0    0  501  0.00000000000E+00  0.00000000000E+00 -0.94955813668E+03  0.94955813668E+03  0.25500000920E-02 0. -1.
    10030    2    1    2    0    0  0.00000000000E+00  0.00000000000E+00  0.97837090230E+02  0.19969533636E+04  0.19945552487E+04 0.  0.
        2    1    3    3  502    0 -0.47210735662E+03  0.48562331644E+03 -0.68397749407E+03  0.96256977620E+03  0.25500000920E-02 0. -1.
       -2    1    3    3    0  502  0.47210735662E+03 -0.48562331644E+03  0.78181458430E+03  0.10343835874E+04  0.25500000920E-02 0.  1.
</event>
<event>
 5   0  0.2093980E-05  0.1991976E+04  0.7818609E-02  0.8610381E-01
       -1   -1    0    0    0  501  0.00000000000E+00  0.00000000000E+00  0.61540034102E+03  0.61540034104E+03  0.50400001928E-02 0. -1.
        1   -1    0    0  501    0  0.00000000000E+00  0.00000000000E+00 -0.16119457715E+04  0.16119457715E+04  0.50400001928E-02 0.  1.
    10030    2    1    2    0    0  0.00000000000E+00  0.00000000000E+00 -0.99654543043E+03  0.22273461125E+04  0.19919758809E+04 0.  0.
        2    1    3    3  502    0  0.55647627211E+02 -0.87239139687E+03  0.35440215037E+02  0.87488251588E+03  0.25500000920E-02 0. -1.
       -2    1    3    3    0  502 -0.55647627211E+02  0.87239139687E+03 -0.10319856455E+04  0.13524635966E+04  0.25500000920E-02 0.  1.
</event>
<event>
 5   0  0.2110896E-05  0.1998756E+04  0.7818609E-02  0.8607202E-01
       -1   -1    0    0    0  501  0.00000000000E+00  0.00000000000E+00  0.33947481992E+03  0.33947481995E+03  0.50400001928E-02 0.  1.
        1   -1    0    0  501    0  0.00000000000E+00  0.00000000000E+00 -0.29420639387E+04  0.29420639387E+04  0.50400001928E-02 0. -1.
    10030    2    1    2    0    0  0.00000000000E+00  0.00000000000E+00 -0.26025891188E+04  0.32815387587E+04  0.19987562391E+04 0.  0.
        4    1    3    3  502    0  0.20057202274E+03 -0.84942140392E+02  0.30002828256E+03  0.37075987750E+03  0.12699999809E+01 0.  1.
       -4    1    3    3    0  502 -0.20057202274E+03  0.84942140392E+02 -0.29026174014E+04  0.29107788812E+04  0.12699999809E+01 0. -1.
</event>
<event>
 5   0  0.2110896E-05  0.2000201E+04  0.7818609E-02  0.8606527E-01
       -1   -1    0    0    0  501  0.00000000000E+00  0.00000000000E+00  0.92377083483E+03  0.92377083485E+03  0.50400001928E-02 0.  1.
        1   -1    0    0  501    0  0.00000000000E+00  0.00000000000E+00 -0.10827368851E+04  0.10827368851E+04  0.50400001928E-02 0. -1.
    10030    2    1    2    0    0  0.00000000000E+00  0.00000000000E+00 -0.15896605028E+03  0.20065077200E+04  0.20002007462E+04 0.  0.
        4    1    3    3  502    0 -0.69852773988E+03  0.39760289652E+03 -0.67648144659E+03  0.10505512016E+04  0.12699999809E+01 0. -1.
       -4    1    3    3    0  502  0.69852773988E+03 -0.39760289652E+03  0.51751539631E+03  0.95595651837E+03  0.12699999809E+01 0.  1.
</event>
<event>
 5   0  0.4473361E-05  0.2013291E+04  0.7818609E-02  0.8600432E-01
        2   -1    0    0  501    0  0.00000000000E+00  0.00000000000E+00  0.10072730746E+04  0.10072730746E+04  0.25500000920E-02 0. -1.
       -2   -1    0    0    0  501  0.00000000000E+00  0.00000000000E+00 -0.10060180968E+04  0.10060180968E+04  0.25500000920E-02 0.  1.
    10030    2    1    2    0    0  0.00000000000E+00  0.00000000000E+00  0.12549777732E+01  0.20132911714E+04  0.20132907803E+04 0.  0.
        2    1    3    3  502    0 -0.69361971870E+03  0.28203581126E+02  0.72962089888E+03  0.10071000011E+04  0.25500000920E-02 0. -1.
       -2    1    3    3    0  502  0.69361971870E+03 -0.28203581126E+02 -0.72836592111E+03  0.10061911703E+04  0.25500000920E-02 0.  1.
</event>
<event>
 5   0  0.2007644E-05  0.2016115E+04  0.7818609E-02  0.8599123E-01
        1   -1    0    0  501    0  0.00000000000E+00  0.00000000000E+00  0.12967296745E+04  0.12967296745E+04  0.50400001928E-02 0. -1.
       -1   -1    0    0    0  501  0.00000000000E+00  0.00000000000E+00 -0.78364862045E+03  0.78364862046E+03  0.50400001928E-02 0.  1.
    10030    2    1    2    0    0  0.00000000000E+00  0.00000000000E+00  0.51308105408E+03  0.20803782950E+04  0.20161154933E+04 0.  0.
        1    1    3    3  502    0  0.78936312677E+03 -0.62621483743E+03  0.22488279022E+03  0.10323814401E+04  0.50400001928E-02 0. -1.
       -1    1    3    3    0  502 -0.78936312677E+03  0.62621483743E+03  0.28819826385E+03  0.10479968549E+04  0.50400001928E-02 0.  1.
</event>
<event>
 5   0  0.4473361E-05  0.2001553E+04  0.7818609E-02  0.8605895E-01
        2   -1    0    0  501    0  0.00000000000E+00  0.00000000000E+00  0.17277716997E+04  0.17277716997E+04  0.25500000920E-02 0. -1.
       -2   -1    0    0    0  501  0.00000000000E+00  0.00000000000E+00 -0.57967963604E+03  0.57967963605E+03  0.25500000920E-02 0.  1.
    10030    2    1    2    0    0  0.00000000000E+00  0.00000000000E+00  0.11480920636E+04  0.23074513357E+04  0.20015534667E+04 0.  0.
        2    1    3    3  502    0  0.14955408027E+03 -0.97740506520E+03  0.75214612249E+03  0.12423408848E+04  0.25500000920E-02 0. -1.
       -2    1    3    3    0  502 -0.14955408027E+03  0.97740506520E+03  0.39594594115E+03  0.10651104510E+04  0.25500000920E-02 0.  1.
</event>
<event>
 5   0  0.4473361E-05  0.1992859E+04  0.7818609E-02  0.8609967E-01
       -2   -1    0    0    0  501  0.00000000000E+00  0.00000000000E+00  0.94941897534E+03  0.94941897534E+03  0.25500000920E-02 0.  1.
        2   -1    0    0  501    0  0.00000000000E+00  0.00000000000E+00 -0.10457674833E+04  0.10457674833E+04  0.25500000920E-02 0. -1.
    10030    2    1    2    0    0  0.00000000000E+00  0.00000000000E+00 -0.96348507993E+02  0.19951864587E+04  0.19928587431E+04 0.  0.
        2    1    3    3  502    0  0.58325972296E+02 -0.20981741726E+03  0.92530205838E+03  0.95058359279E+03  0.25500000920E-02 0.  1.
       -2    1    3    3    0  502 -0.58325972296E+02  0.20981741726E+03 -0.10216505664E+04  0.10446028659E+04  0.25500000920E-02 0. -1.
</event>
<event>
 5   0  0.4473361E-05  0.2009779E+04  0.7818609E-02  0.8602062E-01
        2   -1    0    0  501    0  0.00000000000E+00  0.00000000000E+00  0.17217778967E+04  0.17217778967E+04  0.25500000920E-02 0. -1.
       -2   -1    0    0    0  501  0.00000000000E+00  0.00000000000E+00 -0.58648850586E+03  0.58648850587E+03  0.25500000920E-02 0.  1.
    10030    2    1    2    0    0  0.00000000000E+00  0.00000000000E+00  0.11352893908E+04  0.23082664026E+04  0.20097790387E+04 0.  0.
        2    1    3    3  502    0 -0.32409789100E+03  0.93825888437E+03  0.74717296709E+03  0.12424317365E+04  0.25500000920E-02 0. -1.
       -2    1    3    3    0  502  0.32409789100E+03 -0.93825888437E+03  0.38811642373E+03  0.10658346661E+04  0.25500000920E-02 0.  1.
</event>
<event>
 5   0  0.4577279E-05  0.2001452E+04  0.7818609E-02  0.8605942E-01
        2   -1    0    0  501    0  0.00000000000E+00  0.00000000000E+00  0.14294434737E+04  0.14294434737E+04  0.25500000920E-02 0.  1.
       -2   -1    0    0    0  501  0.00000000000E+00  0.00000000000E+00 -0.70058928346E+03  0.70058928347E+03  0.25500000920E-02 0. -1.
    10030    2    1    2    0    0  0.00000000000E+00  0.00000000000E+00  0.72885419020E+03  0.21300327571E+04  0.20014522517E+04 0.  0.
        1    1    3    3  502    0 -0.64330275127E+03  0.52708620301E+03  0.95677640780E+03  0.12677063500E+04  0.50400001928E-02 0.  1.
       -1    1    3    3    0  502  0.64330275127E+03 -0.52708620301E+03 -0.22792221759E+03  0.86232640717E+03  0.50400001928E-02 0. -1.
</event>
<event>
 5   0  0.2093980E-05  0.2005754E+04  0.7818609E-02  0.8603935E-01
       -1   -1    0    0    0  501  0.00000000000E+00  0.00000000000E+00  0.54855777219E+03  0.54855777221E+03  0.50400001928E-02 0.  1.
        1   -1    0    0  501    0  0.00000000000E+00  0.00000000000E+00 -0.18334668545E+04  0.18334668545E+04  0.50400001928E-02 0. -1.
    10030    2    1    2    0    0  0.00000000000E+00  0.00000000000E+00 -0.12849090823E+04  0.23820246267E+04  0.20057542154E+04 0.  0.
        2    1    3    3  502    0  0.59985672471E+03 -0.19096359376E+03  0.28468209191E+03  0.69089729901E+03  0.25500000920E-02 0.  1.
       -2    1    3    3    0  502 -0.59985672471E+03  0.19096359376E+03 -0.15695911742E+04  0.16911273277E+04  0.25500000920E-02 0. -1.
</event>
<event>
 5   0  0.4412054E-05  0.1949704E+04  0.7818609E-02  0.8630504E-01
        2   -1    0    0  501    0  0.00000000000E+00  0.00000000000E+00  0.79140377650E+03  0.79140377650E+03  0.25500000920E-02 0.  1.
       -2   -1    0    0    0  501  0.00000000000E+00  0.00000000000E+00 -0.12008235654E+04  0.12008235654E+04  0.25500000920E-02 0. -1.
    10030    2    1    2    0    0  0.00000000000E+00  0.00000000000E+00 -0.40941978893E+03  0.19922273419E+04  0.19497038797E+04 0.  0.
        4    1    3    3  502    0 -0.23452164808E+03 -0.93047545721E+03 -0.29060415813E+02  0.96001619807E+03  0.12699999809E+01 0.  1.
       -4    1    3    3    0  502  0.23452164808E+03  0.93047545721E+03 -0.38035937312E+03  0.10322111439E+04  0.12699999809E+01 0. -1.
</event>
<event>
 5   0  0.4447313E-05  0.1998266E+04  0.7818609E-02  0.8607432E-01
       -2   -1    0    0    0  501  0.00000000000E+00  0.00000000000E+00  0.36569100940E+03  0.36569100941E+03  0.25500000920E-02 0. -1.
        2   -1    0    0  501    0  0.00000000000E+00  0.00000000000E+00 -0.27298083634E+04  0.27298083634E+04  0.25500000920E-02 0.  1.
    10030    2    1    2    0    0  0.00000000000E+00  0.00000000000E+00 -0.23641173540E+04  0.30954993728E+04  0.19982656239E+04 0.  0.
        5    1    3    3  502    0 -0.76500717684E+03 -0.21608024592E+03 -0.21196345328E+04  0.22638019560E+04  0.46999998093E+01 0.  1.
       -5    1    3    3    0  502  0.76500717684E+03  0.21608024592E+03 -0.24448282120E+03  0.83169741682E+03  0.46999998093E+01 0. -1.
</event>
<event>
 5   0  0.2142551E-05  0.2072117E+04  0.7818609E-02  0.8573626E-01
       -1   -1    0    0    0  501  0.00000000000E+00  0.00000000000E+00  0.10640195007E+04  0.10640195007E+04  0.50400001928E-02 0. -1.
        1   -1    0    0  501    0  0.00000000000E+00  0.00000000000E+00 -0.10088327391E+04  0.10088327391E+04  0.50400001928E-02 0.  1.
    10030    2    1    2    0    0  0.00000000000E+00  0.00000000000E+00  0.55186761581E+02  0.20728522399E+04  0.20721174749E+04 0.  0.
        3    1    3    3  502    0  0.45900649908E+02 -0.77423400282E+03  0.71476675353E+03  0.10547211399E+04  0.10100000352E+00 0.  1.
       -3    1    3    3    0  502 -0.45900649908E+02  0.77423400282E+03 -0.65957999195E+03  0.10181311000E+04  0.10100000352E+00 0. -1.
</event>
<event>
 5   0  0.4447313E-05  0.1994963E+04  0.7818609E-02  0.8608979E-01
        2   -1    0    0  501    0  0.00000000000E+00  0.00000000000E+00  0.18574399943E+04  0.18574399943E+04  0.25500000920E-02 0. -1.
       -2   -1    0    0    0  501  0.00000000000E+00  0.00000000000E+00 -0.53566704843E+03  0.53566704844E+03  0.25500000920E-02 0.  1.
    10030    2    1    2    0    0  0.00000000000E+00  0.00000000000E+00  0.13217729458E+04  0.23931070427E+04  0.19949630567E+04 0.  0.
        5    1    3    3  502    0  0.50537813812E+03  0.54470504105E+01 -0.37068532863E+03  0.62679058361E+03  0.46999998093E+01 0.  1.
       -5    1    3    3    0  502 -0.50537813812E+03 -0.54470504105E+01  0.16924582745E+04  0.17663164591E+04  0.46999998093E+01 0. -1.
</event>
<event>
 5   0  0.2256868E-05  0.1995631E+04  0.7818609E-02  0.8608666E-01
        1   -1    0    0  501    0  0.00000000000E+00  0.00000000000E+00  0.92173122323E+03  0.92173122325E+03  0.50400001928E-02 0. -1.
       -1   -1    0    0    0  501  0.00000000000E+00  0.00000000000E+00 -0.10801805875E+04  0.10801805875E+04  0.50400001928E-02 0.  1.
    10030    2    1    2    0    0  0.00000000000E+00  0.00000000000E+00 -0.15844936430E+03  0.20019118108E+04  0.19956314031E+04 0.  0.
        5    1    3    3  502    0  0.77421837009E+03 -0.31647343821E+03  0.46658741493E+03  0.95775541107E+03  0.46999998093E+01 0. -1.
       -5    1    3    3    0  502 -0.77421837009E+03  0.31647343821E+03 -0.62503677923E+03  0.10441563997E+04  0.46999998093E+01 0.  1.
</event>
<event>
 5   0  0.4447313E-05  0.1997920E+04  0.7818609E-02  0.8607594E-01
       -2   -1    0    0    0  501  0.00000000000E+00  0.00000000000E+00  0.49376302183E+03  0.49376302184E+03  0.25500000920E-02 0. -1.
        2   -1    0    0  501    0  0.00000000000E+00  0.00000000000E+00 -0.20210519716E+04  0.20210519716E+04  0.25500000920E-02 0.  1.
    10030    2    1    2    0    0  0.00000000000E+00  0.00000000000E+00 -0.15272889498E+04  0.25148149935E+04  0.19979196468E+04 0.  0.
        5    1    3    3  502    0 -0.55115493023E+03 -0.24371219253E+03 -0.17664644206E+04  0.18664367198E+04  0.46999998093E+01 0.  1.
       -5    1    3    3    0  502  0.55115493023E+03  0.24371219253E+03  0.23917547079E+03  0.64837827364E+03  0.46999998093E+01 0. -1.
</event>
<event>
 5   0  0.4473361E-05  0.1978980E+04  0.7818609E-02  0.8616512E-01
       -2   -1    0    0    0  501  0.00000000000E+00  0.00000000000E+00  0.11690234308E+04  0.11690234308E+04  0.25500000920E-02 0. -1.
        2   -1    0    0  501    0  0.00000000000E+00  0.00000000000E+00 -0.83752825196E+03  0.83752825196E+03  0.25500000920E-02 0.  1.
    10030    2    1    2    0    0  0.00000000000E+00  0.00000000000E+00  0.33149517880E+03  0.20065516827E+04  0.19789796871E+04 0.  0.
        2    1    3    3  502    0  0.91305877440E+03 -0.34947805449E+03  0.32044761136E+03  0.10288332750E+04  0.25500000920E-02 0. -1.
       -2    1    3    3    0  502 -0.91305877440E+03  0.34947805449E+03  0.11047567438E+02  0.97771840774E+03  0.25500000920E-02 0.  1.
</event>
<event>
 5   0  0.2007644E-05  0.2005216E+04  0.7818609E-02  0.8604186E-01
        1   -1    0    0  501    0  0.00000000000E+00  0.00000000000E+00  0.14679086448E+04  0.14679086448E+04  0.50400001928E-02 0. -1.
       -1   -1    0    0    0  501  0.00000000000E+00  0.00000000000E+00 -0.68479950103E+03  0.68479950105E+03  0.50400001928E-02 0.  1.
    10030    2    1    2    0    0  0.00000000000E+00  0.00000000000E+00  0.78310914379E+03  0.21527081459E+04  0.20052163051E+04 0.  0.
        1    1    3    3  502    0  0.48900641981E+03 -0.74129486562E+03 -0.10805511094E+03  0.89460676469E+03  0.50400001928E-02 0.  1.
       -1    1    3    3    0  502 -0.48900641981E+03  0.74129486562E+03  0.89116425473E+03  0.12581013812E+04  0.50400001928E-02 0. -1.
</event>
<event>
 5   0  0.2142551E-05  0.2025985E+04  0.7818609E-02  0.8594567E-01
       -1   -1    0    0    0  501  0.00000000000E+00  0.00000000000E+00  0.11765022421E+04  0.11765022421E+04  0.50400001928E-02 0.  1.
        1   -1    0    0  501    0  0.00000000000E+00  0.00000000000E+00 -0.87220744538E+03  0.87220744539E+03  0.50400001928E-02 0. -1.
    10030    2    1    2    0    0  0.00000000000E+00  0.00000000000E+00  0.30429479675E+03  0.20487096875E+04  0.20259852074E+04 0.  0.
        3    1    3    3  502    0 -0.10018364687E+04  0.14683344304E+03  0.18277966293E+03  0.10289046532E+04  0.10100000352E+00 0.  1.
       -3    1    3    3    0  502  0.10018364687E+04 -0.14683344304E+03  0.12151513382E+03  0.10198050343E+04  0.10100000352E+00 0. -1.
</event>
<event>
 5   0  0.4412054E-05  0.1988202E+04  0.7818609E-02  0.8612157E-01
       -2   -1    0    0    0  501  0.00000000000E+00  0.00000000000E+00  0.15312302943E+04  0.15312302943E+04  0.25500000920E-02 0.  1.
        2   -1    0    0  501    0  0.00000000000E+00  0.00000000000E+00 -0.64538720056E+03  0.64538720056E+03  0.25500000920E-02 0. -1.
    10030    2    1    2    0    0  0.00000000000E+00  0.00000000000E+00  0.88584309372E+03  0.21766174948E+04  0.19882016327E+04 0.  0.
        4    1    3    3  502    0 -0.36459384489E+03  0.50169082606E+03 -0.40763029374E+03  0.74214986758E+03  0.12699999809E+01 0. -1.
       -4    1    3    3    0  502  0.36459384489E+03 -0.50169082606E+03  0.12934733875E+04  0.14344676273E+04  0.12699999809E+01 0.  1.
</event>
<event>
 5   0  0.4412054E-05  0.1998271E+04  0.7818609E-02  0.8607429E-01
       -2   -1    0    0    0  501  0.00000000000E+00  0.00000000000E+00  0.57577245867E+03  0.57577245867E+03  0.25500000920E-02 0. -1.
        2   -1    0    0  501    0  0.00000000000E+00  0.00000000000E+00 -0.17337962421E+04  0.17337962421E+04  0.25500000920E-02 0.  1.
    10030    2    1    2    0    0  0.00000000000E+00  0.00000000000E+00 -0.11580237835E+04  0.23095687008E+04  0.19982713781E+04 0.  0.
        4    1    3    3  502    0 -0.84873490074E+03 -0.26736898970E+03 -0.53882406027E+02  0.89148305366E+03  0.12699999809E+01 0. -1.
       -4    1    3    3    0  502  0.84873490074E+03  0.26736898970E+03 -0.11041413774E+04  0.14180856471E+04  0.12699999809E+01 0.  1.
</event>
<event>
 5   0  0.4577279E-05  0.1998421E+04  0.7818609E-02  0.8607359E-01
       -2   -1    0    0    0  501  0.00000000000E+00  0.00000000000E+00  0.11873057103E+04  0.11873057103E+04  0.25500000920E-02 0.  1.
        2   -1    0    0  501    0  0.00000000000E+00  0.00000000000E+00 -0.84091375024E+03  0.84091375025E+03  0.25500000920E-02 0. -1.
    10030    2    1    2    0    0  0.00000000000E+00  0.00000000000E+00  0.34639196001E+03  0.20282194605E+04  0.19984210743E+04 0.  0.
        1    1    3    3  502    0 -0.50220378241E+03 -0.45397077325E+03 -0.57269356454E+03  0.88672206520E+03  0.50400001928E-02 0. -1.
       -1    1    3    3    0  502  0.50220378241E+03  0.45397077325E+03  0.91908552455E+03  0.11414973953E+04  0.50400001928E-02 0.  1.
</event>
<event>
 5   0  0.4447313E-05  0.1900153E+04  0.7818609E-02  0.8654780E-01
        2   -1    0    0  501    0  0.00000000000E+00  0.00000000000E+00  0.15455332493E+04  0.15455332493E+04  0.25500000920E-02 0.  1.
       -2   -1    0    0    0  501  0.00000000000E+00  0.00000000000E+00 -0.58403508962E+03  0.58403508963E+03  0.25500000920E-02 0. -1.
    10030    2    1    2    0    0  0.00000000000E+00  0.00000000000E+00  0.96149815966E+03  0.21295683389E+04  0.19001533094E+04 0.  0.
        5    1    3    3  502    0 -0.14399919150E+03  0.74516057697E+03  0.11212601760E+04  0.13539743443E+04  0.46999998093E+01 0. -1.
       -5    1    3    3    0  502  0.14399919150E+03 -0.74516057697E+03 -0.15976201637E+03  0.77559399463E+03  0.46999998093E+01 0.  1.
</event>
<event>
 5   0  0.2142551E-05  0.2001219E+04  0.7818609E-02  0.8606051E-01
       -1   -1    0    0    0  501  0.00000000000E+00  0.00000000000E+00  0.85367084675E+03  0.85367084677E+03  0.50400001928E-02 0. -1.
        1   -1    0    0  501    0  0.00000000000E+00  0.00000000000E+00 -0.11728404239E+04  0.11728404239E+04  0.50400001928E-02 0.  1.
    10030    2    1    2    0    0  0.00000000000E+00  0.00000000000E+00 -0.31916957715E+03  0.20265112707E+04  0.20012193061E+04 0.  0.
        3    1    3    3  502    0 -0.82206305811E+03  0.96702371220E+02 -0.72890066185E+03  0.11029212144E+04  0.10100000352E+00 0.  1.
       -3    1    3    3    0  502  0.82206305811E+03 -0.96702371220E+02  0.40973108470E+03  0.92359005629E+03  0.10100000352E+00 0. -1.
</event>
<event>
 5   0  0.2007644E-05  0.1998254E+04  0.7818609E-02  0.8607437E-01
        1   -1    0    0  501    0  0.00000000000E+00  0.00000000000E+00  0.17171163783E+04  0.17171163783E+04  0.50400001928E-02 0.  1.
       -1   -1    0    0    0  501  0.00000000000E+00  0.00000000000E+00 -0.58135559588E+03  0.58135559591E+03  0.50400001928E-02 0. -1.
    10030    2    1    2    0    0  0.00000000000E+00  0.00000000000E+00  0.11357607824E+04  0.22984719742E+04  0.19982544536E+04 0.  0.
        1    1    3    3  502    0 -0.48371524583E+03 -0.46857236167E+03  0.14168125353E+04  0.15687250420E+04  0.50400001928E-02 0.  1.
       -1    1    3    3    0  502  0.48371524583E+03  0.46857236167E+03 -0.28105175293E+03  0.72974693218E+03  0.50400001928E-02 0. -1.
</event>
<event>
 5   0  0.4473361E-05  0.1997740E+04  0.7818609E-02  0.8607678E-01
       -2   -1    0    0    0  501  0.00000000000E+00  0.00000000000E+00  0.69239899339E+03  0.69239899340E+03  0.25500000920E-02 0.  1.
        2   -1    0    0  501    0  0.00000000000E+00  0.00000000000E+00 -0.14409918406E+04  0.14409918406E+04  0.25500000920E-02 0. -1.
    10030    2    1    2    0    0  0.00000000000E+00  0.00000000000E+00 -0.74859284718E+03  0.21333908340E+04  0.19977400230E+04 0.  0.
        2    1    3    3  502    0  0.30267636516E+03 -0.55140884783E+03 -0.12029200818E+04  0.13574540223E+04  0.25500000920E-02 0. -1.
       -2    1    3    3    0  502 -0.30267636516E+03  0.55140884783E+03  0.45432723465E+03  0.77593681163E+03  0.25500000920E-02 0.  1.
</event>
<event>
 5   0  0.2256868E-05  0.2001446E+04  0.7818609E-02  0.8605945E-01
       -1   -1    0    0    0  501  0.00000000000E+00  0.00000000000E+00  0.11574991821E+04  0.11574991821E+04  0.50400001928E-02 0.  1.
        1   -1    0    0  501    0  0.00000000000E+00  0.00000000000E+00 -0.86518097624E+03  0.86518097626E+03  0.50400001928E-02 0. -1.
    10030    2    1    2    0    0  0.00000000000E+00  0.00000000000E+00  0.29231820587E+03  0.20226801584E+04  0.20014457499E+04 0.  0.
        5    1    3    3  502    0  0.74615830112E+01  0.99233842496E+03  0.15821979836E+02  0.99250372791E+03  0.46999998093E+01 0. -1.
       -5    1    3    3    0  502 -0.74615830112E+01 -0.99233842496E+03  0.27649622604E+03  0.10301764305E+04  0.46999998093E+01 0.  1.
</event>
<event>
 5   0  0.2007644E-05  0.1990127E+04  0.7818609E-02  0.8611250E-01
       -1   -1    0    0    0  501  0.00000000000E+00  0.00000000000E+00  0.51839012125E+03  0.51839012127E+03  0.50400001928E-02 0.  1.
        1   -1    0    0  501    0  0.00000000000E+00  0.00000000000E+00 -0.19100512491E+04  0.19100512491E+04  0.50400001928E-02 0. -1.
    10030    2    1    2    0    0  0.00000000000E+00  0.00000000000E+00 -0.13916611278E+04  0.24284413704E+04  0.19901273312E+04 0.  0.
        1    1    3    3  502    0  0.34391679177E+03  0.63112006026E+03  0.14388934882E+03  0.73300438938E+03  0.50400001928E-02 0.  1.
       -1    1    3    3    0  502 -0.34391679177E+03 -0.63112006026E+03 -0.15355504767E+04  0.16954369810E+04  0.50400001928E-02 0. -1.
</event>
<event>
 5   0  0.2093980E-05  0.2000449E+04  0.7818609E-02  0.8606411E-01
       -1   -1    0    0    0  501  0.00000000000E+00  0.00000000000E+00  0.46938615641E+03  0.46938615644E+03  0.50400001928E-02 0. -1.
        1   -1    0    0  501    0  0.00000000000E+00  0.00000000000E+00 -0.21313993046E+04  0.21313993046E+04  0.50400001928E-02 0.  1.
    10030    2    1    2    0    0  0.00000000000E+00  0.00000000000E+00 -0.16620131482E+04  0.26007854611E+04  0.20004492770E+04 0.  0.
        2    1    3    3  502    0  0.27805045719E+03 -0.93962826744E+03 -0.10917926076E+04  0.14670461601E+04  0.25500000920E-02 0.  1.
       -2    1    3    3    0  502 -0.27805045719E+03  0.93962826744E+03 -0.57022054062E+03  0.11337393010E+04  0.25500000920E-02 0. -1.
</event>
<event>
 5   0  0.4473361E-05  0.1997915E+04  0.7818609E-02  0.8607596E-01
        2   -1    0    0  501    0  0.00000000000E+00  0.00000000000E+00  0.22266453443E+04  0.22266453443E+04  0.25500000920E-02 0.  1.
       -2   -1    0    0    0  501  0.00000000000E+00  0.00000000000E+00 -0.44817008088E+03  0.44817008088E+03  0.25500000920E-02 0. -1.
    10030    2    1    2    0    0  0.00000000000E+00  0.00000000000E+00  0.17784752634E+04  0.26748154252E+04  0.19979147370E+04 0.  0.
        2    1    3    3  502    0 -0.78649537859E+03 -0.43811890401E+03  0.30968461917E+03  0.95206497570E+03  0.25500000920E-02 0. -1.
       -2    1    3    3    0  502  0.78649537859E+03  0.43811890401E+03  0.14687906443E+04  0.17227504495E+04  0.25500000920E-02 0.  1.
</event>
<event>
 5   0  0.4514680E-05  0.2001880E+04  0.7818609E-02  0.8605742E-01
        2   -1    0    0  501    0  0.00000000000E+00  0.00000000000E+00  0.73857210562E+03  0.73857210562E+03  0.25500000920E-02 0. -1.
       -2   -1    0    0    0  501  0.00000000000E+00  0.00000000000E+00 -0.13565107940E+04  0.13565107940E+04  0.25500000920E-02 0.  1.
    10030    2    1    2    0    0  0.00000000000E+00  0.00000000000E+00 -0.61793868841E+03  0.20950828997E+04  0.20018801497E+04 0.  0.
        3    1    3    3  502    0  0.73569716528E+03 -0.65803899270E+03 -0.13505367335E+03  0.99624552185E+03  0.10100000352E+00 0.  1.
       -3    1    3    3    0  502 -0.73569716528E+03  0.65803899270E+03 -0.48288501506E+03  0.10988373778E+04  0.10100000352E+00 0. -1.
</event>
<event>
 5   0  0.2256868E-05  0.1983166E+04  0.7818609E-02  0.8614532E-01
       -1   -1    0    0    0  501  0.00000000000E+00  0.00000000000E+00  0.81556635272E+03  0.81556635273E+03  0.50400001928E-02 0. -1.
        1   -1    0    0  501    0  0.00000000000E+00  0.00000000000E+00 -0.12055873495E+04  0.12055873495E+04  0.50400001928E-02 0.  1.
    10030    2    1    2    0    0  0.00000000000E+00  0.00000000000E+00 -0.39002099678E+03  0.20211537022E+04  0.19831656285E+04 0.  0.
        5    1    3    3  502    0 -0.54271674842E+03 -0.24569468279E+03 -0.10028522929E+04  0.11664656693E+04  0.46999998093E+01 0.  1.
       -5    1    3    3    0  502  0.54271674842E+03  0.24569468279E+03  0.61283129615E+03  0.85468803297E+03  0.46999998093E+01 0. -1.
</event>
<event>
 5   0  0.2007644E-05  0.1993023E+04  0.7818609E-02  0.8609890E-01
       -1   -1    0    0    0  501  0.00000000000E+00  0.00000000000E+00  0.11765927156E+04  0.11765927156E+04  0.50400001928E-02 0. -1.
        1   -1    0    0  501    0  0.00000000000E+00  0.00000000000E+00 -0.84399185751E+03  0.84399185753E+03  0.50400001928E-02 0.  1.
    10030    2    1    2    0    0  0.00000000000E+00  0.00000000000E+00  0.33260085812E+03  0.20205845732E+04  0.19930225002E+04 0.  0.
        1    1    3    3  502    0  0.78125342890E+03 -0.36000056165E+03 -0.34372457478E+03  0.92633898109E+03  0.50400001928E-02 0.  1.
       -1    1    3    3    0  502 -0.78125342890E+03  0.36000056165E+03  0.67632543290E+03  0.10942455921E+04  0.50400001928E-02 0. -1.
</event>
<event>
 5   0  0.2142551E-05  0.2001745E+04  0.7818609E-02  0.8605805E-01
       -1   -1    0    0    0  501  0.00000000000E+00  0.00000000000E+00  0.11735571208E+04  0.11735571209E+04  0.50400001928E-02 0.  1.
        1   -1    0    0  501    0  0.00000000000E+00  0.00000000000E+00 -0.85359791573E+03  0.85359791575E+03  0.50400001928E-02 0. -1.
    10030    2    1    2    0    0  0.00000000000E+00  0.00000000000E+00  0.31995920512E+03  0.20271550366E+04  0.20017451510E+04 0.  0.
        3    1    3    3  502    0  0.51687508136E+03  0.70439498800E+03  0.65445402518E+03  0.10916236669E+04  0.10100000352E+00 0.  1.
       -3    1    3    3    0  502 -0.51687508136E+03 -0.70439498800E+03 -0.33449482006E+03  0.93553136971E+03  0.10100000352E+00 0. -1.
</event>
<event>
 5   0  0.4447313E-05  0.2010153E+04  0.7818609E-02  0.8601889E-01
        2   -1    0    0  501    0  0.00000000000E+00  0.00000000000E+00  0.10993624019E+04  0.10993624019E+04  0.25500000920E-02 0. -1.
       -2   -1    0    0    0  501  0.00000000000E+00  0.00000000000E+00 -0.91887651896E+03  0.91887651897E+03  0.25500000920E-02 0.  1.
    10030    2    1    2    0    0  0.00000000000E+00  0.00000000000E+00  0.18048588294E+03  0.20182389209E+04  0.20101525285E+04 0.  0.
        5    1    3    3  502    0 -0.62616872630E+03  0.43893852504E+03  0.74509512425E+03  0.10676811962E+04  0.46999998093E+01 0. -1.
       -5    1    3    3    0  502  0.62616872630E+03 -0.43893852504E+03 -0.56460924130E+03  0.95055772467E+03  0.46999998093E+01 0.  1.
</event>
<event>
 5   0  0.1601500E-05  0.1997457E+04  0.7818609E-02  0.8607810E-01
        3   -1    0    0  501    0  0.00000000000E+00  0.00000000000E+00  0.85598990856E+03  0.85598991452E+03  0.10100000352E+00 0. -1.
       -3   -1    0    0    0  501  0.00000000000E+00  0.00000000000E+00 -0.11652695666E+04  0.11652695709E+04  0.10100000352E+00 0.  1.
    10030    2    1    2    0    0  0.00000000000E+00  0.00000000000E+00 -0.30927965800E+03  0.20212594855E+04  0.19974573839E+04 0.  0.
        4    1    3    3  502    0 -0.40775644375E+03 -0.82312245512E+03  0.24202808648E+03  0.94993426146E+03  0.12699999809E+01 0. -1.
       -4    1    3    3    0  502  0.40775644375E+03  0.82312245512E+03 -0.55130774449E+03  0.10713252240E+04  0.12699999809E+01 0.  1.
</event>
<event>
 5   0  0.4473361E-05  0.2003247E+04  0.7818609E-02  0.8605104E-01
        2   -1    0    0  501    0  0.00000000000E+00  0.00000000000E+00  0.18876591702E+04  0.18876591702E+04  0.25500000920E-02 0. -1.
       -2   -1    0    0    0  501  0.00000000000E+00  0.00000000000E+00 -0.53147815705E+03  0.53147815706E+03  0.25500000920E-02 0.  1.
    10030    2    1    2    0    0  0.00000000000E+00  0.00000000000E+00  0.13561810132E+04  0.24191373273E+04  0.20032469812E+04 0.  0.
        2    1    3    3  502    0 -0.68933233848E+03  0.68314054341E+03  0.97729852124E+03  0.13773062385E+04  0.25500000920E-02 0. -1.
       -2    1    3    3    0  502  0.68933233848E+03 -0.68314054341E+03  0.37888249194E+03  0.10418310888E+04  0.25500000920E-02 0.  1.
</event>
<event>
 5   0  0.4473361E-05  0.2018920E+04  0.7818609E-02  0.8597826E-01
        2   -1    0    0  501    0  0.00000000000E+00  0.00000000000E+00  0.17202868784E+04  0.17202868784E+04  0.25500000920E-02 0.  1.
       -2   -1    0    0    0  501  0.00000000000E+00  0.00000000000E+00 -0.59234856613E+03  0.59234856614E+03  0.25500000920E-02 0. -1.
    10030    2    1    2    0    0  0.00000000000E+00  0.00000000000E+00  0.11279383123E+04  0.23126354446E+04  0.20189199744E+04 0.  0.
        2    1    3    3  502    0 -0.59811093336E+03 -0.33118112114E+03 -0.28677111246E+03  0.74138741192E+03  0.25500000920E-02 0. -1.
       -2    1    3    3    0  502  0.59811093336E+03  0.33118112114E+03  0.14147094247E+04  0.15712480326E+04  0.25500000920E-02 0.  1.
</event>
<event>
 5   0  0.4447313E-05  0.1998497E+04  0.7818609E-02  0.8607324E-01
        2   -1    0    0  501    0  0.00000000000E+00  0.00000000000E+00  0.94580759021E+03  0.94580759022E+03  0.25500000920E-02 0. -1.
       -2   -1    0    0    0  501  0.00000000000E+00  0.00000000000E+00 -0.10557086081E+04  0.10557086081E+04  0.25500000920E-02 0.  1.
    10030    2    1    2    0    0  0.00000000000E+00  0.00000000000E+00 -0.10990101784E+03  0.20015161983E+04  0.19984966495E+04 0.  0.
        5    1    3    3  502    0  0.42197893901E+02 -0.81952067631E+03  0.51606910527E+03  0.96940405021E+03  0.46999998093E+01 0.  1.
       -5    1    3    3    0  502 -0.42197893901E+02  0.81952067631E+03 -0.62597012311E+03  0.10321121481E+04  0.46999998093E+01 0. -1.
</event>
<event>
 5   0  0.4577279E-05  0.2000075E+04  0.7818609E-02  0.8606586E-01
       -2   -1    0    0    0  501  0.00000000000E+00  0.00000000000E+00  0.58690203503E+03  0.58690203503E+03  0.25500000920E-02 0.  1.
        2   -1    0    0  501    0  0.00000000000E+00  0.00000000000E+00 -0.17039895131E+04  0.17039895131E+04  0.25500000920E-02 0. -1.
    10030    2    1    2    0    0  0.00000000000E+00  0.00000000000E+00 -0.11170874781E+04  0.22908915481E+04  0.20000749115E+04 0.  0.
        1    1    3    3  502    0 -0.91281901387E+03  0.32367364582E+03 -0.27317578671E+03  0.10062942868E+04  0.50400001928E-02 0.  1.
       -1    1    3    3    0  502  0.91281901387E+03 -0.32367364582E+03 -0.84391169135E+03  0.12845972614E+04  0.50400001928E-02 0. -1.
</event>
<event>
 5   0  0.4473361E-05  0.1999707E+04  0.7818609E-02  0.8606758E-01
       -2   -1    0    0    0  501  0.00000000000E+00  0.00000000000E+00  0.12218702608E+04  0.12218702608E+04  0.25500000920E-02 0.  1.
        2   -1    0    0  501    0  0.00000000000E+00  0.00000000000E+00 -0.81817792831E+03  0.81817792831E+03  0.25500000920E-02 0. -1.
    10030    2    1    2    0    0  0.00000000000E+00  0.00000000000E+00  0.40369233252E+03  0.20400481891E+04  0.19997072572E+04 0.  0.
        2    1    3    3  502    0 -0.73076137363E+03  0.50228114791E+03  0.67312735625E+03  0.11132829714E+04  0.25500000920E-02 0.  1.
       -2    1    3    3    0  502  0.73076137363E+03 -0.50228114791E+03 -0.26943502372E+03  0.92676521771E+03  0.25500000920E-02 0. -1.
</event>
<event>
 5   0  0.4577279E-05  0.1991129E+04  0.7818609E-02  0.8610780E-01
        2   -1    0    0  501    0  0.00000000000E+00  0.00000000000E+00  0.13997193344E+04  0.13997193344E+04  0.25500000920E-02 0. -1.
       -2   -1    0    0    0  501  0.00000000000E+00  0.00000000000E+00 -0.70810510187E+03  0.70810510187E+03  0.25500000920E-02 0.  1.
    10030    2    1    2    0    0  0.00000000000E+00  0.00000000000E+00  0.69161423251E+03  0.21078244363E+04  0.19911287270E+04 0.  0.
        1    1    3    3  502    0 -0.70021964554E+03 -0.55562166331E+03  0.80981729604E+03  0.12061621109E+04  0.50400001928E-02 0. -1.
       -1    1    3    3    0  502  0.70021964554E+03  0.55562166331E+03 -0.11820306353E+03  0.90166232537E+03  0.50400001928E-02 0.  1.
</event>
<event>
 5   0  0.2110896E-05  0.2000962E+04  0.7818609E-02  0.8606171E-01
        1   -1    0    0  501    0  0.00000000000E+00  0.00000000000E+00  0.73564514853E+03  0.73564514855E+03  0.50400001928E-02 0. -1.
       -1   -1    0    0    0  501  0.00000000000E+00  0.00000000000E+00 -0.13606586745E+04  0.13606586745E+04  0.50400001928E-02 0.  1.
    10030    2    1    2    0    0  0.00000000000E+00  0.00000000000E+00 -0.62501352598E+03  0.20963038231E+04  0.20009617215E+04 0.  0.
        4    1    3    3  502    0 -0.81912494802E+03  0.46330233270E+03  0.43301456790E+02  0.94206759896E+03  0.12699999809E+01 0.  1.
       -4    1    3    3    0  502  0.81912494802E+03 -0.46330233270E+03 -0.66831498277E+03  0.11542362241E+04  0.12699999809E+01 0. -1.
</event>
<event>
 5   0  0.2110896E-05  0.2000604E+04  0.7818609E-02  0.8606338E-01
        1   -1    0    0  501    0  0.00000000000E+00  0.00000000000E+00  0.64831784094E+03  0.64831784096E+03  0.50400001928E-02 0.  1.
       -1   -1    0    0    0  501  0.00000000000E+00  0.00000000000E+00 -0.15433853924E+04  0.15433853924E+04  0.50400001928E-02 0. -1.
    10030    2    1    2    0    0  0.00000000000E+00  0.00000000000E+00 -0.89506755144E+03  0.21917032333E+04  0.20006041941E+04 0.  0.
        4    1    3    3  502    0  0.22912250146E+03  0.95841291052E+03 -0.25921175117E+03  0.10189429683E+04  0.12699999809E+01 0.  1.
       -4    1    3    3    0  502 -0.22912250146E+03 -0.95841291052E+03 -0.63585580027E+03  0.11727602651E+04  0.12699999809E+01 0. -1.
</event>
<event>
 5   0  0.2110896E-05  0.1944514E+04  0.7818609E-02  0.8633011E-01
       -1   -1    0    0    0  501  0.00000000000E+00  0.00000000000E+00  0.63959381797E+03  0.63959381799E+03  0.50400001928E-02 0. -1.
        1   -1    0    0  501    0  0.00000000000E+00  0.00000000000E+00 -0.14779435105E+04  0.14779435105E+04  0.50400001928E-02 0.  1.
    10030    2    1    2    0    0  0.00000000000E+00  0.00000000000E+00 -0.83834969249E+03  0.21175373285E+04  0.19445138545E+04 0.  0.
        4    1    3    3  502    0 -0.26998566141E+03 -0.42950167626E+03  0.48403437131E+03  0.70118102711E+03  0.12699999809E+01 0. -1.
       -4    1    3    3    0  502  0.26998566141E+03  0.42950167626E+03 -0.13223840638E+04  0.14163563014E+04  0.12699999809E+01 0.  1.
</event>
<event>
 5   0  0.4412054E-05  0.2004859E+04  0.7818609E-02  0.8604352E-01
       -2   -1    0    0    0  501  0.00000000000E+00  0.00000000000E+00  0.85371571698E+03  0.85371571698E+03  0.25500000920E-02 0.  1.
        2   -1    0    0  501    0  0.00000000000E+00  0.00000000000E+00 -0.11770485441E+04  0.11770485441E+04  0.25500000920E-02 0. -1.
    10030    2    1    2    0    0  0.00000000000E+00  0.00000000000E+00 -0.32333282716E+03  0.20307642611E+04  0.20048589395E+04 0.  0.
        4    1    3    3  502    0  0.50681560324E+03  0.15858052426E+03 -0.10228600293E+04  0.11524990632E+04  0.12699999809E+01 0. -1.
       -4    1    3    3    0  502 -0.50681560324E+03 -0.15858052426E+03  0.69952720213E+03  0.87826519787E+03  0.12699999809E+01 0.  1.
</event>
<event>
 5   0  0.2256868E-05  0.2001939E+04  0.7818609E-02  0.8605715E-01
       -1   -1    0    0    0  501  0.00000000000E+00  0.00000000000E+00  0.82071565146E+03  0.82071565148E+03  0.50400001928E-02 0.  1.
        1   -1    0    0  501    0  0.00000000000E+00  0.00000000000E+00 -0.12208126976E+04  0.12208126976E+04  0.50400001928E-02 0. -1.
    10030    2    1    2    0    0  0.00000000000E+00  0.00000000000E+00 -0.40009704609E+03  0.20415283490E+04  0.20019391483E+04 0.  0.
        5    1    3    3  502    0  0.79507223971E+03 -0.92783753001E+01 -0.82009550039E+03  0.11422804710E+04  0.46999998093E+01 0. -1.
       -5    1    3    3    0  502 -0.79507223971E+03  0.92783753001E+01  0.41999845430E+03  0.89924787807E+03  0.46999998093E+01 0.  1.
</event>
<event>
 5   0  0.2093980E-05  0.1999690E+04  0.7818609E-02  0.8606765E-01
        1   -1    0    0  501    0  0.00000000000E+00  0.00000000000E+00  0.14680038686E+04  0.14680038686E+04  0.50400001928E-02 0. -1.
       -1   -1    0    0    0  501  0.00000000000E+00  0.00000000000E+00 -0.68098622917E+03  0.68098622919E+03  0.50400001928E-02 0.  1.
    10030    2    1    2    0    0  0.00000000000E+00  0.00000000000E+00  0.78701763947E+03  0.21489900978E+04  0.19996903950E+04 0.  0.
        2    1    3    3  502    0  0.26631938357E+03  0.88339488756E+03  0.80746677294E+03  0.12260975209E+04  0.25500000920E-02 0.  1.
       -2    1    3    3    0  502 -0.26631938357E+03 -0.88339488756E+03 -0.20449133477E+02  0.92289257690E+03  0.25500000920E-02 0. -1.
</event>
<event>
 5   0  0.2110896E-05  0.2014897E+04  0.7818609E-02  0.8599688E-01
       -1   -1    0    0    0  501  0.00000000000E+00  0.00000000000E+00  0.11576406311E+04  0.11576406311E+04  0.50400001928E-02 0. -1.
        1   -1    0    0  501    0  0.00000000000E+00  0.00000000000E+00 -0.87674184586E+03  0.87674184587E+03  0.50400001928E-02 0.  1.
    10030    2    1    2    0    0  0.00000000000E+00  0.00000000000E+00  0.28089878523E+03  0.20343824770E+04  0.20148965073E+04 0.  0.
        4    1    3    3  502    0 -0.57355704895E+03 -0.52512698795E+03 -0.50623230397E+03  0.92790021034E+03  0.12699999809E+01 0.  1.
       -4    1    3    3    0  502  0.57355704895E+03  0.52512698795E+03  0.78713108920E+03  0.11064822666E+04  0.12699999809E+01 0. -1.
</event>
<event>
 5   0  0.2110896E-05  0.1998918E+04  0.7818609E-02  0.8607127E-01
       -1   -1    0    0    0  501  0.00000000000E+00  0.00000000000E+00  0.10839825254E+04  0.10839825254E+04  0.50400001928E-02 0.  1.
        1   -1    0    0  501    0  0.00000000000E+00  0.00000000000E+00 -0.92152630880E+03  0.92152630882E+03  0.50400001928E-02 0. -1.
    10030    2    1    2    0    0  0.00000000000E+00  0.00000000000E+00  0.16245621662E+03  0.20055088343E+04  0.19989181229E+04 0.  0.
        4    1    3    3  502    0  0.18180205681E+02  0.56702366875E+03  0.90678403818E+03  0.10696285643E+04  0.12699999809E+01 0.  1.
       -4    1    3    3    0  502 -0.18180205681E+02 -0.56702366875E+03 -0.74432782157E+03  0.93588026994E+03  0.12699999809E+01 0. -1.
</event>
<event>
 5   0  0.4514680E-05  0.1997437E+04  0.7818609E-02  0.8607820E-01
       -2   -1    0    0    0  501  0.00000000000E+00  0.00000000000E+00  0.56435911355E+03  0.56435911355E+03  0.25500000920E-02 0. -1.
        2   -1    0    0  501    0  0.00000000000E+00  0.00000000000E+00 -0.17673827732E+04  0.17673827732E+04  0.25500000920E-02 0.  1.
    10030    2    1    2    0    0  0.00000000000E+00  0.00000000000E+00 -0.12030236596E+04  0.23317418867E+04  0.19974369329E+04 0.  0.
        3    1    3    3  502    0  0.46984795322E+03  0.50924350145E+03  0.23814279388E+03  0.73266502810E+03  0.10100000352E+00 0. -1.
       -3    1    3    3    0  502 -0.46984795322E+03 -0.50924350145E+03 -0.14411664535E+04  0.15990768586E+04  0.10100000352E+00 0.  1.
</event>
<event>
 5   0  0.2093980E-05  0.1987928E+04  0.7818609E-02  0.8612286E-01
       -1   -1    0    0    0  501  0.00000000000E+00  0.00000000000E+00  0.52383457202E+03  0.52383457205E+03  0.50400001928E-02 0.  1.
        1   -1    0    0  501    0  0.00000000000E+00  0.00000000000E+00 -0.18860227915E+04  0.18860227915E+04  0.50400001928E-02 0. -1.
    10030    2    1    2    0    0  0.00000000000E+00  0.00000000000E+00 -0.13621882195E+04  0.24098573636E+04  0.19879275056E+04 0.  0.
        2    1    3    3  502    0  0.57814191075E+03 -0.48905079948E+03 -0.14616009878E+04  0.16461154884E+04  0.25500000920E-02 0. -1.
       -2    1    3    3    0  502 -0.57814191075E+03  0.48905079948E+03  0.99412768322E+02  0.76374187521E+03  0.25500000920E-02 0.  1.
</event>
<event>
 5   0  0.4514680E-05  0.1999493E+04  0.7818609E-02  0.8606858E-01
       -2   -1    0    0    0  501  0.00000000000E+00  0.00000000000E+00  0.62241189172E+03  0.62241189173E+03  0.25500000920E-02 0. -1.
        2   -1    0    0  501    0  0.00000000000E+00  0.00000000000E+00 -0.16058391755E+04  0.16058391755E+04  0.25500000920E-02 0.  1.
    10030    2    1    2    0    0  0.00000000000E+00  0.00000000000E+00 -0.98342728377E+03  0.22282510672E+04  0.19994933349E+04 0.  0.
        3    1    3    3  502    0 -0.34231204125E+03 -0.92929796470E+03 -0.64419277047E+03  0.11814214221E+04  0.10100000352E+00 0.  1.
       -3    1    3    3    0  502  0.34231204125E+03  0.92929796470E+03 -0.33923451330E+03  0.10468296452E+04  0.10100000352E+00 0. -1.
</event>
<event>
 5   0  0.2256868E-05  0.2001669E+04  0.7818609E-02  0.8605841E-01
       -1   -1    0    0    0  501  0.00000000000E+00  0.00000000000E+00  0.58196722636E+03  0.58196722638E+03  0.50400001928E-02 0. -1.
        1   -1    0    0  501    0  0.00000000000E+00  0.00000000000E+00 -0.17211787594E+04  0.17211787594E+04  0.50400001928E-02 0.  1.
    10030    2    1    2    0    0  0.00000000000E+00  0.00000000000E+00 -0.11392115330E+04  0.23031459858E+04  0.20016689324E+04 0.  0.
        5    1    3    3  502    0  0.81642397589E+03 -0.10486670975E+02  0.96349088726E+02  0.82216988243E+03  0.46999998093E+01 0. -1.
       -5    1    3    3    0  502 -0.81642397589E+03  0.10486670975E+02 -0.12355606218E+04  0.14809761034E+04  0.46999998093E+01 0.  1.
</event>
<event>
 5   0  0.4514680E-05  0.1990052E+04  0.7818609E-02  0.8611286E-01
       -2   -1    0    0    0  501  0.00000000000E+00  0.00000000000E+00  0.10826051930E+04  0.10826051930E+04  0.25500000920E-02 0. -1.
        2   -1    0    0  501    0  0.00000000000E+00  0.00000000000E+00 -0.91453135078E+03  0.91453135078E+03  0.25500000920E-02 0.  1.
    10030    2    1    2    0    0  0.00000000000E+00  0.00000000000E+00  0.16807384222E+03  0.19971365438E+04  0.19900516471E+04 0.  0.
        3    1    3    3  502    0  0.87987167498E+03  0.43818131776E+03 -0.71107596780E+02  0.98551171083E+03  0.10100000352E+00 0.  1.
       -3    1    3    3    0  502 -0.87987167498E+03 -0.43818131776E+03  0.23918143900E+03  0.10116248329E+04  0.10100000352E+00 0. -1.
</event>
<event>
 5   0  0.2142551E-05  0.1999109E+04  0.7818609E-02  0.8607037E-01
       -1   -1    0    0    0  501  0.00000000000E+00  0.00000000000E+00  0.60287976846E+03  0.60287976848E+03  0.50400001928E-02 0. -1.
        1   -1    0    0  501    0  0.00000000000E+00  0.00000000000E+00 -0.16572286751E+04  0.16572286751E+04  0.50400001928E-02 0.  1.
    10030    2    1    2    0    0  0.00000000000E+00  0.00000000000E+00 -0.10543489066E+04  0.22601084436E+04  0.19991094417E+04 0.  0.
        3    1    3    3  502    0  0.54433805584E+03 -0.27822531797E+03 -0.14212421218E+04  0.15471400795E+04  0.10100000352E+00 0.  1.
       -3    1    3    3    0  502 -0.54433805584E+03  0.27822531797E+03  0.36689321520E+03  0.71296836406E+03  0.10100000352E+00 0. -1.
</event>
<event>
 5   0  0.2256868E-05  0.1997245E+04  0.7818609E-02  0.8607910E-01
        1   -1    0    0  501    0  0.00000000000E+00  0.00000000000E+00  0.15903790220E+04  0.15903790220E+04  0.50400001928E-02 0.  1.
       -1   -1    0    0    0  501  0.00000000000E+00  0.00000000000E+00 -0.62705009755E+03  0.62705009757E+03  0.50400001928E-02 0. -1.
    10030    2    1    2    0    0  0.00000000000E+00  0.00000000000E+00  0.96332892448E+03  0.22174291196E+04  0.19972454240E+04 0.  0.
        5    1    3    3  502    0  0.65870387603E+03  0.25704795087E+03 -0.30124297294E+03  0.76859213116E+03  0.46999998093E+01 0. -1.
       -5    1    3    3    0  502 -0.65870387603E+03 -0.25704795087E+03  0.12645718974E+04  0.14488369884E+04  0.46999998093E+01 0.  1.
</event>
<event>
 5   0  0.4447313E-05  0.2005700E+04  0.7818609E-02  0.8603960E-01
        2   -1    0    0  501    0  0.00000000000E+00  0.00000000000E+00  0.19919924432E+04  0.19919924432E+04  0.25500000920E-02 0. -1.
       -2   -1    0    0    0  501  0.00000000000E+00  0.00000000000E+00 -0.50487553930E+03  0.50487553931E+03  0.25500000920E-02 0.  1.
    10030    2    1    2    0    0  0.00000000000E+00  0.00000000000E+00  0.14871169039E+04  0.24968679825E+04  0.20057001361E+04 0.  0.
        5    1    3    3  502    0  0.67791122860E+03  0.65927732277E+03  0.32791574808E+03  0.10008801377E+04  0.46999998093E+01 0.  1.
       -5    1    3    3    0  502 -0.67791122860E+03 -0.65927732277E+03  0.11592011558E+04  0.14959878448E+04  0.46999998093E+01 0. -1.
</event>
<event>
 5   0  0.2007644E-05  0.1999267E+04  0.7818609E-02  0.8606964E-01
       -1   -1    0    0    0  501  0.00000000000E+00  0.00000000000E+00  0.92596717203E+03  0.92596717204E+03  0.50400001928E-02 0.  1.
        1   -1    0    0  501    0  0.00000000000E+00  0.00000000000E+00 -0.10791601555E+04  0.10791601555E+04  0.50400001928E-02 0. -1.
    10030    2    1    2    0    0  0.00000000000E+00  0.00000000000E+00 -0.15319298344E+03  0.20051273275E+04  0.19992667429E+04 0.  0.
        1    1    3    3  502    0  0.81354684403E+03 -0.57742320200E+03 -0.13995489520E+03  0.10074042855E+04  0.50400001928E-02 0. -1.
       -1    1    3    3    0  502 -0.81354684403E+03  0.57742320200E+03 -0.13238088240E+02  0.99772304206E+03  0.50400001928E-02 0.  1.
</event>
<event>
 5   0  0.2093980E-05  0.1998268E+04  0.7818609E-02  0.8607431E-01
        1   -1    0    0  501    0  0.00000000000E+00  0.00000000000E+00  0.96910870241E+03  0.96910870242E+03  0.50400001928E-02 0.  1.
       -1   -1    0    0    0  501  0.00000000000E+00  0.00000000000E+00 -0.10300895520E+04  0.10300895520E+04  0.50400001928E-02 0. -1.
    10030    2    1    2    0    0  0.00000000000E+00  0.00000000000E+00 -0.60980849616E+02  0.19991982545E+04  0.19982679992E+04 0.  0.
        2    1    3    3  502    0 -0.35368308807E+03 -0.89327667413E+03 -0.30490592990E+03  0.10079695280E+04  0.25500000920E-02 0. -1.
       -2    1    3    3    0  502  0.35368308807E+03  0.89327667413E+03  0.24392508028E+03  0.99122872644E+03  0.25500000920E-02 0.  1.
</event>
<event>
 5   0  0.4473361E-05  0.1995182E+04  0.7818609E-02  0.8608877E-01
       -2   -1    0    0    0  501  0.00000000000E+00  0.00000000000E+00  0.83471655728E+03  0.83471655728E+03  0.25500000920E-02 0. -1.
        2   -1    0    0  501    0  0.00000000000E+00  0.00000000000E+00 -0.11922461473E+04  0.11922461473E+04  0.25500000920E-02 0.  1.
    10030    2    1    2    0    0  0.00000000000E+00  0.00000000000E+00 -0.35752959003E+03  0.20269627046E+04  0.19951817957E+04 0.  0.
        2    1    3    3  502    0 -0.32129566154E+03  0.73535068274E+03  0.42331003852E+03  0.90728326196E+03  0.25500000920E-02 0. -1.
       -2    1    3    3    0  502  0.32129566154E+03 -0.73535068274E+03 -0.78083962855E+03  0.11196794426E+04  0.25500000920E-02 0.  1.
</event>
<event>
 5   0  0.4473361E-05  0.2000660E+04  0.7818609E-02  0.8606312E-01
       -2   -1    0    0    0  501  0.00000000000E+00  0.00000000000E+00  0.44478379013E+03  0.44478379013E+03  0.25500000920E-02 0. -1.
        2   -1    0    0  501    0  0.00000000000E+00  0.00000000000E+00 -0.22497672496E+04  0.22497672496E+04  0.25500000920E-02 0.  1.
    10030    2    1    2    0    0  0.00000000000E+00  0.00000000000E+00 -0.18049834595E+04  0.26945510397E+04  0.20006598953E+04 0.  0.
        2    1    3    3  502    0  0.78189287190E+03  0.18092089292E+03 -0.17067328266E+04  0.18860078934E+04  0.25500000920E-02 0.  1.
       -2    1    3    3    0  502 -0.78189287190E+03 -0.18092089292E+03 -0.98250632890E+02  0.80854314634E+03  0.25500000920E-02 0. -1.
</event>
<event>
 5   0  0.4412054E-05  0.2000825E+04  0.7818609E-02  0.8606235E-01
        2   -1    0    0  501    0  0.00000000000E+00  0.00000000000E+00  0.87232534793E+03  0.87232534793E+03  0.25500000920E-02 0. -1.
       -2   -1    0    0    0  501  0.00000000000E+00  0.00000000000E+00 -0.11473073809E+04  0.11473073809E+04  0.25500000920E-02 0.  1.
    10030    2    1    2    0    0  0.00000000000E+00  0.00000000000E+00 -0.27498203297E+03  0.20196327288E+04  0.20008251400E+04 0.  0.
        4    1    3    3  502    0  0.93596402078E+02  0.46883334489E+03  0.74955197881E+03  0.88904149149E+03  0.12699999809E+01 0. -1.
       -4    1    3    3    0  502 -0.93596402078E+02 -0.46883334489E+03 -0.10245340118E+04  0.11305912373E+04  0.12699999809E+01 0.  1.
</event>
<event>
 5   0  0.4577279E-05  0.2011262E+04  0.7818609E-02  0.8601373E-01
       -2   -1    0    0    0  501  0.00000000000E+00  0.00000000000E+00  0.46997513335E+03  0.46997513336E+03  0.25500000920E-02 0.  1.
        2   -1    0    0  501    0  0.00000000000E+00  0.00000000000E+00 -0.21518024954E+04  0.21518024954E+04  0.25500000920E-02 0. -1.
    10030    2    1    2    0    0  0.00000000000E+00  0.00000000000E+00 -0.16818273620E+04  0.26217776288E+04  0.20112619568E+04 0.  0.
        1    1    3    3  502    0 -0.63333751848E+03  0.60982406877E+03 -0.14772428269E+04  0.17190835282E+04  0.50400001928E-02 0. -1.
       -1    1    3    3    0  502  0.63333751848E+03 -0.60982406877E+03 -0.20458453512E+03  0.90269410056E+03  0.50400001928E-02 0.  1.
</event>
<event>
 5   0  0.1601500E-05  0.1993159E+04  0.7818609E-02  0.8609826E-01
       -4   -1    0    0    0  501  0.00000000000E+00  0.00000000000E+00  0.11524853235E+04  0.11524860232E+04  0.12699999809E+01 0.  1.
        4   -1    0    0  501    0  0.00000000000E+00  0.00000000000E+00 -0.86176276190E+03  0.86176369771E+03  0.12699999809E+01 0. -1.
    10030    2    1    2    0    0  0.00000000000E+00  0.00000000000E+00  0.29072256160E+03  0.20142497210E+04  0.19931588824E+04 0.  0.
        1    1    3    3  502    0 -0.53184124382E+02 -0.77586168765E+03 -0.48443515405E+03  0.91622449648E+03  0.50400001928E-02 0. -1.
       -1    1    3    3    0  502  0.53184124382E+02  0.77586168765E+03  0.77515771564E+03  0.10980252245E+04  0.50400001928E-02 0.  1.
</event>
<event>
 5   0  0.4412054E-05  0.2002040E+04  0.7818609E-02  0.8605668E-01
       -2   -1    0    0    0  501  0.00000000000E+00  0.00000000000E+00  0.78472451312E+03  0.78472451312E+03  0.25500000920E-02 0. -1.
        2   -1    0    0  501    0  0.00000000000E+00  0.00000000000E+00 -0.12769332429E+04  0.12769332429E+04  0.25500000920E-02 0.  1.
    10030    2    1    2    0    0  0.00000000000E+00  0.00000000000E+00 -0.49220872979E+03  0.20616577560E+04  0.20020397772E+04 0.  0.
        4    1    3    3  502    0  0.37896633248E+03  0.43273147037E+03 -0.10897483835E+04  0.12322439526E+04  0.12699999809E+01 0.  1.
       -4    1    3    3    0  502 -0.37896633248E+03 -0.43273147037E+03  0.59753965371E+03  0.82941380339E+03  0.12699999809E+01 0. -1.
</event>
<event>
 5   0  0.4514680E-05  0.1992099E+04  0.7818609E-02  0.8610324E-01
        2   -1    0    0  501    0  0.00000000000E+00  0.00000000000E+00  0.16262701365E+04  0.16262701365E+04  0.25500000920E-02 0.  1.
       -2   -1    0    0    0  501  0.00000000000E+00  0.00000000000E+00 -0.61005496713E+03  0.61005496714E+03  0.25500000920E-02 0. -1.
    10030    2    1    2    0    0  0.00000000000E+00  0.00000000000E+00  0.10162151693E+04  0.22363251036E+04  0.19920985665E+04 0.  0.
        3    1    3    3  502    0  0.45286821295E+03  0.88174422388E+03  0.39839315073E+03  0.10683068882E+04  0.10100000352E+00 0. -1.
       -3    1    3    3    0  502 -0.45286821295E+03 -0.88174422388E+03  0.61782201861E+03  0.11680182154E+04  0.10100000352E+00 0.  1.
</event>
<event>
 5   0  0.1601500E-05  0.1999548E+04  0.7818609E-02  0.8606832E-01
       -3   -1    0    0    0  501  0.00000000000E+00  0.00000000000E+00  0.20077991668E+04  0.20077991693E+04  0.10100000352E+00 0.  1.
        3   -1    0    0  501    0  0.00000000000E+00  0.00000000000E+00 -0.49783286587E+03  0.49783287612E+03  0.10100000352E+00 0. -1.
    10030    2    1    2    0    0  0.00000000000E+00  0.00000000000E+00  0.15099663009E+04  0.25056320454E+04  0.19995483783E+04 0.  0.
        3    1    3    3  502    0 -0.43506180720E+02 -0.39185181254E+03  0.19062720897E+04  0.19466160178E+04  0.10100000352E+00 0.  1.
       -3    1    3    3    0  502  0.43506180720E+02  0.39185181254E+03 -0.39630578875E+03  0.55901602763E+03  0.10100000352E+00 0. -1.
</event>
<event>
 5   0  0.1601500E-05  0.2012629E+04  0.7818609E-02  0.8600739E-01
        3   -1    0    0  501    0  0.00000000000E+00  0.00000000000E+00  0.40515468094E+03  0.40515469353E+03  0.10100000352E+00 0. -1.
       -3   -1    0    0    0  501  0.00000000000E+00  0.00000000000E+00 -0.24994611111E+04  0.24994611132E+04  0.10100000352E+00 0.  1.
    10030    2    1    2    0    0  0.00000000000E+00  0.00000000000E+00 -0.20943064302E+04  0.29046158067E+04  0.20126285204E+04 0.  0.
        1    1    3    3  502    0 -0.24567040274E+03 -0.77895890083E+03 -0.18954985011E+04  0.20639877625E+04  0.50400001928E-02 0.  1.
       -1    1    3    3    0  502  0.24567040274E+03  0.77895890083E+03 -0.19880792903E+03  0.84062804417E+03  0.50400001928E-02 0. -1.
</event>
<event>
 5   0  0.2142551E-05  0.1920583E+04  0.7818609E-02  0.8644678E-01
        1   -1    0    0  501    0  0.00000000000E+00  0.00000000000E+00  0.11650600282E+04  0.11650600282E+04  0.50400001928E-02 0.  1.
       -1   -1    0    0    0  501  0.00000000000E+00  0.00000000000E+00 -0.79151280225E+03  0.79151280226E+03  0.50400001928E-02 0. -1.
    10030    2    1    2    0    0  0.00000000000E+00  0.00000000000E+00  0.37354722598E+03  0.19565728305E+04  0.19205831695E+04 0.  0.
        3    1    3    3  502    0 -0.94658692988E+03 -0.16936186657E+02  0.22993255174E+02  0.94701760820E+03  0.10100000352E+00 0. -1.
       -3    1    3    3    0  502  0.94658692988E+03  0.16936186657E+02  0.35055397081E+03  0.10095552223E+04  0.10100000352E+00 0.  1.
</event>
<event>
 5   0  0.4447313E-05  0.2001233E+04  0.7818609E-02  0.8606044E-01
        2   -1    0    0  501    0  0.00000000000E+00  0.00000000000E+00  0.53030407065E+03  0.53030407066E+03  0.25500000920E-02 0.  1.
       -2   -1    0    0    0  501  0.00000000000E+00  0.00000000000E+00 -0.18880370447E+04  0.18880370447E+04  0.25500000920E-02 0. -1.
    10030    2    1    2    0    0  0.00000000000E+00  0.00000000000E+00 -0.13577329741E+04  0.24183411154E+04  0.20012333501E+04 0.  0.
        5    1    3    3  502    0  0.82966683577E+03  0.19988619954E+03 -0.13101575245E+04  0.15635972563E+04  0.46999998093E+01 0.  1.
       -5    1    3    3    0  502 -0.82966683577E+03 -0.19988619954E+03 -0.47575449600E+02  0.85474385903E+03  0.46999998093E+01 0. -1.
</event>
<event>
 5   0  0.2110896E-05  0.2018001E+04  0.7818609E-02  0.8598251E-01
       -1   -1    0    0    0  501  0.00000000000E+00  0.00000000000E+00  0.85622612586E+03  0.85622612587E+03  0.50400001928E-02 0.  1.
        1   -1    0    0  501    0  0.00000000000E+00  0.00000000000E+00 -0.11890340048E+04  0.11890340048E+04  0.50400001928E-02 0. -1.
    10030    2    1    2    0    0  0.00000000000E+00  0.00000000000E+00 -0.33280787895E+03  0.20452601307E+04  0.20180009707E+04 0.  0.
        4    1    3    3  502    0 -0.94080540867E+03  0.66260367865E+02 -0.52982127461E+03  0.10817658939E+04  0.12699999809E+01 0.  1.
       -4    1    3    3    0  502  0.94080540867E+03 -0.66260367865E+02  0.19701339566E+03  0.96349423677E+03  0.12699999809E+01 0. -1.
</event>
<event>
 5   0  0.4577279E-05  0.1993975E+04  0.7818609E-02  0.8609443E-01
       -2   -1    0    0    0  501  0.00000000000E+00  0.00000000000E+00  0.74307416771E+03  0.74307416772E+03  0.25500000920E-02 0. -1.
        2   -1    0    0  501    0  0.00000000000E+00  0.00000000000E+00 -0.13376640706E+04  0.13376640706E+04  0.25500000920E-02 0.  1.
    10030    2    1    2    0    0  0.00000000000E+00  0.00000000000E+00 -0.59458990285E+03  0.20807382383E+04  0.19939745394E+04 0.  0.
        1    1    3    3  502    0  0.79644199929E+03  0.67806164911E+02  0.32450750523E+03  0.86268340381E+03  0.50400001928E-02 0. -1.
       -1    1    3    3    0  502 -0.79644199929E+03 -0.67806164911E+02 -0.91909740809E+03  0.12180548345E+04  0.50400001928E-02 0.  1.
</event>
<event>
 5   0  0.4473361E-05  0.1998838E+04  0.7818609E-02  0.8607164E-01
        2   -1    0    0  501    0  0.00000000000E+00  0.00000000000E+00  0.10479694847E+04  0.10479694847E+04  0.25500000920E-02 0.  1.
       -2   -1    0    0    0  501  0.00000000000E+00  0.00000000000E+00 -0.95311739473E+03  0.95311739473E+03  0.25500000920E-02 0. -1.
    10030    2    1    2    0    0  0.00000000000E+00  0.00000000000E+00  0.94852089953E+02  0.20010868794E+04  0.19988376072E+04 0.  0.
        2    1    3    3  502    0  0.87937094240E+03  0.29996368229E+03 -0.32118181560E+03  0.98307132178E+03  0.25500000920E-02 0.  1.
       -2    1    3    3    0  502 -0.87937094240E+03 -0.29996368229E+03  0.41603390555E+03  0.10180155576E+04  0.25500000920E-02 0. -1.
</event>
<event>
 5   0  0.2256868E-05  0.1997022E+04  0.7818609E-02  0.8608014E-01
        1   -1    0    0  501    0  0.00000000000E+00  0.00000000000E+00  0.82452007570E+03  0.82452007571E+03  0.50400001928E-02 0.  1.
       -1   -1    0    0    0  501  0.00000000000E+00  0.00000000000E+00 -0.12092180453E+04  0.12092180453E+04  0.50400001928E-02 0. -1.
    10030    2    1    2    0    0  0.00000000000E+00  0.00000000000E+00 -0.38469796958E+03  0.20337381210E+04  0.19970223376E+04 0.  0.
        5    1    3    3  502    0  0.72644324835E+02  0.91725749633E+03  0.20254814034E+03  0.94217108407E+03  0.46999998093E+01 0.  1.
       -5    1    3    3    0  502 -0.72644324835E+02 -0.91725749633E+03 -0.58724610992E+03  0.10915670369E+04  0.46999998093E+01 0. -1.
</event>
<event>
 5   0  0.4412054E-05  0.2004477E+04  0.7818609E-02  0.8604530E-01
        2   -1    0    0  501    0  0.00000000000E+00  0.00000000000E+00  0.16671821700E+04  0.16671821700E+04  0.25500000920E-02 0.  1.
       -2   -1    0    0    0  501  0.00000000000E+00  0.00000000000E+00 -0.60250273334E+03  0.60250273334E+03  0.25500000920E-02 0. -1.
    10030    2    1    2    0    0  0.00000000000E+00  0.00000000000E+00  0.10646794366E+04  0.22696849033E+04  0.20044768039E+04 0.  0.
        4    1    3    3  502    0 -0.39981057726E+03  0.43102479436E+03 -0.38674932443E+03  0.70370982932E+03  0.12699999809E+01 0. -1.
       -4    1    3    3    0  502  0.39981057726E+03 -0.43102479436E+03  0.14514287611E+04  0.15659750740E+04  0.12699999809E+01 0.  1.
</event>
<event>
 5   0  0.4447313E-05  0.2001182E+04  0.7818609E-02  0.8606068E-01
        2   -1    0    0  501    0  0.00000000000E+00  0.00000000000E+00  0.15363326185E+04  0.15363326185E+04  0.25500000920E-02 0. -1.
       -2   -1    0    0    0  501  0.00000000000E+00  0.00000000000E+00 -0.65167017233E+03  0.65167017234E+03  0.25500000920E-02 0.  1.
    10030    2    1    2    0    0  0.00000000000E+00  0.00000000000E+00  0.88466244617E+03  0.21880027908E+04  0.20011817931E+04 0.  0.
        5    1    3    3  502    0 -0.61209713903E+03 -0.44396615757E+03  0.11587845377E+04  0.13836807983E+04  0.46999998093E+01 0. -1.
       -5    1    3    3    0  502  0.61209713903E+03  0.44396615757E+03 -0.27412209153E+03  0.80432199257E+03  0.46999998093E+01 0.  1.
</event>
<event>
 5   0  0.2110896E-05  0.1993050E+04  0.7818609E-02  0.8609877E-01
        1   -1    0    0  501    0  0.00000000000E+00  0.00000000000E+00  0.16396038858E+04  0.16396038858E+04  0.50400001928E-02 0.  1.
       -1   -1    0    0    0  501  0.00000000000E+00  0.00000000000E+00 -0.60567217286E+03  0.60567217288E+03  0.50400001928E-02 0. -1.
    10030    2    1    2    0    0  0.00000000000E+00  0.00000000000E+00  0.10339317129E+04  0.22452760587E+04  0.19930503738E+04 0.  0.
        4    1    3    3  502    0  0.16235106492E+03  0.23813471784E+03 -0.55769376385E+03  0.62776584747E+03  0.12699999809E+01 0. -1.
       -4    1    3    3    0  502 -0.16235106492E+03 -0.23813471784E+03  0.15916254768E+04  0.16175102112E+04  0.12699999809E+01 0.  1.
</event>
<event>
 5   0  0.4514680E-05  0.2001595E+04  0.7818609E-02  0.8605875E-01
        2   -1    0    0  501    0  0.00000000000E+00  0.00000000000E+00  0.16111622603E+04  0.16111622603E+04  0.25500000920E-02 0.  1.
       -2   -1    0    0    0  501  0.00000000000E+00  0.00000000000E+00 -0.62166016109E+03  0.62166016110E+03  0.25500000920E-02 0. -1.
    10030    2    1    2    0    0  0.00000000000E+00  0.00000000000E+00  0.98950209916E+03  0.22328224213E+04  0.20015947544E+04 0.  0.
        3    1    3    3  502    0  0.70261211829E+03 -0.55108480841E+03  0.99888433744E+03  0.13398239379E+04  0.10100000352E+00 0.  1.
       -3    1    3    3    0  502 -0.70261211829E+03  0.55108480841E+03 -0.93822382794E+01  0.89299848344E+03  0.10100000352E+00 0. -1.
</event>
<event>
 5   0  0.2256868E-05  0.1994721E+04  0.7818609E-02  0.8609093E-01
       -1   -1    0    0    0  501  0.00000000000E+00  0.00000000000E+00  0.82484772744E+03  0.82484772745E+03  0.50400001928E-02 0.  1.
        1   -1    0    0  501    0  0.00000000000E+00  0.00000000000E+00 -0.12059530699E+04  0.12059530699E+04  0.50400001928E-02 0. -1.
    10030    2    1    2    0    0  0.00000000000E+00  0.00000000000E+00 -0.38110534249E+03  0.20308007974E+04  0.19947206814E+04 0.  0.
        5    1    3    3  502    0  0.89356811714E+03  0.38253096444E+03  0.36897441648E+02  0.97271652085E+03  0.46999998093E+01 0. -1.
       -5    1    3    3    0  502 -0.89356811714E+03 -0.38253096444E+03 -0.41800278414E+03  0.10580842765E+04  0.46999998093E+01 0.  1.
</event>
<event>
 5   0  0.2142551E-05  0.1978542E+04  0.7818609E-02  0.8616719E-01
       -1   -1    0    0    0  501  0.00000000000E+00  0.00000000000E+00  0.55747130517E+03  0.55747130519E+03  0.50400001928E-02 0. -1.
        1   -1    0    0  501    0  0.00000000000E+00  0.00000000000E+00 -0.17555285778E+04  0.17555285778E+04  0.50400001928E-02 0.  1.
    10030    2    1    2    0    0  0.00000000000E+00  0.00000000000E+00 -0.11980572727E+04  0.23129998830E+04  0.19785416928E+04 0.  0.
        3    1    3    3  502    0 -0.79914994496E+03  0.20231071342E+03 -0.12383641620E+04  0.14876545524E+04  0.10100000352E+00 0.  1.
       -3    1    3    3    0  502  0.79914994496E+03 -0.20231071342E+03  0.40306889336E+02  0.82534533065E+03  0.10100000352E+00 0. -1.
</event>
<event>
 5   0  0.2142551E-05  0.1993557E+04  0.7818609E-02  0.8609639E-01
        1   -1    0    0  501    0  0.00000000000E+00  0.00000000000E+00  0.16329544965E+04  0.16329544965E+04  0.50400001928E-02 0.  1.
       -1   -1    0    0    0  501  0.00000000000E+00  0.00000000000E+00 -0.60844789967E+03  0.60844789969E+03  0.50400001928E-02 0. -1.
    10030    2    1    2    0    0  0.00000000000E+00  0.00000000000E+00  0.10245065968E+04  0.22414023962E+04  0.19935573567E+04 0.  0.
        3    1    3    3  502    0 -0.18843781738E+03  0.45892899551E+03  0.14842844023E+04  0.15649999460E+04  0.10100000352E+00 0.  1.
       -3    1    3    3    0  502  0.18843781738E+03 -0.45892899551E+03 -0.45977780549E+03  0.67640245015E+03  0.10100000352E+00 0. -1.
</event>
<event>
 5   0  0.2007644E-05  0.1990788E+04  0.7818609E-02  0.8610940E-01
       -1   -1    0    0    0  501  0.00000000000E+00  0.00000000000E+00  0.13146454804E+04  0.13146454804E+04  0.50400001928E-02 0.  1.
        1   -1    0    0  501    0  0.00000000000E+00  0.00000000000E+00 -0.75367029719E+03  0.75367029720E+03  0.50400001928E-02 0. -1.
    10030    2    1    2    0    0  0.00000000000E+00  0.00000000000E+00  0.56097518319E+03  0.20683157776E+04  0.19907880348E+04 0.  0.
        1    1    3    3  502    0  0.83454944759E+03  0.51210697303E+03  0.94395142737E+02  0.98368530298E+03  0.50400001928E-02 0. -1.
       -1    1    3    3    0  502 -0.83454944759E+03 -0.51210697303E+03  0.46658004046E+03  0.10846304746E+04  0.50400001928E-02 0.  1.
</event>
<event>
 5   0  0.4514680E-05  0.1996439E+04  0.7818609E-02  0.8608287E-01
       -2   -1    0    0    0  501  0.00000000000E+00  0.00000000000E+00  0.99550995363E+03  0.99550995364E+03  0.25500000920E-02 0. -1.
        2   -1    0    0  501    0  0.00000000000E+00  0.00000000000E+00 -0.10009367626E+04  0.10009367626E+04  0.25500000920E-02 0.  1.
    10030    2    1    2    0    0  0.00000000000E+00  0.00000000000E+00 -0.54268089482E+01  0.19964467162E+04  0.19964393405E+04 0.  0.
        3    1    3    3  502    0  0.92077951270E+03  0.36575704206E+03  0.11906296705E+03  0.99789234146E+03  0.10100000352E+00 0. -1.
       -3    1    3    3    0  502 -0.92077951270E+03 -0.36575704206E+03 -0.12448977600E+03  0.99855437476E+03  0.10100000352E+00 0.  1.
</event>
<event>
 5   0  0.1601500E-05  0.1999986E+04  0.7818609E-02  0.8606627E-01
        3   -1    0    0  501    0  0.00000000000E+00  0.00000000000E+00  0.10342750037E+04  0.10342750087E+04  0.10100000352E+00 0. -1.
       -3   -1    0    0    0  501  0.00000000000E+00  0.00000000000E+00 -0.96684692680E+03  0.96684693207E+03  0.10100000352E+00 0.  1.
    10030    2    1    2    0    0  0.00000000000E+00  0.00000000000E+00  0.67428076930E+02  0.20011219407E+04  0.19999856190E+04 0.  0.
        4    1    3    3  502    0 -0.37107474927E+03 -0.17504673575E+03  0.94617854177E+03  0.10313065863E+04  0.12699999809E+01 0. -1.
       -4    1    3    3    0  502  0.37107474927E+03  0.17504673575E+03 -0.87875046484E+03  0.96981535438E+03  0.12699999809E+01 0.  1.
</event>
<event>
 5   0  0.4514680E-05  0.2003457E+04  0.7818609E-02  0.8605006E-01
       -2   -1    0    0    0  501  0.00000000000E+00  0.00000000000E+00  0.88476011416E+03  0.88476011416E+03  0.25500000920E-02 0. -1.
        2   -1    0    0  501    0  0.00000000000E+00  0.00000000000E+00 -0.11341609461E+04  0.11341609461E+04  0.25500000920E-02 0.  1.
    10030    2    1    2    0    0  0.00000000000E+00  0.00000000000E+00 -0.24940083190E+03  0.20189210602E+04  0.20034573797E+04 0.  0.
        3    1    3    3  502    0 -0.25860367779E+03 -0.30494333600E+03  0.80086258669E+03  0.89512412173E+03  0.10100000352E+00 0. -1.
       -3    1    3    3    0  502  0.25860367779E+03  0.30494333600E+03 -0.10502634186E+04  0.11237969385E+04  0.10100000352E+00 0.  1.
</event>
<event>
 5   0  0.4447313E-05  0.2004118E+04  0.7818609E-02  0.8604698E-01
        2   -1    0    0  501    0  0.00000000000E+00  0.00000000000E+00  0.13000358313E+04  0.13000358313E+04  0.25500000920E-02 0. -1.
       -2   -1    0    0    0  501  0.00000000000E+00  0.00000000000E+00 -0.77238061014E+03  0.77238061014E+03  0.25500000920E-02 0.  1.
    10030    2    1    2    0    0  0.00000000000E+00  0.00000000000E+00  0.52765522111E+03  0.20724164414E+04  0.20041182286E+04 0.  0.
        5    1    3    3  502    0 -0.36693248931E+03 -0.24890973327E+02 -0.70005453523E+03  0.79079545684E+03  0.46999998093E+01 0.  1.
       -5    1    3    3    0  502  0.36693248931E+03  0.24890973327E+02  0.12277097563E+04  0.12816209846E+04  0.46999998093E+01 0. -1.
</event>
<event>
 5   0  0.2093980E-05  0.2003114E+04  0.7818609E-02  0.8605166E-01
       -1   -1    0    0    0  501  0.00000000000E+00  0.00000000000E+00  0.17546894804E+04  0.17546894804E+04  0.50400001928E-02 0.  1.
        1   -1    0    0  501    0  0.00000000000E+00  0.00000000000E+00 -0.57167765035E+03  0.57167765038E+03  0.50400001928E-02 0. -1.
    10030    2    1    2    0    0  0.00000000000E+00  0.00000000000E+00  0.11830118301E+04  0.23263671308E+04  0.20031143345E+04 0.  0.
        2    1    3    3  502    0 -0.69694562854E+03 -0.36663221062E+03 -0.12720079683E+03  0.79770447518E+03  0.25500000920E-02 0. -1.
       -2    1    3    3    0  502  0.69694562854E+03  0.36663221062E+03  0.13102126269E+04  0.15286626556E+04  0.25500000920E-02 0.  1.
</event>
<event>
 5   0  0.2110896E-05  0.2002256E+04  0.7818609E-02  0.8605566E-01
       -1   -1    0    0    0  501  0.00000000000E+00  0.00000000000E+00  0.10537206631E+04  0.10537206631E+04  0.50400001928E-02 0. -1.
        1   -1    0    0  501    0  0.00000000000E+00  0.00000000000E+00 -0.95116062420E+03  0.95116062421E+03  0.50400001928E-02 0.  1.
    10030    2    1    2    0    0  0.00000000000E+00  0.00000000000E+00  0.10256003888E+03  0.20048812873E+04  0.20022563309E+04 0.  0.
        4    1    3    3  502    0  0.15831666215E+03  0.18432819666E+03 -0.92118574875E+03  0.95269399399E+03  0.12699999809E+01 0.  1.
       -4    1    3    3    0  502 -0.15831666215E+03 -0.18432819666E+03  0.10237457876E+04  0.10521872933E+04  0.12699999809E+01 0. -1.
</event>
<event>
 5   0  0.4473361E-05  0.1987319E+04  0.7818609E-02  0.8612572E-01
       -2   -1    0    0    0  501  0.00000000000E+00  0.00000000000E+00  0.10856253266E+04  0.10856253266E+04  0.25500000920E-02 0. -1.
        2   -1    0    0  501    0  0.00000000000E+00  0.00000000000E+00 -0.90948447435E+03  0.90948447435E+03  0.25500000920E-02 0.  1.
    10030    2    1    2    0    0  0.00000000000E+00  0.00000000000E+00  0.17614085229E+03  0.19951098010E+04  0.19873191787E+04 0.  0.
        2    1    3    3  502    0 -0.69455938679E+03  0.39835659771E+03 -0.50267381909E+03  0.94540027984E+03  0.25500000920E-02 0.  1.
       -2    1    3    3    0  502  0.69455938679E+03 -0.39835659771E+03  0.67881467138E+03  0.10497095212E+04  0.25500000920E-02 0. -1.
</event>
<event>
 5   0  0.4514680E-05  0.2011389E+04  0.7818609E-02  0.8601314E-01
       -2   -1    0    0    0  501  0.00000000000E+00  0.00000000000E+00  0.60487323699E+03  0.60487323699E+03  0.25500000920E-02 0.  1.
        2   -1    0    0  501    0  0.00000000000E+00  0.00000000000E+00 -0.16721210052E+04  0.16721210052E+04  0.25500000920E-02 0. -1.
    10030    2    1    2    0    0  0.00000000000E+00  0.00000000000E+00 -0.10672477682E+04  0.22769942421E+04  0.20113888187E+04 0.  0.
        3    1    3    3  502    0 -0.85463028109E+02 -0.98133226572E+03 -0.76313803939E+03  0.12460724787E+04  0.10100000352E+00 0. -1.
       -3    1    3    3    0  502  0.85463028109E+02  0.98133226572E+03 -0.30410972877E+03  0.10309217634E+04  0.10100000352E+00 0.  1.
</event>
<event>
 5   0  0.2007644E-05  0.2003608E+04  0.7818609E-02  0.8604936E-01
       -1   -1    0    0    0  501  0.00000000000E+00  0.00000000000E+00  0.69357330190E+03  0.69357330191E+03  0.50400001928E-02 0.  1.
        1   -1    0    0  501    0  0.00000000000E+00  0.00000000000E+00 -0.14470148438E+04  0.14470148439E+04  0.50400001928E-02 0. -1.
    10030    2    1    2    0    0  0.00000000000E+00  0.00000000000E+00 -0.75344154195E+03  0.21405881458E+04  0.20036076095E+04 0.  0.
        1    1    3    3  502    0  0.54802163188E+03  0.12361705823E+03 -0.12628871863E+04  0.13822058209E+04  0.50400001928E-02 0. -1.
       -1    1    3    3    0  502 -0.54802163188E+03 -0.12361705823E+03  0.50944564433E+03  0.75838232485E+03  0.50400001928E-02 0.  1.
</event>
<event>
 5   0  0.4447313E-05  0.1978478E+04  0.7818609E-02  0.8616750E-01
       -2   -1    0    0    0  501  0.00000000000E+00  0.00000000000E+00  0.57585392402E+03  0.57585392403E+03  0.25500000920E-02 0. -1.
        2   -1    0    0  501    0  0.00000000000E+00  0.00000000000E+00 -0.16993780186E+04  0.16993780186E+04  0.25500000920E-02 0.  1.
    10030    2    1    2    0    0  0.00000000000E+00  0.00000000000E+00 -0.11235240946E+04  0.22752319426E+04  0.19784776981E+04 0.  0.
        5    1    3    3  502    0  0.82238444799E+03 -0.11216083657E+03  0.57180242874E+02  0.83197830725E+03  0.46999998093E+01 0. -1.
       -5    1    3    3    0  502 -0.82238444799E+03  0.11216083657E+03 -0.11807043375E+04  0.14432536354E+04  0.46999998093E+01 0.  1.
</event>
<event>
 5   0  0.2110896E-05  0.2005200E+04  0.7818609E-02  0.8604193E-01
        1   -1    0    0  501    0  0.00000000000E+00  0.00000000000E+00  0.72929679614E+03  0.72929679615E+03  0.50400001928E-02 0. -1.
       -1   -1    0    0    0  501  0.00000000000E+00  0.00000000000E+00 -0.13783238161E+04  0.13783238161E+04  0.50400001928E-02 0.  1.
    10030    2    1    2    0    0  0.00000000000E+00  0.00000000000E+00 -0.64902701998E+03  0.21076206123E+04  0.20052003822E+04 0.  0.
        4    1    3    3  502    0 -0.54815256618E+03  0.78602803275E+02  0.55397328779E+03  0.78328644376E+03  0.12699999809E+01 0. -1.
       -4    1    3    3    0  502  0.54815256618E+03 -0.78602803275E+02 -0.12030003078E+04  0.13243341685E+04  0.12699999809E+01 0.  1.
</event>
<event>
 5   0  0.2256868E-05  0.1999005E+04  0.7818609E-02  0.8607086E-01
       -1   -1    0    0    0  501  0.00000000000E+00  0.00000000000E+00  0.67003293945E+03  0.67003293947E+03  0.50400001928E-02 0.  1.
        1   -1    0    0  501    0  0.00000000000E+00  0.00000000000E+00 -0.14909789871E+04  0.14909789871E+04  0.50400001928E-02 0. -1.
    10030    2    1    2    0    0  0.00000000000E+00  0.00000000000E+00 -0.82094604761E+03  0.21610119265E+04  0.19990047858E+04 0.  0.
        5    1    3    3  502    0 -0.85015177099E+03  0.31716297529E+03 -0.86352271810E+03  0.12526148495E+04  0.46999998093E+01 0. -1.
       -5    1    3    3    0  502  0.85015177099E+03 -0.31716297529E+03  0.42576670493E+02  0.90839707699E+03  0.46999998093E+01 0.  1.
</event>
<event>
 5   0  0.4473361E-05  0.2000954E+04  0.7818609E-02  0.8606175E-01
       -2   -1    0    0    0  501  0.00000000000E+00  0.00000000000E+00  0.87146055768E+03  0.87146055768E+03  0.25500000920E-02 0. -1.
        2   -1    0    0  501    0  0.00000000000E+00  0.00000000000E+00 -0.11485936387E+04  0.11485936387E+04  0.25500000920E-02 0.  1.
    10030    2    1    2    0    0  0.00000000000E+00  0.00000000000E+00 -0.27713308102E+03  0.20200541964E+04  0.20009538255E+04 0.  0.
        2    1    3    3  502    0 -0.11754786608E+03  0.41755445906E+02  0.86357877009E+03  0.87254186732E+03  0.25500000920E-02 0. -1.
       -2    1    3    3    0  502  0.11754786608E+03 -0.41755445906E+02 -0.11407118511E+04  0.11475123291E+04  0.25500000920E-02 0.  1.
</event>
<event>
 5   0  0.2007644E-05  0.1998868E+04  0.7818609E-02  0.8607150E-01
        1   -1    0    0  501    0  0.00000000000E+00  0.00000000000E+00  0.11971647419E+04  0.11971647419E+04  0.50400001928E-02 0. -1.
       -1   -1    0    0    0  501  0.00000000000E+00  0.00000000000E+00 -0.83436178914E+03  0.83436178916E+03  0.50400001928E-02 0.  1.
    10030    2    1    2    0    0  0.00000000000E+00  0.00000000000E+00  0.36280295272E+03  0.20315265310E+04  0.19988681957E+04 0.  0.
        1    1    3    3  502    0 -0.13895625012E+03  0.14250440141E+03 -0.81401479632E+03  0.83799548479E+03  0.50400001928E-02 0.  1.
       -1    1    3    3    0  502  0.13895625012E+03 -0.14250440141E+03  0.11768177490E+04  0.11935310462E+04  0.50400001928E-02 0. -1.
</event>
<event>
 5   0  0.2093980E-05  0.2001206E+04  0.7818609E-02  0.8606057E-01
       -1   -1    0    0    0  501  0.00000000000E+00  0.00000000000E+00  0.97782984951E+03  0.97782984953E+03  0.50400001928E-02 0.  1.
        1   -1    0    0  501    0  0.00000000000E+00  0.00000000000E+00 -0.10239068096E+04  0.10239068096E+04  0.50400001928E-02 0. -1.
    10030    2    1    2    0    0  0.00000000000E+00  0.00000000000E+00 -0.46076960113E+02  0.20017366592E+04  0.20012062778E+04 0.  0.
        2    1    3    3  502    0 -0.91879013546E+03 -0.39512771878E+03  0.70595999469E+01  0.10001755172E+04  0.25500000920E-02 0. -1.
       -2    1    3    3    0  502  0.91879013546E+03  0.39512771878E+03 -0.53136560060E+02  0.10015611420E+04  0.25500000920E-02 0.  1.
</event>
<event>
 5   0  0.4447313E-05  0.2023109E+04  0.7818609E-02  0.8595892E-01
       -2   -1    0    0    0  501  0.00000000000E+00  0.00000000000E+00  0.10402940359E+04  0.10402940359E+04  0.25500000920E-02 0. -1.
        2   -1    0    0  501    0  0.00000000000E+00  0.00000000000E+00 -0.98360917885E+03  0.98360917885E+03  0.25500000920E-02 0.  1.
    10030    2    1    2    0    0  0.00000000000E+00  0.00000000000E+00  0.56684857017E+02  0.20239032147E+04  0.20231092530E+04 0.  0.
        5    1    3    3  502    0  0.91457719432E+03 -0.20153739812E+03 -0.35410579182E+03  0.10012401156E+04  0.46999998093E+01 0.  1.
       -5    1    3    3    0  502 -0.91457719432E+03  0.20153739812E+03  0.41079064884E+03  0.10226630992E+04  0.46999998093E+01 0. -1.
</event>
<event>
 5   0  0.4412054E-05  0.1991576E+04  0.7818609E-02  0.8610569E-01
        2   -1    0    0  501    0  0.00000000000E+00  0.00000000000E+00  0.13986884919E+04  0.13986884919E+04  0.25500000920E-02 0. -1.
       -2   -1    0    0    0  501  0.00000000000E+00  0.00000000000E+00 -0.70894539842E+03  0.70894539842E+03  0.25500000920E-02 0.  1.
    10030    2    1    2    0    0  0.00000000000E+00  0.00000000000E+00  0.68974309344E+03  0.21076338903E+04  0.19915760293E+04 0.  0.
        4    1    3    3  502    0  0.95443713482E+03  0.18251577512E+03  0.57510376507E+03  0.11291626127E+04  0.12699999809E+01 0. -1.
       -4    1    3    3    0  502 -0.95443713482E+03 -0.18251577512E+03  0.11463932837E+03  0.97847127756E+03  0.12699999809E+01 0.  1.
</event>
<event>
 5   0  0.2093980E-05  0.1995377E+04  0.7818609E-02  0.8608785E-01
        1   -1    0    0  501    0  0.00000000000E+00  0.00000000000E+00  0.11407844559E+04  0.11407844559E+04  0.50400001928E-02 0. -1.
       -1   -1    0    0    0  501  0.00000000000E+00  0.00000000000E+00 -0.87254224764E+03  0.87254224766E+03  0.50400001928E-02 0.  1.
    10030    2    1    2    0    0  0.00000000000E+00  0.00000000000E+00  0.26824220822E+03  0.20133267035E+04  0.19953772909E+04 0.  0.
        2    1    3    3  502    0  0.34070915728E+03  0.28337500990E+03 -0.76778684042E+03  0.88649915873E+03  0.25500000920E-02 0.  1.
       -2    1    3    3    0  502 -0.34070915728E+03 -0.28337500990E+03  0.10360290486E+04  0.11268275448E+04  0.25500000920E-02 0. -1.
</event>
<event>
 5   0  0.2142551E-05  0.2009407E+04  0.7818609E-02  0.8602235E-01
       -1   -1    0    0    0  501  0.00000000000E+00  0.00000000000E+00  0.98814408346E+03  0.98814408347E+03  0.50400001928E-02 0. -1.
        1   -1    0    0  501    0  0.00000000000E+00  0.00000000000E+00 -0.10215402603E+04  0.10215402603E+04  0.50400001928E-02 0.  1.
    10030    2    1    2    0    0  0.00000000000E+00  0.00000000000E+00 -0.33396176843E+02  0.20096843438E+04  0.20094068421E+04 0.  0.
        3    1    3    3  502    0  0.95308019526E+03 -0.20806551319E+03 -0.25709733265E+03  0.10088370359E+04  0.10100000352E+00 0.  1.
       -3    1    3    3    0  502 -0.95308019526E+03  0.20806551319E+03  0.22370115580E+03  0.10008473079E+04  0.10100000352E+00 0. -1.
</event>
<event>
 5   0  0.2093980E-05  0.2001500E+04  0.7818609E-02  0.8605920E-01
       -1   -1    0    0    0  501  0.00000000000E+00  0.00000000000E+00  0.85788428131E+03  0.85788428132E+03  0.50400001928E-02 0. -1.
        1   -1    0    0  501    0  0.00000000000E+00  0.00000000000E+00 -0.11674073568E+04  0.11674073568E+04  0.50400001928E-02 0.  1.
    10030    2    1    2    0    0  0.00000000000E+00  0.00000000000E+00 -0.30952307545E+03  0.20252916381E+04  0.20014998589E+04 0.  0.
        2    1    3    3  502    0 -0.11015869612E+02  0.56106731457E+03 -0.99321388218E+03  0.11407855612E+04  0.25500000920E-02 0.  1.
       -2    1    3    3    0  502  0.11015869612E+02 -0.56106731457E+03  0.68369080673E+03  0.88450607690E+03  0.25500000920E-02 0. -1.
</event>
<event>
 5   0  0.4514680E-05  0.2022518E+04  0.7818609E-02  0.8596165E-01
       -2   -1    0    0    0  501  0.00000000000E+00  0.00000000000E+00  0.51979698026E+03  0.51979698027E+03  0.25500000920E-02 0.  1.
        2   -1    0    0  501    0  0.00000000000E+00  0.00000000000E+00 -0.19673922978E+04  0.19673922978E+04  0.25500000920E-02 0. -1.
    10030    2    1    2    0    0  0.00000000000E+00  0.00000000000E+00 -0.14475953175E+04  0.24871892781E+04  0.20225178124E+04 0.  0.
        3    1    3    3  502    0  0.42151233857E+03 -0.64462148567E+02 -0.18514289170E+04  0.18998992250E+04  0.10100000352E+00 0. -1.
       -3    1    3    3    0  502 -0.42151233857E+03  0.64462148567E+02  0.40383359949E+03  0.58729005307E+03  0.10100000352E+00 0.  1.
</event>
<event>
 5   0  0.2256868E-05  0.1929394E+04  0.7818609E-02  0.8640362E-01
        1   -1    0    0  501    0  0.00000000000E+00  0.00000000000E+00  0.12753658436E+04  0.12753658436E+04  0.50400001928E-02 0.  1.
       -1   -1    0    0    0  501  0.00000000000E+00  0.00000000000E+00 -0.72970489966E+03  0.72970489968E+03  0.50400001928E-02 0. -1.
    10030    2    1    2    0    0  0.00000000000E+00  0.00000000000E+00  0.54566094394E+03  0.20050707433E+04  0.19293944179E+04 0.  0.
        5    1    3    3  502    0  0.50863251405E+03  0.28386654691E+03 -0.52631186561E+03  0.78505638058E+03  0.46999998093E+01 0. -1.
       -5    1    3    3    0  502 -0.50863251405E+03 -0.28386654691E+03  0.10719728096E+04  0.12200143627E+04  0.46999998093E+01 0.  1.
</event>
<event>
 5   0  0.2110896E-05  0.1998013E+04  0.7818609E-02  0.8607550E-01
       -1   -1    0    0    0  501  0.00000000000E+00  0.00000000000E+00  0.57007312125E+03  0.57007312127E+03  0.50400001928E-02 0. -1.
        1   -1    0    0  501    0  0.00000000000E+00  0.00000000000E+00 -0.17506764024E+04  0.17506764024E+04  0.50400001928E-02 0.  1.
    10030    2    1    2    0    0  0.00000000000E+00  0.00000000000E+00 -0.11806032812E+04  0.23207495237E+04  0.19980125736E+04 0.  0.
        4    1    3    3  502    0  0.60691966396E+03  0.75421559552E+03 -0.87675292907E+03  0.13060972225E+04  0.12699999809E+01 0.  1.
       -4    1    3    3    0  502 -0.60691966396E+03 -0.75421559552E+03 -0.30385035211E+03  0.10146523012E+04  0.12699999809E+01 0. -1.
</event>
<event>
 5   0  0.2142551E-05  0.2007975E+04  0.7818609E-02  0.8602901E-01
        1   -1    0    0  501    0  0.00000000000E+00  0.00000000000E+00  0.14750510313E+04  0.14750510313E+04  0.50400001928E-02 0. -1.
       -1   -1    0    0    0  501  0.00000000000E+00  0.00000000000E+00 -0.68336026661E+03  0.68336026663E+03  0.50400001928E-02 0.  1.
    10030    2    1    2    0    0  0.00000000000E+00  0.00000000000E+00  0.79169076472E+03  0.21584112980E+04  0.20079753645E+04 0.  0.
        3    1    3    3  502    0 -0.21988723841E+03 -0.95152148999E+03  0.64620630286E+03  0.11710363528E+04  0.10100000352E+00 0. -1.
       -3    1    3    3    0  502  0.21988723841E+03  0.95152148999E+03  0.14548446187E+03  0.98737494518E+03  0.10100000352E+00 0.  1.
</event>
<event>
 5   0  0.4577279E-05  0.1998596E+04  0.7818609E-02  0.8607277E-01
        2   -1    0    0  501    0  0.00000000000E+00  0.00000000000E+00  0.85765874705E+03  0.85765874705E+03  0.25500000920E-02 0. -1.
       -2   -1    0    0    0  501  0.00000000000E+00  0.00000000000E+00 -0.11643283222E+04  0.11643283222E+04  0.25500000920E-02 0.  1.
    10030    2    1    2    0    0  0.00000000000E+00  0.00000000000E+00 -0.30666957513E+03  0.20219870692E+04  0.19985958771E+04 0.  0.
        1    1    3    3  502    0 -0.66901574686E+02 -0.38097910710E+03 -0.10855173133E+04  0.11523752593E+04  0.50400001928E-02 0.  1.
       -1    1    3    3    0  502  0.66901574686E+02  0.38097910710E+03  0.77884773816E+03  0.86961180995E+03  0.50400001928E-02 0. -1.
</event>
<event>
 5   0  0.2007644E-05  0.1980699E+04  0.7818609E-02  0.8615698E-01
       -1   -1    0    0    0  501  0.00000000000E+00  0.00000000000E+00  0.16118646009E+04  0.16118646009E+04  0.50400001928E-02 0. -1.
        1   -1    0    0  501    0  0.00000000000E+00  0.00000000000E+00 -0.60848274096E+03  0.60848274098E+03  0.50400001928E-02 0.  1.
    10030    2    1    2    0    0  0.00000000000E+00  0.00000000000E+00  0.10033818600E+04  0.22203473419E+04  0.19806986550E+04 0.  0.
        1    1    3    3  502    0 -0.58734114968E+03  0.75353851728E+03  0.79401389262E+03  0.12422753257E+04  0.50400001928E-02 0. -1.
       -1    1    3    3    0  502  0.58734114968E+03 -0.75353851728E+03  0.20936796733E+03  0.97807201621E+03  0.50400001928E-02 0.  1.
</event>
<event>
 5   0  0.4514680E-05  0.1990705E+04  0.7818609E-02  0.8610979E-01
       -2   -1    0    0    0  501  0.00000000000E+00  0.00000000000E+00  0.75481900974E+03  0.75481900974E+03  0.25500000920E-02 0. -1.
        2   -1    0    0  501    0  0.00000000000E+00  0.00000000000E+00 -0.13125349787E+04  0.13125349787E+04  0.25500000920E-02 0.  1.
    10030    2    1    2    0    0  0.00000000000E+00  0.00000000000E+00 -0.55771596898E+03  0.20673539885E+04  0.19907047525E+04 0.  0.
        3    1    3    3  502    0 -0.16898190392E+03  0.74850999152E+03  0.37951089376E+03  0.85606694828E+03  0.10100000352E+00 0. -1.
       -3    1    3    3    0  502  0.16898190392E+03 -0.74850999152E+03 -0.93722686274E+03  0.12112870402E+04  0.10100000352E+00 0.  1.
</event>
<event>
 5   0  0.4514680E-05  0.1998844E+04  0.7818609E-02  0.8607161E-01
        2   -1    0    0  501    0  0.00000000000E+00  0.00000000000E+00  0.12348240337E+04  0.12348240337E+04  0.25500000920E-02 0.  1.
       -2   -1    0    0    0  501  0.00000000000E+00  0.00000000000E+00 -0.80889621364E+03  0.80889621364E+03  0.25500000920E-02 0. -1.
    10030    2    1    2    0    0  0.00000000000E+00  0.00000000000E+00  0.42592782009E+03  0.20437202474E+04  0.19988441514E+04 0.  0.
        3    1    3    3  502    0  0.39623494260E+03  0.67288686772E+03 -0.42479118282E+03  0.88894680700E+03  0.10100000352E+00 0.  1.
       -3    1    3    3    0  502 -0.39623494260E+03 -0.67288686772E+03  0.85071900290E+03  0.11547734404E+04  0.10100000352E+00 0. -1.
</event>
<event>
 5   0  0.4412054E-05  0.1997085E+04  0.7818609E-02  0.8607985E-01
       -2   -1    0    0    0  501  0.00000000000E+00  0.00000000000E+00  0.45235829245E+03  0.45235829246E+03  0.25500000920E-02 0. -1.
        2   -1    0    0  501    0  0.00000000000E+00  0.00000000000E+00 -0.22041967980E+04  0.22041967980E+04  0.25500000920E-02 0.  1.
    10030    2    1    2    0    0  0.00000000000E+00  0.00000000000E+00 -0.17518385055E+04  0.26565550904E+04  0.19970845748E+04 0.  0.
        4    1    3    3  502    0  0.48368815655E+02  0.13266557932E+02  0.45068060702E+03  0.45346462523E+03  0.12699999809E+01 0. -1.
       -4    1    3    3    0  502 -0.48368815655E+02 -0.13266557932E+02 -0.22025191125E+04  0.22030904652E+04  0.12699999809E+01 0.  1.
</event>
<event>
 5   0  0.2142551E-05  0.1990242E+04  0.7818609E-02  0.8611196E-01
        1   -1    0    0  501    0  0.00000000000E+00  0.00000000000E+00  0.91340558611E+03  0.91340558613E+03  0.50400001928E-02 0. -1.
       -1   -1    0    0    0  501  0.00000000000E+00  0.00000000000E+00 -0.10841473444E+04  0.10841473444E+04  0.50400001928E-02 0.  1.
    10030    2    1    2    0    0  0.00000000000E+00  0.00000000000E+00 -0.17074175831E+03  0.19975529306E+04  0.19902424381E+04 0.  0.
        3    1    3    3  502    0  0.51023096380E+02 -0.53023732141E+03 -0.92900057089E+03  0.10708861024E+04  0.10100000352E+00 0.  1.
       -3    1    3    3    0  502 -0.51023096380E+02  0.53023732141E+03  0.75825881258E+03  0.92666682817E+03  0.10100000352E+00 0. -1.
</event>
<event>
 5   0  0.4412054E-05  0.2004150E+04  0.7818609E-02  0.8604683E-01
        2   -1    0    0  501    0  0.00000000000E+00  0.00000000000E+00  0.16637894376E+04  0.16637894376E+04  0.25500000920E-02 0. -1.
       -2   -1    0    0    0  501  0.00000000000E+00  0.00000000000E+00 -0.60353467861E+03  0.60353467861E+03  0.25500000920E-02 0.  1.
    10030    2    1    2    0    0  0.00000000000E+00  0.00000000000E+00  0.10602547590E+04  0.22673241162E+04  0.20041503172E+04 0.  0.
        4    1    3    3  502    0  0.60621929311E+03 -0.79770829786E+03  0.55013120523E+03  0.11430163235E+04  0.12699999809E+01 0. -1.
       -4    1    3    3    0  502 -0.60621929311E+03  0.79770829786E+03  0.51012355372E+03  0.11243077927E+04  0.12699999809E+01 0.  1.
</event>
<event>
 5   0  0.2256868E-05  0.1996580E+04  0.7818609E-02  0.8608221E-01
        1   -1    0    0  501    0  0.00000000000E+00  0.00000000000E+00  0.69119404810E+03  0.69119404812E+03  0.50400001928E-02 0. -1.
       -1   -1    0    0    0  501  0.00000000000E+00  0.00000000000E+00 -0.14418285008E+04  0.14418285008E+04  0.50400001928E-02 0.  1.
    10030    2    1    2    0    0  0.00000000000E+00  0.00000000000E+00 -0.75063445270E+03  0.21330225489E+04  0.19965803547E+04 0.  0.
        5    1    3    3  502    0 -0.60033808387E+03  0.27086849779E+03  0.42613963800E+03  0.78446965468E+03  0.46999998093E+01 0. -1.
       -5    1    3    3    0  502  0.60033808387E+03 -0.27086849779E+03 -0.11767740907E+04  0.13485528942E+04  0.46999998093E+01 0.  1.
</event>
<event>
 5   0  0.4577279E-05  0.2014803E+04  0.7818609E-02  0.8599731E-01
       -2   -1    0    0    0  501  0.00000000000E+00  0.00000000000E+00  0.15217422802E+04  0.15217422802E+04  0.25500000920E-02 0.  1.
        2   -1    0    0  501    0  0.00000000000E+00  0.00000000000E+00 -0.66690508924E+03  0.66690508924E+03  0.25500000920E-02 0. -1.
    10030    2    1    2    0    0  0.00000000000E+00  0.00000000000E+00  0.85483719099E+03  0.21886473695E+04  0.20148028898E+04 0.  0.
        1    1    3    3  502    0  0.15770562607E+03  0.97202414770E+03  0.19658482747E+03  0.10041651272E+04  0.50400001928E-02 0.  1.
       -1    1    3    3    0  502 -0.15770562607E+03 -0.97202414770E+03  0.65825236352E+03  0.11844822423E+04  0.50400001928E-02 0. -1.
</event>
<event>
 5   0  0.2093980E-05  0.1995776E+04  0.7818609E-02  0.8608598E-01
        1   -1    0    0  501    0  0.00000000000E+00  0.00000000000E+00  0.81155321401E+03  0.81155321402E+03  0.50400001928E-02 0.  1.
       -1   -1    0    0    0  501  0.00000000000E+00  0.00000000000E+00 -0.12270055813E+04  0.12270055813E+04  0.50400001928E-02 0. -1.
    10030    2    1    2    0    0  0.00000000000E+00  0.00000000000E+00 -0.41545236730E+03  0.20385587953E+04  0.19957758623E+04 0.  0.
        2    1    3    3  502    0 -0.57249988798E+03  0.78889145360E+03 -0.42602343224E+03  0.10637677435E+04  0.25500000920E-02 0. -1.
       -2    1    3    3    0  502  0.57249988798E+03 -0.78889145360E+03  0.10571064945E+02  0.97479105183E+03  0.25500000920E-02 0.  1.
</event>
<event>
 5   0  0.4447313E-05  0.2008883E+04  0.7818609E-02  0.8602479E-01
       -2   -1    0    0    0  501  0.00000000000E+00  0.00000000000E+00  0.73358001592E+03  0.73358001592E+03  0.25500000920E-02 0. -1.
        2   -1    0    0  501    0  0.00000000000E+00  0.00000000000E+00 -0.13753141431E+04  0.13753141431E+04  0.25500000920E-02 0.  1.
    10030    2    1    2    0    0  0.00000000000E+00  0.00000000000E+00 -0.64173412715E+03  0.21088941590E+04  0.20088832430E+04 0.  0.
        5    1    3    3  502    0 -0.33076510153E+03 -0.33008092842E+03 -0.12542439525E+04  0.13384726199E+04  0.46999998093E+01 0.  1.
       -5    1    3    3    0  502  0.33076510153E+03  0.33008092842E+03  0.61250982540E+03  0.77042153910E+03  0.46999998093E+01 0. -1.
</event>
<event>
 5   0  0.2142551E-05  0.1981146E+04  0.7818609E-02  0.8615487E-01
       -1   -1    0    0    0  501  0.00000000000E+00  0.00000000000E+00  0.85951517525E+03  0.85951517526E+03  0.50400001928E-02 0.  1.
        1   -1    0    0  501    0  0.00000000000E+00  0.00000000000E+00 -0.11416140909E+04  0.11416140909E+04  0.50400001928E-02 0. -1.
    10030    2    1    2    0    0  0.00000000000E+00  0.00000000000E+00 -0.28209891563E+03  0.20011292662E+04  0.19811457649E+04 0.  0.
        3    1    3    3  502    0 -0.60122534574E+03  0.29935318345E+03 -0.87650809352E+03  0.11042421351E+04  0.10100000352E+00 0. -1.
       -3    1    3    3    0  502  0.60122534574E+03 -0.29935318345E+03  0.59440917790E+03  0.89688713101E+03  0.10100000352E+00 0.  1.
</event>
<event>
 5   0  0.2142551E-05  0.2008494E+04  0.7818609E-02  0.8602660E-01
        1   -1    0    0  501    0  0.00000000000E+00  0.00000000000E+00  0.16108283229E+04  0.16108283229E+04  0.50400001928E-02 0. -1.
       -1   -1    0    0    0  501  0.00000000000E+00  0.00000000000E+00 -0.62608278785E+03  0.62608278787E+03  0.50400001928E-02 0.  1.
    10030    2    1    2    0    0  0.00000000000E+00  0.00000000000E+00  0.98474553505E+03  0.22369111108E+04  0.20084938508E+04 0.  0.
        3    1    3    3  502    0 -0.37521705036E+03 -0.14112783481E+03  0.15178516305E+04  0.15698976028E+04  0.10100000352E+00 0. -1.
       -3    1    3    3    0  502  0.37521705036E+03  0.14112783481E+03 -0.53310609548E+03  0.66701350802E+03  0.10100000352E+00 0.  1.
</event>
<event>
 5   0  0.1601500E-05  0.1998737E+04  0.7818609E-02  0.8607211E-01
        3   -1    0    0  501    0  0.00000000000E+00  0.00000000000E+00  0.73443283226E+03  0.73443283920E+03  0.10100000352E+00 0.  1.
       -3   -1    0    0    0  501  0.00000000000E+00  0.00000000000E+00 -0.13598763768E+04  0.13598763805E+04  0.10100000352E+00 0. -1.
    10030    2    1    2    0    0  0.00000000000E+00  0.00000000000E+00 -0.62544354449E+03  0.20943092197E+04  0.19987374716E+04 0.  0.
        1    1    3    3  502    0 -0.32556588832E+03 -0.76099392593E+03 -0.89952960667E+03  0.12223986323E+04  0.50400001928E-02 0. -1.
       -1    1    3    3    0  502  0.32556588832E+03  0.76099392593E+03  0.27408606217E+03  0.87191058741E+03  0.50400001928E-02 0.  1.
</event>
<event>
 5   0  0.2007644E-05  0.2001777E+04  0.7818609E-02  0.8605790E-01
       -1   -1    0    0    0  501  0.00000000000E+00  0.00000000000E+00  0.68197966703E+03  0.68197966705E+03  0.50400001928E-02 0.  1.
        1   -1    0    0  501    0  0.00000000000E+00  0.00000000000E+00 -0.14689259172E+04  0.14689259172E+04  0.50400001928E-02 0. -1.
    10030    2    1    2    0    0  0.00000000000E+00  0.00000000000E+00 -0.78694625019E+03  0.21509055843E+04  0.20017768187E+04 0.  0.
        1    1    3    3  502    0  0.61192134758E+03  0.54271022577E+03  0.22638800406E+03  0.84866580772E+03  0.50400001928E-02 0.  1.
       -1    1    3    3    0  502 -0.61192134758E+03 -0.54271022577E+03 -0.10133342543E+04  0.13022397766E+04  0.50400001928E-02 0. -1.
</event>
<event>
 5   0  0.2093980E-05  0.2022580E+04  0.7818609E-02  0.8596136E-01
       -1   -1    0    0    0  501  0.00000000000E+00  0.00000000000E+00  0.10215418776E+04  0.10215418776E+04  0.50400001928E-02 0. -1.
        1   -1    0    0  501    0  0.00000000000E+00  0.00000000000E+00 -0.10011413350E+04  0.10011413350E+04  0.50400001928E-02 0.  1.
    10030    2    1    2    0    0  0.00000000000E+00  0.00000000000E+00  0.20400542578E+02  0.20226832126E+04  0.20225803313E+04 0.  0.
        2    1    3    3  502    0 -0.69084643856E+03 -0.45678797911E+03  0.59056050633E+03  0.10171950507E+04  0.25500000920E-02 0. -1.
       -2    1    3    3    0  502  0.69084643856E+03  0.45678797911E+03 -0.57015996376E+03  0.10054881619E+04  0.25500000920E-02 0.  1.
</event>
<event>
 5   0  0.2256868E-05  0.1999118E+04  0.7818609E-02  0.8607033E-01
       -1   -1    0    0    0  501  0.00000000000E+00  0.00000000000E+00  0.68530974865E+03  0.68530974867E+03  0.50400001928E-02 0. -1.
        1   -1    0    0  501    0  0.00000000000E+00  0.00000000000E+00 -0.14579069190E+04  0.14579069191E+04  0.50400001928E-02 0.  1.
    10030    2    1    2    0    0  0.00000000000E+00  0.00000000000E+00 -0.77259717039E+03  0.21432166677E+04  0.19991176296E+04 0.  0.
        5    1    3    3  502    0  0.67823210859E+03 -0.49320128197E+03  0.19682834992E+03  0.86139989958E+03  0.46999998093E+01 0. -1.
       -5    1    3    3    0  502 -0.67823210859E+03  0.49320128197E+03 -0.96942552032E+03  0.12818167681E+04  0.46999998093E+01 0.  1.
</event>
<event>
 5   0  0.4447313E-05  0.2001450E+04  0.7818609E-02  0.8605943E-01
       -2   -1    0    0    0  501  0.00000000000E+00  0.00000000000E+00  0.11117085463E+04  0.11117085463E+04  0.25500000920E-02 0.  1.
        2   -1    0    0  501    0  0.00000000000E+00  0.00000000000E+00 -0.90082133184E+03  0.90082133185E+03  0.25500000920E-02 0. -1.
    10030    2    1    2    0    0  0.00000000000E+00  0.00000000000E+00  0.21088721449E+03  0.20125298782E+04  0.20014502475E+04 0.  0.
        5    1    3    3  502    0  0.63359184868E+03 -0.42714368192E+03 -0.54430553008E+03  0.93817959677E+03  0.46999998093E+01 0. -1.
       -5    1    3    3    0  502 -0.63359184868E+03  0.42714368192E+03  0.75519274457E+03  0.10743502814E+04  0.46999998093E+01 0.  1.
</event>
<event>
 5   0  0.2256868E-05  0.2002531E+04  0.7818609E-02  0.8605438E-01
        1   -1    0    0  501    0  0.00000000000E+00  0.00000000000E+00  0.90551177306E+03  0.90551177307E+03  0.50400001928E-02 0.  1.
       -1   -1    0    0    0  501  0.00000000000E+00  0.00000000000E+00 -0.11071451579E+04  0.11071451579E+04  0.50400001928E-02 0. -1.
    10030    2    1    2    0    0  0.00000000000E+00  0.00000000000E+00 -0.20163338484E+03  0.20126569310E+04  0.20025313730E+04 0.  0.
        5    1    3    3  502    0  0.32144907234E+03 -0.14352239297E+03  0.84125021543E+03  0.91194966876E+03  0.46999998093E+01 0.  1.
       -5    1    3    3    0  502 -0.32144907234E+03  0.14352239297E+03 -0.10428836003E+04  0.11007072622E+04  0.46999998093E+01 0. -1.
</event>
<event>
 5   0  0.4577279E-05  0.1998474E+04  0.7818609E-02  0.8607334E-01
        2   -1    0    0  501    0  0.00000000000E+00  0.00000000000E+00  0.18018597324E+04  0.18018597324E+04  0.25500000920E-02 0. -1.
       -2   -1    0    0    0  501  0.00000000000E+00  0.00000000000E+00 -0.55413580099E+03  0.55413580100E+03  0.25500000920E-02 0.  1.
    10030    2    1    2    0    0  0.00000000000E+00  0.00000000000E+00  0.12477239314E+04  0.23559955334E+04  0.19984744042E+04 0.  0.
        1    1    3    3  502    0 -0.85617650388E+03 -0.35679334580E+03  0.10620173896E+04  0.14100427771E+04  0.50400001928E-02 0. -1.
       -1    1    3    3    0  502  0.85617650388E+03  0.35679334580E+03  0.18570654177E+03  0.94595275626E+03  0.50400001928E-02 0.  1.
</event>
<event>
 5   0  0.2007644E-05  0.2025719E+04  0.7818609E-02  0.8594690E-01
        1   -1    0    0  501    0  0.00000000000E+00  0.00000000000E+00  0.11554406734E+04  0.11554406734E+04  0.50400001928E-02 0.  1.
       -1   -1    0    0    0  501  0.00000000000E+00  0.00000000000E+00 -0.88787293363E+03  0.88787293364E+03  0.50400001928E-02 0. -1.
    10030    2    1    2    0    0  0.00000000000E+00  0.00000000000E+00  0.26756773976E+03  0.20433136070E+04  0.20257191319E+04 0.  0.
        1    1    3    3  502    0 -0.66331993521E+02 -0.28931058567E+03  0.11105873440E+04  0.11495672216E+04  0.50400001928E-02 0.  1.
       -1    1    3    3    0  502  0.66331993521E+02  0.28931058567E+03 -0.84301960422E+03  0.89374638543E+03  0.50400001928E-02 0. -1.
</event>
<event>
 5   0  0.4412054E-05  0.1994817E+04  0.7818609E-02  0.8609048E-01
        2   -1    0    0  501    0  0.00000000000E+00  0.00000000000E+00  0.13343590425E+04  0.13343590425E+04  0.25500000920E-02 0. -1.
       -2   -1    0    0    0  501  0.00000000000E+00  0.00000000000E+00 -0.74554456940E+03  0.74554456941E+03  0.25500000920E-02 0.  1.
    10030    2    1    2    0    0  0.00000000000E+00  0.00000000000E+00  0.58881447309E+03  0.20799036119E+04  0.19948174230E+04 0.  0.
        4    1    3    3  502    0 -0.44976975080E+03 -0.24292766695E+02 -0.63346050174E+03  0.77727523272E+03  0.12699999809E+01 0.  1.
       -4    1    3    3    0  502  0.44976975080E+03  0.24292766695E+02  0.12222749748E+04  0.13026283792E+04  0.12699999809E+01 0. -1.
</event>
<event>
 5   0  0.4514680E-05  0.2001347E+04  0.7818609E-02  0.8605991E-01
       -2   -1    0    0    0  501  0.00000000000E+00  0.00000000000E+00  0.67884171968E+03  0.67884171969E+03  0.25500000920E-02 0. -1.
        2   -1    0    0  501    0  0.00000000000E+00  0.00000000000E+00 -0.14750826444E+04  0.14750826444E+04  0.25500000920E-02 0.  1.
    10030    2    1    2    0    0  0.00000000000E+00  0.00000000000E+00 -0.79624092476E+03  0.21539243641E+04  0.20013471853E+04 0.  0.
        3    1    3    3  502    0 -0.17106934035E+02 -0.83602925772E+03  0.19342838022E+03  0.85828440242E+03  0.10100000352E+00 0. -1.
       -3    1    3    3    0  502  0.17106934035E+02  0.83602925772E+03 -0.98966930498E+03  0.12956399617E+04  0.10100000352E+00 0.  1.
</event>
<event>
 5   0  0.2142551E-05  0.2004979E+04  0.7818609E-02  0.8604296E-01
       -1   -1    0    0    0  501  0.00000000000E+00  0.00000000000E+00  0.58025500635E+03  0.58025500637E+03  0.50400001928E-02 0.  1.
        1   -1    0    0  501    0  0.00000000000E+00  0.00000000000E+00 -0.17319711104E+04  0.17319711104E+04  0.50400001928E-02 0. -1.
    10030    2    1    2    0    0  0.00000000000E+00  0.00000000000E+00 -0.11517161040E+04  0.23122261168E+04  0.20049787108E+04 0.  0.
        3    1    3    3  502    0  0.63036564336E+03 -0.67992249230E+03 -0.13621788613E+03  0.93712899996E+03  0.10100000352E+00 0.  1.
       -3    1    3    3    0  502 -0.63036564336E+03  0.67992249230E+03 -0.10154982179E+04  0.13750971168E+04  0.10100000352E+00 0. -1.
</event>
<event>
 5   0  0.2256868E-05  0.1900152E+04  0.7818609E-02  0.8654781E-01
        1   -1    0    0  501    0  0.00000000000E+00  0.00000000000E+00  0.11337649346E+04  0.11337649346E+04  0.50400001928E-02 0. -1.
       -1   -1    0    0    0  501  0.00000000000E+00  0.00000000000E+00 -0.79614743188E+03  0.79614743189E+03  0.50400001928E-02 0.  1.
    10030    2    1    2    0    0  0.00000000000E+00  0.00000000000E+00  0.33761750272E+03  0.19299123665E+04  0.19001516161E+04 0.  0.
        5    1    3    3  502    0 -0.61088480655E+03 -0.66626897915E+03 -0.12822229538E+03  0.91299378228E+03  0.46999998093E+01 0.  1.
       -5    1    3    3    0  502  0.61088480655E+03  0.66626897915E+03  0.46583979810E+03  0.10169185842E+04  0.46999998093E+01 0. -1.
</event>
<event>
 5   0  0.1601500E-05  0.1996898E+04  0.7818609E-02  0.8608072E-01
        3   -1    0    0  501    0  0.00000000000E+00  0.00000000000E+00  0.16611410286E+04  0.16611410316E+04  0.10100000352E+00 0. -1.
       -3   -1    0    0    0  501  0.00000000000E+00  0.00000000000E+00 -0.60012980475E+03  0.60012981325E+03  0.10100000352E+00 0.  1.
    10030    2    1    2    0    0  0.00000000000E+00  0.00000000000E+00  0.10610112238E+04  0.22612708449E+04  0.19968978484E+04 0.  0.
        5    1    3    3  502    0  0.42688118187E+02  0.71341803092E+03  0.13200114513E+04  0.15010795728E+04  0.46999998093E+01 0. -1.
       -5    1    3    3    0  502 -0.42688118187E+02 -0.71341803092E+03 -0.25900022752E+03  0.76019127207E+03  0.46999998093E+01 0.  1.
</event>
<event>
 5   0  0.2110896E-05  0.2000574E+04  0.7818609E-02  0.8606352E-01
       -1   -1    0    0    0  501  0.00000000000E+00  0.00000000000E+00  0.95418835422E+03  0.95418835423E+03  0.50400001928E-02 0.  1.
        1   -1    0    0  501    0  0.00000000000E+00  0.00000000000E+00 -0.10486126443E+04  0.10486126443E+04  0.50400001928E-02 0. -1.
    10030    2    1    2    0    0  0.00000000000E+00  0.00000000000E+00 -0.94424290050E+02  0.20028009985E+04  0.20005738909E+04 0.  0.
        4    1    3    3  502    0 -0.45568685011E+03  0.84980271840E+03  0.21908622369E+03  0.98884556523E+03  0.12699999809E+01 0.  1.
       -4    1    3    3    0  502  0.45568685011E+03 -0.84980271840E+03 -0.31351051374E+03  0.10139554333E+04  0.12699999809E+01 0. -1.
</event>
<event>
 5   0  0.4514680E-05  0.1993184E+04  0.7818609E-02  0.8609814E-01
        2   -1    0    0  501    0  0.00000000000E+00  0.00000000000E+00  0.15829037856E+04  0.15829037856E+04  0.25500000920E-02 0.  1.
       -2   -1    0    0    0  501  0.00000000000E+00  0.00000000000E+00 -0.62745147161E+03  0.62745147161E+03  0.25500000920E-02 0. -1.
    10030    2    1    2    0    0  0.00000000000E+00  0.00000000000E+00  0.95545231403E+03  0.22103552572E+04  0.19931836942E+04 0.  0.
        3    1    3    3  502    0  0.21357507665E+03 -0.95465966544E+03  0.68873686030E+03  0.11963895115E+04  0.10100000352E+00 0.  1.
       -3    1    3    3    0  502 -0.21357507665E+03  0.95465966544E+03  0.26671545373E+03  0.10139657458E+04  0.10100000352E+00 0. -1.
</event>
<event>
 5   0  0.4473361E-05  0.1995428E+04  0.7818609E-02  0.8608761E-01
       -2   -1    0    0    0  501  0.00000000000E+00  0.00000000000E+00  0.14307019524E+04  0.14307019524E+04  0.25500000920E-02 0.  1.
        2   -1    0    0  501    0  0.00000000000E+00  0.00000000000E+00 -0.69576534269E+03  0.69576534269E+03  0.25500000920E-02 0. -1.
    10030    2    1    2    0    0  0.00000000000E+00  0.00000000000E+00  0.73493660969E+03  0.21264672951E+04  0.19954276075E+04 0.  0.
        2    1    3    3  502    0 -0.83450265169E+03  0.33344347434E+03 -0.94415251854E+02  0.90360028002E+03  0.25500000920E-02 0. -1.
       -2    1    3    3    0  502  0.83450265169E+03 -0.33344347434E+03  0.82935186154E+03  0.12228670151E+04  0.25500000920E-02 0.  1.
</event>
<event>
 5   0  0.4514680E-05  0.1999380E+04  0.7818609E-02  0.8606910E-01
       -2   -1    0    0    0  501  0.00000000000E+00  0.00000000000E+00  0.15504289555E+04  0.15504289555E+04  0.25500000920E-02 0. -1.
        2   -1    0    0  501    0  0.00000000000E+00  0.00000000000E+00 -0.64458327525E+03  0.64458327526E+03  0.25500000920E-02 0.  1.
    10030    2    1    2    0    0  0.00000000000E+00  0.00000000000E+00  0.90584568027E+03  0.21950122308E+04  0.19993804783E+04 0.  0.
        3    1    3    3  502    0 -0.21177075335E+03  0.25937539993E+02 -0.61929747958E+03  0.65501830995E+03  0.10100000352E+00 0.  1.
       -3    1    3    3    0  502  0.21177075335E+03 -0.25937539993E+02  0.15251431599E+04  0.15399939208E+04  0.10100000352E+00 0. -1.
</event>
<event>
 5   0  0.4473361E-05  0.1993992E+04  0.7818609E-02  0.8609435E-01
        2   -1    0    0  501    0  0.00000000000E+00  0.00000000000E+00  0.21000778120E+04  0.21000778120E+04  0.25500000920E-02 0. -1.
       -2   -1    0    0    0  501  0.00000000000E+00  0.00000000000E+00 -0.47331638179E+03  0.47331638180E+03  0.25500000920E-02 0.  1.
    10030    2    1    2    0    0  0.00000000000E+00  0.00000000000E+00  0.16267614302E+04  0.25733941938E+04  0.19939922081E+04 0.  0.
        2    1    3    3  502    0  0.76744500594E+03 -0.63576705249E+03  0.85055393007E+03  0.13101960045E+04  0.25500000920E-02 0. -1.
       -2    1    3    3    0  502 -0.76744500594E+03  0.63576705249E+03  0.77620750010E+03  0.12631981893E+04  0.25500000920E-02 0.  1.
</event>
<event>
 5   0  0.4514680E-05  0.1992902E+04  0.7818609E-02  0.8609946E-01
       -2   -1    0    0    0  501  0.00000000000E+00  0.00000000000E+00  0.46508476231E+03  0.46508476232E+03  0.25500000920E-02 0. -1.
        2   -1    0    0  501    0  0.00000000000E+00  0.00000000000E+00 -0.21349106216E+04  0.21349106216E+04  0.25500000920E-02 0.  1.
    10030    2    1    2    0    0  0.00000000000E+00  0.00000000000E+00 -0.16698258593E+04  0.25999953839E+04  0.19929018029E+04 0.  0.
        3    1    3    3  502    0  0.15792329245E+03 -0.75369490718E+03 -0.98777189697E+01  0.77012554752E+03  0.10100000352E+00 0. -1.
       -3    1    3    3    0  502 -0.15792329245E+03  0.75369490718E+03 -0.16599481403E+04  0.18298698364E+04  0.10100000352E+00 0.  1.
</event>
<event>
 5   0  0.4447313E-05  0.1998401E+04  0.7818609E-02  0.8607369E-01
        2   -1    0    0  501    0  0.00000000000E+00  0.00000000000E+00  0.17873736899E+04  0.17873736899E+04  0.25500000920E-02 0.  1.
       -2   -1    0    0    0  501  0.00000000000E+00  0.00000000000E+00 -0.55858560057E+03  0.55858560057E+03  0.25500000920E-02 0. -1.
    10030    2    1    2    0    0  0.00000000000E+00  0.00000000000E+00  0.12287880894E+04  0.23459592905E+04  0.19984005665E+04 0.  0.
        5    1    3    3  502    0 -0.99765837612E+03 -0.47715204513E+02  0.58160534759E+03  0.11558052805E+04  0.46999998093E+01 0.  1.
       -5    1    3    3    0  502  0.99765837612E+03  0.47715204513E+02  0.64718274176E+03  0.11901540100E+04  0.46999998093E+01 0. -1.
</event>
<event>
 5   0  0.4412054E-05  0.1983416E+04  0.7818609E-02  0.8614414E-01
       -2   -1    0    0    0  501  0.00000000000E+00  0.00000000000E+00  0.53267157338E+03  0.53267157339E+03  0.25500000920E-02 0. -1.
        2   -1    0    0  501    0  0.00000000000E+00  0.00000000000E+00 -0.18463247467E+04  0.18463247467E+04  0.25500000920E-02 0.  1.
    10030    2    1    2    0    0  0.00000000000E+00  0.00000000000E+00 -0.13136531733E+04  0.23789963201E+04  0.19834159501E+04 0.  0.
        4    1    3    3  502    0  0.49131782281E+03 -0.78061468963E+03 -0.10938105455E+04  0.14307954497E+04  0.12699999809E+01 0. -1.
       -4    1    3    3    0  502 -0.49131782281E+03  0.78061468963E+03 -0.21984262788E+03  0.94820087039E+03  0.12699999809E+01 0.  1.
</event>
<event>
 5   0  0.4412054E-05  0.2012240E+04  0.7818609E-02  0.8600919E-01
        2   -1    0    0  501    0  0.00000000000E+00  0.00000000000E+00  0.79448290198E+03  0.79448290198E+03  0.25500000920E-02 0.  1.
       -2   -1    0    0    0  501  0.00000000000E+00  0.00000000000E+00 -0.12741342849E+04  0.12741342849E+04  0.25500000920E-02 0. -1.
    10030    2    1    2    0    0  0.00000000000E+00  0.00000000000E+00 -0.47965138288E+03  0.20686171868E+04  0.20122404470E+04 0.  0.
        4    1    3    3  502    0  0.32471533474E+03 -0.12529966229E+03  0.73062239156E+03  0.80929027298E+03  0.12699999809E+01 0.  1.
       -4    1    3    3    0  502 -0.32471533474E+03  0.12529966229E+03 -0.12102737744E+04  0.12593269139E+04  0.12699999809E+01 0. -1.
</event>
<event>
 5   0  0.2007644E-05  0.2003116E+04  0.7818609E-02  0.8605165E-01
       -1   -1    0    0    0  501  0.00000000000E+00  0.00000000000E+00  0.17602325295E+04  0.17602325295E+04  0.50400001928E-02 0. -1.
        1   -1    0    0  501    0  0.00000000000E+00  0.00000000000E+00 -0.56987816035E+03  0.56987816037E+03  0.50400001928E-02 0.  1.
    10030    2    1    2    0    0  0.00000000000E+00  0.00000000000E+00  0.11903543691E+04  0.23301106899E+04  0.20031156489E+04 0.  0.
        1    1    3    3  502    0 -0.16202106063E+03 -0.31744662215E+03 -0.49361777835E+03  0.60883634347E+03  0.50400001928E-02 0.  1.
       -1    1    3    3    0  502  0.16202106063E+03  0.31744662215E+03  0.16839721475E+04  0.17212743464E+04  0.50400001928E-02 0. -1.
</event>
<event>
 5   0  0.4473361E-05  0.2000743E+04  0.7818609E-02  0.8606273E-01
        2   -1    0    0  501    0  0.00000000000E+00  0.00000000000E+00  0.95878745036E+03  0.95878745036E+03  0.25500000920E-02 0. -1.
       -2   -1    0    0    0  501  0.00000000000E+00  0.00000000000E+00 -0.10437589873E+04  0.10437589873E+04  0.25500000920E-02 0.  1.
    10030    2    1    2    0    0  0.00000000000E+00  0.00000000000E+00 -0.84971536948E+02  0.20025464377E+04  0.20007428803E+04 0.  0.
        2    1    3    3  502    0  0.44503481488E+03 -0.89321889100E+03 -0.11216924683E+03  0.10042300103E+04  0.25500000920E-02 0.  1.
       -2    1    3    3    0  502 -0.44503481488E+03  0.89321889100E+03  0.27197709879E+02  0.99831642735E+03  0.25500000920E-02 0. -1.
</event>
<event>
 5   0  0.2256868E-05  0.2004293E+04  0.7818609E-02  0.8604616E-01
       -1   -1    0    0    0  501  0.00000000000E+00  0.00000000000E+00  0.27686508996E+04  0.27686508996E+04  0.50400001928E-02 0.  1.
        1   -1    0    0  501    0  0.00000000000E+00  0.00000000000E+00 -0.36273906982E+03  0.36273906985E+03  0.50400001928E-02 0. -1.
    10030    2    1    2    0    0  0.00000000000E+00  0.00000000000E+00  0.24059118298E+04  0.31313899695E+04  0.20042932441E+04 0.  0.
        5    1    3    3  502    0  0.60324014737E+03 -0.80004961503E+03  0.11759992967E+04  0.15449836562E+04  0.46999998093E+01 0. -1.
       -5    1    3    3    0  502 -0.60324014737E+03  0.80004961503E+03  0.12299125331E+04  0.15864063133E+04  0.46999998093E+01 0.  1.
</event>
<event>
 5   0  0.2110896E-05  0.2004292E+04  0.7818609E-02  0.8604617E-01
        1   -1    0    0  501    0  0.00000000000E+00  0.00000000000E+00  0.77436728408E+03  0.77436728410E+03  0.50400001928E-02 0. -1.
       -1   -1    0    0    0  501  0.00000000000E+00  0.00000000000E+00 -0.12969251896E+04  0.12969251896E+04  0.50400001928E-02 0.  1.
    10030    2    1    2    0    0  0.00000000000E+00  0.00000000000E+00 -0.52255790550E+03  0.20712924737E+04  0.20042918318E+04 0.  0.
        4    1    3    3  502    0  0.82968388495E+03 -0.10253062189E+03  0.30983125943E+03  0.89156317756E+03  0.12699999809E+01 0. -1.
       -4    1    3    3    0  502 -0.82968388495E+03  0.10253062189E+03 -0.83238916493E+03  0.11797292961E+04  0.12699999809E+01 0.  1.
</event>
<event>
 5   0  0.2256868E-05  0.2002228E+04  0.7818609E-02  0.8605580E-01
        1   -1    0    0  501    0  0.00000000000E+00  0.00000000000E+00  0.13186380952E+04  0.13186380952E+04  0.50400001928E-02 0.  1.
       -1   -1    0    0    0  501  0.00000000000E+00  0.00000000000E+00 -0.76004870882E+03  0.76004870884E+03  0.50400001928E-02 0. -1.
    10030    2    1    2    0    0  0.00000000000E+00  0.00000000000E+00  0.55858938636E+03  0.20786868040E+04  0.20022279407E+04 0.  0.
        5    1    3    3  502    0  0.45521699237E+03  0.32955902051E+03  0.11394094662E+04  0.12704753755E+04  0.46999998093E+01 0.  1.
       -5    1    3    3    0  502 -0.45521699237E+03 -0.32955902051E+03 -0.58082007980E+03  0.80821142855E+03  0.46999998093E+01 0. -1.
</event>
<event>
 5   0  0.4577279E-05  0.2006773E+04  0.7818609E-02  0.8603460E-01
       -2   -1    0    0    0  501  0.00000000000E+00  0.00000000000E+00  0.75349700295E+03  0.75349700295E+03  0.25500000920E-02 0.  1.
        2   -1    0    0  501    0  0.00000000000E+00  0.00000000000E+00 -0.13361497990E+04  0.13361497990E+04  0.25500000920E-02 0. -1.
    10030    2    1    2    0    0  0.00000000000E+00  0.00000000000E+00 -0.58265279609E+03  0.20896468020E+04  0.20067733993E+04 0.  0.
        1    1    3    3  502    0  0.50237523528E+03 -0.85752729688E+03 -0.14760130156E+03  0.10047487677E+04  0.50400001928E-02 0. -1.
       -1    1    3    3    0  502 -0.50237523528E+03  0.85752729688E+03 -0.43505149453E+03  0.10848980343E+04  0.50400001928E-02 0.  1.
</event>
<event>
 5   0  0.4514680E-05  0.1984940E+04  0.7818609E-02  0.8613694E-01
        2   -1    0    0  501    0  0.00000000000E+00  0.00000000000E+00  0.12325777366E+04  0.12325777366E+04  0.25500000920E-02 0.  1.
       -2   -1    0    0    0  501  0.00000000000E+00  0.00000000000E+00 -0.79913578063E+03  0.79913578064E+03  0.25500000920E-02 0. -1.
    10030    2    1    2    0    0  0.00000000000E+00  0.00000000000E+00  0.43344195598E+03  0.20317135173E+04  0.19849402729E+04 0.  0.
        3    1    3    3  502    0 -0.36898375398E+02 -0.83041035449E+03 -0.33832461283E+03  0.89744437199E+03  0.10100000352E+00 0. -1.
       -3    1    3    3    0  502  0.36898375398E+02  0.83041035449E+03  0.77176656882E+03  0.11342691453E+04  0.10100000352E+00 0.  1.
</event>
<event>
 5   0  0.4447313E-05  0.2006494E+04  0.7818609E-02  0.8603591E-01
        2   -1    0    0  501    0  0.00000000000E+00  0.00000000000E+00  0.19601689456E+04  0.19601689456E+04  0.25500000920E-02 0. -1.
       -2   -1    0    0    0  501  0.00000000000E+00  0.00000000000E+00 -0.51347832142E+03  0.51347832143E+03  0.25500000920E-02 0.  1.
    10030    2    1    2    0    0  0.00000000000E+00  0.00000000000E+00  0.14466906242E+04  0.24736472670E+04  0.20064937178E+04 0.  0.
        5    1    3    3  502    0 -0.74586413648E+03  0.17686804992E+03 -0.74554156691E+02  0.77017921905E+03  0.46999998093E+01 0.  1.
       -5    1    3    3    0  502  0.74586413648E+03 -0.17686804992E+03  0.15212447809E+04  0.17034680480E+04  0.46999998093E+01 0. -1.
</event>
<event>
 5   0  0.2256868E-05  0.1997866E+04  0.7818609E-02  0.8607619E-01
        1   -1    0    0  501    0  0.00000000000E+00  0.00000000000E+00  0.69038822183E+03  0.69038822185E+03  0.50400001928E-02 0.  1.
       -1   -1    0    0    0  501  0.00000000000E+00  0.00000000000E+00 -0.14453711655E+04  0.14453711655E+04  0.50400001928E-02 0. -1.
    10030    2    1    2    0    0  0.00000000000E+00  0.00000000000E+00 -0.75498294371E+03  0.21357593874E+04  0.19978660905E+04 0.  0.
        5    1    3    3  502    0 -0.24485956552E+03 -0.45327491117E+03 -0.12923822367E+04  0.13912901523E+04  0.46999998093E+01 0. -1.
       -5    1    3    3    0  502  0.24485956552E+03  0.45327491117E+03  0.53739929303E+03  0.74446923514E+03  0.46999998093E+01 0.  1.
</event>
<event>
 5   0  0.4514680E-05  0.2002683E+04  0.7818609E-02  0.8605367E-01
       -2   -1    0    0    0  501  0.00000000000E+00  0.00000000000E+00  0.11610875038E+04  0.11610875038E+04  0.25500000920E-02 0.  1.
        2   -1    0    0  501    0  0.00000000000E+00  0.00000000000E+00 -0.86357423340E+03  0.86357423340E+03  0.25500000920E-02 0. -1.
    10030    2    1    2    0    0  0.00000000000E+00  0.00000000000E+00  0.29751327045E+03  0.20246617372E+04  0.20026834508E+04 0.  0.
        3    1    3    3  502    0  0.78951281323E+03  0.57855842956E+01 -0.47389305069E+03  0.92083580997E+03  0.10100000352E+00 0. -1.
       -3    1    3    3    0  502 -0.78951281323E+03 -0.57855842956E+01  0.77140632114E+03  0.11038259273E+04  0.10100000352E+00 0.  1.
</event>
<event>
 5   0  0.4412054E-05  0.2000645E+04  0.7818609E-02  0.8606319E-01
        2   -1    0    0  501    0  0.00000000000E+00  0.00000000000E+00  0.25788583477E+04  0.25788583477E+04  0.25500000920E-02 0. -1.
       -2   -1    0    0    0  501  0.00000000000E+00  0.00000000000E+00 -0.38801875883E+03  0.38801875884E+03  0.25500000920E-02 0.  1.
    10030    2    1    2    0    0  0.00000000000E+00  0.00000000000E+00  0.21908395889E+04  0.29668771066E+04  0.20006453112E+04 0.  0.
        4    1    3    3  502    0  0.98670504843E+03  0.98306605875E+02  0.89984462189E+03  0.13390194165E+04  0.12699999809E+01 0. -1.
       -4    1    3    3    0  502 -0.98670504843E+03 -0.98306605875E+02  0.12909949670E+04  0.16278576901E+04  0.12699999809E+01 0.  1.
</event>
<event>
 5   0  0.4447313E-05  0.2042340E+04  0.7818609E-02  0.8587077E-01
        2   -1    0    0  501    0  0.00000000000E+00  0.00000000000E+00  0.48936836931E+03  0.48936836932E+03  0.25500000920E-02 0.  1.
       -2   -1    0    0    0  501  0.00000000000E+00  0.00000000000E+00 -0.21308859279E+04  0.21308859279E+04  0.25500000920E-02 0. -1.
    10030    2    1    2    0    0  0.00000000000E+00  0.00000000000E+00 -0.16415175586E+04  0.26202542972E+04  0.20423400028E+04 0.  0.
        5    1    3    3  502    0  0.55596775349E+03 -0.64240121003E+03 -0.15476323293E+04  0.17654935214E+04  0.46999998093E+01 0. -1.
       -5    1    3    3    0  502 -0.55596775349E+03  0.64240121003E+03 -0.93885229315E+02  0.85476077580E+03  0.46999998093E+01 0.  1.
</event>
<event>
 5   0  0.2256868E-05  0.2002431E+04  0.7818609E-02  0.8605485E-01
       -1   -1    0    0    0  501  0.00000000000E+00  0.00000000000E+00  0.94887715987E+03  0.94887715988E+03  0.50400001928E-02 0. -1.
        1   -1    0    0  501    0  0.00000000000E+00  0.00000000000E+00 -0.10564410747E+04  0.10564410747E+04  0.50400001928E-02 0.  1.
    10030    2    1    2    0    0  0.00000000000E+00  0.00000000000E+00 -0.10756391483E+03  0.20053182346E+04  0.20024313287E+04 0.  0.
        5    1    3    3  502    0  0.98378165055E+03 -0.88479313086E+02  0.11002584163E+03  0.99387257766E+03  0.46999998093E+01 0. -1.
       -5    1    3    3    0  502 -0.98378165055E+03  0.88479313086E+02 -0.21758975646E+03  0.10114456569E+04  0.46999998093E+01 0.  1.
</event>
<event>
 5   0  0.4514680E-05  0.1995491E+04  0.7818609E-02  0.8608732E-01
       -2   -1    0    0    0  501  0.00000000000E+00  0.00000000000E+00  0.54347448725E+03  0.54347448726E+03  0.25500000920E-02 0. -1.
        2   -1    0    0  501    0  0.00000000000E+00  0.00000000000E+00 -0.18317253136E+04  0.18317253136E+04  0.25500000920E-02 0.  1.
    10030    2    1    2    0    0  0.00000000000E+00  0.00000000000E+00 -0.12882508263E+04  0.23751998008E+04  0.19954908926E+04 0.  0.
        3    1    3    3  502    0  0.25071666084E+03 -0.17841456736E+03  0.48558174309E+03  0.57487410908E+03  0.10100000352E+00 0. -1.
       -3    1    3    3    0  502 -0.25071666084E+03  0.17841456736E+03 -0.17738325694E+04  0.18003256917E+04  0.10100000352E+00 0.  1.
</event>
<event>
 5   0  0.4577279E-05  0.2019665E+04  0.7818609E-02  0.8597481E-01
       -2   -1    0    0    0  501  0.00000000000E+00  0.00000000000E+00  0.41159085957E+03  0.41159085958E+03  0.25500000920E-02 0.  1.
        2   -1    0    0  501    0  0.00000000000E+00  0.00000000000E+00 -0.24776099148E+04  0.24776099148E+04  0.25500000920E-02 0. -1.
    10030    2    1    2    0    0  0.00000000000E+00  0.00000000000E+00 -0.20660190552E+04  0.28892007744E+04  0.20196649173E+04 0.  0.
        1    1    3    3  502    0 -0.26699301118E+03  0.12941022444E+03  0.34783022768E+03  0.45718501892E+03  0.50400001928E-02 0.  1.
       -1    1    3    3    0  502  0.26699301118E+03 -0.12941022444E+03 -0.24138492829E+04  0.24320157555E+04  0.50400001928E-02 0. -1.
</event>
<event>
 5   0  0.4412054E-05  0.1998943E+04  0.7818609E-02  0.8607115E-01
        2   -1    0    0  501    0  0.00000000000E+00  0.00000000000E+00  0.60750787220E+03  0.60750787221E+03  0.25500000920E-02 0.  1.
       -2   -1    0    0    0  501  0.00000000000E+00  0.00000000000E+00 -0.16443297786E+04  0.16443297786E+04  0.25500000920E-02 0. -1.
    10030    2    1    2    0    0  0.00000000000E+00  0.00000000000E+00 -0.10368219064E+04  0.22518376508E+04  0.19989430057E+04 0.  0.
        4    1    3    3  502    0 -0.53408026703E+03  0.26490957441E+03 -0.14220992406E+04  0.15420073532E+04  0.12699999809E+01 0. -1.
       -4    1    3    3    0  502  0.53408026703E+03 -0.26490957441E+03  0.38527733422E+03  0.70983029761E+03  0.12699999809E+01 0.  1.
</event>
<event>
 5   0  0.4577279E-05  0.1995473E+04  0.7818609E-02  0.8608740E-01
       -2   -1    0    0    0  501  0.00000000000E+00  0.00000000000E+00  0.41252009928E+03  0.41252009929E+03  0.25500000920E-02 0. -1.
        2   -1    0    0  501    0  0.00000000000E+00  0.00000000000E+00 -0.24131633660E+04  0.24131633660E+04  0.25500000920E-02 0.  1.
    10030    2    1    2    0    0  0.00000000000E+00  0.00000000000E+00 -0.20006432667E+04  0.28256834653E+04  0.19954732685E+04 0.  0.
        1    1    3    3  502    0 -0.94149147650E+03  0.88444613648E+02 -0.54973888768E+03  0.10938196811E+04  0.50400001928E-02 0. -1.
       -1    1    3    3    0  502  0.94149147650E+03 -0.88444613648E+02 -0.14509043790E+04  0.17318637842E+04  0.50400001928E-02 0.  1.
</event>
<event>
 5   0  0.4514680E-05  0.2080986E+04  0.7818609E-02  0.8569666E-01
        2   -1    0    0  501    0  0.00000000000E+00  0.00000000000E+00  0.17000152759E+04  0.17000152759E+04  0.25500000920E-02 0. -1.
       -2   -1    0    0    0  501  0.00000000000E+00  0.00000000000E+00 -0.63683304701E+03  0.63683304701E+03  0.25500000920E-02 0.  1.
    10030    2    1    2    0    0  0.00000000000E+00  0.00000000000E+00  0.10631822289E+04  0.23368483230E+04  0.20809862163E+04 0.  0.
        3    1    3    3  502    0  0.36311749668E+02  0.82512418990E+03  0.12422322475E+04  0.14917404060E+04  0.10100000352E+00 0. -1.
       -3    1    3    3    0  502 -0.36311749668E+02 -0.82512418990E+03 -0.17905001859E+03  0.84510791695E+03  0.10100000352E+00 0.  1.
</event>
<event>
 5   0  0.4473361E-05  0.1994577E+04  0.7818609E-02  0.8609160E-01
       -2   -1    0    0    0  501  0.00000000000E+00  0.00000000000E+00  0.65652362409E+03  0.65652362410E+03  0.25500000920E-02 0. -1.
        2   -1    0    0  501    0  0.00000000000E+00  0.00000000000E+00 -0.15149261568E+04  0.15149261568E+04  0.25500000920E-02 0.  1.
    10030    2    1    2    0    0  0.00000000000E+00  0.00000000000E+00 -0.85840253274E+03  0.21714497809E+04  0.19945774597E+04 0.  0.
        2    1    3    3  502    0  0.16640850671E+03 -0.97112068599E+03 -0.26118621804E+03  0.10193063418E+04  0.25500000920E-02 0.  1.
       -2    1    3    3    0  502 -0.16640850671E+03  0.97112068599E+03 -0.59721631471E+03  0.11521434392E+04  0.25500000920E-02 0. -1.
</event>
<event>
 5   0  0.4577279E-05  0.1996492E+04  0.7818609E-02  0.8608262E-01
        2   -1    0    0  501    0  0.00000000000E+00  0.00000000000E+00  0.11013055294E+04  0.11013055294E+04  0.25500000920E-02 0.  1.
       -2   -1    0    0    0  501  0.00000000000E+00  0.00000000000E+00 -0.90483100200E+03  0.90483100200E+03  0.25500000920E-02 0. -1.
    10030    2    1    2    0    0  0.00000000000E+00  0.00000000000E+00  0.19647452743E+03  0.20061365314E+04  0.19964923097E+04 0.  0.
        1    1    3    3  502    0  0.23324581942E+03 -0.61944349813E+03  0.84909621994E+03  0.10766049649E+04  0.50400001928E-02 0.  1.
       -1    1    3    3    0  502 -0.23324581942E+03  0.61944349813E+03 -0.65262169252E+03  0.92953156656E+03  0.50400001928E-02 0. -1.
</event>
<event>
 5   0  0.4473361E-05  0.1989457E+04  0.7818609E-02  0.8611566E-01
       -2   -1    0    0    0  501  0.00000000000E+00  0.00000000000E+00  0.63302696481E+03  0.63302696481E+03  0.25500000920E-02 0.  1.
        2   -1    0    0  501    0  0.00000000000E+00  0.00000000000E+00 -0.15631003698E+04  0.15631003698E+04  0.25500000920E-02 0. -1.
    10030    2    1    2    0    0  0.00000000000E+00  0.00000000000E+00 -0.93007340501E+03  0.21961273346E+04  0.19894568935E+04 0.  0.
        2    1    3    3  502    0  0.29977314135E+03 -0.19459992785E+03 -0.14897775236E+04  0.15320476944E+04  0.25500000920E-02 0. -1.
       -2    1    3    3    0  502 -0.29977314135E+03  0.19459992785E+03  0.55970411857E+03  0.66407964021E+03  0.25500000920E-02 0.  1.
</event>
<event>
 5   0  0.2007644E-05  0.2003282E+04  0.7818609E-02  0.8605088E-01
       -1   -1    0    0    0  501  0.00000000000E+00  0.00000000000E+00  0.10015115641E+04  0.10015115641E+04  0.50400001928E-02 0.  1.
        1   -1    0    0  501    0  0.00000000000E+00  0.00000000000E+00 -0.10017706661E+04  0.10017706661E+04  0.50400001928E-02 0. -1.
    10030    2    1    2    0    0  0.00000000000E+00  0.00000000000E+00 -0.25910194460E+00  0.20032822302E+04  0.20032822134E+04 0.  0.
        1    1    3    3  502    0 -0.29136553242E+03  0.24801813337E+03  0.92554752718E+03  0.10015213892E+04  0.50400001928E-02 0.  1.
       -1    1    3    3    0  502  0.29136553242E+03 -0.24801813337E+03 -0.92580662912E+03  0.10017608410E+04  0.50400001928E-02 0. -1.
</event>
<event>
 5   0  0.2093980E-05  0.2005455E+04  0.7818609E-02  0.8604075E-01
       -1   -1    0    0    0  501  0.00000000000E+00  0.00000000000E+00  0.22089793150E+04  0.22089793150E+04  0.50400001928E-02 0.  1.
        1   -1    0    0  501    0  0.00000000000E+00  0.00000000000E+00 -0.45517053703E+03  0.45517053706E+03  0.50400001928E-02 0. -1.
    10030    2    1    2    0    0  0.00000000000E+00  0.00000000000E+00  0.17538087779E+04  0.26641498520E+04  0.20054548622E+04 0.  0.
        2    1    3    3  502    0  0.10813882823E+03  0.51737362020E+03 -0.25508363550E+03  0.58688766400E+03  0.25500000920E-02 0. -1.
       -2    1    3    3    0  502 -0.10813882823E+03 -0.51737362020E+03  0.20088924134E+04  0.20772621880E+04  0.25500000920E-02 0.  1.
</event>
<event>
 5   0  0.2110896E-05  0.2003675E+04  0.7818609E-02  0.8604905E-01
        1   -1    0    0  501    0  0.00000000000E+00  0.00000000000E+00  0.12681761685E+04  0.12681761685E+04  0.50400001928E-02 0.  1.
       -1   -1    0    0    0  501  0.00000000000E+00  0.00000000000E+00 -0.79143426500E+03  0.79143426502E+03  0.50400001928E-02 0. -1.
    10030    2    1    2    0    0  0.00000000000E+00  0.00000000000E+00  0.47674190350E+03  0.20596104335E+04  0.20036746980E+04 0.  0.
        4    1    3    3  502    0  0.55530020466E+03 -0.19002038595E+03 -0.59621273832E+03  0.83662255923E+03  0.12699999809E+01 0. -1.
       -4    1    3    3    0  502 -0.55530020466E+03  0.19002038595E+03  0.10729546418E+04  0.12229878743E+04  0.12699999809E+01 0.  1.
</event>
<event>
 5   0  0.2256868E-05  0.2000669E+04  0.7818609E-02  0.8606308E-01
       -1   -1    0    0    0  501  0.00000000000E+00  0.00000000000E+00  0.64972378727E+03  0.64972378729E+03  0.50400001928E-02 0. -1.
        1   -1    0    0  501    0  0.00000000000E+00  0.00000000000E+00 -0.15401453922E+04  0.15401453922E+04  0.50400001928E-02 0.  1.
    10030    2    1    2    0    0  0.00000000000E+00  0.00000000000E+00 -0.89042160497E+03  0.21898691795E+04  0.20006689853E+04 0.  0.
        5    1    3    3  502    0  0.74545123710E+02 -0.87247533869E+03 -0.97455300146E+03  0.13101701549E+04  0.46999998093E+01 0. -1.
       -5    1    3    3    0  502 -0.74545123710E+02  0.87247533869E+03  0.84131396491E+02  0.87969902465E+03  0.46999998093E+01 0.  1.
</event>
<event>
 5   0  0.4514680E-05  0.2000694E+04  0.7818609E-02  0.8606296E-01
        2   -1    0    0  501    0  0.00000000000E+00  0.00000000000E+00  0.16209905343E+04  0.16209905343E+04  0.25500000920E-02 0. -1.
       -2   -1    0    0    0  501  0.00000000000E+00  0.00000000000E+00 -0.61733508439E+03  0.61733508439E+03  0.25500000920E-02 0.  1.
    10030    2    1    2    0    0  0.00000000000E+00  0.00000000000E+00  0.10036554499E+04  0.22383256187E+04  0.20006942078E+04 0.  0.
        3    1    3    3  502    0 -0.99769375485E+03 -0.14262763463E+02  0.42194641878E+03  0.10833443799E+04  0.10100000352E+00 0.  1.
       -3    1    3    3    0  502  0.99769375485E+03  0.14262763463E+02  0.58170903113E+03  0.11549812388E+04  0.10100000352E+00 0. -1.
</event>
<event>
 5   0  0.4514680E-05  0.2000146E+04  0.7818609E-02  0.8606552E-01
        2   -1    0    0  501    0  0.00000000000E+00  0.00000000000E+00  0.22626829309E+04  0.22626829309E+04  0.25500000920E-02 0. -1.
       -2   -1    0    0    0  501  0.00000000000E+00  0.00000000000E+00 -0.44201770116E+03  0.44201770117E+03  0.25500000920E-02 0.  1.
    10030    2    1    2    0    0  0.00000000000E+00  0.00000000000E+00  0.18206652297E+04  0.27047006321E+04  0.20001459023E+04 0.  0.
        3    1    3    3  502    0 -0.23822342461E+03 -0.74407908796E+03  0.66131301257E+02  0.78407745050E+03  0.10100000352E+00 0.  1.
       -3    1    3    3    0  502  0.23822342461E+03  0.74407908796E+03  0.17545339285E+04  0.19206231816E+04  0.10100000352E+00 0. -1.
</event>
<event>
 5   0  0.2142551E-05  0.2004061E+04  0.7818609E-02  0.8604725E-01
       -1   -1    0    0    0  501  0.00000000000E+00  0.00000000000E+00  0.11159882566E+04  0.11159882566E+04  0.50400001928E-02 0.  1.
        1   -1    0    0  501    0  0.00000000000E+00  0.00000000000E+00 -0.89970911303E+03  0.89970911305E+03  0.50400001928E-02 0. -1.
    10030    2    1    2    0    0  0.00000000000E+00  0.00000000000E+00  0.21627914353E+03  0.20156973696E+04  0.20040606822E+04 0.  0.
        3    1    3    3  502    0 -0.26251670968E+03 -0.56216229599E+03  0.89955232461E+03  0.10927652377E+04  0.10100000352E+00 0.  1.
       -3    1    3    3    0  502  0.26251670968E+03  0.56216229599E+03 -0.68327318108E+03  0.92293213189E+03  0.10100000352E+00 0. -1.
</event>
<event>
 5   0  0.2110896E-05  0.1946752E+04  0.7818609E-02  0.8631928E-01
       -1   -1    0    0    0  501  0.00000000000E+00  0.00000000000E+00  0.11449370564E+04  0.11449370564E+04  0.50400001928E-02 0.  1.
        1   -1    0    0  501    0  0.00000000000E+00  0.00000000000E+00 -0.82752251701E+03  0.82752251703E+03  0.50400001928E-02 0. -1.
    10030    2    1    2    0    0  0.00000000000E+00  0.00000000000E+00  0.31741453938E+03  0.19724595734E+04  0.19467523671E+04 0.  0.
        4    1    3    3  502    0 -0.46340923959E+03 -0.84877503715E+03  0.46372124775E+02  0.96815245385E+03  0.12699999809E+01 0. -1.
       -4    1    3    3    0  502  0.46340923959E+03  0.84877503715E+03  0.27104241461E+03  0.10043071196E+04  0.12699999809E+01 0.  1.
</event>
<event>
 5   0  0.2256868E-05  0.2005363E+04  0.7818609E-02  0.8604117E-01
        1   -1    0    0  501    0  0.00000000000E+00  0.00000000000E+00  0.11407609148E+04  0.11407609148E+04  0.50400001928E-02 0.  1.
       -1   -1    0    0    0  501  0.00000000000E+00  0.00000000000E+00 -0.88131586380E+03  0.88131586382E+03  0.50400001928E-02 0. -1.
    10030    2    1    2    0    0  0.00000000000E+00  0.00000000000E+00  0.25944505101E+03  0.20220767786E+04  0.20053634993E+04 0.  0.
        5    1    3    3  502    0  0.11210589268E+03  0.91640661322E+03  0.52410859369E+03  0.10616405794E+04  0.46999998093E+01 0.  1.
       -5    1    3    3    0  502 -0.11210589268E+03 -0.91640661322E+03 -0.26466354268E+03  0.96043619921E+03  0.46999998093E+01 0. -1.
</event>
<event>
 5   0  0.4412054E-05  0.1997384E+04  0.7818609E-02  0.8607845E-01
       -2   -1    0    0    0  501  0.00000000000E+00  0.00000000000E+00  0.12162755964E+04  0.12162755964E+04  0.25500000920E-02 0. -1.
        2   -1    0    0  501    0  0.00000000000E+00  0.00000000000E+00 -0.82003262855E+03  0.82003262855E+03  0.25500000920E-02 0.  1.
    10030    2    1    2    0    0  0.00000000000E+00  0.00000000000E+00  0.39624296783E+03  0.20363082249E+04  0.19973839634E+04 0.  0.
        4    1    3    3  502    0 -0.26917421859E+03  0.69288946441E+02 -0.77980489512E+03  0.82786049876E+03  0.12699999809E+01 0.  1.
       -4    1    3    3    0  502  0.26917421859E+03 -0.69288946441E+02  0.11760478630E+04  0.12084477262E+04  0.12699999809E+01 0. -1.
</event>
<event>
 5   0  0.4412054E-05  0.1995055E+04  0.7818609E-02  0.8608936E-01
       -2   -1    0    0    0  501  0.00000000000E+00  0.00000000000E+00  0.87646544591E+03  0.87646544592E+03  0.25500000920E-02 0.  1.
        2   -1    0    0  501    0  0.00000000000E+00  0.00000000000E+00 -0.11353109651E+04  0.11353109651E+04  0.25500000920E-02 0. -1.
    10030    2    1    2    0    0  0.00000000000E+00  0.00000000000E+00 -0.25884551922E+03  0.20117764111E+04  0.19950547174E+04 0.  0.
        4    1    3    3  502    0  0.28488500258E+03  0.46513872557E+02  0.83342916462E+03  0.88200271562E+03  0.12699999809E+01 0.  1.
       -4    1    3    3    0  502 -0.28488500258E+03 -0.46513872557E+02 -0.10922746838E+04  0.11297736954E+04  0.12699999809E+01 0. -1.
</event>
<event>
 5   0  0.4514680E-05  0.2007534E+04  0.7818609E-02  0.8603106E-01
       -2   -1    0    0    0  501  0.00000000000E+00  0.00000000000E+00  0.88225036779E+03  0.88225036779E+03  0.25500000920E-02 0.  1.
        2   -1    0    0  501    0  0.00000000000E+00  0.00000000000E+00 -0.11420209611E+04  0.11420209611E+04  0.25500000920E-02 0. -1.
    10030    2    1    2    0    0  0.00000000000E+00  0.00000000000E+00 -0.25977059335E+03  0.20242713289E+04  0.20075342219E+04 0.  0.
        3    1    3    3  502    0 -0.30894821295E+03  0.61476002708E+03 -0.86684767138E+03  0.11067085365E+04  0.10100000352E+00 0. -1.
       -3    1    3    3    0  502  0.30894821295E+03 -0.61476002708E+03  0.60707707803E+03  0.91756279243E+03  0.10100000352E+00 0.  1.
</event>
<event>
 5   0  0.2007644E-05  0.2001677E+04  0.7818609E-02  0.8605837E-01
        1   -1    0    0  501    0  0.00000000000E+00  0.00000000000E+00  0.17442830026E+04  0.17442830026E+04  0.50400001928E-02 0. -1.
       -1   -1    0    0    0  501  0.00000000000E+00  0.00000000000E+00 -0.57426323876E+03  0.57426323878E+03  0.50400001928E-02 0.  1.
    10030    2    1    2    0    0  0.00000000000E+00  0.00000000000E+00  0.11700197638E+04  0.23185462414E+04  0.20016769034E+04 0.  0.
        1    1    3    3  502    0  0.46040983717E+03 -0.56823714229E+03 -0.20637989383E+03  0.75991007932E+03  0.50400001928E-02 0.  1.
       -1    1    3    3    0  502 -0.46040983717E+03  0.56823714229E+03  0.13763996576E+04  0.15586361620E+04  0.50400001928E-02 0. -1.
</event>
<event>
 5   0  0.4412054E-05  0.2002982E+04  0.7818609E-02  0.8605228E-01
        2   -1    0    0  501    0  0.00000000000E+00  0.00000000000E+00  0.11168086257E+04  0.11168086257E+04  0.25500000920E-02 0.  1.
       -2   -1    0    0    0  501  0.00000000000E+00  0.00000000000E+00 -0.89808053502E+03  0.89808053502E+03  0.25500000920E-02 0. -1.
    10030    2    1    2    0    0  0.00000000000E+00  0.00000000000E+00  0.21872809066E+03  0.20148891607E+04  0.20029818652E+04 0.  0.
        4    1    3    3  502    0 -0.26300538933E+03 -0.47950511363E+03 -0.73460233850E+03  0.91582705651E+03  0.12699999809E+01 0. -1.
       -4    1    3    3    0  502  0.26300538933E+03  0.47950511363E+03  0.95333042916E+03  0.10990621042E+04  0.12699999809E+01 0.  1.
</event>
<event>
 5   0  0.2110896E-05  0.1996017E+04  0.7818609E-02  0.8608485E-01
       -1   -1    0    0    0  501  0.00000000000E+00  0.00000000000E+00  0.88368809158E+03  0.88368809160E+03  0.50400001928E-02 0.  1.
        1   -1    0    0  501    0  0.00000000000E+00  0.00000000000E+00 -0.11271185909E+04  0.11271185909E+04  0.50400001928E-02 0. -1.
    10030    2    1    2    0    0  0.00000000000E+00  0.00000000000E+00 -0.24343049929E+03  0.20108066825E+04  0.19960173111E+04 0.  0.
        4    1    3    3  502    0  0.22519630241E+03  0.24514582971E+03 -0.10695423582E+04  0.11201483480E+04  0.12699999809E+01 0. -1.
       -4    1    3    3    0  502 -0.22519630241E+03 -0.24514582971E+03  0.82611185896E+03  0.89065833452E+03  0.12699999809E+01 0.  1.
</event>
<event>
 5   0  0.4577279E-05  0.2009423E+04  0.7818609E-02  0.8602228E-01
       -2   -1    0    0    0  501  0.00000000000E+00  0.00000000000E+00  0.72066926090E+03  0.72066926090E+03  0.25500000920E-02 0. -1.
        2   -1    0    0  501    0  0.00000000000E+00  0.00000000000E+00 -0.14007058944E+04  0.14007058944E+04  0.25500000920E-02 0.  1.
    10030    2    1    2    0    0  0.00000000000E+00  0.00000000000E+00 -0.68003663350E+03  0.21213751553E+04  0.20094234812E+04 0.  0.
        1    1    3    3  502    0  0.83062785532E+01  0.62723033553E+03  0.48853762331E+03  0.79508232120E+03  0.50400001928E-02 0. -1.
       -1    1    3    3    0  502 -0.83062785532E+01 -0.62723033553E+03 -0.11685742568E+04  0.13262928341E+04  0.50400001928E-02 0.  1.
</event>
<event>
 5   0  0.4447313E-05  0.1999286E+04  0.7818609E-02  0.8606955E-01
       -2   -1    0    0    0  501  0.00000000000E+00  0.00000000000E+00  0.11503559087E+04  0.11503559087E+04  0.25500000920E-02 0.  1.
        2   -1    0    0  501    0  0.00000000000E+00  0.00000000000E+00 -0.86867570175E+03  0.86867570176E+03  0.25500000920E-02 0. -1.
    10030    2    1    2    0    0  0.00000000000E+00  0.00000000000E+00  0.28168020693E+03  0.20190316104E+04  0.19992860988E+04 0.  0.
        5    1    3    3  502    0 -0.68726263085E+03  0.30481478406E+03 -0.52447000812E+03  0.91669670871E+03  0.46999998093E+01 0. -1.
       -5    1    3    3    0  502  0.68726263085E+03 -0.30481478406E+03  0.80615021505E+03  0.11023349017E+04  0.46999998093E+01 0.  1.
</event>
<event>
 5   0  0.2007644E-05  0.1991034E+04  0.7818609E-02  0.8610824E-01
       -1   -1    0    0    0  501  0.00000000000E+00  0.00000000000E+00  0.13267407697E+04  0.13267407697E+04  0.50400001928E-02 0.  1.
        1   -1    0    0  501    0  0.00000000000E+00  0.00000000000E+00 -0.74698415511E+03  0.74698415512E+03  0.50400001928E-02 0. -1.
    10030    2    1    2    0    0  0.00000000000E+00  0.00000000000E+00  0.57975661462E+03  0.20737249249E+04  0.19910342367E+04 0.  0.
        1    1    3    3  502    0 -0.31229332803E+03 -0.22289567725E+03 -0.66688319087E+03  0.76937818786E+03  0.50400001928E-02 0. -1.
       -1    1    3    3    0  502  0.31229332803E+03  0.22289567725E+03  0.12466398055E+04  0.13043467370E+04  0.50400001928E-02 0.  1.
</event>
<event>
 5   0  0.2007644E-05  0.2028224E+04  0.7818609E-02  0.8593537E-01
       -1   -1    0    0    0  501  0.00000000000E+00  0.00000000000E+00  0.82062914529E+03  0.82062914531E+03  0.50400001928E-02 0.  1.
        1   -1    0    0  501    0  0.00000000000E+00  0.00000000000E+00 -0.12532136224E+04  0.12532136224E+04  0.50400001928E-02 0. -1.
    10030    2    1    2    0    0  0.00000000000E+00  0.00000000000E+00 -0.43258447707E+03  0.20738427677E+04  0.20282244687E+04 0.  0.
        1    1    3    3  502    0 -0.70541697856E+03 -0.20287835738E+03 -0.93178143308E+03  0.11861658318E+04  0.50400001928E-02 0. -1.
       -1    1    3    3    0  502  0.70541697856E+03  0.20287835738E+03  0.49919695601E+03  0.88767693585E+03  0.50400001928E-02 0.  1.
</event>
<event>
 5   0  0.2110896E-05  0.1996492E+04  0.7818609E-02  0.8608262E-01
       -1   -1    0    0    0  501  0.00000000000E+00  0.00000000000E+00  0.64942311114E+03  0.64942311116E+03  0.50400001928E-02 0. -1.
        1   -1    0    0  501    0  0.00000000000E+00  0.00000000000E+00 -0.15344313066E+04  0.15344313066E+04  0.50400001928E-02 0.  1.
    10030    2    1    2    0    0  0.00000000000E+00  0.00000000000E+00 -0.88500819548E+03  0.21838544178E+04  0.19964920766E+04 0.  0.
        4    1    3    3  502    0  0.40282221182E+03 -0.86533448905E+03 -0.12280153681E+03  0.96236757147E+03  0.12699999809E+01 0. -1.
       -4    1    3    3    0  502 -0.40282221182E+03  0.86533448905E+03 -0.76220665867E+03  0.12214868463E+04  0.12699999809E+01 0.  1.
</event>
<event>
 5   0  0.4412054E-05  0.2019924E+04  0.7818609E-02  0.8597362E-01
       -2   -1    0    0    0  501  0.00000000000E+00  0.00000000000E+00  0.72856155459E+03  0.72856155459E+03  0.25500000920E-02 0.  1.
        2   -1    0    0  501    0  0.00000000000E+00  0.00000000000E+00 -0.14000503160E+04  0.14000503160E+04  0.25500000920E-02 0. -1.
    10030    2    1    2    0    0  0.00000000000E+00  0.00000000000E+00 -0.67148876138E+03  0.21286118706E+04  0.20199235973E+04 0.  0.
        4    1    3    3  502    0  0.53175632062E+03 -0.80088457298E+03 -0.95055097248E+01  0.96139110219E+03  0.12699999809E+01 0.  1.
       -4    1    3    3    0  502 -0.53175632062E+03  0.80088457298E+03 -0.66198325165E+03  0.11672207684E+04  0.12699999809E+01 0. -1.
</event>
<event>
 5   0  0.2007644E-05  0.1965291E+04  0.7818609E-02  0.8623022E-01
        1   -1    0    0  501    0  0.00000000000E+00  0.00000000000E+00  0.13621594618E+04  0.13621594618E+04  0.50400001928E-02 0.  1.
       -1   -1    0    0    0  501  0.00000000000E+00  0.00000000000E+00 -0.70886860360E+03  0.70886860362E+03  0.50400001928E-02 0. -1.
    10030    2    1    2    0    0  0.00000000000E+00  0.00000000000E+00  0.65329085821E+03  0.20710280654E+04  0.19652908951E+04 0.  0.
        1    1    3    3  502    0 -0.72785668447E+03 -0.47243288915E+02 -0.36725341433E+03  0.81662864990E+03  0.50400001928E-02 0. -1.
       -1    1    3    3    0  502  0.72785668447E+03  0.47243288915E+02  0.10205442725E+04  0.12543994155E+04  0.50400001928E-02 0.  1.
</event>
<event>
 5   0  0.4577279E-05  0.1998114E+04  0.7818609E-02  0.8607503E-01
        2   -1    0    0  501    0  0.00000000000E+00  0.00000000000E+00  0.37942135966E+03  0.37942135967E+03  0.25500000920E-02 0. -1.
       -2   -1    0    0    0  501  0.00000000000E+00  0.00000000000E+00 -0.26306243473E+04  0.26306243473E+04  0.25500000920E-02 0.  1.
    10030    2    1    2    0    0  0.00000000000E+00  0.00000000000E+00 -0.22512029876E+04  0.30100457070E+04  0.19981141775E+04 0.  0.
        1    1    3    3  502    0  0.89128616179E+02  0.76591520799E+03 -0.20825725475E+04  0.22207382628E+04  0.50400001928E-02 0.  1.
       -1    1    3    3    0  502 -0.89128616179E+02 -0.76591520799E+03 -0.16863044008E+03  0.78930744416E+03  0.50400001928E-02 0. -1.
</event>
<event>
 5   0  0.1601500E-05  0.2012541E+04  0.7818609E-02  0.8600780E-01
        3   -1    0    0  501    0  0.00000000000E+00  0.00000000000E+00  0.91824610393E+03  0.91824610949E+03  0.10100000352E+00 0. -1.
       -3   -1    0    0    0  501  0.00000000000E+00  0.00000000000E+00 -0.11027333700E+04  0.11027333746E+04  0.10100000352E+00 0.  1.
    10030    2    1    2    0    0  0.00000000000E+00  0.00000000000E+00 -0.18448726607E+03  0.20209794841E+04  0.20125413099E+04 0.  0.
        3    1    3    3  502    0  0.81034449728E+03 -0.31386399238E+03  0.41724128936E+03  0.96398086793E+03  0.10100000352E+00 0. -1.
       -3    1    3    3    0  502 -0.81034449728E+03  0.31386399238E+03 -0.60172855543E+03  0.10569986162E+04  0.10100000352E+00 0.  1.
</event>
<event>
 5   0  0.2256868E-05  0.2030757E+04  0.7818609E-02  0.8592374E-01
        1   -1    0    0  501    0  0.00000000000E+00  0.00000000000E+00  0.10020919947E+04  0.10020919947E+04  0.50400001928E-02 0.  1.
       -1   -1    0    0    0  501  0.00000000000E+00  0.00000000000E+00 -0.10288413610E+04  0.10288413610E+04  0.50400001928E-02 0. -1.
    10030    2    1    2    0    0  0.00000000000E+00  0.00000000000E+00 -0.26749366355E+02  0.20309333557E+04  0.20307571905E+04 0.  0.
        5    1    3    3  502    0  0.68600810410E+03 -0.39213676779E+03  0.62432727221E+03  0.10070675232E+04  0.46999998093E+01 0.  1.
       -5    1    3    3    0  502 -0.68600810410E+03  0.39213676779E+03 -0.65107663856E+03  0.10238658324E+04  0.46999998093E+01 0. -1.
</event>
<event>
 5   0  0.4514680E-05  0.1986634E+04  0.7818609E-02  0.8612896E-01
       -2   -1    0    0    0  501  0.00000000000E+00  0.00000000000E+00  0.83641699997E+03  0.83641699997E+03  0.25500000920E-02 0. -1.
        2   -1    0    0  501    0  0.00000000000E+00  0.00000000000E+00 -0.11796486697E+04  0.11796486697E+04  0.25500000920E-02 0.  1.
    10030    2    1    2    0    0  0.00000000000E+00  0.00000000000E+00 -0.34323166978E+03  0.20160656697E+04  0.19866335358E+04 0.  0.
        3    1    3    3  502    0  0.46956146469E+03  0.84969963611E+03  0.41738628837E+02  0.97170960892E+03  0.10100000352E+00 0.  1.
       -3    1    3    3    0  502 -0.46956146469E+03 -0.84969963611E+03 -0.38497029862E+03  0.10443560608E+04  0.10100000352E+00 0. -1.
</event>
<event>
 5   0  0.2007644E-05  0.2001359E+04  0.7818609E-02  0.8605985E-01
       -1   -1    0    0    0  501  0.00000000000E+00  0.00000000000E+00  0.52976512621E+03  0.52976512623E+03  0.50400001928E-02 0.  1.
        1   -1    0    0  501    0  0.00000000000E+00  0.00000000000E+00 -0.18901954935E+04  0.18901954935E+04  0.50400001928E-02 0. -1.
    10030    2    1    2    0    0  0.00000000000E+00  0.00000000000E+00 -0.13604303673E+04  0.24199606198E+04  0.20013591924E+04 0.  0.
        1    1    3    3  502    0  0.38957618264E+03  0.36165752663E+03 -0.17053605322E+04  0.17862867389E+04  0.50400001928E-02 0.  1.
       -1    1    3    3    0  502 -0.38957618264E+03 -0.36165752663E+03  0.34493016489E+03  0.63367388089E+03  0.50400001928E-02 0. -1.
</event>
<event>
 5   0  0.2256868E-05  0.1997146E+04  0.7818609E-02  0.8607956E-01
       -1   -1    0    0    0  501  0.00000000000E+00  0.00000000000E+00  0.74268613821E+03  0.74268613823E+03  0.50400001928E-02 0. -1.
        1   -1    0    0  501    0  0.00000000000E+00  0.00000000000E+00 -0.13426232978E+04  0.13426232979E+04  0.50400001928E-02 0.  1.
    10030    2    1    2    0    0  0.00000000000E+00  0.00000000000E+00 -0.59993715963E+03  0.20853094361E+04  0.19971456754E+04 0.  0.
        5    1    3    3  502    0  0.14932155884E+03 -0.31705544909E+03  0.67635129456E+03  0.76177047027E+03  0.46999998093E+01 0. -1.
       -5    1    3    3    0  502 -0.14932155884E+03  0.31705544909E+03 -0.12762884542E+04  0.13235389658E+04  0.46999998093E+01 0.  1.
</event>
<event>
 5   0  0.4447313E-05  0.1999137E+04  0.7818609E-02  0.8607024E-01
        2   -1    0    0  501    0  0.00000000000E+00  0.00000000000E+00  0.27244868890E+04  0.27244868890E+04  0.25500000920E-02 0.  1.
       -2   -1    0    0    0  501  0.00000000000E+00  0.00000000000E+00 -0.36672480376E+03  0.36672480377E+03  0.25500000920E-02 0. -1.
    10030    2    1    2    0    0  0.00000000000E+00  0.00000000000E+00  0.23577620852E+04  0.30912116928E+04  0.19991367334E+04 0.  0.
        5    1    3    3  502    0  0.86603996917E+03 -0.21310841274E+03  0.18767188219E+04  0.20778681503E+04  0.46999998093E+01 0.  1.
       -5    1    3    3    0  502 -0.86603996917E+03  0.21310841274E+03  0.48104326336E+03  0.10133435424E+04  0.46999998093E+01 0. -1.
</event>
<event>
 5   0  0.2007644E-05  0.1993768E+04  0.7818609E-02  0.8609540E-01
        1   -1    0    0  501    0  0.00000000000E+00  0.00000000000E+00  0.12829515830E+04  0.12829515830E+04  0.50400001928E-02 0.  1.
       -1   -1    0    0    0  501  0.00000000000E+00  0.00000000000E+00 -0.77460262863E+03  0.77460262864E+03  0.50400001928E-02 0. -1.
    10030    2    1    2    0    0  0.00000000000E+00  0.00000000000E+00  0.50834895440E+03  0.20575542117E+04  0.19937679591E+04 0.  0.
        1    1    3    3  502    0 -0.62823782422E+03  0.12047032169E+03  0.10432150253E+04  0.12237211493E+04  0.50400001928E-02 0.  1.
       -1    1    3    3    0  502  0.62823782422E+03 -0.12047032169E+03 -0.53486607086E+03  0.83383306242E+03  0.50400001928E-02 0. -1.
</event>
<event>
 5   0  0.2256868E-05  0.2017410E+04  0.7818609E-02  0.8598524E-01
        1   -1    0    0  501    0  0.00000000000E+00  0.00000000000E+00  0.13726162607E+04  0.13726162607E+04  0.50400001928E-02 0. -1.
       -1   -1    0    0    0  501  0.00000000000E+00  0.00000000000E+00 -0.74127463032E+03  0.74127463034E+03  0.50400001928E-02 0.  1.
    10030    2    1    2    0    0  0.00000000000E+00  0.00000000000E+00  0.63134163041E+03  0.21138908911E+04  0.20174098357E+04 0.  0.
        5    1    3    3  502    0  0.37757907457E+03  0.80313834401E+03  0.81804364920E+03  0.12069857742E+04  0.46999998093E+01 0. -1.
       -5    1    3    3    0  502 -0.37757907457E+03 -0.80313834401E+03 -0.18670201879E+03  0.90690511686E+03  0.46999998093E+01 0.  1.
</event>
<event>
 5   0  0.2142551E-05  0.1958068E+04  0.7818609E-02  0.8626480E-01
       -1   -1    0    0    0  501  0.00000000000E+00  0.00000000000E+00  0.85427603958E+03  0.85427603959E+03  0.50400001928E-02 0.  1.
        1   -1    0    0  501    0  0.00000000000E+00  0.00000000000E+00 -0.11220115885E+04  0.11220115885E+04  0.50400001928E-02 0. -1.
    10030    2    1    2    0    0  0.00000000000E+00  0.00000000000E+00 -0.26773554891E+03  0.19762876281E+04  0.19580680440E+04 0.  0.
        3    1    3    3  502    0 -0.42202719953E+03 -0.87736623080E+03 -0.29810713175E+02  0.97404678990E+03  0.10100000352E+00 0.  1.
       -3    1    3    3    0  502  0.42202719953E+03  0.87736623080E+03 -0.23792483574E+03  0.10022408382E+04  0.10100000352E+00 0. -1.
</event>
<event>
 5   0  0.4412054E-05  0.1997960E+04  0.7818609E-02  0.8607575E-01
       -2   -1    0    0    0  501  0.00000000000E+00  0.00000000000E+00  0.42091526509E+03  0.42091526510E+03  0.25500000920E-02 0. -1.
        2   -1    0    0  501    0  0.00000000000E+00  0.00000000000E+00 -0.23709304090E+04  0.23709304090E+04  0.25500000920E-02 0.  1.
    10030    2    1    2    0    0  0.00000000000E+00  0.00000000000E+00 -0.19500151439E+04  0.27918456741E+04  0.19979597610E+04 0.  0.
        4    1    3    3  502    0  0.71136338666E+03  0.69999616666E+03 -0.10363428465E+04  0.14387635697E+04  0.12699999809E+01 0. -1.
       -4    1    3    3    0  502 -0.71136338666E+03 -0.69999616666E+03 -0.91367229745E+03  0.13530821044E+04  0.12699999809E+01 0.  1.
</event>
<event>
 5   0  0.2093980E-05  0.1997336E+04  0.7818609E-02  0.8607867E-01
       -1   -1    0    0    0  501  0.00000000000E+00  0.00000000000E+00  0.51730627027E+03  0.51730627029E+03  0.50400001928E-02 0.  1.
        1   -1    0    0  501    0  0.00000000000E+00  0.00000000000E+00 -0.19279451036E+04  0.19279451036E+04  0.50400001928E-02 0. -1.
    10030    2    1    2    0    0  0.00000000000E+00  0.00000000000E+00 -0.14106388333E+04  0.24452513739E+04  0.19973363171E+04 0.  0.
        2    1    3    3  502    0  0.57534662242E+03  0.77265368523E+03 -0.10276515386E+04  0.14085755706E+04  0.25500000920E-02 0. -1.
       -2    1    3    3    0  502 -0.57534662242E+03 -0.77265368523E+03 -0.38298729471E+03  0.10366758033E+04  0.25500000920E-02 0.  1.
</event>
<event>
 5   0  0.1601500E-05  0.1996876E+04  0.7818609E-02  0.8608083E-01
       -3   -1    0    0    0  501  0.00000000000E+00  0.00000000000E+00  0.16644039396E+04  0.16644039427E+04  0.10100000352E+00 0. -1.
        3   -1    0    0  501    0  0.00000000000E+00  0.00000000000E+00 -0.59894004319E+03  0.59894005171E+03  0.10100000352E+00 0.  1.
    10030    2    1    2    0    0  0.00000000000E+00  0.00000000000E+00  0.10654638964E+04  0.22633439944E+04  0.19968757403E+04 0.  0.
        4    1    3    3  502    0  0.74386916128E+03  0.50662003444E+03  0.42760334692E+02  0.90101900508E+03  0.12699999809E+01 0.  1.
       -4    1    3    3    0  502 -0.74386916128E+03 -0.50662003444E+03  0.10227035617E+04  0.13623249893E+04  0.12699999809E+01 0. -1.
</event>
<event>
 5   0  0.4577279E-05  0.1977317E+04  0.7818609E-02  0.8617300E-01
        2   -1    0    0  501    0  0.00000000000E+00  0.00000000000E+00  0.91070052357E+03  0.91070052358E+03  0.25500000920E-02 0.  1.
       -2   -1    0    0    0  501  0.00000000000E+00  0.00000000000E+00 -0.10732901660E+04  0.10732901660E+04  0.25500000920E-02 0. -1.
    10030    2    1    2    0    0  0.00000000000E+00  0.00000000000E+00 -0.16258964240E+03  0.19839906896E+04  0.19773172898E+04 0.  0.
        1    1    3    3  502    0 -0.46435830610E+03 -0.24196467042E+02  0.79413579322E+03  0.92025309755E+03  0.50400001928E-02 0.  1.
       -1    1    3    3    0  502  0.46435830610E+03  0.24196467042E+02 -0.95672543562E+03  0.10637375920E+04  0.50400001928E-02 0. -1.
</event>
<event>
 5   0  0.4412054E-05  0.1990113E+04  0.7818609E-02  0.8611257E-01
       -2   -1    0    0    0  501  0.00000000000E+00  0.00000000000E+00  0.53125246558E+03  0.53125246558E+03  0.25500000920E-02 0.  1.
        2   -1    0    0  501    0  0.00000000000E+00  0.00000000000E+00 -0.18637791023E+04  0.18637791023E+04  0.25500000920E-02 0. -1.
    10030    2    1    2    0    0  0.00000000000E+00  0.00000000000E+00 -0.13325266367E+04  0.23950315678E+04  0.19901128042E+04 0.  0.
        4    1    3    3  502    0  0.39602636012E+02  0.98305339106E+03 -0.84546770502E+03  0.12972199473E+04  0.12699999809E+01 0. -1.
       -4    1    3    3    0  502 -0.39602636012E+02 -0.98305339106E+03 -0.48705893166E+03  0.10978116206E+04  0.12699999809E+01 0.  1.
</event>
<event>
 5   0  0.4412054E-05  0.1991746E+04  0.7818609E-02  0.8610489E-01
        2   -1    0    0  501    0  0.00000000000E+00  0.00000000000E+00  0.14626067966E+04  0.14626067966E+04  0.25500000920E-02 0.  1.
       -2   -1    0    0    0  501  0.00000000000E+00  0.00000000000E+00 -0.67807906066E+03  0.67807906066E+03  0.25500000920E-02 0. -1.
    10030    2    1    2    0    0  0.00000000000E+00  0.00000000000E+00  0.78452773591E+03  0.21406858572E+04  0.19917460106E+04 0.  0.
        4    1    3    3  502    0 -0.24434541808E+03  0.32609709164E+03 -0.58437658906E+03  0.71241954441E+03  0.12699999809E+01 0. -1.
       -4    1    3    3    0  502  0.24434541808E+03 -0.32609709164E+03  0.13689043250E+04  0.14282663128E+04  0.12699999809E+01 0.  1.
</event>
<event>
 5   0  0.4473361E-05  0.2115043E+04  0.7818609E-02  0.8554646E-01
        2   -1    0    0  501    0  0.00000000000E+00  0.00000000000E+00  0.10174110259E+04  0.10174110259E+04  0.25500000920E-02 0. -1.
       -2   -1    0    0    0  501  0.00000000000E+00  0.00000000000E+00 -0.10992135650E+04  0.10992135650E+04  0.25500000920E-02 0.  1.
    10030    2    1    2    0    0  0.00000000000E+00  0.00000000000E+00 -0.81802539163E+02  0.21166245909E+04  0.21150432628E+04 0.  0.
        2    1    3    3  502    0  0.23849163556E+03  0.10235880214E+04 -0.15821221692E+03  0.10628460864E+04  0.25500000920E-02 0.  1.
       -2    1    3    3    0  502 -0.23849163556E+03 -0.10235880214E+04  0.76409677756E+02  0.10537785045E+04  0.25500000920E-02 0. -1.
</event>
<event>
 5   0  0.4514680E-05  0.1995470E+04  0.7818609E-02  0.8608741E-01
        2   -1    0    0  501    0  0.00000000000E+00  0.00000000000E+00  0.11022901011E+04  0.11022901011E+04  0.25500000920E-02 0.  1.
       -2   -1    0    0    0  501  0.00000000000E+00  0.00000000000E+00 -0.90309753691E+03  0.90309753692E+03  0.25500000920E-02 0. -1.
    10030    2    1    2    0    0  0.00000000000E+00  0.00000000000E+00  0.19919256414E+03  0.20053876380E+04  0.19954703458E+04 0.  0.
        3    1    3    3  502    0  0.65750919397E+03  0.74809064181E+03  0.15919969487E+03  0.10086141490E+04  0.10100000352E+00 0.  1.
       -3    1    3    3    0  502 -0.65750919397E+03 -0.74809064181E+03  0.39992869269E+02  0.99677348897E+03  0.10100000352E+00 0. -1.
</event>
<event>
 5   0  0.2142551E-05  0.2004067E+04  0.7818609E-02  0.8604722E-01
        1   -1    0    0  501    0  0.00000000000E+00  0.00000000000E+00  0.12837184945E+04  0.12837184945E+04  0.50400001928E-02 0.  1.
       -1   -1    0    0    0  501  0.00000000000E+00  0.00000000000E+00 -0.78215811489E+03  0.78215811491E+03  0.50400001928E-02 0. -1.
    10030    2    1    2    0    0  0.00000000000E+00  0.00000000000E+00  0.50156037963E+03  0.20658766094E+04  0.20040667032E+04 0.  0.
        3    1    3    3  502    0  0.66438617790E+03  0.74994322292E+03  0.26698103476E+03  0.10368715996E+04  0.10100000352E+00 0.  1.
       -3    1    3    3    0  502 -0.66438617790E+03 -0.74994322292E+03  0.23457934487E+03  0.10290050098E+04  0.10100000352E+00 0. -1.
</event>
<event>
 5   0  0.2110896E-05  0.2006503E+04  0.7818609E-02  0.8603586E-01
        1   -1    0    0  501    0  0.00000000000E+00  0.00000000000E+00  0.16211423010E+04  0.16211423010E+04  0.50400001928E-02 0.  1.
       -1   -1    0    0    0  501  0.00000000000E+00  0.00000000000E+00 -0.62086680763E+03  0.62086680765E+03  0.50400001928E-02 0. -1.
    10030    2    1    2    0    0  0.00000000000E+00  0.00000000000E+00  0.10002754934E+04  0.22420091087E+04  0.20065028733E+04 0.  0.
        4    1    3    3  502    0 -0.24624201301E+03  0.60577324832E+03 -0.35003105951E+03  0.74170055472E+03  0.12699999809E+01 0. -1.
       -4    1    3    3    0  502  0.24624201301E+03 -0.60577324832E+03  0.13503065529E+04  0.15003085539E+04  0.12699999809E+01 0.  1.
</event>
<event>
 5   0  0.4514680E-05  0.1997069E+04  0.7818609E-02  0.8607992E-01
       -2   -1    0    0    0  501  0.00000000000E+00  0.00000000000E+00  0.11139817956E+04  0.11139817956E+04  0.25500000920E-02 0. -1.
        2   -1    0    0  501    0  0.00000000000E+00  0.00000000000E+00 -0.89505117859E+03  0.89505117859E+03  0.25500000920E-02 0.  1.
    10030    2    1    2    0    0  0.00000000000E+00  0.00000000000E+00  0.21893061704E+03  0.20090329742E+04  0.19970685708E+04 0.  0.
        3    1    3    3  502    0 -0.37617612337E+03 -0.51528840969E+03  0.88220789542E+03  0.10887246676E+04  0.10100000352E+00 0. -1.
       -3    1    3    3    0  502  0.37617612337E+03  0.51528840969E+03 -0.66327727838E+03  0.92030830659E+03  0.10100000352E+00 0.  1.
</event>
<event>
 5   0  0.4473361E-05  0.2002757E+04  0.7818609E-02  0.8605333E-01
       -2   -1    0    0    0  501  0.00000000000E+00  0.00000000000E+00  0.66578196902E+03  0.66578196902E+03  0.25500000920E-02 0.  1.
        2   -1    0    0  501    0  0.00000000000E+00  0.00000000000E+00 -0.15061376192E+04  0.15061376192E+04  0.25500000920E-02 0. -1.
    10030    2    1    2    0    0  0.00000000000E+00  0.00000000000E+00 -0.84035565018E+03  0.21719195882E+04  0.20027573690E+04 0.  0.
        2    1    3    3  502    0  0.37516221122E+03  0.32148247438E+03 -0.13647593700E+04  0.14514357734E+04  0.25500000920E-02 0. -1.
       -2    1    3    3    0  502 -0.37516221122E+03 -0.32148247438E+03  0.52440371987E+03  0.72048381486E+03  0.25500000920E-02 0.  1.
</event>
<event>
 5   0  0.2007644E-05  0.2004134E+04  0.7818609E-02  0.8604690E-01
        1   -1    0    0  501    0  0.00000000000E+00  0.00000000000E+00  0.18518713527E+04  0.18518713527E+04  0.50400001928E-02 0.  1.
       -1   -1    0    0    0  501  0.00000000000E+00  0.00000000000E+00 -0.54222876801E+03  0.54222876804E+03  0.50400001928E-02 0. -1.
    10030    2    1    2    0    0  0.00000000000E+00  0.00000000000E+00  0.13096425846E+04  0.23941001207E+04  0.20041336503E+04 0.  0.
        1    1    3    3  502    0 -0.93158337514E+03 -0.57393694516E+02  0.10904689764E+04  0.14353620482E+04  0.50400001928E-02 0.  1.
       -1    1    3    3    0  502  0.93158337514E+03  0.57393694516E+02  0.21917360825E+03  0.95873807246E+03  0.50400001928E-02 0. -1.
</event>
<event>
 5   0  0.4577279E-05  0.2036212E+04  0.7818609E-02  0.8589875E-01
        2   -1    0    0  501    0  0.00000000000E+00  0.00000000000E+00  0.19013727099E+04  0.19013727099E+04  0.25500000920E-02 0. -1.
       -2   -1    0    0    0  501  0.00000000000E+00  0.00000000000E+00 -0.54515327383E+03  0.54515327383E+03  0.25500000920E-02 0.  1.
    10030    2    1    2    0    0  0.00000000000E+00  0.00000000000E+00  0.13562194360E+04  0.24465259837E+04  0.20362117351E+04 0.  0.
        1    1    3    3  502    0  0.22444594238E+03  0.72124401094E+03 -0.14206462499E+03  0.76860344916E+03  0.50400001928E-02 0.  1.
       -1    1    3    3    0  502 -0.22444594238E+03 -0.72124401094E+03  0.14982840610E+04  0.16779225345E+04  0.50400001928E-02 0. -1.
</event>
<event>
 5   0  0.2093980E-05  0.2001812E+04  0.7818609E-02  0.8605774E-01
       -1   -1    0    0    0  501  0.00000000000E+00  0.00000000000E+00  0.53771165287E+03  0.53771165289E+03  0.50400001928E-02 0. -1.
        1   -1    0    0  501    0  0.00000000000E+00  0.00000000000E+00 -0.18631037847E+04  0.18631037847E+04  0.50400001928E-02 0.  1.
    10030    2    1    2    0    0  0.00000000000E+00  0.00000000000E+00 -0.13253921318E+04  0.24008154376E+04  0.20018117949E+04 0.  0.
        2    1    3    3  502    0  0.99590120185E+02 -0.26938736942E+03 -0.18126224414E+04  0.18352350972E+04  0.25500000920E-02 0.  1.
       -2    1    3    3    0  502 -0.99590120185E+02  0.26938736942E+03  0.48723030960E+03  0.56558034039E+03  0.25500000920E-02 0. -1.
</event>
<event>
 5   0  0.4447313E-05  0.1950444E+04  0.7818609E-02  0.8630147E-01
        2   -1    0    0  501    0  0.00000000000E+00  0.00000000000E+00  0.20258405364E+04  0.20258405364E+04  0.25500000920E-02 0. -1.
       -2   -1    0    0    0  501  0.00000000000E+00  0.00000000000E+00 -0.46946350656E+03  0.46946350657E+03  0.25500000920E-02 0.  1.
    10030    2    1    2    0    0  0.00000000000E+00  0.00000000000E+00  0.15563770299E+04  0.24953040430E+04  0.19504442591E+04 0.  0.
        5    1    3    3  502    0 -0.48100080163E+03  0.77539490860E+03  0.33790364009E+03  0.97303648207E+03  0.46999998093E+01 0.  1.
       -5    1    3    3    0  502  0.48100080163E+03 -0.77539490860E+03  0.12184733898E+04  0.15222675609E+04  0.46999998093E+01 0. -1.
</event>
<event>
 5   0  0.2093980E-05  0.1986581E+04  0.7818609E-02  0.8612921E-01
        1   -1    0    0  501    0  0.00000000000E+00  0.00000000000E+00  0.91483465620E+03  0.91483465622E+03  0.50400001928E-02 0.  1.
       -1   -1    0    0    0  501  0.00000000000E+00  0.00000000000E+00 -0.10784741864E+04  0.10784741864E+04  0.50400001928E-02 0. -1.
    10030    2    1    2    0    0  0.00000000000E+00  0.00000000000E+00 -0.16363953021E+03  0.19933088426E+04  0.19865805411E+04 0.  0.
        2    1    3    3  502    0 -0.30062425515E+02 -0.42247974135E+03  0.81968449647E+03  0.92264595325E+03  0.25500000920E-02 0.  1.
       -2    1    3    3    0  502  0.30062425515E+02  0.42247974135E+03 -0.98332402669E+03  0.10706628894E+04  0.25500000920E-02 0. -1.
</event>
<event>
 5   0  0.2142551E-05  0.2003138E+04  0.7818609E-02  0.8605155E-01
        1   -1    0    0  501    0  0.00000000000E+00  0.00000000000E+00  0.11391512523E+04  0.11391512523E+04  0.50400001928E-02 0.  1.
       -1   -1    0    0    0  501  0.00000000000E+00  0.00000000000E+00 -0.88060347872E+03  0.88060347873E+03  0.50400001928E-02 0. -1.
    10030    2    1    2    0    0  0.00000000000E+00  0.00000000000E+00  0.25854777353E+03  0.20197547310E+04  0.20031380936E+04 0.  0.
        3    1    3    3  502    0 -0.52010927873E+03 -0.70093354177E+03  0.62459124818E+03  0.10732826884E+04  0.10100000352E+00 0.  1.
       -3    1    3    3    0  502  0.52010927873E+03  0.70093354177E+03 -0.36604347464E+03  0.94647204255E+03  0.10100000352E+00 0. -1.
</event>
<event>
 5   0  0.2256868E-05  0.2003192E+04  0.7818609E-02  0.8605130E-01
        1   -1    0    0  501    0  0.00000000000E+00  0.00000000000E+00  0.91390367857E+03  0.91390367858E+03  0.50400001928E-02 0.  1.
       -1   -1    0    0    0  501  0.00000000000E+00  0.00000000000E+00 -0.10977021907E+04  0.10977021907E+04  0.50400001928E-02 0. -1.
    10030    2    1    2    0    0  0.00000000000E+00  0.00000000000E+00 -0.18379851216E+03  0.20116058693E+04  0.20031915237E+04 0.  0.
        5    1    3    3  502    0  0.15126975888E+03 -0.18507448678E+03  0.88483057613E+03  0.91656006026E+03  0.46999998093E+01 0.  1.
       -5    1    3    3    0  502 -0.15126975888E+03  0.18507448678E+03 -0.10686290883E+04  0.10950458091E+04  0.46999998093E+01 0. -1.
</event>
<event>
 5   0  0.4577279E-05  0.1995582E+04  0.7818609E-02  0.8608689E-01
       -2   -1    0    0    0  501  0.00000000000E+00  0.00000000000E+00  0.20269636259E+04  0.20269636259E+04  0.25500000920E-02 0. -1.
        2   -1    0    0  501    0  0.00000000000E+00  0.00000000000E+00 -0.49117171545E+03  0.49117171546E+03  0.25500000920E-02 0.  1.
    10030    2    1    2    0    0  0.00000000000E+00  0.00000000000E+00  0.15357919104E+04  0.25181353413E+04  0.19955823223E+04 0.  0.
        1    1    3    3  502    0 -0.82900229703E+02  0.90969135894E+03  0.26130185807E+03  0.95009971986E+03  0.50400001928E-02 0.  1.
       -1    1    3    3    0  502  0.82900229703E+02 -0.90969135894E+03  0.12744900523E+04  0.15680356215E+04  0.50400001928E-02 0. -1.
</event>
<event>
 5   0  0.2142551E-05  0.1997507E+04  0.7818609E-02  0.8607787E-01
       -1   -1    0    0    0  501  0.00000000000E+00  0.00000000000E+00  0.57842103465E+03  0.57842103468E+03  0.50400001928E-02 0. -1.
        1   -1    0    0  501    0  0.00000000000E+00  0.00000000000E+00 -0.17245366039E+04  0.17245366039E+04  0.50400001928E-02 0.  1.
    10030    2    1    2    0    0  0.00000000000E+00  0.00000000000E+00 -0.11461155693E+04  0.23029576386E+04  0.19975066926E+04 0.  0.
        3    1    3    3  502    0 -0.37161304430E+03  0.77363847002E+03 -0.11619434735E+04  0.14445502355E+04  0.10100000352E+00 0.  1.
       -3    1    3    3    0  502  0.37161304430E+03 -0.77363847002E+03  0.15827904232E+02  0.85840740313E+03  0.10100000352E+00 0. -1.
</event>
<event>
 5   0  0.4473361E-05  0.1998589E+04  0.7818609E-02  0.8607281E-01
       -2   -1    0    0    0  501  0.00000000000E+00  0.00000000000E+00  0.10924164532E+04  0.10924164532E+04  0.25500000920E-02 0.  1.
        2   -1    0    0  501    0  0.00000000000E+00  0.00000000000E+00 -0.91411068788E+03  0.91411068788E+03  0.25500000920E-02 0. -1.
    10030    2    1    2    0    0  0.00000000000E+00  0.00000000000E+00  0.17830576529E+03  0.20065271411E+04  0.19985890578E+04 0.  0.
        2    1    3    3  502    0 -0.46985914856E+03  0.52118700417E+03 -0.62514048262E+03  0.93978941036E+03  0.25500000920E-02 0. -1.
       -2    1    3    3    0  502  0.46985914856E+03 -0.52118700417E+03  0.80344624791E+03  0.10667377307E+04  0.25500000920E-02 0.  1.
</event>
<event>
 5   0  0.2110896E-05  0.2001528E+04  0.7818609E-02  0.8605907E-01
       -1   -1    0    0    0  501  0.00000000000E+00  0.00000000000E+00  0.63048837437E+03  0.63048837439E+03  0.50400001928E-02 0. -1.
        1   -1    0    0  501    0  0.00000000000E+00  0.00000000000E+00 -0.15884966110E+04  0.15884966110E+04  0.50400001928E-02 0.  1.
    10030    2    1    2    0    0  0.00000000000E+00  0.00000000000E+00 -0.95800823668E+03  0.22189849854E+04  0.20015280623E+04 0.  0.
        4    1    3    3  502    0  0.61223319988E+03 -0.14760461589E+02 -0.13565021916E+04  0.14883370488E+04  0.12699999809E+01 0.  1.
       -4    1    3    3    0  502 -0.61223319988E+03  0.14760461589E+02  0.39849395491E+03  0.73064793660E+03  0.12699999809E+01 0. -1.
</event>
<event>
 5   0  0.2256868E-05  0.1989461E+04  0.7818609E-02  0.8611564E-01
       -1   -1    0    0    0  501  0.00000000000E+00  0.00000000000E+00  0.62751110766E+03  0.62751110768E+03  0.50400001928E-02 0.  1.
        1   -1    0    0  501    0  0.00000000000E+00  0.00000000000E+00 -0.15768473409E+04  0.15768473409E+04  0.50400001928E-02 0. -1.
    10030    2    1    2    0    0  0.00000000000E+00  0.00000000000E+00 -0.94933623323E+03  0.22043584486E+04  0.19894614563E+04 0.  0.
        5    1    3    3  502    0  0.55017291705E+03 -0.58238129728E+03  0.17860102076E+03  0.82084019680E+03  0.46999998093E+01 0.  1.
       -5    1    3    3    0  502 -0.55017291705E+03  0.58238129728E+03 -0.11279372540E+04  0.13835182518E+04  0.46999998093E+01 0. -1.
</event>
<event>
 5   0  0.4447313E-05  0.1995366E+04  0.7818609E-02  0.8608790E-01
       -2   -1    0    0    0  501  0.00000000000E+00  0.00000000000E+00  0.10590474276E+04  0.10590474276E+04  0.25500000920E-02 0.  1.
        2   -1    0    0  501    0  0.00000000000E+00  0.00000000000E+00 -0.93987406352E+03  0.93987406353E+03  0.25500000920E-02 0. -1.
    10030    2    1    2    0    0  0.00000000000E+00  0.00000000000E+00  0.11917336410E+03  0.19989214912E+04  0.19953658404E+04 0.  0.
        5    1    3    3  502    0  0.74866532939E+03 -0.62981760742E+01  0.72016270299E+03  0.10388435162E+04  0.46999998093E+01 0.  1.
       -5    1    3    3    0  502 -0.74866532939E+03  0.62981760742E+01 -0.60098933889E+03  0.96007797491E+03  0.46999998093E+01 0. -1.
</event>
<event>
 5   0  0.2256868E-05  0.2014295E+04  0.7818609E-02  0.8599966E-01
        1   -1    0    0  501    0  0.00000000000E+00  0.00000000000E+00  0.19194723489E+04  0.19194723489E+04  0.50400001928E-02 0.  1.
       -1   -1    0    0    0  501  0.00000000000E+00  0.00000000000E+00 -0.52845027172E+03  0.52845027175E+03  0.50400001928E-02 0. -1.
    10030    2    1    2    0    0  0.00000000000E+00  0.00000000000E+00  0.13910220771E+04  0.24479226206E+04  0.20142946005E+04 0.  0.
        5    1    3    3  502    0  0.11435817046E+03  0.21641268948E+03 -0.49173982710E+03  0.54931083266E+03  0.46999998093E+01 0. -1.
       -5    1    3    3    0  502 -0.11435817046E+03 -0.21641268948E+03  0.18827619042E+04  0.18986117880E+04  0.46999998093E+01 0.  1.
</event>
<event>
 5   0  0.2093980E-05  0.1992933E+04  0.7818609E-02  0.8609932E-01
        1   -1    0    0  501    0  0.00000000000E+00  0.00000000000E+00  0.16964628546E+04  0.16964628546E+04  0.50400001928E-02 0.  1.
       -1   -1    0    0    0  501  0.00000000000E+00  0.00000000000E+00 -0.58530369290E+03  0.58530369292E+03  0.50400001928E-02 0. -1.
    10030    2    1    2    0    0  0.00000000000E+00  0.00000000000E+00  0.11111591617E+04  0.22817665475E+04  0.19929334898E+04 0.  0.
        2    1    3    3  502    0  0.11943457919E+03 -0.25699768313E+03  0.16493511178E+04  0.16735207013E+04  0.25500000920E-02 0.  1.
       -2    1    3    3    0  502 -0.11943457919E+03  0.25699768313E+03 -0.53819195610E+03  0.60824584623E+03  0.25500000920E-02 0. -1.
</event>
<event>
 5   0  0.4577279E-05  0.1994303E+04  0.7818609E-02  0.8609289E-01
       -2   -1    0    0    0  501  0.00000000000E+00  0.00000000000E+00  0.41167928996E+03  0.41167928997E+03  0.25500000920E-02 0.  1.
        2   -1    0    0  501    0  0.00000000000E+00  0.00000000000E+00 -0.24152569135E+04  0.24152569135E+04  0.25500000920E-02 0. -1.
    10030    2    1    2    0    0  0.00000000000E+00  0.00000000000E+00 -0.20035776235E+04  0.28269362034E+04  0.19943031377E+04 0.  0.
        1    1    3    3  502    0  0.42528681332E+03 -0.11450490484E+03  0.26632915573E+03  0.51469550808E+03  0.50400001928E-02 0.  1.
       -1    1    3    3    0  502 -0.42528681332E+03  0.11450490484E+03 -0.22699067793E+04  0.23122406954E+04  0.50400001928E-02 0. -1.
</event>
<event>
 5   0  0.2110896E-05  0.2003948E+04  0.7818609E-02  0.8604777E-01
       -1   -1    0    0    0  501  0.00000000000E+00  0.00000000000E+00  0.78505794308E+03  0.78505794309E+03  0.50400001928E-02 0.  1.
        1   -1    0    0  501    0  0.00000000000E+00  0.00000000000E+00 -0.12788252173E+04  0.12788252173E+04  0.50400001928E-02 0. -1.
    10030    2    1    2    0    0  0.00000000000E+00  0.00000000000E+00 -0.49376727425E+03  0.20638831604E+04  0.20039479980E+04 0.  0.
        4    1    3    3  502    0  0.40894741204E+02  0.39792624154E+03  0.69925013296E+03  0.80558676436E+03  0.12699999809E+01 0.  1.
       -4    1    3    3    0  502 -0.40894741204E+02 -0.39792624154E+03 -0.11930174072E+04  0.12582963961E+04  0.12699999809E+01 0. -1.
</event>
<event>
 5   0  0.4577279E-05  0.2001907E+04  0.7818609E-02  0.8605729E-01
        2   -1    0    0  501    0  0.00000000000E+00  0.00000000000E+00  0.13139314527E+04  0.13139314527E+04  0.25500000920E-02 0. -1.
       -2   -1    0    0    0  501  0.00000000000E+00  0.00000000000E+00 -0.76252701311E+03  0.76252701312E+03  0.25500000920E-02 0.  1.
    10030    2    1    2    0    0  0.00000000000E+00  0.00000000000E+00  0.55140443961E+03  0.20764584658E+04  0.20019073166E+04 0.  0.
        1    1    3    3  502    0 -0.57418672538E+03 -0.33394901384E+03  0.10523837307E+04  0.12444773425E+04  0.50400001928E-02 0. -1.
       -1    1    3    3    0  502  0.57418672538E+03  0.33394901384E+03 -0.50097929107E+03  0.83198112331E+03  0.50400001928E-02 0.  1.
</event>
<event>
 5   0  0.4577279E-05  0.1996076E+04  0.7818609E-02  0.8608457E-01
        2   -1    0    0  501    0  0.00000000000E+00  0.00000000000E+00  0.30721105581E+04  0.30721105581E+04  0.25500000920E-02 0.  1.
       -2   -1    0    0    0  501  0.00000000000E+00  0.00000000000E+00 -0.32423309273E+03  0.32423309274E+03  0.25500000920E-02 0. -1.
    10030    2    1    2    0    0  0.00000000000E+00  0.00000000000E+00  0.27478774653E+04  0.33963436508E+04  0.19960760581E+04 0.  0.
        1    1    3    3  502    0  0.73053918527E+03 -0.67622068342E+03  0.14956650290E+04  0.17966568379E+04  0.50400001928E-02 0.  1.
       -1    1    3    3    0  502 -0.73053918527E+03  0.67622068342E+03  0.12522124363E+04  0.15996868130E+04  0.50400001928E-02 0. -1.
</event>
<event>
 5   0  0.2110896E-05  0.2000811E+04  0.7818609E-02  0.8606242E-01
        1   -1    0    0  501    0  0.00000000000E+00  0.00000000000E+00  0.15295989377E+04  0.15295989377E+04  0.50400001928E-02 0.  1.
       -1   -1    0    0    0  501  0.00000000000E+00  0.00000000000E+00 -0.65429635650E+03  0.65429635652E+03  0.50400001928E-02 0. -1.
    10030    2    1    2    0    0  0.00000000000E+00  0.00000000000E+00  0.87530258116E+03  0.21838952942E+04  0.20008108475E+04 0.  0.
        4    1    3    3  502    0  0.27622461878E+03 -0.92166432641E+03  0.73666040545E+03  0.12117901371E+04  0.12699999809E+01 0. -1.
       -4    1    3    3    0  502 -0.27622461878E+03  0.92166432641E+03  0.13864217571E+03  0.97210515706E+03  0.12699999809E+01 0.  1.
</event>
<event>
 5   0  0.2142551E-05  0.1994825E+04  0.7818609E-02  0.8609044E-01
        1   -1    0    0  501    0  0.00000000000E+00  0.00000000000E+00  0.10968450668E+04  0.10968450668E+04  0.50400001928E-02 0.  1.
       -1   -1    0    0    0  501  0.00000000000E+00  0.00000000000E+00 -0.90699364366E+03  0.90699364367E+03  0.50400001928E-02 0. -1.
    10030    2    1    2    0    0  0.00000000000E+00  0.00000000000E+00  0.18985142317E+03  0.20038387105E+04  0.19948248081E+04 0.  0.
        3    1    3    3  502    0  0.85282661022E+03 -0.27310880472E+03 -0.34629685008E+03  0.96011622468E+03  0.10100000352E+00 0. -1.
       -3    1    3    3    0  502 -0.85282661022E+03  0.27310880472E+03  0.53614827324E+03  0.10437224858E+04  0.10100000352E+00 0.  1.
</event>
<event>
 5   0  0.4412054E-05  0.2003737E+04  0.7818609E-02  0.8604875E-01
        2   -1    0    0  501    0  0.00000000000E+00  0.00000000000E+00  0.12171888459E+04  0.12171888459E+04  0.25500000920E-02 0. -1.
       -2   -1    0    0    0  501  0.00000000000E+00  0.00000000000E+00 -0.82463850257E+03  0.82463850258E+03  0.25500000920E-02 0.  1.
    10030    2    1    2    0    0  0.00000000000E+00  0.00000000000E+00  0.39255034328E+03  0.20418273484E+04  0.20037372954E+04 0.  0.
        4    1    3    3  502    0 -0.74073004599E+03  0.30391290479E+03 -0.41741489063E+03  0.90292904403E+03  0.12699999809E+01 0.  1.
       -4    1    3    3    0  502  0.74073004599E+03 -0.30391290479E+03  0.80996523391E+03  0.11388983044E+04  0.12699999809E+01 0. -1.
</event>
<event>
 5   0  0.2110896E-05  0.1943093E+04  0.7818609E-02  0.8633699E-01
       -1   -1    0    0    0  501  0.00000000000E+00  0.00000000000E+00  0.50439869432E+03  0.50439869435E+03  0.50400001928E-02 0.  1.
        1   -1    0    0  501    0  0.00000000000E+00  0.00000000000E+00 -0.18713423111E+04  0.18713423112E+04  0.50400001928E-02 0. -1.
    10030    2    1    2    0    0  0.00000000000E+00  0.00000000000E+00 -0.13669436168E+04  0.23757410055E+04  0.19430930172E+04 0.  0.
        4    1    3    3  502    0  0.45553466300E+03 -0.82268222157E+03 -0.98191879001E+03  0.13595896403E+04  0.12699999809E+01 0. -1.
       -4    1    3    3    0  502 -0.45553466300E+03  0.82268222157E+03 -0.38502482681E+03  0.10161513652E+04  0.12699999809E+01 0.  1.
</event>
<event>
 5   0  0.2007644E-05  0.2006439E+04  0.7818609E-02  0.8603616E-01
       -1   -1    0    0    0  501  0.00000000000E+00  0.00000000000E+00  0.36083793344E+03  0.36083793347E+03  0.50400001928E-02 0.  1.
        1   -1    0    0  501    0  0.00000000000E+00  0.00000000000E+00 -0.27892010538E+04  0.27892010538E+04  0.50400001928E-02 0. -1.
    10030    2    1    2    0    0  0.00000000000E+00  0.00000000000E+00 -0.24283631204E+04  0.31500389873E+04  0.20064391785E+04 0.  0.
        1    1    3    3  502    0  0.68798143766E+03 -0.49097369095E+03 -0.20626541299E+04  0.22291064765E+04  0.50400001928E-02 0. -1.
       -1    1    3    3    0  502 -0.68798143766E+03  0.49097369095E+03 -0.36570899047E+03  0.92093251083E+03  0.50400001928E-02 0.  1.
</event>
<event>
 5   0  0.2256868E-05  0.1990164E+04  0.7818609E-02  0.8611233E-01
        1   -1    0    0  501    0  0.00000000000E+00  0.00000000000E+00  0.89217279957E+03  0.89217279959E+03  0.50400001928E-02 0. -1.
       -1   -1    0    0    0  501  0.00000000000E+00  0.00000000000E+00 -0.11098610117E+04  0.11098610117E+04  0.50400001928E-02 0.  1.
    10030    2    1    2    0    0  0.00000000000E+00  0.00000000000E+00 -0.21768821212E+03  0.20020338113E+04  0.19901636174E+04 0.  0.
        5    1    3    3  502    0  0.90331627061E+03  0.13847552452E+03 -0.50490542353E+03  0.10440820525E+04  0.46999998093E+01 0.  1.
       -5    1    3    3    0  502 -0.90331627061E+03 -0.13847552452E+03  0.28721721141E+03  0.95795175879E+03  0.46999998093E+01 0. -1.
</event>
<event>
 5   0  0.4412054E-05  0.2006398E+04  0.7818609E-02  0.8603635E-01
        2   -1    0    0  501    0  0.00000000000E+00  0.00000000000E+00  0.19452434677E+04  0.19452434677E+04  0.25500000920E-02 0. -1.
       -2   -1    0    0    0  501  0.00000000000E+00  0.00000000000E+00 -0.51736858881E+03  0.51736858881E+03  0.25500000920E-02 0.  1.
    10030    2    1    2    0    0  0.00000000000E+00  0.00000000000E+00  0.14278748789E+04  0.24626120565E+04  0.20063976353E+04 0.  0.
        4    1    3    3  502    0  0.21522644281E+03 -0.94897829855E+03  0.41448688012E+03  0.10576782211E+04  0.12699999809E+01 0. -1.
       -4    1    3    3    0  502 -0.21522644281E+03  0.94897829855E+03  0.10133879988E+04  0.14049338354E+04  0.12699999809E+01 0.  1.
</event>
<event>
 5   0  0.4473361E-05  0.2008004E+04  0.7818609E-02  0.8602888E-01
       -2   -1    0    0    0  501  0.00000000000E+00  0.00000000000E+00  0.52201143767E+03  0.52201143768E+03  0.25500000920E-02 0. -1.
        2   -1    0    0  501    0  0.00000000000E+00  0.00000000000E+00 -0.19310297695E+04  0.19310297695E+04  0.25500000920E-02 0.  1.
    10030    2    1    2    0    0  0.00000000000E+00  0.00000000000E+00 -0.14090183318E+04  0.24530412072E+04  0.20080036117E+04 0.  0.
        2    1    3    3  502    0  0.96710616216E+03 -0.14972441729E+03 -0.43050420122E+03  0.10691331055E+04  0.25500000920E-02 0. -1.
       -2    1    3    3    0  502 -0.96710616216E+03  0.14972441729E+03 -0.97851413058E+03  0.13839081016E+04  0.25500000920E-02 0.  1.
</event>
<event>
 5   0  0.2256868E-05  0.1988142E+04  0.7818609E-02  0.8612185E-01
       -1   -1    0    0    0  501  0.00000000000E+00  0.00000000000E+00  0.13382218859E+04  0.13382218859E+04  0.50400001928E-02 0.  1.
        1   -1    0    0  501    0  0.00000000000E+00  0.00000000000E+00 -0.73842562625E+03  0.73842562626E+03  0.50400001928E-02 0. -1.
    10030    2    1    2    0    0  0.00000000000E+00  0.00000000000E+00  0.59979625962E+03  0.20766475121E+04  0.19881421822E+04 0.  0.
        5    1    3    3  502    0  0.82935588176E+03  0.26744823414E+03  0.79951729888E+03  0.11826283177E+04  0.46999998093E+01 0.  1.
       -5    1    3    3    0  502 -0.82935588176E+03 -0.26744823414E+03 -0.19972103925E+03  0.89401919447E+03  0.46999998093E+01 0. -1.
</event>
<event>
 5   0  0.2007644E-05  0.1999157E+04  0.7818609E-02  0.8607015E-01
        1   -1    0    0  501    0  0.00000000000E+00  0.00000000000E+00  0.10144368439E+04  0.10144368440E+04  0.50400001928E-02 0. -1.
       -1   -1    0    0    0  501  0.00000000000E+00  0.00000000000E+00 -0.98493782468E+03  0.98493782469E+03  0.50400001928E-02 0.  1.
    10030    2    1    2    0    0  0.00000000000E+00  0.00000000000E+00  0.29499019273E+02  0.19993746687E+04  0.19991570407E+04 0.  0.
        1    1    3    3  502    0 -0.48914935399E+03 -0.39233004725E+03 -0.76377422157E+03  0.98820089964E+03  0.50400001928E-02 0.  1.
       -1    1    3    3    0  502  0.48914935399E+03  0.39233004725E+03  0.79327324084E+03  0.10111737690E+04  0.50400001928E-02 0. -1.
</event>
<event>
 5   0  0.4514680E-05  0.1992492E+04  0.7818609E-02  0.8610139E-01
       -2   -1    0    0    0  501  0.00000000000E+00  0.00000000000E+00  0.10180085070E+04  0.10180085070E+04  0.25500000920E-02 0.  1.
        2   -1    0    0  501    0  0.00000000000E+00  0.00000000000E+00 -0.97494912332E+03  0.97494912332E+03  0.25500000920E-02 0. -1.
    10030    2    1    2    0    0  0.00000000000E+00  0.00000000000E+00  0.43059383681E+02  0.19929576303E+04  0.19924924105E+04 0.  0.
        3    1    3    3  502    0  0.39988779864E+03 -0.40545843776E+03  0.83915537788E+03  0.10141442475E+04  0.10100000352E+00 0.  1.
       -3    1    3    3    0  502 -0.39988779864E+03  0.40545843776E+03 -0.79609599420E+03  0.97881338285E+03  0.10100000352E+00 0. -1.
</event>
<event>
 5   0  0.4412054E-05  0.1965544E+04  0.7818609E-02  0.8622901E-01
       -2   -1    0    0    0  501  0.00000000000E+00  0.00000000000E+00  0.86540698329E+03  0.86540698329E+03  0.25500000920E-02 0. -1.
        2   -1    0    0  501    0  0.00000000000E+00  0.00000000000E+00 -0.11160541406E+04  0.11160541406E+04  0.25500000920E-02 0.  1.
    10030    2    1    2    0    0  0.00000000000E+00  0.00000000000E+00 -0.25064715734E+03  0.19814611239E+04  0.19655442473E+04 0.  0.
        4    1    3    3  502    0  0.75238531370E+03  0.51001508609E+03  0.25138737733E+03  0.94307808515E+03  0.12699999809E+01 0. -1.
       -4    1    3    3    0  502 -0.75238531370E+03 -0.51001508609E+03 -0.50203453467E+03  0.10383830388E+04  0.12699999809E+01 0.  1.
</event>
<event>
 5   0  0.4412054E-05  0.2048905E+04  0.7818609E-02  0.8584091E-01
        2   -1    0    0  501    0  0.00000000000E+00  0.00000000000E+00  0.82291069810E+03  0.82291069810E+03  0.25500000920E-02 0. -1.
       -2   -1    0    0    0  501  0.00000000000E+00  0.00000000000E+00 -0.12753541910E+04  0.12753541910E+04  0.25500000920E-02 0.  1.
    10030    2    1    2    0    0  0.00000000000E+00  0.00000000000E+00 -0.45244349293E+03  0.20982648891E+04  0.20489046905E+04 0.  0.
        4    1    3    3  502    0  0.60894534928E+03 -0.81212032195E+03 -0.84515008000E+02  0.10185765829E+04  0.12699999809E+01 0.  1.
       -4    1    3    3    0  502 -0.60894534928E+03  0.81212032195E+03 -0.36792848493E+03  0.10796883063E+04  0.12699999809E+01 0. -1.
</event>
<event>
 5   0  0.2142551E-05  0.2012919E+04  0.7818609E-02  0.8600604E-01
       -1   -1    0    0    0  501  0.00000000000E+00  0.00000000000E+00  0.86513427127E+03  0.86513427129E+03  0.50400001928E-02 0. -1.
        1   -1    0    0  501    0  0.00000000000E+00  0.00000000000E+00 -0.11708708636E+04  0.11708708637E+04  0.50400001928E-02 0.  1.
    10030    2    1    2    0    0  0.00000000000E+00  0.00000000000E+00 -0.30573659237E+03  0.20360051349E+04  0.20129187876E+04 0.  0.
        3    1    3    3  502    0  0.83988451535E+03 -0.11569240026E+03  0.39572644040E+03  0.93562287084E+03  0.10100000352E+00 0. -1.
       -3    1    3    3    0  502 -0.83988451535E+03  0.11569240026E+03 -0.70146303277E+03  0.11003822641E+04  0.10100000352E+00 0.  1.
</event>
<event>
 5   0  0.2142551E-05  0.1955693E+04  0.7818609E-02  0.8627620E-01
       -1   -1    0    0    0  501  0.00000000000E+00  0.00000000000E+00  0.44022573392E+03  0.44022573395E+03  0.50400001928E-02 0. -1.
        1   -1    0    0  501    0  0.00000000000E+00  0.00000000000E+00 -0.21720315519E+04  0.21720315519E+04  0.50400001928E-02 0.  1.
    10030    2    1    2    0    0  0.00000000000E+00  0.00000000000E+00 -0.17318058180E+04  0.26122572859E+04  0.19556934157E+04 0.  0.
        3    1    3    3  502    0 -0.37646345482E+03 -0.27744407000E+03 -0.20129771950E+04  0.20665858662E+04  0.10100000352E+00 0.  1.
       -3    1    3    3    0  502  0.37646345482E+03  0.27744407000E+03  0.28117137697E+03  0.54567141965E+03  0.10100000352E+00 0. -1.
</event>
<event>
 5   0  0.2007644E-05  0.1990240E+04  0.7818609E-02  0.8611197E-01
        1   -1    0    0  501    0  0.00000000000E+00  0.00000000000E+00  0.14324925707E+04  0.14324925707E+04  0.50400001928E-02 0. -1.
       -1   -1    0    0    0  501  0.00000000000E+00  0.00000000000E+00 -0.69128721900E+03  0.69128721902E+03  0.50400001928E-02 0.  1.
    10030    2    1    2    0    0  0.00000000000E+00  0.00000000000E+00  0.74120535169E+03  0.21237797897E+04  0.19902399910E+04 0.  0.
        1    1    3    3  502    0  0.86156661085E+03  0.43847360698E+03  0.11874130806E+03  0.97398954164E+03  0.50400001928E-02 0. -1.
       -1    1    3    3    0  502 -0.86156661085E+03 -0.43847360698E+03  0.62246404363E+03  0.11497902481E+04  0.50400001928E-02 0.  1.
</event>
<event>
 5   0  0.2093980E-05  0.2003004E+04  0.7818609E-02  0.8605217E-01
       -1   -1    0    0    0  501  0.00000000000E+00  0.00000000000E+00  0.81485461297E+03  0.81485461299E+03  0.50400001928E-02 0. -1.
        1   -1    0    0  501    0  0.00000000000E+00  0.00000000000E+00 -0.12309022500E+04  0.12309022500E+04  0.50400001928E-02 0.  1.
    10030    2    1    2    0    0  0.00000000000E+00  0.00000000000E+00 -0.41604763704E+03  0.20457568630E+04  0.20030041204E+04 0.  0.
        2    1    3    3  502    0 -0.18936062036E+02  0.26415057385E+03  0.77844478503E+03  0.82225931643E+03  0.25500000920E-02 0. -1.
       -2    1    3    3    0  502  0.18936062036E+02 -0.26415057385E+03 -0.11944924221E+04  0.12234975466E+04  0.25500000920E-02 0.  1.
</event>
<event>
 5   0  0.4514680E-05  0.1998783E+04  0.7818609E-02  0.8607190E-01
       -2   -1    0    0    0  501  0.00000000000E+00  0.00000000000E+00  0.58319296670E+03  0.58319296671E+03  0.25500000920E-02 0.  1.
        2   -1    0    0  501    0  0.00000000000E+00  0.00000000000E+00 -0.17126124334E+04  0.17126124334E+04  0.25500000920E-02 0. -1.
    10030    2    1    2    0    0  0.00000000000E+00  0.00000000000E+00 -0.11294194667E+04  0.22958054001E+04  0.19987831557E+04 0.  0.
        3    1    3    3  502    0 -0.15250120057E+03 -0.21906603199E+03  0.54149371352E+03  0.60370687799E+03  0.10100000352E+00 0.  1.
       -3    1    3    3    0  502  0.15250120057E+03  0.21906603199E+03 -0.16709131802E+04  0.16920985221E+04  0.10100000352E+00 0. -1.
</event>
<event>
 5   0  0.4514680E-05  0.1999674E+04  0.7818609E-02  0.8606773E-01
       -2   -1    0    0    0  501  0.00000000000E+00  0.00000000000E+00  0.84190067310E+03  0.84190067310E+03  0.25500000920E-02 0. -1.
        2   -1    0    0  501    0  0.00000000000E+00  0.00000000000E+00 -0.11874014997E+04  0.11874014997E+04  0.25500000920E-02 0.  1.
    10030    2    1    2    0    0  0.00000000000E+00  0.00000000000E+00 -0.34550082658E+03  0.20293021728E+04  0.19996740953E+04 0.  0.
        3    1    3    3  502    0 -0.55694452121E+03  0.72549123039E+03 -0.58265258792E+03  0.10844393821E+04  0.10100000352E+00 0.  1.
       -3    1    3    3    0  502  0.55694452121E+03 -0.72549123039E+03  0.23715176134E+03  0.94486279067E+03  0.10100000352E+00 0. -1.
</event>
<event>
 5   0  0.2142551E-05  0.1994970E+04  0.7818609E-02  0.8608976E-01
       -1   -1    0    0    0  501  0.00000000000E+00  0.00000000000E+00  0.10302927304E+04  0.10302927304E+04  0.50400001928E-02 0.  1.
        1   -1    0    0  501    0  0.00000000000E+00  0.00000000000E+00 -0.96572220022E+03  0.96572220024E+03  0.50400001928E-02 0. -1.
    10030    2    1    2    0    0  0.00000000000E+00  0.00000000000E+00  0.64570530137E+02  0.19960149306E+04  0.19949702378E+04 0.  0.
        3    1    3    3  502    0 -0.94668030235E+02  0.51048814884E+03 -0.81987452807E+03  0.97044033203E+03  0.10100000352E+00 0. -1.
       -3    1    3    3    0  502  0.94668030235E+02 -0.51048814884E+03  0.88444505821E+03  0.10255745986E+04  0.10100000352E+00 0.  1.
</event>
<event>
 5   0  0.4473361E-05  0.1998107E+04  0.7818609E-02  0.8607506E-01
       -2   -1    0    0    0  501  0.00000000000E+00  0.00000000000E+00  0.85968616237E+03  0.85968616237E+03  0.25500000920E-02 0.  1.
        2   -1    0    0  501    0  0.00000000000E+00  0.00000000000E+00 -0.11610139974E+04  0.11610139974E+04  0.25500000920E-02 0. -1.
    10030    2    1    2    0    0  0.00000000000E+00  0.00000000000E+00 -0.30132783499E+03  0.20207001597E+04  0.19981067718E+04 0.  0.
        2    1    3    3  502    0  0.27978133234E+03 -0.95789759580E+03 -0.19876505988E+03  0.10175229467E+04  0.25500000920E-02 0.  1.
       -2    1    3    3    0  502 -0.27978133234E+03  0.95789759580E+03 -0.10256277510E+03  0.10031772131E+04  0.25500000920E-02 0. -1.
</event>
<event>
 5   0  0.4577279E-05  0.1998189E+04  0.7818609E-02  0.8607468E-01
        2   -1    0    0  501    0  0.00000000000E+00  0.00000000000E+00  0.10840348182E+04  0.10840348182E+04  0.25500000920E-02 0. -1.
       -2   -1    0    0    0  501  0.00000000000E+00  0.00000000000E+00 -0.92080949483E+03  0.92080949483E+03  0.25500000920E-02 0.  1.
    10030    2    1    2    0    0  0.00000000000E+00  0.00000000000E+00  0.16322532335E+03  0.20048443130E+04  0.19981887331E+04 0.  0.
        1    1    3    3  502    0  0.36203310881E+03  0.73360517462E+03  0.65706029876E+03  0.10492724910E+04  0.50400001928E-02 0. -1.
       -1    1    3    3    0  502 -0.36203310881E+03 -0.73360517462E+03 -0.49383497541E+03  0.95557182204E+03  0.50400001928E-02 0.  1.
</event>
<event>
 5   0  0.4412054E-05  0.2000953E+04  0.7818609E-02  0.8606175E-01
       -2   -1    0    0    0  501  0.00000000000E+00  0.00000000000E+00  0.82804903470E+03  0.82804903471E+03  0.25500000920E-02 0.  1.
        2   -1    0    0  501    0  0.00000000000E+00  0.00000000000E+00 -0.12088096583E+04  0.12088096583E+04  0.25500000920E-02 0. -1.
    10030    2    1    2    0    0  0.00000000000E+00  0.00000000000E+00 -0.38076062362E+03  0.20368586930E+04  0.20009534435E+04 0.  0.
        4    1    3    3  502    0  0.20439185047E+03  0.79230788261E+02  0.80330127251E+03  0.83267526303E+03  0.12699999809E+01 0.  1.
       -4    1    3    3    0  502 -0.20439185047E+03 -0.79230788261E+02 -0.11840618961E+04  0.12041834300E+04  0.12699999809E+01 0. -1.
</event>
<event>
 5   0  0.2256868E-05  0.2018661E+04  0.7818609E-02  0.8597945E-01
       -1   -1    0    0    0  501  0.00000000000E+00  0.00000000000E+00  0.15479178115E+04  0.15479178115E+04  0.50400001928E-02 0. -1.
        1   -1    0    0  501    0  0.00000000000E+00  0.00000000000E+00 -0.65814085547E+03  0.65814085549E+03  0.50400001928E-02 0.  1.
    10030    2    1    2    0    0  0.00000000000E+00  0.00000000000E+00  0.88977695605E+03  0.22060586670E+04  0.20186608955E+04 0.  0.
        5    1    3    3  502    0  0.64017766608E+03 -0.53871668373E+03  0.10618143276E+04  0.13518560818E+04  0.46999998093E+01 0. -1.
       -5    1    3    3    0  502 -0.64017766608E+03  0.53871668373E+03 -0.17203737155E+03  0.85420258527E+03  0.46999998093E+01 0.  1.
</event>
<event>
 5   0  0.4577279E-05  0.1990453E+04  0.7818609E-02  0.8611097E-01
       -2   -1    0    0    0  501  0.00000000000E+00  0.00000000000E+00  0.10627463594E+04  0.10627463594E+04  0.25500000920E-02 0. -1.
        2   -1    0    0  501    0  0.00000000000E+00  0.00000000000E+00 -0.93199678731E+03  0.93199678731E+03  0.25500000920E-02 0.  1.
    10030    2    1    2    0    0  0.00000000000E+00  0.00000000000E+00  0.13074957205E+03  0.19947431467E+04  0.19904534083E+04 0.  0.
        1    1    3    3  502    0  0.26325850494E+03 -0.35286806397E+03  0.95985386085E+03  0.10560020574E+04  0.50400001928E-02 0. -1.
       -1    1    3    3    0  502 -0.26325850494E+03  0.35286806397E+03 -0.82910428880E+03  0.93874108929E+03  0.50400001928E-02 0.  1.
</event>
<event>
 5   0  0.4514680E-05  0.1998213E+04  0.7818609E-02  0.8607457E-01
       -2   -1    0    0    0  501  0.00000000000E+00  0.00000000000E+00  0.15927907932E+04  0.15927907932E+04  0.25500000920E-02 0.  1.
        2   -1    0    0  501    0  0.00000000000E+00  0.00000000000E+00 -0.62670748264E+03  0.62670748264E+03  0.25500000920E-02 0. -1.
    10030    2    1    2    0    0  0.00000000000E+00  0.00000000000E+00  0.96608331057E+03  0.22194982759E+04  0.19982131101E+04 0.  0.
        3    1    3    3  502    0 -0.88253517650E+03 -0.28887711543E+03  0.73577714444E+02  0.93152134481E+03  0.10100000352E+00 0. -1.
       -3    1    3    3    0  502  0.88253517650E+03  0.28887711543E+03  0.89250559612E+03  0.12879769310E+04  0.10100000352E+00 0.  1.
</event>
<event>
 5   0  0.2110896E-05  0.1998554E+04  0.7818609E-02  0.8607297E-01
        1   -1    0    0  501    0  0.00000000000E+00  0.00000000000E+00  0.73380183853E+03  0.73380183854E+03  0.50400001928E-02 0. -1.
       -1   -1    0    0    0  501  0.00000000000E+00  0.00000000000E+00 -0.13607956237E+04  0.13607956237E+04  0.50400001928E-02 0.  1.
    10030    2    1    2    0    0  0.00000000000E+00  0.00000000000E+00 -0.62699378513E+03  0.20945974622E+04  0.19985538077E+04 0.  0.
        4    1    3    3  502    0 -0.92193264905E+03 -0.38544866102E+03 -0.30855455783E+03  0.10458192997E+04  0.12699999809E+01 0. -1.
       -4    1    3    3    0  502  0.92193264905E+03  0.38544866102E+03 -0.31843922729E+03  0.10487781625E+04  0.12699999809E+01 0.  1.
</event>
<event>
 5   0  0.4447313E-05  0.2011543E+04  0.7818609E-02  0.8601243E-01
       -2   -1    0    0    0  501  0.00000000000E+00  0.00000000000E+00  0.84658390693E+03  0.84658390694E+03  0.25500000920E-02 0. -1.
        2   -1    0    0  501    0  0.00000000000E+00  0.00000000000E+00 -0.11948923085E+04  0.11948923085E+04  0.25500000920E-02 0.  1.
    10030    2    1    2    0    0  0.00000000000E+00  0.00000000000E+00 -0.34830840157E+03  0.20414762154E+04  0.20115432870E+04 0.  0.
        5    1    3    3  502    0  0.81423899672E+03  0.42815669801E+03 -0.58671433719E+03  0.10911274469E+04  0.46999998093E+01 0.  1.
       -5    1    3    3    0  502 -0.81423899672E+03 -0.42815669801E+03  0.23840593562E+03  0.95034876859E+03  0.46999998093E+01 0. -1.
</event>
<event>
 5   0  0.4473361E-05  0.1997126E+04  0.7818609E-02  0.8607966E-01
       -2   -1    0    0    0  501  0.00000000000E+00  0.00000000000E+00  0.52485833891E+03  0.52485833891E+03  0.25500000920E-02 0.  1.
        2   -1    0    0  501    0  0.00000000000E+00  0.00000000000E+00 -0.18998036987E+04  0.18998036987E+04  0.25500000920E-02 0. -1.
    10030    2    1    2    0    0  0.00000000000E+00  0.00000000000E+00 -0.13749453598E+04  0.24246620376E+04  0.19971257482E+04 0.  0.
        2    1    3    3  502    0 -0.15203232589E+03 -0.90479714661E+02  0.50567874554E+03  0.53573444968E+03  0.25500000920E-02 0.  1.
       -2    1    3    3    0  502  0.15203232589E+03  0.90479714661E+02 -0.18806241053E+04  0.18889275879E+04  0.25500000920E-02 0. -1.
</event>
<event>
 5   0  0.4473361E-05  0.1993119E+04  0.7818609E-02  0.8609845E-01
        2   -1    0    0  501    0  0.00000000000E+00  0.00000000000E+00  0.34642918444E+04  0.34642918444E+04  0.25500000920E-02 0. -1.
       -2   -1    0    0    0  501  0.00000000000E+00  0.00000000000E+00 -0.28667643975E+03  0.28667643976E+03  0.25500000920E-02 0.  1.
    10030    2    1    2    0    0  0.00000000000E+00  0.00000000000E+00  0.31776154047E+04  0.37509682842E+04  0.19931190152E+04 0.  0.
        2    1    3    3  502    0  0.47755665789E+03  0.78528096491E+03  0.23138000079E+04  0.24896580150E+04  0.25500000920E-02 0. -1.
       -2    1    3    3    0  502 -0.47755665789E+03 -0.78528096491E+03  0.86381539682E+03  0.12613102692E+04  0.25500000920E-02 0.  1.
</event>
<event>
 5   0  0.2142551E-05  0.2002537E+04  0.7818609E-02  0.8605435E-01
       -1   -1    0    0    0  501  0.00000000000E+00  0.00000000000E+00  0.57484308664E+03  0.57484308666E+03  0.50400001928E-02 0. -1.
        1   -1    0    0  501    0  0.00000000000E+00  0.00000000000E+00 -0.17440213923E+04  0.17440213923E+04  0.50400001928E-02 0.  1.
    10030    2    1    2    0    0  0.00000000000E+00  0.00000000000E+00 -0.11691783056E+04  0.23188644789E+04  0.20025370312E+04 0.  0.
        3    1    3    3  502    0 -0.54209110867E+03  0.44472172608E+03 -0.14122684706E+04  0.15767505913E+04  0.10100000352E+00 0.  1.
       -3    1    3    3    0  502  0.54209110867E+03 -0.44472172608E+03  0.24309016500E+03  0.74211388766E+03  0.10100000352E+00 0. -1.
</event>
<event>
 5   0  0.2093980E-05  0.2012747E+04  0.7818609E-02  0.8600684E-01
        1   -1    0    0  501    0  0.00000000000E+00  0.00000000000E+00  0.12946113821E+04  0.12946113821E+04  0.50400001928E-02 0. -1.
       -1   -1    0    0    0  501  0.00000000000E+00  0.00000000000E+00 -0.78231029183E+03  0.78231029184E+03  0.50400001928E-02 0.  1.
    10030    2    1    2    0    0  0.00000000000E+00  0.00000000000E+00  0.51230109031E+03  0.20769216740E+04  0.20127471855E+04 0.  0.
        2    1    3    3  502    0  0.12714503361E+03  0.91184661915E+03 -0.16320297480E+03  0.93502156522E+03  0.25500000920E-02 0.  1.
       -2    1    3    3    0  502 -0.12714503361E+03 -0.91184661915E+03  0.67550406512E+03  0.11419001088E+04  0.25500000920E-02 0. -1.
</event>
<event>
 5   0  0.4577279E-05  0.1993802E+04  0.7818609E-02  0.8609524E-01
        2   -1    0    0  501    0  0.00000000000E+00  0.00000000000E+00  0.12787691041E+04  0.12787691041E+04  0.25500000920E-02 0.  1.
       -2   -1    0    0    0  501  0.00000000000E+00  0.00000000000E+00 -0.77716254356E+03  0.77716254356E+03  0.25500000920E-02 0. -1.
    10030    2    1    2    0    0  0.00000000000E+00  0.00000000000E+00  0.50160656050E+03  0.20559316476E+04  0.19938018453E+04 0.  0.
        1    1    3    3  502    0  0.39711323517E+03  0.55311845554E+03  0.10016223208E+04  0.12111507837E+04  0.50400001928E-02 0.  1.
       -1    1    3    3    0  502 -0.39711323517E+03 -0.55311845554E+03 -0.50001576031E+03  0.84478086388E+03  0.50400001928E-02 0. -1.
</event>
<event>
 5   0  0.2093980E-05  0.1999654E+04  0.7818609E-02  0.8606782E-01
       -1   -1    0    0    0  501  0.00000000000E+00  0.00000000000E+00  0.62893792577E+03  0.62893792579E+03  0.50400001928E-02 0.  1.
        1   -1    0    0  501    0  0.00000000000E+00  0.00000000000E+00 -0.15894319646E+04  0.15894319646E+04  0.50400001928E-02 0. -1.
    10030    2    1    2    0    0  0.00000000000E+00  0.00000000000E+00 -0.96049403888E+03  0.22183698904E+04  0.19996540131E+04 0.  0.
        2    1    3    3  502    0 -0.14388017967E+03 -0.65870963898E+03 -0.12992753560E+04  0.14638020171E+04  0.25500000920E-02 0. -1.
       -2    1    3    3    0  502  0.14388017967E+03  0.65870963898E+03  0.33878131714E+03  0.75456787331E+03  0.25500000920E-02 0.  1.
</event>
<event>
 5   0  0.2256868E-05  0.1963301E+04  0.7818609E-02  0.8623973E-01
        1   -1    0    0  501    0  0.00000000000E+00  0.00000000000E+00  0.66367678352E+03  0.66367678354E+03  0.50400001928E-02 0.  1.
       -1   -1    0    0    0  501  0.00000000000E+00  0.00000000000E+00 -0.14519686121E+04  0.14519686121E+04  0.50400001928E-02 0. -1.
    10030    2    1    2    0    0  0.00000000000E+00  0.00000000000E+00 -0.78829182854E+03  0.21156453956E+04  0.19633011570E+04 0.  0.
        5    1    3    3  502    0  0.81656682809E+03  0.32738522764E+03  0.75138523228E+02  0.88296679421E+03  0.46999998093E+01 0.  1.
       -5    1    3    3    0  502 -0.81656682809E+03 -0.32738522764E+03 -0.86343035177E+03  0.12326786014E+04  0.46999998093E+01 0. -1.
</event>
<event>
 5   0  0.4447313E-05  0.1999752E+04  0.7818609E-02  0.8606737E-01
       -2   -1    0    0    0  501  0.00000000000E+00  0.00000000000E+00  0.98119572140E+03  0.98119572141E+03  0.25500000920E-02 0.  1.
        2   -1    0    0  501    0  0.00000000000E+00  0.00000000000E+00 -0.10189120844E+04  0.10189120844E+04  0.25500000920E-02 0. -1.
    10030    2    1    2    0    0  0.00000000000E+00  0.00000000000E+00 -0.37716363010E+02  0.20001078058E+04  0.19997521624E+04 0.  0.
        5    1    3    3  502    0  0.86317006813E+03 -0.41801189270E+03 -0.30163373326E+03  0.10053862482E+04  0.46999998093E+01 0. -1.
       -5    1    3    3    0  502 -0.86317006813E+03  0.41801189270E+03  0.26391737025E+03  0.99472155766E+03  0.46999998093E+01 0.  1.
</event>
<event>
 5   0  0.2093980E-05  0.1986645E+04  0.7818609E-02  0.8612890E-01
        1   -1    0    0  501    0  0.00000000000E+00  0.00000000000E+00  0.12167320432E+04  0.12167320432E+04  0.50400001928E-02 0. -1.
       -1   -1    0    0    0  501  0.00000000000E+00  0.00000000000E+00 -0.81093431298E+03  0.81093431300E+03  0.50400001928E-02 0.  1.
    10030    2    1    2    0    0  0.00000000000E+00  0.00000000000E+00  0.40579773017E+03  0.20276663562E+04  0.19866451757E+04 0.  0.
        2    1    3    3  502    0  0.22670190280E+03 -0.32009897565E+03  0.11343392445E+04  0.12002427373E+04  0.25500000920E-02 0. -1.
       -2    1    3    3    0  502 -0.22670190280E+03  0.32009897565E+03 -0.72854151430E+03  0.82742361884E+03  0.25500000920E-02 0.  1.
</event>
<event>
 5   0  0.2142551E-05  0.2025587E+04  0.7818609E-02  0.8594750E-01
       -1   -1    0    0    0  501  0.00000000000E+00  0.00000000000E+00  0.12428391621E+04  0.12428391622E+04  0.50400001928E-02 0.  1.
        1   -1    0    0  501    0  0.00000000000E+00  0.00000000000E+00 -0.82532873303E+03  0.82532873305E+03  0.50400001928E-02 0. -1.
    10030    2    1    2    0    0  0.00000000000E+00  0.00000000000E+00  0.41751042911E+03  0.20681678952E+04  0.20255871949E+04 0.  0.
        3    1    3    3  502    0 -0.33101283052E+03  0.92022706855E+03  0.47766114339E+03  0.10883692065E+04  0.10100000352E+00 0.  1.
       -3    1    3    3    0  502  0.33101283052E+03 -0.92022706855E+03 -0.60150714282E+02  0.97979868865E+03  0.10100000352E+00 0. -1.
</event>
<event>
 5   0  0.2142551E-05  0.2000219E+04  0.7818609E-02  0.8606518E-01
       -1   -1    0    0    0  501  0.00000000000E+00  0.00000000000E+00  0.13034087418E+04  0.13034087419E+04  0.50400001928E-02 0.  1.
        1   -1    0    0  501    0  0.00000000000E+00  0.00000000000E+00 -0.76738740652E+03  0.76738740653E+03  0.50400001928E-02 0. -1.
    10030    2    1    2    0    0  0.00000000000E+00  0.00000000000E+00  0.53602133533E+03  0.20707961484E+04  0.20002194420E+04 0.  0.
        3    1    3    3  502    0  0.68881464285E+03 -0.50010341137E+02  0.10168962744E+04  0.12292455774E+04  0.10100000352E+00 0.  1.
       -3    1    3    3    0  502 -0.68881464285E+03  0.50010341137E+02 -0.48087493903E+03  0.84155057104E+03  0.10100000352E+00 0. -1.
</event>
<event>
 5   0  0.4473361E-05  0.1987088E+04  0.7818609E-02  0.8612681E-01
       -2   -1    0    0    0  501  0.00000000000E+00  0.00000000000E+00  0.88038400734E+03  0.88038400734E+03  0.25500000920E-02 0.  1.
        2   -1    0    0  501    0  0.00000000000E+00  0.00000000000E+00 -0.11212491894E+04  0.11212491894E+04  0.25500000920E-02 0. -1.
    10030    2    1    2    0    0  0.00000000000E+00  0.00000000000E+00 -0.24086518209E+03  0.20016331968E+04  0.19870881758E+04 0.  0.
        2    1    3    3  502    0 -0.24650085741E+03 -0.19595960144E+03 -0.10696501714E+04  0.11150400564E+04  0.25500000920E-02 0. -1.
       -2    1    3    3    0  502  0.24650085741E+03  0.19595960144E+03  0.82878498932E+03  0.88659314041E+03  0.25500000920E-02 0.  1.
</event>
<event>
 5   0  0.4577279E-05  0.1998425E+04  0.7818609E-02  0.8607357E-01
        2   -1    0    0  501    0  0.00000000000E+00  0.00000000000E+00  0.19299197004E+04  0.19299197004E+04  0.25500000920E-02 0. -1.
       -2   -1    0    0    0  501  0.00000000000E+00  0.00000000000E+00 -0.51734066606E+03  0.51734066607E+03  0.25500000920E-02 0.  1.
    10030    2    1    2    0    0  0.00000000000E+00  0.00000000000E+00  0.14125790344E+04  0.24472603665E+04  0.19984253234E+04 0.  0.
        1    1    3    3  502    0 -0.44377011681E+03 -0.18215542539E+03 -0.36711016956E+03  0.60405495793E+03  0.50400001928E-02 0.  1.
       -1    1    3    3    0  502  0.44377011681E+03  0.18215542539E+03  0.17796892039E+04  0.18432054086E+04  0.50400001928E-02 0. -1.
</event>
<event>
 5   0  0.2142551E-05  0.1992632E+04  0.7818609E-02  0.8610073E-01
       -1   -1    0    0    0  501  0.00000000000E+00  0.00000000000E+00  0.89514606121E+03  0.89514606123E+03  0.50400001928E-02 0.  1.
        1   -1    0    0  501    0  0.00000000000E+00  0.00000000000E+00 -0.11089197536E+04  0.11089197536E+04  0.50400001928E-02 0. -1.
    10030    2    1    2    0    0  0.00000000000E+00  0.00000000000E+00 -0.21377369236E+03  0.20040658148E+04  0.19926315762E+04 0.  0.
        3    1    3    3  502    0 -0.65794650536E+03 -0.43077542848E+03  0.50832914666E+03  0.93640781994E+03  0.10100000352E+00 0.  1.
       -3    1    3    3    0  502  0.65794650536E+03  0.43077542848E+03 -0.72210283902E+03  0.10676579949E+04  0.10100000352E+00 0. -1.
</event>
<event>
 5   0  0.4577279E-05  0.2003141E+04  0.7818609E-02  0.8605154E-01
        2   -1    0    0  501    0  0.00000000000E+00  0.00000000000E+00  0.83228680933E+03  0.83228680934E+03  0.25500000920E-02 0.  1.
       -2   -1    0    0    0  501  0.00000000000E+00  0.00000000000E+00 -0.12052859252E+04  0.12052859252E+04  0.25500000920E-02 0. -1.
    10030    2    1    2    0    0  0.00000000000E+00  0.00000000000E+00 -0.37299911584E+03  0.20375727345E+04  0.20031411104E+04 0.  0.
        1    1    3    3  502    0 -0.27080120435E+03  0.88888609767E+03 -0.56667758956E+03  0.10883819538E+04  0.50400001928E-02 0. -1.
       -1    1    3    3    0  502  0.27080120435E+03 -0.88888609767E+03  0.19367847372E+03  0.94919078067E+03  0.50400001928E-02 0.  1.
</event>
<event>
 5   0  0.4577279E-05  0.2016907E+04  0.7818609E-02  0.8598756E-01
        2   -1    0    0  501    0  0.00000000000E+00  0.00000000000E+00  0.17297847833E+04  0.17297847833E+04  0.25500000920E-02 0. -1.
       -2   -1    0    0    0  501  0.00000000000E+00  0.00000000000E+00 -0.58792217135E+03  0.58792217136E+03  0.25500000920E-02 0.  1.
    10030    2    1    2    0    0  0.00000000000E+00  0.00000000000E+00  0.11418626120E+04  0.23177069547E+04  0.20169073611E+04 0.  0.
        1    1    3    3  502    0 -0.89722595809E+03  0.18099400292E+02  0.42281369790E+02  0.89840398620E+03  0.50400001928E-02 0.  1.
       -1    1    3    3    0  502  0.89722595809E+03 -0.18099400292E+02  0.10995812422E+04  0.14193029685E+04  0.50400001928E-02 0. -1.
</event>
<event>
 5   0  0.4447313E-05  0.1998103E+04  0.7818609E-02  0.8607508E-01
        2   -1    0    0  501    0  0.00000000000E+00  0.00000000000E+00  0.20108000049E+04  0.20108000049E+04  0.25500000920E-02 0.  1.
       -2   -1    0    0    0  501  0.00000000000E+00  0.00000000000E+00 -0.49637169131E+03  0.49637169132E+03  0.25500000920E-02 0. -1.
    10030    2    1    2    0    0  0.00000000000E+00  0.00000000000E+00  0.15144283136E+04  0.25071716962E+04  0.19981033000E+04 0.  0.
        5    1    3    3  502    0 -0.16875605612E+03  0.35657899212E+02  0.19919620252E+04  0.19994211393E+04  0.46999998093E+01 0.  1.
       -5    1    3    3    0  502  0.16875605612E+03 -0.35657899212E+02 -0.47753371167E+03  0.50775055690E+03  0.46999998093E+01 0. -1.
</event>
<event>
 5   0  0.4514680E-05  0.2007411E+04  0.7818609E-02  0.8603164E-01
       -2   -1    0    0    0  501  0.00000000000E+00  0.00000000000E+00  0.10074363497E+04  0.10074363497E+04  0.25500000920E-02 0. -1.
        2   -1    0    0  501    0  0.00000000000E+00  0.00000000000E+00 -0.99998855158E+03  0.99998855158E+03  0.25500000920E-02 0.  1.
    10030    2    1    2    0    0  0.00000000000E+00  0.00000000000E+00  0.74477981472E+01  0.20074249013E+04  0.20074110851E+04 0.  0.
        3    1    3    3  502    0  0.70375565199E+03 -0.64789314845E+03  0.30767871181E+03  0.10048401611E+04  0.10100000352E+00 0. -1.
       -3    1    3    3    0  502 -0.70375565199E+03  0.64789314845E+03 -0.30023091366E+03  0.10025847402E+04  0.10100000352E+00 0.  1.
</event>
<event>
 5   0  0.2007644E-05  0.1995313E+04  0.7818609E-02  0.8608815E-01
       -1   -1    0    0    0  501  0.00000000000E+00  0.00000000000E+00  0.12025001278E+04  0.12025001279E+04  0.50400001928E-02 0.  1.
        1   -1    0    0  501    0  0.00000000000E+00  0.00000000000E+00 -0.82770756487E+03  0.82770756488E+03  0.50400001928E-02 0. -1.
    10030    2    1    2    0    0  0.00000000000E+00  0.00000000000E+00  0.37479256298E+03  0.20302076927E+04  0.19953129605E+04 0.  0.
        1    1    3    3  502    0  0.57219062215E+03 -0.37056633619E+03  0.92855601075E+03  0.11519278548E+04  0.50400001928E-02 0.  1.
       -1    1    3    3    0  502 -0.57219062215E+03  0.37056633619E+03 -0.55376344777E+03  0.87827983792E+03  0.50400001928E-02 0. -1.
</event>
<event>
 5   0  0.2007644E-05  0.2005333E+04  0.7818609E-02  0.8604131E-01
       -1   -1    0    0    0  501  0.00000000000E+00  0.00000000000E+00  0.67601123047E+03  0.67601123049E+03  0.50400001928E-02 0. -1.
        1   -1    0    0  501    0  0.00000000000E+00  0.00000000000E+00 -0.14871654293E+04  0.14871654294E+04  0.50400001928E-02 0.  1.
    10030    2    1    2    0    0  0.00000000000E+00  0.00000000000E+00 -0.81115419887E+03  0.21631766598E+04  0.20053334205E+04 0.  0.
        1    1    3    3  502    0 -0.74102960822E+03  0.37698551450E+03 -0.10101347024E+04  0.13082870768E+04  0.50400001928E-02 0.  1.
       -1    1    3    3    0  502  0.74102960822E+03 -0.37698551450E+03  0.19898050349E+03  0.85488958304E+03  0.50400001928E-02 0. -1.
</event>
<event>
 5   0  0.2007644E-05  0.1987245E+04  0.7818609E-02  0.8612607E-01
        1   -1    0    0  501    0  0.00000000000E+00  0.00000000000E+00  0.15856271250E+04  0.15856271251E+04  0.50400001928E-02 0.  1.
       -1   -1    0    0    0  501  0.00000000000E+00  0.00000000000E+00 -0.62264668401E+03  0.62264668403E+03  0.50400001928E-02 0. -1.
    10030    2    1    2    0    0  0.00000000000E+00  0.00000000000E+00  0.96298044104E+03  0.22082738091E+04  0.19872447977E+04 0.  0.
        1    1    3    3  502    0 -0.40701986749E+03  0.27741847321E+03 -0.47742532377E+03  0.68597457796E+03  0.50400001928E-02 0. -1.
       -1    1    3    3    0  502  0.40701986749E+03 -0.27741847321E+03  0.14404057648E+04  0.15222992311E+04  0.50400001928E-02 0.  1.
</event>
<event>
 5   0  0.4447313E-05  0.2004498E+04  0.7818609E-02  0.8604521E-01
       -2   -1    0    0    0  501  0.00000000000E+00  0.00000000000E+00  0.51879204320E+03  0.51879204321E+03  0.25500000920E-02 0.  1.
        2   -1    0    0  501    0  0.00000000000E+00  0.00000000000E+00 -0.19362347845E+04  0.19362347845E+04  0.25500000920E-02 0. -1.
    10030    2    1    2    0    0  0.00000000000E+00  0.00000000000E+00 -0.14174427413E+04  0.24550268277E+04  0.20044981416E+04 0.  0.
        5    1    3    3  502    0  0.79399912139E+02 -0.15226461777E+03 -0.19180690238E+04  0.19257465384E+04  0.46999998093E+01 0. -1.
       -5    1    3    3    0  502 -0.79399912139E+02  0.15226461777E+03  0.50062628256E+03  0.52928028932E+03  0.46999998093E+01 0.  1.
</event>
<event>
 5   0  0.4577279E-05  0.1992627E+04  0.7818609E-02  0.8610075E-01
        2   -1    0    0  501    0  0.00000000000E+00  0.00000000000E+00  0.22959859656E+04  0.22959859656E+04  0.25500000920E-02 0.  1.
       -2   -1    0    0    0  501  0.00000000000E+00  0.00000000000E+00 -0.43233753986E+03  0.43233753987E+03  0.25500000920E-02 0. -1.
    10030    2    1    2    0    0  0.00000000000E+00  0.00000000000E+00  0.18636484258E+04  0.27283235055E+04  0.19926273349E+04 0.  0.
        1    1    3    3  502    0  0.66675366083E+03 -0.73888955265E+03  0.99490759613E+03  0.14072524081E+04  0.50400001928E-02 0. -1.
       -1    1    3    3    0  502 -0.66675366083E+03  0.73888955265E+03  0.86874082963E+03  0.13210710974E+04  0.50400001928E-02 0.  1.
</event>
<event>
 5   0  0.2256868E-05  0.1908305E+04  0.7818609E-02  0.8650734E-01
        1   -1    0    0  501    0  0.00000000000E+00  0.00000000000E+00  0.75352353538E+03  0.75352353540E+03  0.50400001928E-02 0.  1.
       -1   -1    0    0    0  501  0.00000000000E+00  0.00000000000E+00 -0.12081993890E+04  0.12081993890E+04  0.50400001928E-02 0. -1.
    10030    2    1    2    0    0  0.00000000000E+00  0.00000000000E+00 -0.45467585359E+03  0.19617229244E+04  0.19083046665E+04 0.  0.
        5    1    3    3  502    0  0.53257490152E+00  0.11884265486E+03 -0.12005492151E+04  0.12064262796E+04  0.46999998093E+01 0. -1.
       -5    1    3    3    0  502 -0.53257490152E+00 -0.11884265486E+03  0.74587336149E+03  0.75529664479E+03  0.46999998093E+01 0.  1.
</event>
<event>
 5   0  0.2142551E-05  0.2001847E+04  0.7818609E-02  0.8605758E-01
        1   -1    0    0  501    0  0.00000000000E+00  0.00000000000E+00  0.14620504692E+04  0.14620504692E+04  0.50400001928E-02 0.  1.
       -1   -1    0    0    0  501  0.00000000000E+00  0.00000000000E+00 -0.68523479221E+03  0.68523479223E+03  0.50400001928E-02 0. -1.
    10030    2    1    2    0    0  0.00000000000E+00  0.00000000000E+00  0.77681567698E+03  0.21472852614E+04  0.20018469966E+04 0.  0.
        3    1    3    3  502    0 -0.89718519819E+03  0.38261226012E+03  0.62949081151E+03  0.11608583520E+04  0.10100000352E+00 0.  1.
       -3    1    3    3    0  502  0.89718519819E+03 -0.38261226012E+03  0.14732486547E+03  0.98642690942E+03  0.10100000352E+00 0. -1.
</event>
<event>
 5   0  0.4577279E-05  0.2002977E+04  0.7818609E-02  0.8605230E-01
        2   -1    0    0  501    0  0.00000000000E+00  0.00000000000E+00  0.64765526368E+03  0.64765526369E+03  0.25500000920E-02 0. -1.
       -2   -1    0    0    0  501  0.00000000000E+00  0.00000000000E+00 -0.15486311573E+04  0.15486311573E+04  0.25500000920E-02 0.  1.
    10030    2    1    2    0    0  0.00000000000E+00  0.00000000000E+00 -0.90097589365E+03  0.21962864210E+04  0.20029769051E+04 0.  0.
        1    1    3    3  502    0 -0.77992947126E+03 -0.53973662417E+03 -0.97940413297E+02  0.95351870888E+03  0.50400001928E-02 0. -1.
       -1    1    3    3    0  502  0.77992947126E+03  0.53973662417E+03 -0.80303548035E+03  0.12427677121E+04  0.50400001928E-02 0.  1.
</event>
<event>
 5   0  0.2007644E-05  0.2000680E+04  0.7818609E-02  0.8606303E-01
       -1   -1    0    0    0  501  0.00000000000E+00  0.00000000000E+00  0.52061936957E+03  0.52061936959E+03  0.50400001928E-02 0.  1.
        1   -1    0    0  501    0  0.00000000000E+00  0.00000000000E+00 -0.19220953692E+04  0.19220953692E+04  0.50400001928E-02 0. -1.
    10030    2    1    2    0    0  0.00000000000E+00  0.00000000000E+00 -0.14014759997E+04  0.24427147388E+04  0.20006799638E+04 0.  0.
        1    1    3    3  502    0 -0.88685131956E+03  0.20006280085E+03 -0.19122357301E+03  0.92903005452E+03  0.50400001928E-02 0. -1.
       -1    1    3    3    0  502  0.88685131956E+03 -0.20006280085E+03 -0.12102524267E+04  0.15136846843E+04  0.50400001928E-02 0.  1.
</event>
<event>
 5   0  0.2093980E-05  0.2002297E+04  0.7818609E-02  0.8605547E-01
        1   -1    0    0  501    0  0.00000000000E+00  0.00000000000E+00  0.16618768435E+04  0.16618768435E+04  0.50400001928E-02 0. -1.
       -1   -1    0    0    0  501  0.00000000000E+00  0.00000000000E+00 -0.60311233207E+03  0.60311233209E+03  0.50400001928E-02 0.  1.
    10030    2    1    2    0    0  0.00000000000E+00  0.00000000000E+00  0.10587645114E+04  0.22649891756E+04  0.20022970995E+04 0.  0.
        2    1    3    3  502    0 -0.24588758655E+03 -0.55683682867E+02  0.16253798224E+04  0.16448163864E+04  0.25500000920E-02 0. -1.
       -2    1    3    3    0  502  0.24588758655E+03  0.55683682867E+02 -0.56661531103E+03  0.62017278919E+03  0.25500000920E-02 0.  1.
</event>
<event>
 5   0  0.2110896E-05  0.1998718E+04  0.7818609E-02  0.8607220E-01
       -1   -1    0    0    0  501  0.00000000000E+00  0.00000000000E+00  0.12949510050E+04  0.12949510050E+04  0.50400001928E-02 0. -1.
        1   -1    0    0  501    0  0.00000000000E+00  0.00000000000E+00 -0.77124030966E+03  0.77124030968E+03  0.50400001928E-02 0.  1.
    10030    2    1    2    0    0  0.00000000000E+00  0.00000000000E+00  0.52371069538E+03  0.20661913147E+04  0.19987180033E+04 0.  0.
        4    1    3    3  502    0 -0.95061198702E+03  0.27662213992E+03  0.40259022800E+03  0.10687672631E+04  0.12699999809E+01 0.  1.
       -4    1    3    3    0  502  0.95061198702E+03 -0.27662213992E+03  0.12112046737E+03  0.99742405159E+03  0.12699999809E+01 0. -1.
</event>
<event>
 5   0  0.2110896E-05  0.1987048E+04  0.7818609E-02  0.8612700E-01
        1   -1    0    0  501    0  0.00000000000E+00  0.00000000000E+00  0.12646793030E+04  0.12646793030E+04  0.50400001928E-02 0. -1.
       -1   -1    0    0    0  501  0.00000000000E+00  0.00000000000E+00 -0.78050642455E+03  0.78050642457E+03  0.50400001928E-02 0.  1.
    10030    2    1    2    0    0  0.00000000000E+00  0.00000000000E+00  0.48417287846E+03  0.20451857276E+04  0.19870483849E+04 0.  0.
        4    1    3    3  502    0  0.95419528620E+03 -0.27625460880E+03  0.25941515628E+03  0.10266952271E+04  0.12699999809E+01 0.  1.
       -4    1    3    3    0  502 -0.95419528620E+03  0.27625460880E+03  0.22475772219E+03  0.10184905005E+04  0.12699999809E+01 0. -1.
</event>
<event>
 5   0  0.2007644E-05  0.2001305E+04  0.7818609E-02  0.8606011E-01
       -1   -1    0    0    0  501  0.00000000000E+00  0.00000000000E+00  0.87787461589E+03  0.87787461591E+03  0.50400001928E-02 0. -1.
        1   -1    0    0  501    0  0.00000000000E+00  0.00000000000E+00 -0.11406021068E+04  0.11406021068E+04  0.50400001928E-02 0.  1.
    10030    2    1    2    0    0  0.00000000000E+00  0.00000000000E+00 -0.26272749091E+03  0.20184767227E+04  0.20013052105E+04 0.  0.
        1    1    3    3  502    0  0.10037952409E+03 -0.39245664553E+03  0.79147738068E+03  0.88912018965E+03  0.50400001928E-02 0. -1.
       -1    1    3    3    0  502 -0.10037952409E+03  0.39245664553E+03 -0.10542048716E+04  0.11293565331E+04  0.50400001928E-02 0.  1.
</event>
<event>
 5   0  0.2142551E-05  0.1992255E+04  0.7818609E-02  0.8610250E-01
       -1   -1    0    0    0  501  0.00000000000E+00  0.00000000000E+00  0.64020080211E+03  0.64020080213E+03  0.50400001928E-02 0. -1.
        1   -1    0    0  501    0  0.00000000000E+00  0.00000000000E+00 -0.15499362692E+04  0.15499362692E+04  0.50400001928E-02 0.  1.
    10030    2    1    2    0    0  0.00000000000E+00  0.00000000000E+00 -0.90973546707E+03  0.21901370713E+04  0.19922554483E+04 0.  0.
        3    1    3    3  502    0 -0.80156530778E+03 -0.17603431281E+03 -0.10755490607E+04  0.13528861054E+04  0.10100000352E+00 0.  1.
       -3    1    3    3    0  502  0.80156530778E+03  0.17603431281E+03  0.16581359364E+03  0.83725096594E+03  0.10100000352E+00 0. -1.
</event>
<event>
 5   0  0.2110896E-05  0.2049417E+04  0.7818609E-02  0.8583859E-01
       -1   -1    0    0    0  501  0.00000000000E+00  0.00000000000E+00  0.81336820552E+03  0.81336820554E+03  0.50400001928E-02 0.  1.
        1   -1    0    0  501    0  0.00000000000E+00  0.00000000000E+00 -0.12909617119E+04  0.12909617120E+04  0.50400001928E-02 0. -1.
    10030    2    1    2    0    0  0.00000000000E+00  0.00000000000E+00 -0.47759350642E+03  0.21043299175E+04  0.20494167083E+04 0.  0.
        4    1    3    3  502    0 -0.55439698704E+03  0.15010741448E+03  0.63255041295E+03  0.85440616392E+03  0.12699999809E+01 0.  1.
       -4    1    3    3    0  502  0.55439698704E+03 -0.15010741448E+03 -0.11101439194E+04  0.12499237536E+04  0.12699999809E+01 0. -1.
</event>
<event>
 5   0  0.4514680E-05  0.2071891E+04  0.7818609E-02  0.8573728E-01
       -2   -1    0    0    0  501  0.00000000000E+00  0.00000000000E+00  0.80391597542E+03  0.80391597543E+03  0.25500000920E-02 0. -1.
        2   -1    0    0  501    0  0.00000000000E+00  0.00000000000E+00 -0.13349444219E+04  0.13349444219E+04  0.25500000920E-02 0.  1.
    10030    2    1    2    0    0  0.00000000000E+00  0.00000000000E+00 -0.53102844649E+03  0.21388603973E+04  0.20718910658E+04 0.  0.
        3    1    3    3  502    0  0.54363640335E+02 -0.32924304065E+03  0.74691331051E+03  0.81806838885E+03  0.10100000352E+00 0. -1.
       -3    1    3    3    0  502 -0.54363640335E+02  0.32924304065E+03 -0.12779417570E+04  0.13207920085E+04  0.10100000352E+00 0.  1.
</event>
<event>
 5   0  0.2093980E-05  0.2004630E+04  0.7818609E-02  0.8604459E-01
        1   -1    0    0  501    0  0.00000000000E+00  0.00000000000E+00  0.97613422665E+03  0.97613422666E+03  0.50400001928E-02 0. -1.
       -1   -1    0    0    0  501  0.00000000000E+00  0.00000000000E+00 -0.10291981927E+04  0.10291981927E+04  0.50400001928E-02 0.  1.
    10030    2    1    2    0    0  0.00000000000E+00  0.00000000000E+00 -0.53063966064E+02  0.20053324194E+04  0.20046302222E+04 0.  0.
        2    1    3    3  502    0 -0.44879122048E+02  0.99663036006E+03 -0.12325800245E+03  0.10052257186E+04  0.25500000920E-02 0.  1.
       -2    1    3    3    0  502  0.44879122048E+02 -0.99663036006E+03  0.70194036386E+02  0.10001067008E+04  0.25500000920E-02 0. -1.
</event>
<event>
 5   0  0.2142551E-05  0.1987129E+04  0.7818609E-02  0.8612662E-01
       -1   -1    0    0    0  501  0.00000000000E+00  0.00000000000E+00  0.77804263458E+03  0.77804263460E+03  0.50400001928E-02 0. -1.
        1   -1    0    0  501    0  0.00000000000E+00  0.00000000000E+00 -0.12687875179E+04  0.12687875179E+04  0.50400001928E-02 0.  1.
    10030    2    1    2    0    0  0.00000000000E+00  0.00000000000E+00 -0.49074488330E+03  0.20468301525E+04  0.19871293699E+04 0.  0.
        3    1    3    3  502    0  0.92311564734E+03  0.31827108693E+03 -0.43455250066E+03  0.10687725994E+04  0.10100000352E+00 0.  1.
       -3    1    3    3    0  502 -0.92311564734E+03 -0.31827108693E+03 -0.56192382644E+02  0.97805755312E+03  0.10100000352E+00 0. -1.
</event>
<event>
 5   0  0.2093980E-05  0.1926270E+04  0.7818609E-02  0.8641890E-01
        1   -1    0    0  501    0  0.00000000000E+00  0.00000000000E+00  0.64785053586E+03  0.64785053588E+03  0.50400001928E-02 0.  1.
       -1   -1    0    0    0  501  0.00000000000E+00  0.00000000000E+00 -0.14318561766E+04  0.14318561766E+04  0.50400001928E-02 0. -1.
    10030    2    1    2    0    0  0.00000000000E+00  0.00000000000E+00 -0.78400564073E+03  0.20797067125E+04  0.19262697540E+04 0.  0.
        2    1    3    3  502    0  0.62576898376E+03 -0.19479557002E+03 -0.11539797128E+04  0.13271026006E+04  0.25500000920E-02 0. -1.
       -2    1    3    3    0  502 -0.62576898376E+03  0.19479557002E+03  0.36997407205E+03  0.75260411182E+03  0.25500000920E-02 0.  1.
</event>
<event>
 5   0  0.4577279E-05  0.1996094E+04  0.7818609E-02  0.8608449E-01
        2   -1    0    0  501    0  0.00000000000E+00  0.00000000000E+00  0.74266984864E+03  0.74266984864E+03  0.25500000920E-02 0.  1.
       -2   -1    0    0    0  501  0.00000000000E+00  0.00000000000E+00 -0.13412395186E+04  0.13412395186E+04  0.25500000920E-02 0. -1.
    10030    2    1    2    0    0  0.00000000000E+00  0.00000000000E+00 -0.59856966991E+03  0.20839093672E+04  0.19960943367E+04 0.  0.
        1    1    3    3  502    0 -0.70276832746E+03  0.50779858704E+03  0.21678533358E+03  0.89372177324E+03  0.50400001928E-02 0.  1.
       -1    1    3    3    0  502  0.70276832746E+03 -0.50779858704E+03 -0.81535500349E+03  0.11901875940E+04  0.50400001928E-02 0. -1.
</event>
<event>
 5   0  0.2007644E-05  0.1927567E+04  0.7818609E-02  0.8641255E-01
       -1   -1    0    0    0  501  0.00000000000E+00  0.00000000000E+00  0.16626279186E+04  0.16626279186E+04  0.50400001928E-02 0.  1.
        1   -1    0    0  501    0  0.00000000000E+00  0.00000000000E+00 -0.55868085097E+03  0.55868085099E+03  0.50400001928E-02 0. -1.
    10030    2    1    2    0    0  0.00000000000E+00  0.00000000000E+00  0.11039470676E+04  0.22213087696E+04  0.19275667360E+04 0.  0.
        1    1    3    3  502    0  0.90523870372E+02 -0.76461572113E+03 -0.11606154233E+03  0.77865400130E+03  0.50400001928E-02 0. -1.
       -1    1    3    3    0  502 -0.90523870372E+02  0.76461572113E+03  0.12200086099E+04  0.14426547683E+04  0.50400001928E-02 0.  1.
</event>
<event>
 5   0  0.4473361E-05  0.2005301E+04  0.7818609E-02  0.8604146E-01
       -2   -1    0    0    0  501  0.00000000000E+00  0.00000000000E+00  0.53090259761E+03  0.53090259761E+03  0.25500000920E-02 0. -1.
        2   -1    0    0  501    0  0.00000000000E+00  0.00000000000E+00 -0.18935834251E+04  0.18935834251E+04  0.25500000920E-02 0.  1.
    10030    2    1    2    0    0  0.00000000000E+00  0.00000000000E+00 -0.13626808275E+04  0.24244860227E+04  0.20053013332E+04 0.  0.
        2    1    3    3  502    0  0.18023366602E+03 -0.48376212294E+03 -0.17205496867E+04  0.17963299225E+04  0.25500000920E-02 0.  1.
       -2    1    3    3    0  502 -0.18023366602E+03  0.48376212294E+03  0.35786885917E+03  0.62815610028E+03  0.25500000920E-02 0. -1.
</event>
<event>
 5   0  0.2256868E-05  0.1997869E+04  0.7818609E-02  0.8607618E-01
        1   -1    0    0  501    0  0.00000000000E+00  0.00000000000E+00  0.20809919775E+04  0.20809919775E+04  0.50400001928E-02 0.  1.
       -1   -1    0    0    0  501  0.00000000000E+00  0.00000000000E+00 -0.47951654406E+03  0.47951654409E+03  0.50400001928E-02 0. -1.
    10030    2    1    2    0    0  0.00000000000E+00  0.00000000000E+00  0.16014754334E+04  0.25605085216E+04  0.19978689460E+04 0.  0.
        5    1    3    3  502    0 -0.17966462061E+02 -0.37301444495E+03 -0.38667144537E+03  0.53758670609E+03  0.46999998093E+01 0. -1.
       -5    1    3    3    0  502  0.17966462061E+02  0.37301444495E+03  0.19881468788E+04  0.20229218155E+04  0.46999998093E+01 0.  1.
</event>
<event>
 5   0  0.2007644E-05  0.2025148E+04  0.7818609E-02  0.8594952E-01
        1   -1    0    0  501    0  0.00000000000E+00  0.00000000000E+00  0.17807301245E+04  0.17807301245E+04  0.50400001928E-02 0. -1.
       -1   -1    0    0    0  501  0.00000000000E+00  0.00000000000E+00 -0.57577864109E+03  0.57577864111E+03  0.50400001928E-02 0.  1.
    10030    2    1    2    0    0  0.00000000000E+00  0.00000000000E+00  0.12049514834E+04  0.23565087656E+04  0.20251482625E+04 0.  0.
        1    1    3    3  502    0 -0.93358523233E+03  0.37887240649E+03  0.48506691942E+03  0.11182198365E+04  0.50400001928E-02 0. -1.
       -1    1    3    3    0  502  0.93358523233E+03 -0.37887240649E+03  0.71988456395E+03  0.12382889291E+04  0.50400001928E-02 0.  1.
</event>
<event>
 5   0  0.2142551E-05  0.1997120E+04  0.7818609E-02  0.8607968E-01
       -1   -1    0    0    0  501  0.00000000000E+00  0.00000000000E+00  0.88566598947E+03  0.88566598948E+03  0.50400001928E-02 0.  1.
        1   -1    0    0  501    0  0.00000000000E+00  0.00000000000E+00 -0.11258439822E+04  0.11258439822E+04  0.50400001928E-02 0. -1.
    10030    2    1    2    0    0  0.00000000000E+00  0.00000000000E+00 -0.24017799273E+03  0.20115099717E+04  0.19971196504E+04 0.  0.
        3    1    3    3  502    0 -0.78165339655E+03  0.30792659128E+01 -0.74596022868E+03  0.10804851629E+04  0.10100000352E+00 0. -1.
       -3    1    3    3    0  502  0.78165339655E+03 -0.30792659128E+01  0.50578223595E+03  0.93102480881E+03  0.10100000352E+00 0.  1.
</event>
<event>
 5   0  0.4514680E-05  0.2011032E+04  0.7818609E-02  0.8601480E-01
       -2   -1    0    0    0  501  0.00000000000E+00  0.00000000000E+00  0.64990842596E+03  0.64990842597E+03  0.25500000920E-02 0.  1.
        2   -1    0    0  501    0  0.00000000000E+00  0.00000000000E+00 -0.15557001283E+04  0.15557001283E+04  0.25500000920E-02 0. -1.
    10030    2    1    2    0    0  0.00000000000E+00  0.00000000000E+00 -0.90579170231E+03  0.22056085542E+04  0.20110321943E+04 0.  0.
        3    1    3    3  502    0 -0.26355586366E+03 -0.93677819872E+03 -0.17533348011E+03  0.98881592135E+03  0.10100000352E+00 0.  1.
       -3    1    3    3    0  502  0.26355586366E+03  0.93677819872E+03 -0.73045822221E+03  0.12167926329E+04  0.10100000352E+00 0. -1.
</event>
<event>
 5   0  0.4412054E-05  0.1988098E+04  0.7818609E-02  0.8612206E-01
       -2   -1    0    0    0  501  0.00000000000E+00  0.00000000000E+00  0.39482393825E+03  0.39482393826E+03  0.25500000920E-02 0.  1.
        2   -1    0    0  501    0  0.00000000000E+00  0.00000000000E+00 -0.25027185692E+04  0.25027185692E+04  0.25500000920E-02 0. -1.
    10030    2    1    2    0    0  0.00000000000E+00  0.00000000000E+00 -0.21078946309E+04  0.28975425074E+04  0.19880977862E+04 0.  0.
        4    1    3    3  502    0  0.62434462961E+03  0.56532015051E+03 -0.28447933342E+03  0.88900123348E+03  0.12699999809E+01 0.  1.
       -4    1    3    3    0  502 -0.62434462961E+03 -0.56532015051E+03 -0.18234152975E+04  0.20085412740E+04  0.12699999809E+01 0. -1.
</event>
<event>
 5   0  0.2007644E-05  0.1999537E+04  0.7818609E-02  0.8606837E-01
        1   -1    0    0  501    0  0.00000000000E+00  0.00000000000E+00  0.11742163623E+04  0.11742163623E+04  0.50400001928E-02 0.  1.
       -1   -1    0    0    0  501  0.00000000000E+00  0.00000000000E+00 -0.85123763250E+03  0.85123763252E+03  0.50400001928E-02 0. -1.
    10030    2    1    2    0    0  0.00000000000E+00  0.00000000000E+00  0.32297872977E+03  0.20254539948E+04  0.19995371027E+04 0.  0.
        1    1    3    3  502    0 -0.80673476331E+03 -0.59041403944E+03  0.15005411308E+03  0.10109035331E+04  0.50400001928E-02 0. -1.
       -1    1    3    3    0  502  0.80673476331E+03  0.59041403944E+03  0.17292461668E+03  0.10145504617E+04  0.50400001928E-02 0.  1.
</event>
<event>
 5   0  0.2256868E-05  0.1994309E+04  0.7818609E-02  0.8609286E-01
       -1   -1    0    0    0  501  0.00000000000E+00  0.00000000000E+00  0.88697466756E+03  0.88697466757E+03  0.50400001928E-02 0. -1.
        1   -1    0    0  501    0  0.00000000000E+00  0.00000000000E+00 -0.11210209282E+04  0.11210209282E+04  0.50400001928E-02 0.  1.
    10030    2    1    2    0    0  0.00000000000E+00  0.00000000000E+00 -0.23404626066E+03  0.20079955958E+04  0.19943090685E+04 0.  0.
        5    1    3    3  502    0  0.65727118110E+03 -0.73788612455E+03  0.17360945216E+02  0.98833437193E+03  0.46999998093E+01 0. -1.
       -5    1    3    3    0  502 -0.65727118110E+03  0.73788612455E+03 -0.25140720588E+03  0.10196612239E+04  0.46999998093E+01 0.  1.
</event>
<event>
 5   0  0.4514680E-05  0.1988412E+04  0.7818609E-02  0.8612058E-01
       -2   -1    0    0    0  501  0.00000000000E+00  0.00000000000E+00  0.54478776116E+03  0.54478776117E+03  0.25500000920E-02 0.  1.
        2   -1    0    0  501    0  0.00000000000E+00  0.00000000000E+00 -0.18143686825E+04  0.18143686825E+04  0.25500000920E-02 0. -1.
    10030    2    1    2    0    0  0.00000000000E+00  0.00000000000E+00 -0.12695809213E+04  0.23591564436E+04  0.19884122836E+04 0.  0.
        3    1    3    3  502    0 -0.54808104370E+03 -0.33961746068E+03 -0.15326715435E+04  0.16627732619E+04  0.10100000352E+00 0. -1.
       -3    1    3    3    0  502  0.54808104370E+03  0.33961746068E+03  0.26309062221E+03  0.69638318171E+03  0.10100000352E+00 0.  1.
</event>
<event>
 5   0  0.2110896E-05  0.2023949E+04  0.7818609E-02  0.8595505E-01
       -1   -1    0    0    0  501  0.00000000000E+00  0.00000000000E+00  0.10992116461E+04  0.10992116461E+04  0.50400001928E-02 0.  1.
        1   -1    0    0  501    0  0.00000000000E+00  0.00000000000E+00 -0.93166058797E+03  0.93166058798E+03  0.50400001928E-02 0. -1.
    10030    2    1    2    0    0  0.00000000000E+00  0.00000000000E+00  0.16755105812E+03  0.20308722341E+04  0.20239487825E+04 0.  0.
        4    1    3    3  502    0  0.90428184316E+02 -0.42133727776E+03 -0.83499205020E+03  0.93963593745E+03  0.12699999809E+01 0. -1.
       -4    1    3    3    0  502 -0.90428184316E+02  0.42133727776E+03  0.10025431083E+04  0.10912362966E+04  0.12699999809E+01 0.  1.
</event>
<event>
 5   0  0.4514680E-05  0.1996998E+04  0.7818609E-02  0.8608025E-01
        2   -1    0    0  501    0  0.00000000000E+00  0.00000000000E+00  0.68334997483E+03  0.68334997483E+03  0.25500000920E-02 0. -1.
       -2   -1    0    0    0  501  0.00000000000E+00  0.00000000000E+00 -0.14589896581E+04  0.14589896581E+04  0.25500000920E-02 0.  1.
    10030    2    1    2    0    0  0.00000000000E+00  0.00000000000E+00 -0.77563968323E+03  0.21423396329E+04  0.19969982936E+04 0.  0.
        3    1    3    3  502    0  0.49488604775E+03 -0.70901246715E+02 -0.13150525910E+04  0.14068768654E+04  0.10100000352E+00 0.  1.
       -3    1    3    3    0  502 -0.49488604775E+03  0.70901246715E+02  0.53941290781E+03  0.73546276748E+03  0.10100000352E+00 0. -1.
</event>
<event>
 5   0  0.2256868E-05  0.2005701E+04  0.7818609E-02  0.8603960E-01
        1   -1    0    0  501    0  0.00000000000E+00  0.00000000000E+00  0.63006982311E+03  0.63006982313E+03  0.50400001928E-02 0. -1.
       -1   -1    0    0    0  501  0.00000000000E+00  0.00000000000E+00 -0.15961865511E+04  0.15961865511E+04  0.50400001928E-02 0.  1.
    10030    2    1    2    0    0  0.00000000000E+00  0.00000000000E+00 -0.96611672800E+03  0.22262563742E+04  0.20057008530E+04 0.  0.
        5    1    3    3  502    0  0.48784494609E+03  0.68189475795E+03 -0.10937543711E+04  0.13781487099E+04  0.46999998093E+01 0.  1.
       -5    1    3    3    0  502 -0.48784494609E+03 -0.68189475795E+03  0.12763764311E+03  0.84810766432E+03  0.46999998093E+01 0. -1.
</event>
<event>
 5   0  0.2093980E-05  0.2001370E+04  0.7818609E-02  0.8605980E-01
       -1   -1    0    0    0  501  0.00000000000E+00  0.00000000000E+00  0.10448123857E+04  0.10448123857E+04  0.50400001928E-02 0. -1.
        1   -1    0    0  501    0  0.00000000000E+00  0.00000000000E+00 -0.95842140822E+03  0.95842140823E+03  0.50400001928E-02 0.  1.
    10030    2    1    2    0    0  0.00000000000E+00  0.00000000000E+00  0.86390977503E+02  0.20032337940E+04  0.20013700888E+04 0.  0.
        2    1    3    3  502    0  0.92183401860E+03  0.38370090763E+03 -0.22943374721E+02  0.99876460831E+03  0.25500000920E-02 0.  1.
       -2    1    3    3    0  502 -0.92183401860E+03 -0.38370090763E+03  0.10933435222E+03  0.10044691857E+04  0.25500000920E-02 0. -1.
</event>
<event>
 5   0  0.4447313E-05  0.1991843E+04  0.7818609E-02  0.8610444E-01
        2   -1    0    0  501    0  0.00000000000E+00  0.00000000000E+00  0.17907544233E+04  0.17907544233E+04  0.25500000920E-02 0.  1.
       -2   -1    0    0    0  501  0.00000000000E+00  0.00000000000E+00 -0.55387811077E+03  0.55387811077E+03  0.25500000920E-02 0. -1.
    10030    2    1    2    0    0  0.00000000000E+00  0.00000000000E+00  0.12368763125E+04  0.23446325341E+04  0.19918430428E+04 0.  0.
        5    1    3    3  502    0 -0.46419267419E+03  0.50844835300E+03 -0.22863074466E+03  0.72545756171E+03  0.46999998093E+01 0. -1.
       -5    1    3    3    0  502  0.46419267419E+03 -0.50844835300E+03  0.14655070572E+04  0.16191749724E+04  0.46999998093E+01 0.  1.
</event>
<event>
 5   0  0.2007644E-05  0.1988160E+04  0.7818609E-02  0.8612176E-01
       -1   -1    0    0    0  501  0.00000000000E+00  0.00000000000E+00  0.79984177098E+03  0.79984177099E+03  0.50400001928E-02 0. -1.
        1   -1    0    0  501    0  0.00000000000E+00  0.00000000000E+00 -0.12354882404E+04  0.12354882404E+04  0.50400001928E-02 0.  1.
    10030    2    1    2    0    0  0.00000000000E+00  0.00000000000E+00 -0.43564646945E+03  0.20353300114E+04  0.19881600562E+04 0.  0.
        1    1    3    3  502    0 -0.90166645595E+03  0.24702449871E+03 -0.56373277385E+03  0.10917042370E+04  0.50400001928E-02 0.  1.
       -1    1    3    3    0  502  0.90166645595E+03 -0.24702449871E+03  0.12808630441E+03  0.94362577442E+03  0.50400001928E-02 0. -1.
</event>
<event>
 5   0  0.2007644E-05  0.1997717E+04  0.7818609E-02  0.8607689E-01
       -1   -1    0    0    0  501  0.00000000000E+00  0.00000000000E+00  0.74165879844E+03  0.74165879846E+03  0.50400001928E-02 0.  1.
        1   -1    0    0  501    0  0.00000000000E+00  0.00000000000E+00 -0.13452529256E+04  0.13452529256E+04  0.50400001928E-02 0. -1.
    10030    2    1    2    0    0  0.00000000000E+00  0.00000000000E+00 -0.60359412719E+03  0.20869117241E+04  0.19977173659E+04 0.  0.
        1    1    3    3  502    0 -0.14597675361E+03  0.27454380509E+03 -0.12934070730E+04  0.13302576329E+04  0.50400001928E-02 0. -1.
       -1    1    3    3    0  502  0.14597675361E+03 -0.27454380509E+03  0.68981294578E+03  0.75665409118E+03  0.50400001928E-02 0.  1.
</event>
<event>
 5   0  0.4514680E-05  0.2004454E+04  0.7818609E-02  0.8604541E-01
       -2   -1    0    0    0  501  0.00000000000E+00  0.00000000000E+00  0.93180739589E+03  0.93180739589E+03  0.25500000920E-02 0.  1.
        2   -1    0    0  501    0  0.00000000000E+00  0.00000000000E+00 -0.10779681946E+04  0.10779681946E+04  0.25500000920E-02 0. -1.
    10030    2    1    2    0    0  0.00000000000E+00  0.00000000000E+00 -0.14616079867E+03  0.20097755904E+04  0.20044537772E+04 0.  0.
        3    1    3    3  502    0 -0.52032610592E+03 -0.22091726381E+03  0.75671279839E+03  0.94454113907E+03  0.10100000352E+00 0.  1.
       -3    1    3    3    0  502  0.52032610592E+03  0.22091726381E+03 -0.90287359705E+03  0.10652344514E+04  0.10100000352E+00 0. -1.
</event>
<event>
 5   0  0.2110896E-05  0.2001330E+04  0.7818609E-02  0.8605999E-01
        1   -1    0    0  501    0  0.00000000000E+00  0.00000000000E+00  0.22460998393E+04  0.22460998393E+04  0.50400001928E-02 0. -1.
       -1   -1    0    0    0  501  0.00000000000E+00  0.00000000000E+00 -0.44580846294E+03  0.44580846297E+03  0.50400001928E-02 0.  1.
    10030    2    1    2    0    0  0.00000000000E+00  0.00000000000E+00  0.18002913763E+04  0.26919083023E+04  0.20013298749E+04 0.  0.
        4    1    3    3  502    0  0.57868986577E+03  0.81014388170E+03  0.10354137311E+04  0.14364185592E+04  0.12699999809E+01 0. -1.
       -4    1    3    3    0  502 -0.57868986577E+03 -0.81014388170E+03  0.76487764526E+03  0.12554897431E+04  0.12699999809E+01 0.  1.
</event>
<event>
 5   0  0.2007644E-05  0.2001123E+04  0.7818609E-02  0.8606096E-01
       -1   -1    0    0    0  501  0.00000000000E+00  0.00000000000E+00  0.11378187908E+04  0.11378187908E+04  0.50400001928E-02 0. -1.
        1   -1    0    0  501    0  0.00000000000E+00  0.00000000000E+00 -0.87986161036E+03  0.87986161037E+03  0.50400001928E-02 0.  1.
    10030    2    1    2    0    0  0.00000000000E+00  0.00000000000E+00  0.25795718046E+03  0.20176804012E+04  0.20011227585E+04 0.  0.
        1    1    3    3  502    0  0.17843976510E+02 -0.92635611178E+03  0.50981940335E+03  0.10575300834E+04  0.50400001928E-02 0. -1.
       -1    1    3    3    0  502 -0.17843976510E+02  0.92635611178E+03 -0.25186222289E+03  0.96015031775E+03  0.50400001928E-02 0.  1.
</event>
<event>
 5   0  0.4447313E-05  0.2001805E+04  0.7818609E-02  0.8605777E-01
        2   -1    0    0  501    0  0.00000000000E+00  0.00000000000E+00  0.71973476810E+03  0.71973476811E+03  0.25500000920E-02 0. -1.
       -2   -1    0    0    0  501  0.00000000000E+00  0.00000000000E+00 -0.13919097656E+04  0.13919097656E+04  0.25500000920E-02 0.  1.
    10030    2    1    2    0    0  0.00000000000E+00  0.00000000000E+00 -0.67217499752E+03  0.21116445337E+04  0.20018050378E+04 0.  0.
        5    1    3    3  502    0 -0.93854238608E+03  0.32819247485E+03 -0.21483866018E+03  0.10172265485E+04  0.46999998093E+01 0.  1.
       -5    1    3    3    0  502  0.93854238608E+03 -0.32819247485E+03 -0.45733633734E+03  0.10944179853E+04  0.46999998093E+01 0. -1.
</event>
<event>
 5   0  0.2256868E-05  0.2006341E+04  0.7818609E-02  0.8603662E-01
        1   -1    0    0  501    0  0.00000000000E+00  0.00000000000E+00  0.13107177556E+04  0.13107177556E+04  0.50400001928E-02 0. -1.
       -1   -1    0    0    0  501  0.00000000000E+00  0.00000000000E+00 -0.76778627542E+03  0.76778627544E+03  0.50400001928E-02 0.  1.
    10030    2    1    2    0    0  0.00000000000E+00  0.00000000000E+00  0.54293148017E+03  0.20785040310E+04  0.20063410515E+04 0.  0.
        5    1    3    3  502    0 -0.65416773039E+02 -0.14623758814E+03 -0.75443720965E+03  0.77127321986E+03  0.46999998093E+01 0.  1.
       -5    1    3    3    0  502  0.65416773039E+02  0.14623758814E+03  0.12973686898E+04  0.13072308112E+04  0.46999998093E+01 0. -1.
</event>
<event>
 5   0  0.4514680E-05  0.2025918E+04  0.7818609E-02  0.8594598E-01
       -2   -1    0    0    0  501  0.00000000000E+00  0.00000000000E+00  0.75114668111E+03  0.75114668112E+03  0.25500000920E-02 0. -1.
        2   -1    0    0  501    0  0.00000000000E+00  0.00000000000E+00 -0.13660264011E+04  0.13660264011E+04  0.25500000920E-02 0.  1.
    10030    2    1    2    0    0  0.00000000000E+00  0.00000000000E+00 -0.61487972003E+03  0.21171730823E+04  0.20259182585E+04 0.  0.
        3    1    3    3  502    0 -0.68721720070E+03 -0.41033866918E+03 -0.95624358404E+03  0.12470152792E+04  0.10100000352E+00 0.  1.
       -3    1    3    3    0  502  0.68721720070E+03  0.41033866918E+03  0.34136386402E+03  0.87015780305E+03  0.10100000352E+00 0. -1.
</event>
<event>
 5   0  0.2093980E-05  0.1998293E+04  0.7818609E-02  0.8607419E-01
        1   -1    0    0  501    0  0.00000000000E+00  0.00000000000E+00  0.14317240986E+04  0.14317240987E+04  0.50400001928E-02 0.  1.
       -1   -1    0    0    0  501  0.00000000000E+00  0.00000000000E+00 -0.69726696790E+03  0.69726696792E+03  0.50400001928E-02 0. -1.
    10030    2    1    2    0    0  0.00000000000E+00  0.00000000000E+00  0.73445713075E+03  0.21289910666E+04  0.19982931929E+04 0.  0.
        2    1    3    3  502    0  0.21252196025E+03  0.76002129479E+03 -0.28562723910E+03  0.83927401476E+03  0.25500000920E-02 0. -1.
       -2    1    3    3    0  502 -0.21252196025E+03 -0.76002129479E+03  0.10200843698E+04  0.12897170518E+04  0.25500000920E-02 0.  1.
</event>
<event>
 5   0  0.2110896E-05  0.2007668E+04  0.7818609E-02  0.8603044E-01
        1   -1    0    0  501    0  0.00000000000E+00  0.00000000000E+00  0.71189938574E+03  0.71189938576E+03  0.50400001928E-02 0.  1.
       -1   -1    0    0    0  501  0.00000000000E+00  0.00000000000E+00 -0.14154842216E+04  0.14154842216E+04  0.50400001928E-02 0. -1.
    10030    2    1    2    0    0  0.00000000000E+00  0.00000000000E+00 -0.70358483584E+03  0.21273836073E+04  0.20076676497E+04 0.  0.
        4    1    3    3  502    0  0.38728839811E+03 -0.27101459127E+03  0.58658673323E+03  0.75334375984E+03  0.12699999809E+01 0.  1.
       -4    1    3    3    0  502 -0.38728839811E+03  0.27101459127E+03 -0.12901715691E+04  0.13740398475E+04  0.12699999809E+01 0. -1.
</event>
<event>
 5   0  0.2007644E-05  0.1953107E+04  0.7818609E-02  0.8628864E-01
        1   -1    0    0  501    0  0.00000000000E+00  0.00000000000E+00  0.19355567948E+04  0.19355567948E+04  0.50400001928E-02 0. -1.
       -1   -1    0    0    0  501  0.00000000000E+00  0.00000000000E+00 -0.49270384194E+03  0.49270384197E+03  0.50400001928E-02 0.  1.
    10030    2    1    2    0    0  0.00000000000E+00  0.00000000000E+00  0.14428529529E+04  0.24282606368E+04  0.19531065195E+04 0.  0.
        1    1    3    3  502    0 -0.90960101944E+03 -0.14839755812E+03  0.31997865663E+03  0.97559325056E+03  0.50400001928E-02 0.  1.
       -1    1    3    3    0  502  0.90960101944E+03  0.14839755812E+03  0.11228742962E+04  0.14526673862E+04  0.50400001928E-02 0. -1.
</event>
<event>
 5   0  0.2110896E-05  0.1980998E+04  0.7818609E-02  0.8615557E-01
       -1   -1    0    0    0  501  0.00000000000E+00  0.00000000000E+00  0.70239980201E+03  0.70239980203E+03  0.50400001928E-02 0. -1.
        1   -1    0    0  501    0  0.00000000000E+00  0.00000000000E+00 -0.13967657502E+04  0.13967657502E+04  0.50400001928E-02 0.  1.
    10030    2    1    2    0    0  0.00000000000E+00  0.00000000000E+00 -0.69436594819E+03  0.20991655522E+04  0.19809977147E+04 0.  0.
        4    1    3    3  502    0 -0.24087105587E+02 -0.52298553614E+03 -0.12381672969E+04  0.13443042541E+04  0.12699999809E+01 0.  1.
       -4    1    3    3    0  502  0.24087105587E+02  0.52298553614E+03  0.54380134870E+03  0.75486129813E+03  0.12699999809E+01 0. -1.
</event>
<event>
 5   0  0.4473361E-05  0.1998063E+04  0.7818609E-02  0.8607527E-01
       -2   -1    0    0    0  501  0.00000000000E+00  0.00000000000E+00  0.11017136756E+04  0.11017136756E+04  0.25500000920E-02 0. -1.
        2   -1    0    0  501    0  0.00000000000E+00  0.00000000000E+00 -0.90591941726E+03  0.90591941727E+03  0.25500000920E-02 0.  1.
    10030    2    1    2    0    0  0.00000000000E+00  0.00000000000E+00  0.19579425837E+03  0.20076330929E+04  0.19980628729E+04 0.  0.
        2    1    3    3  502    0  0.94972808479E+03  0.19098629699E+03 -0.14741279731E+03  0.97989271530E+03  0.25500000920E-02 0. -1.
       -2    1    3    3    0  502 -0.94972808479E+03 -0.19098629699E+03  0.34320705569E+03  0.10277403776E+04  0.25500000920E-02 0.  1.
</event>
<event>
 5   0  0.4577279E-05  0.2050330E+04  0.7818609E-02  0.8583445E-01
       -2   -1    0    0    0  501  0.00000000000E+00  0.00000000000E+00  0.62095686711E+03  0.62095686712E+03  0.25500000920E-02 0. -1.
        2   -1    0    0  501    0  0.00000000000E+00  0.00000000000E+00 -0.16924894431E+04  0.16924894431E+04  0.25500000920E-02 0.  1.
    10030    2    1    2    0    0  0.00000000000E+00  0.00000000000E+00 -0.10715325760E+04  0.23134463102E+04  0.20503296732E+04 0.  0.
        1    1    3    3  502    0  0.51475866009E+03 -0.79605995867E+03 -0.95464913766E+02  0.95278616999E+03  0.50400001928E-02 0. -1.
       -1    1    3    3    0  502 -0.51475866009E+03  0.79605995867E+03 -0.97606766220E+03  0.13606601402E+04  0.50400001928E-02 0.  1.
</event>
<event>
 5   0  0.4514680E-05  0.2015687E+04  0.7818609E-02  0.8599322E-01
       -2   -1    0    0    0  501  0.00000000000E+00  0.00000000000E+00  0.13102543630E+04  0.13102543630E+04  0.25500000920E-02 0. -1.
        2   -1    0    0  501    0  0.00000000000E+00  0.00000000000E+00 -0.77522969244E+03  0.77522969244E+03  0.25500000920E-02 0.  1.
    10030    2    1    2    0    0  0.00000000000E+00  0.00000000000E+00  0.53502467053E+03  0.20854840554E+04  0.20156865697E+04 0.  0.
        3    1    3    3  502    0  0.22990032496E+03  0.21653862240E+03 -0.72271014158E+03  0.78870342547E+03  0.10100000352E+00 0.  1.
       -3    1    3    3    0  502 -0.22990032496E+03 -0.21653862240E+03  0.12577348121E+04  0.12967806299E+04  0.10100000352E+00 0. -1.
</event>
<event>
 5   0  0.4577279E-05  0.2004727E+04  0.7818609E-02  0.8604414E-01
       -2   -1    0    0    0  501  0.00000000000E+00  0.00000000000E+00  0.53037512236E+03  0.53037512237E+03  0.25500000920E-02 0.  1.
        2   -1    0    0  501    0  0.00000000000E+00  0.00000000000E+00 -0.18943809056E+04  0.18943809056E+04  0.25500000920E-02 0. -1.
    10030    2    1    2    0    0  0.00000000000E+00  0.00000000000E+00 -0.13640057833E+04  0.24247560280E+04  0.20047269187E+04 0.  0.
        1    1    3    3  502    0  0.90335966957E+03  0.31176424099E+03 -0.10478237580E+04  0.14181643989E+04  0.50400001928E-02 0. -1.
       -1    1    3    3    0  502 -0.90335966957E+03 -0.31176424099E+03 -0.31618202528E+03  0.10065916291E+04  0.50400001928E-02 0.  1.
</event>
<event>
 5   0  0.4412054E-05  0.2006631E+04  0.7818609E-02  0.8603527E-01
       -2   -1    0    0    0  501  0.00000000000E+00  0.00000000000E+00  0.73742623635E+03  0.73742623635E+03  0.25500000920E-02 0. -1.
        2   -1    0    0  501    0  0.00000000000E+00  0.00000000000E+00 -0.13650746134E+04  0.13650746134E+04  0.25500000920E-02 0.  1.
    10030    2    1    2    0    0  0.00000000000E+00  0.00000000000E+00 -0.62764837704E+03  0.21025008497E+04  0.20066308425E+04 0.  0.
        4    1    3    3  502    0 -0.80694666910E+03  0.42203419850E+03 -0.75509170733E+03  0.11829796663E+04  0.12699999809E+01 0.  1.
       -4    1    3    3    0  502  0.80694666910E+03 -0.42203419850E+03  0.12744333029E+03  0.91952118345E+03  0.12699999809E+01 0. -1.
</event>
<event>
 5   0  0.2142551E-05  0.2002758E+04  0.7818609E-02  0.8605332E-01
       -1   -1    0    0    0  501  0.00000000000E+00  0.00000000000E+00  0.55592928994E+03  0.55592928996E+03  0.50400001928E-02 0.  1.
        1   -1    0    0  501    0  0.00000000000E+00  0.00000000000E+00 -0.18037544828E+04  0.18037544828E+04  0.50400001928E-02 0. -1.
    10030    2    1    2    0    0  0.00000000000E+00  0.00000000000E+00 -0.12478251928E+04  0.23596837727E+04  0.20027580472E+04 0.  0.
        3    1    3    3  502    0  0.74838136340E+03 -0.66494769478E+03 -0.65103301437E+03  0.11941834440E+04  0.10100000352E+00 0.  1.
       -3    1    3    3    0  502 -0.74838136340E+03  0.66494769478E+03 -0.59679217846E+03  0.11655003288E+04  0.10100000352E+00 0. -1.
</event>
<event>
 5   0  0.2007644E-05  0.2001941E+04  0.7818609E-02  0.8605714E-01
       -1   -1    0    0    0  501  0.00000000000E+00  0.00000000000E+00  0.96004681164E+03  0.96004681165E+03  0.50400001928E-02 0. -1.
        1   -1    0    0  501    0  0.00000000000E+00  0.00000000000E+00 -0.10436391125E+04  0.10436391125E+04  0.50400001928E-02 0.  1.
    10030    2    1    2    0    0  0.00000000000E+00  0.00000000000E+00 -0.83592300876E+02  0.20036859242E+04  0.20019414602E+04 0.  0.
        1    1    3    3  502    0 -0.44831243948E+03  0.66974958968E+03 -0.63594112936E+03  0.10266302530E+04  0.50400001928E-02 0.  1.
       -1    1    3    3    0  502  0.44831243948E+03 -0.66974958968E+03  0.55234882849E+03  0.97705567120E+03  0.50400001928E-02 0. -1.
</event>
<event>
 5   0  0.2256868E-05  0.2026888E+04  0.7818609E-02  0.8594152E-01
       -1   -1    0    0    0  501  0.00000000000E+00  0.00000000000E+00  0.12879307084E+04  0.12879307084E+04  0.50400001928E-02 0. -1.
        1   -1    0    0  501    0  0.00000000000E+00  0.00000000000E+00 -0.79745658401E+03  0.79745658403E+03  0.50400001928E-02 0.  1.
    10030    2    1    2    0    0  0.00000000000E+00  0.00000000000E+00  0.49047412442E+03  0.20853872925E+04  0.20268880810E+04 0.  0.
        5    1    3    3  502    0  0.71402804750E+02 -0.83492251601E+03 -0.34117141207E+03  0.90477289453E+03  0.46999998093E+01 0.  1.
       -5    1    3    3    0  502 -0.71402804750E+02  0.83492251601E+03  0.83164553650E+03  0.11806143979E+04  0.46999998093E+01 0. -1.
</event>
<event>
 5   0  0.2007644E-05  0.2003823E+04  0.7818609E-02  0.8604835E-01
        1   -1    0    0  501    0  0.00000000000E+00  0.00000000000E+00  0.13654429129E+04  0.13654429129E+04  0.50400001928E-02 0.  1.
       -1   -1    0    0    0  501  0.00000000000E+00  0.00000000000E+00 -0.73516561697E+03  0.73516561699E+03  0.50400001928E-02 0. -1.
    10030    2    1    2    0    0  0.00000000000E+00  0.00000000000E+00  0.63027729590E+03  0.21006085299E+04  0.20038230276E+04 0.  0.
        1    1    3    3  502    0 -0.78674621815E+03 -0.61308315521E+03  0.21576488487E+03  0.10204876543E+04  0.50400001928E-02 0.  1.
       -1    1    3    3    0  502  0.78674621815E+03  0.61308315521E+03  0.41451241103E+03  0.10801208756E+04  0.50400001928E-02 0. -1.
</event>
<event>
 5   0  0.2110896E-05  0.1993776E+04  0.7818609E-02  0.8609536E-01
        1   -1    0    0  501    0  0.00000000000E+00  0.00000000000E+00  0.19178097989E+04  0.19178097989E+04  0.50400001928E-02 0. -1.
       -1   -1    0    0    0  501  0.00000000000E+00  0.00000000000E+00 -0.51818782956E+03  0.51818782958E+03  0.50400001928E-02 0.  1.
    10030    2    1    2    0    0  0.00000000000E+00  0.00000000000E+00  0.13996219694E+04  0.24359976285E+04  0.19937760127E+04 0.  0.
        4    1    3    3  502    0  0.78462587516E+02  0.84070965734E+03  0.52331378052E+02  0.84598421476E+03  0.12699999809E+01 0.  1.
       -4    1    3    3    0  502 -0.78462587516E+02 -0.84070965734E+03  0.13472905913E+04  0.15900134138E+04  0.12699999809E+01 0. -1.
</event>
<event>
 5   0  0.2142551E-05  0.2001174E+04  0.7818609E-02  0.8606072E-01
       -1   -1    0    0    0  501  0.00000000000E+00  0.00000000000E+00  0.12181544541E+04  0.12181544542E+04  0.50400001928E-02 0. -1.
        1   -1    0    0  501    0  0.00000000000E+00  0.00000000000E+00 -0.82187795674E+03  0.82187795676E+03  0.50400001928E-02 0.  1.
    10030    2    1    2    0    0  0.00000000000E+00  0.00000000000E+00  0.39627649741E+03  0.20400324109E+04  0.20011739493E+04 0.  0.
        3    1    3    3  502    0 -0.40942405794E+03  0.78914172183E+03 -0.26990840466E+03  0.92909809679E+03  0.10100000352E+00 0.  1.
       -3    1    3    3    0  502  0.40942405794E+03 -0.78914172183E+03  0.66618490207E+03  0.11109343141E+04  0.10100000352E+00 0. -1.
</event>
<event>
 5   0  0.4412054E-05  0.2003616E+04  0.7818609E-02  0.8604932E-01
       -2   -1    0    0    0  501  0.00000000000E+00  0.00000000000E+00  0.12806462859E+04  0.12806462859E+04  0.25500000920E-02 0. -1.
        2   -1    0    0  501    0  0.00000000000E+00  0.00000000000E+00 -0.78368187215E+03  0.78368187216E+03  0.25500000920E-02 0.  1.
    10030    2    1    2    0    0  0.00000000000E+00  0.00000000000E+00  0.49696441372E+03  0.20643281580E+04  0.20036160100E+04 0.  0.
        4    1    3    3  502    0 -0.37284110834E+03 -0.22774502065E+03 -0.68035562222E+03  0.80855653611E+03  0.12699999809E+01 0.  1.
       -4    1    3    3    0  502  0.37284110834E+03  0.22774502065E+03  0.11773200359E+04  0.12557716219E+04  0.12699999809E+01 0. -1.
</event>
<event>
 5   0  0.2093980E-05  0.1997488E+04  0.7818609E-02  0.8607796E-01
        1   -1    0    0  501    0  0.00000000000E+00  0.00000000000E+00  0.92984815264E+03  0.92984815265E+03  0.50400001928E-02 0.  1.
       -1   -1    0    0    0  501  0.00000000000E+00  0.00000000000E+00 -0.10727444264E+04  0.10727444264E+04  0.50400001928E-02 0. -1.
    10030    2    1    2    0    0  0.00000000000E+00  0.00000000000E+00 -0.14289627379E+03  0.20025925791E+04  0.19974878455E+04 0.  0.
        2    1    3    3  502    0  0.46220768708E+03  0.81855875888E+03 -0.40967513893E+03  0.10254306935E+04  0.25500000920E-02 0. -1.
       -2    1    3    3    0  502 -0.46220768708E+03 -0.81855875888E+03  0.26677886515E+03  0.97716188558E+03  0.25500000920E-02 0.  1.
</event>
<event>
 5   0  0.2142551E-05  0.2004157E+04  0.7818609E-02  0.8604680E-01
        1   -1    0    0  501    0  0.00000000000E+00  0.00000000000E+00  0.18143639977E+04  0.18143639977E+04  0.50400001928E-02 0. -1.
       -1   -1    0    0    0  501  0.00000000000E+00  0.00000000000E+00 -0.55345086706E+03  0.55345086709E+03  0.50400001928E-02 0.  1.
    10030    2    1    2    0    0  0.00000000000E+00  0.00000000000E+00  0.12609131307E+04  0.23678148648E+04  0.20041570076E+04 0.  0.
        3    1    3    3  502    0 -0.95623520760E+03 -0.32004081923E+02  0.27848844921E+03  0.99647672329E+03  0.10100000352E+00 0.  1.
       -3    1    3    3    0  502  0.95623520760E+03  0.32004081923E+02  0.98242468147E+03  0.13713381415E+04  0.10100000352E+00 0. -1.
</event>
<event>
 5   0  0.4447313E-05  0.1992287E+04  0.7818609E-02  0.8610235E-01
        2   -1    0    0  501    0  0.00000000000E+00  0.00000000000E+00  0.19111811349E+04  0.19111811349E+04  0.25500000920E-02 0. -1.
       -2   -1    0    0    0  501  0.00000000000E+00  0.00000000000E+00 -0.51920862790E+03  0.51920862790E+03  0.25500000920E-02 0.  1.
    10030    2    1    2    0    0  0.00000000000E+00  0.00000000000E+00  0.13919725070E+04  0.24303897628E+04  0.19922868616E+04 0.  0.
        5    1    3    3  502    0  0.62395453097E+02  0.96589346284E+03  0.98321047382E+03  0.13796986265E+04  0.46999998093E+01 0.  1.
       -5    1    3    3    0  502 -0.62395453097E+02 -0.96589346284E+03  0.40876203316E+03  0.10506911363E+04  0.46999998093E+01 0. -1.
</event>
<event>
 5   0  0.2093980E-05  0.1998810E+04  0.7818609E-02  0.8607177E-01
       -1   -1    0    0    0  501  0.00000000000E+00  0.00000000000E+00  0.10100923381E+04  0.10100923381E+04  0.50400001928E-02 0.  1.
        1   -1    0    0  501    0  0.00000000000E+00  0.00000000000E+00 -0.98883076738E+03  0.98883076740E+03  0.50400001928E-02 0. -1.
    10030    2    1    2    0    0  0.00000000000E+00  0.00000000000E+00  0.21261570669E+02  0.19989231055E+04  0.19988100278E+04 0.  0.
        2    1    3    3  502    0 -0.17322511791E+03  0.33373760473E+03  0.93665436350E+03  0.10093112141E+04  0.25500000920E-02 0.  1.
       -2    1    3    3    0  502  0.17322511791E+03 -0.33373760473E+03 -0.91539279283E+03  0.98961189133E+03  0.25500000920E-02 0. -1.
</event>
<event>
 5   0  0.2142551E-05  0.2000239E+04  0.7818609E-02  0.8606509E-01
       -1   -1    0    0    0  501  0.00000000000E+00  0.00000000000E+00  0.12603692837E+04  0.12603692838E+04  0.50400001928E-02 0. -1.
        1   -1    0    0  501    0  0.00000000000E+00  0.00000000000E+00 -0.79360801642E+03  0.79360801644E+03  0.50400001928E-02 0.  1.
    10030    2    1    2    0    0  0.00000000000E+00  0.00000000000E+00  0.46676126732E+03  0.20539773002E+04  0.20002391530E+04 0.  0.
        3    1    3    3  502    0 -0.99921441824E+03  0.16205942474E+02  0.27377016541E+03  0.10361670714E+04  0.10100000352E+00 0.  1.
       -3    1    3    3    0  502  0.99921441824E+03 -0.16205942474E+02  0.19299110191E+03  0.10178102288E+04  0.10100000352E+00 0. -1.
</event>
<event>
 5   0  0.2256868E-05  0.2005577E+04  0.7818609E-02  0.8604018E-01
        1   -1    0    0  501    0  0.00000000000E+00  0.00000000000E+00  0.76381132488E+03  0.76381132489E+03  0.50400001928E-02 0. -1.
       -1   -1    0    0    0  501  0.00000000000E+00  0.00000000000E+00 -0.13165358283E+04  0.13165358283E+04  0.50400001928E-02 0.  1.
    10030    2    1    2    0    0  0.00000000000E+00  0.00000000000E+00 -0.55272450338E+03  0.20803471532E+04  0.20055771990E+04 0.  0.
        5    1    3    3  502    0 -0.43256026562E+03 -0.27814456578E+03 -0.11693221092E+04  0.12774228227E+04  0.46999998093E+01 0.  1.
       -5    1    3    3    0  502  0.43256026562E+03  0.27814456578E+03  0.61659760585E+03  0.80292433044E+03  0.46999998093E+01 0. -1.
</event>
<event>
 5   0  0.4473361E-05  0.1989246E+04  0.7818609E-02  0.8611665E-01
        2   -1    0    0  501    0  0.00000000000E+00  0.00000000000E+00  0.19389765616E+04  0.19389765616E+04  0.25500000920E-02 0.  1.
       -2   -1    0    0    0  501  0.00000000000E+00  0.00000000000E+00 -0.51020453109E+03  0.51020453110E+03  0.25500000920E-02 0. -1.
    10030    2    1    2    0    0  0.00000000000E+00  0.00000000000E+00  0.14287720305E+04  0.24491810927E+04  0.19892457138E+04 0.  0.
        2    1    3    3  502    0  0.80079386536E+03  0.10560305462E+02  0.14405837180E+04  0.16482305007E+04  0.25500000920E-02 0.  1.
       -2    1    3    3    0  502 -0.80079386536E+03 -0.10560305462E+02 -0.11811687512E+02  0.80095059199E+03  0.25500000920E-02 0. -1.
</event>
<event>
 5   0  0.4473361E-05  0.1999664E+04  0.7818609E-02  0.8606778E-01
        2   -1    0    0  501    0  0.00000000000E+00  0.00000000000E+00  0.13623810658E+04  0.13623810658E+04  0.25500000920E-02 0.  1.
       -2   -1    0    0    0  501  0.00000000000E+00  0.00000000000E+00 -0.73376265805E+03  0.73376265805E+03  0.25500000920E-02 0. -1.
    10030    2    1    2    0    0  0.00000000000E+00  0.00000000000E+00  0.62861840774E+03  0.20961437238E+04  0.19996643239E+04 0.  0.
        2    1    3    3  502    0 -0.20821222840E+03 -0.26067959211E+03 -0.67369321797E+03  0.75177705055E+03  0.25500000920E-02 0. -1.
       -2    1    3    3    0  502  0.20821222840E+03  0.26067959211E+03  0.13023116257E+04  0.13443666733E+04  0.25500000920E-02 0.  1.
</event>
<event>
 5   0  0.4447313E-05  0.2004821E+04  0.7818609E-02  0.8604370E-01
       -2   -1    0    0    0  501  0.00000000000E+00  0.00000000000E+00  0.66884428220E+03  0.66884428221E+03  0.25500000920E-02 0. -1.
        2   -1    0    0  501    0  0.00000000000E+00  0.00000000000E+00 -0.15023326567E+04  0.15023326567E+04  0.25500000920E-02 0.  1.
    10030    2    1    2    0    0  0.00000000000E+00  0.00000000000E+00 -0.83348837449E+03  0.21711769389E+04  0.20048207974E+04 0.  0.
        5    1    3    3  502    0 -0.15633239911E+03  0.24194467131E+03  0.62304305016E+03  0.68642681717E+03  0.46999998093E+01 0. -1.
       -5    1    3    3    0  502  0.15633239911E+03 -0.24194467131E+03 -0.14565314246E+04  0.14847501217E+04  0.46999998093E+01 0.  1.
</event>
<event>
 5   0  0.4412054E-05  0.1999931E+04  0.7818609E-02  0.8606653E-01
        2   -1    0    0  501    0  0.00000000000E+00  0.00000000000E+00  0.10110718171E+04  0.10110718171E+04  0.25500000920E-02 0.  1.
       -2   -1    0    0    0  501  0.00000000000E+00  0.00000000000E+00 -0.98898165225E+03  0.98898165225E+03  0.25500000920E-02 0. -1.
    10030    2    1    2    0    0  0.00000000000E+00  0.00000000000E+00  0.22090164897E+02  0.20000534694E+04  0.19999314751E+04 0.  0.
        4    1    3    3  502    0 -0.81451314279E+03  0.21368404654E+03 -0.52828117747E+03  0.99406999094E+03  0.12699999809E+01 0. -1.
       -4    1    3    3    0  502  0.81451314279E+03 -0.21368404654E+03  0.55037134237E+03  0.10059834785E+04  0.12699999809E+01 0.  1.
</event>
<event>
 5   0  0.2007644E-05  0.2004688E+04  0.7818609E-02  0.8604432E-01
       -1   -1    0    0    0  501  0.00000000000E+00  0.00000000000E+00  0.93132985578E+03  0.93132985580E+03  0.50400001928E-02 0. -1.
        1   -1    0    0  501    0  0.00000000000E+00  0.00000000000E+00 -0.10787733660E+04  0.10787733660E+04  0.50400001928E-02 0.  1.
    10030    2    1    2    0    0  0.00000000000E+00  0.00000000000E+00 -0.14744351023E+03  0.20101032218E+04  0.20046883483E+04 0.  0.
        1    1    3    3  502    0 -0.70001774450E+03 -0.56559165440E+03 -0.51624714216E+03  0.10375113850E+04  0.50400001928E-02 0.  1.
       -1    1    3    3    0  502  0.70001774450E+03  0.56559165440E+03  0.36880363193E+03  0.97259183684E+03  0.50400001928E-02 0. -1.
</event>
<event>
 5   0  0.4412054E-05  0.2003351E+04  0.7818609E-02  0.8605056E-01
        2   -1    0    0  501    0  0.00000000000E+00  0.00000000000E+00  0.11382534187E+04  0.11382534187E+04  0.25500000920E-02 0. -1.
       -2   -1    0    0    0  501  0.00000000000E+00  0.00000000000E+00 -0.88148545127E+03  0.88148545128E+03  0.25500000920E-02 0.  1.
    10030    2    1    2    0    0  0.00000000000E+00  0.00000000000E+00  0.25676796747E+03  0.20197388700E+04  0.20033510212E+04 0.  0.
        4    1    3    3  502    0  0.84584377989E+03  0.31468683917E+03 -0.30976597630E+03  0.95416774191E+03  0.12699999809E+01 0.  1.
       -4    1    3    3    0  502 -0.84584377989E+03 -0.31468683917E+03  0.56653394377E+03  0.10655711281E+04  0.12699999809E+01 0. -1.
</event>
<event>
 5   0  0.2110896E-05  0.1998985E+04  0.7818609E-02  0.8607096E-01
       -1   -1    0    0    0  501  0.00000000000E+00  0.00000000000E+00  0.66322820070E+03  0.66322820072E+03  0.50400001928E-02 0. -1.
        1   -1    0    0  501    0  0.00000000000E+00  0.00000000000E+00 -0.15062459463E+04  0.15062459463E+04  0.50400001928E-02 0.  1.
    10030    2    1    2    0    0  0.00000000000E+00  0.00000000000E+00 -0.84301774557E+03  0.21694741470E+04  0.19989845310E+04 0.  0.
        4    1    3    3  502    0 -0.34982157023E+03  0.68682542998E+03 -0.11120787077E+04  0.13530798082E+04  0.12699999809E+01 0.  1.
       -4    1    3    3    0  502  0.34982157023E+03 -0.68682542998E+03  0.26906096211E+03  0.81639433884E+03  0.12699999809E+01 0. -1.
</event>
<event>
 5   0  0.4577279E-05  0.1998696E+04  0.7818609E-02  0.8607230E-01
       -2   -1    0    0    0  501  0.00000000000E+00  0.00000000000E+00  0.99763566164E+03  0.99763566164E+03  0.25500000920E-02 0.  1.
        2   -1    0    0  501    0  0.00000000000E+00  0.00000000000E+00 -0.10010634616E+04  0.10010634616E+04  0.25500000920E-02 0. -1.
    10030    2    1    2    0    0  0.00000000000E+00  0.00000000000E+00 -0.34277999456E+01  0.19986991232E+04  0.19986961839E+04 0.  0.
        1    1    3    3  502    0 -0.62115535502E+03 -0.78262613704E+02 -0.78064867365E+03  0.10006854468E+04  0.50400001928E-02 0. -1.
       -1    1    3    3    0  502  0.62115535502E+03  0.78262613704E+02  0.77722087370E+03  0.99801367642E+03  0.50400001928E-02 0.  1.
</event>
<event>
 5   0  0.2142551E-05  0.2057116E+04  0.7818609E-02  0.8580373E-01
        1   -1    0    0  501    0  0.00000000000E+00  0.00000000000E+00  0.87810299866E+03  0.87810299868E+03  0.50400001928E-02 0. -1.
       -1   -1    0    0    0  501  0.00000000000E+00  0.00000000000E+00 -0.12047926871E+04  0.12047926871E+04  0.50400001928E-02 0.  1.
    10030    2    1    2    0    0  0.00000000000E+00  0.00000000000E+00 -0.32668968847E+03  0.20828956858E+04  0.20571164978E+04 0.  0.
        3    1    3    3  502    0  0.12016042381E+03  0.72114520708E+03  0.56921546228E+03  0.92655015506E+03  0.10100000352E+00 0. -1.
       -3    1    3    3    0  502 -0.12016042381E+03 -0.72114520708E+03 -0.89590515075E+03  0.11563455307E+04  0.10100000352E+00 0.  1.
</event>
<event>
 5   0  0.4514680E-05  0.1993938E+04  0.7818609E-02  0.8609460E-01
       -2   -1    0    0    0  501  0.00000000000E+00  0.00000000000E+00  0.79698894440E+03  0.79698894441E+03  0.25500000920E-02 0. -1.
        2   -1    0    0  501    0  0.00000000000E+00  0.00000000000E+00 -0.12471283553E+04  0.12471283553E+04  0.25500000920E-02 0.  1.
    10030    2    1    2    0    0  0.00000000000E+00  0.00000000000E+00 -0.45013941088E+03  0.20441172997E+04  0.19939383254E+04 0.  0.
        3    1    3    3  502    0  0.43027128063E+03 -0.17589966743E+03  0.67909710746E+03  0.82295015614E+03  0.10100000352E+00 0. -1.
       -3    1    3    3    0  502 -0.43027128063E+03  0.17589966743E+03 -0.11292365183E+04  0.12211671435E+04  0.10100000352E+00 0.  1.
</event>
<event>
 5   0  0.2256868E-05  0.1969099E+04  0.7818609E-02  0.8621206E-01
        1   -1    0    0  501    0  0.00000000000E+00  0.00000000000E+00  0.94827046828E+03  0.94827046830E+03  0.50400001928E-02 0. -1.
       -1   -1    0    0    0  501  0.00000000000E+00  0.00000000000E+00 -0.10222166858E+04  0.10222166858E+04  0.50400001928E-02 0.  1.
    10030    2    1    2    0    0  0.00000000000E+00  0.00000000000E+00 -0.73946217549E+02  0.19704871541E+04  0.19690991802E+04 0.  0.
        5    1    3    3  502    0  0.49711707859E+03  0.83379885626E+03 -0.20131396551E+03  0.99141077523E+03  0.46999998093E+01 0.  1.
       -5    1    3    3    0  502 -0.49711707859E+03 -0.83379885626E+03  0.12736774796E+03  0.97907637891E+03  0.46999998093E+01 0. -1.
</event>
<event>
 5   0  0.4577279E-05  0.1997997E+04  0.7818609E-02  0.8607558E-01
       -2   -1    0    0    0  501  0.00000000000E+00  0.00000000000E+00  0.86293292751E+03  0.86293292751E+03  0.25500000920E-02 0.  1.
        2   -1    0    0  501    0  0.00000000000E+00  0.00000000000E+00 -0.11565187474E+04  0.11565187474E+04  0.25500000920E-02 0. -1.
    10030    2    1    2    0    0  0.00000000000E+00  0.00000000000E+00 -0.29358581986E+03  0.20194516749E+04  0.19979971055E+04 0.  0.
        1    1    3    3  502    0  0.17856812438E+03 -0.66097800107E+03 -0.88207938355E+03  0.11166210332E+04  0.50400001928E-02 0. -1.
       -1    1    3    3    0  502 -0.17856812438E+03  0.66097800107E+03  0.58849356370E+03  0.90283064164E+03  0.50400001928E-02 0.  1.
</event>
<event>
 5   0  0.4514680E-05  0.1998146E+04  0.7818609E-02  0.8607488E-01
        2   -1    0    0  501    0  0.00000000000E+00  0.00000000000E+00  0.24989685882E+04  0.24989685882E+04  0.25500000920E-02 0. -1.
       -2   -1    0    0    0  501  0.00000000000E+00  0.00000000000E+00 -0.39942355937E+03  0.39942355938E+03  0.25500000920E-02 0.  1.
    10030    2    1    2    0    0  0.00000000000E+00  0.00000000000E+00  0.20995450288E+04  0.28983921476E+04  0.19981460690E+04 0.  0.
        3    1    3    3  502    0 -0.24370715758E+03  0.87485096187E+03  0.44576637775E+03  0.10116644987E+04  0.10100000352E+00 0.  1.
       -3    1    3    3    0  502  0.24370715758E+03 -0.87485096187E+03  0.16537786511E+04  0.18867276489E+04  0.10100000352E+00 0. -1.
</event>
<event>
 5   0  0.2256868E-05  0.1924340E+04  0.7818609E-02  0.8642835E-01
        1   -1    0    0  501    0  0.00000000000E+00  0.00000000000E+00  0.76619248516E+03  0.76619248518E+03  0.50400001928E-02 0. -1.
       -1   -1    0    0    0  501  0.00000000000E+00  0.00000000000E+00 -0.12082744296E+04  0.12082744297E+04  0.50400001928E-02 0.  1.
    10030    2    1    2    0    0  0.00000000000E+00  0.00000000000E+00 -0.44208194448E+03  0.19744669148E+04  0.19243396665E+04 0.  0.
        5    1    3    3  502    0 -0.91172059380E+02 -0.55683708923E+03 -0.10206807166E+04  0.11662723111E+04  0.46999998093E+01 0.  1.
       -5    1    3    3    0  502  0.91172059380E+02  0.55683708923E+03  0.57859877215E+03  0.80819460373E+03  0.46999998093E+01 0. -1.
</event>
<event>
 5   0  0.2110896E-05  0.2003842E+04  0.7818609E-02  0.8604827E-01
        1   -1    0    0  501    0  0.00000000000E+00  0.00000000000E+00  0.11640689604E+04  0.11640689605E+04  0.50400001928E-02 0.  1.
       -1   -1    0    0    0  501  0.00000000000E+00  0.00000000000E+00 -0.86235901466E+03  0.86235901468E+03  0.50400001928E-02 0. -1.
    10030    2    1    2    0    0  0.00000000000E+00  0.00000000000E+00  0.30170994579E+03  0.20264279751E+04  0.20038416721E+04 0.  0.
        4    1    3    3  502    0  0.57601698925E+03 -0.30252529500E+03 -0.61965601951E+03  0.89849447491E+03  0.12699999809E+01 0. -1.
       -4    1    3    3    0  502 -0.57601698925E+03  0.30252529500E+03  0.92136596530E+03  0.11279335002E+04  0.12699999809E+01 0.  1.
</event>
<event>
 5   0  0.2093980E-05  0.1992644E+04  0.7818609E-02  0.8610068E-01
       -1   -1    0    0    0  501  0.00000000000E+00  0.00000000000E+00  0.23632732595E+04  0.23632732595E+04  0.50400001928E-02 0.  1.
        1   -1    0    0  501    0  0.00000000000E+00  0.00000000000E+00 -0.42003499888E+03  0.42003499891E+03  0.50400001928E-02 0. -1.
    10030    2    1    2    0    0  0.00000000000E+00  0.00000000000E+00  0.19432382606E+04  0.27833082584E+04  0.19926439531E+04 0.  0.
        2    1    3    3  502    0 -0.13569503090E+03  0.32206259797E+03  0.22748488787E+04  0.23015375033E+04  0.25500000920E-02 0.  1.
       -2    1    3    3    0  502  0.13569503090E+03 -0.32206259797E+03 -0.33161061807E+03  0.48177075507E+03  0.25500000920E-02 0. -1.
</event>
<event>
 5   0  0.4412054E-05  0.2000056E+04  0.7818609E-02  0.8606594E-01
        2   -1    0    0  501    0  0.00000000000E+00  0.00000000000E+00  0.12858332719E+04  0.12858332719E+04  0.25500000920E-02 0.  1.
       -2   -1    0    0    0  501  0.00000000000E+00  0.00000000000E+00 -0.77774942470E+03  0.77774942471E+03  0.25500000920E-02 0. -1.
    10030    2    1    2    0    0  0.00000000000E+00  0.00000000000E+00  0.50808384722E+03  0.20635826966E+04  0.20000560867E+04 0.  0.
        4    1    3    3  502    0  0.68950325916E+03 -0.41599790806E+03  0.86582176534E+03  0.11824203762E+04  0.12699999809E+01 0.  1.
       -4    1    3    3    0  502 -0.68950325916E+03  0.41599790806E+03 -0.35773791812E+03  0.88116232039E+03  0.12699999809E+01 0. -1.
</event>
<event>
 5   0  0.4577279E-05  0.2008564E+04  0.7818609E-02  0.8602627E-01
        2   -1    0    0  501    0  0.00000000000E+00  0.00000000000E+00  0.14460426373E+04  0.14460426373E+04  0.25500000920E-02 0. -1.
       -2   -1    0    0    0  501  0.00000000000E+00  0.00000000000E+00 -0.69747740070E+03  0.69747740070E+03  0.25500000920E-02 0.  1.
    10030    2    1    2    0    0  0.00000000000E+00  0.00000000000E+00  0.74856523659E+03  0.21435200380E+04  0.20085637256E+04 0.  0.
        1    1    3    3  502    0  0.60775725593E+03 -0.66775410053E+03  0.84350387012E+03  0.12356225960E+04  0.50400001928E-02 0. -1.
       -1    1    3    3    0  502 -0.60775725593E+03  0.66775410053E+03 -0.94938633535E+02  0.90789744194E+03  0.50400001928E-02 0.  1.
</event>
<event>
 5   0  0.2007644E-05  0.1994328E+04  0.7818609E-02  0.8609277E-01
       -1   -1    0    0    0  501  0.00000000000E+00  0.00000000000E+00  0.13774291342E+04  0.13774291342E+04  0.50400001928E-02 0. -1.
        1   -1    0    0  501    0  0.00000000000E+00  0.00000000000E+00 -0.72187825295E+03  0.72187825297E+03  0.50400001928E-02 0.  1.
    10030    2    1    2    0    0  0.00000000000E+00  0.00000000000E+00  0.65555088123E+03  0.20993073872E+04  0.19943280943E+04 0.  0.
        1    1    3    3  502    0  0.74167765072E+03 -0.66216698009E+03  0.40784030787E+03  0.10746555559E+04  0.50400001928E-02 0.  1.
       -1    1    3    3    0  502 -0.74167765072E+03  0.66216698009E+03  0.24771057335E+03  0.10246518312E+04  0.50400001928E-02 0. -1.
</event>
<event>
 5   0  0.4447313E-05  0.1997054E+04  0.7818609E-02  0.8607999E-01
       -2   -1    0    0    0  501  0.00000000000E+00  0.00000000000E+00  0.50560996008E+03  0.50560996008E+03  0.25500000920E-02 0.  1.
        2   -1    0    0  501    0  0.00000000000E+00  0.00000000000E+00 -0.19719872913E+04  0.19719872913E+04  0.25500000920E-02 0. -1.
    10030    2    1    2    0    0  0.00000000000E+00  0.00000000000E+00 -0.14663773313E+04  0.24775972514E+04  0.19970542463E+04 0.  0.
        5    1    3    3  502    0 -0.72116521203E+03 -0.37910847623E+03 -0.17022028993E+02  0.81493210715E+03  0.46999998093E+01 0.  1.
       -5    1    3    3    0  502  0.72116521203E+03  0.37910847623E+03 -0.14493553023E+04  0.16626651443E+04  0.46999998093E+01 0. -1.
</event>
<event>
 5   0  0.2110896E-05  0.1993520E+04  0.7818609E-02  0.8609656E-01
        1   -1    0    0  501    0  0.00000000000E+00  0.00000000000E+00  0.95790256718E+03  0.95790256719E+03  0.50400001928E-02 0. -1.
       -1   -1    0    0    0  501  0.00000000000E+00  0.00000000000E+00 -0.10371934997E+04  0.10371934997E+04  0.50400001928E-02 0.  1.
    10030    2    1    2    0    0  0.00000000000E+00  0.00000000000E+00 -0.79290932496E+02  0.19950960669E+04  0.19935198178E+04 0.  0.
        4    1    3    3  502    0  0.81697106415E+03 -0.57076263550E+03 -0.57463964125E+02  0.99825619248E+03  0.12699999809E+01 0. -1.
       -4    1    3    3    0  502 -0.81697106415E+03  0.57076263550E+03 -0.21826968371E+02  0.99683987440E+03  0.12699999809E+01 0.  1.
</event>
<event>
 5   0  0.2142551E-05  0.2014674E+04  0.7818609E-02  0.8599791E-01
        1   -1    0    0  501    0  0.00000000000E+00  0.00000000000E+00  0.19507608458E+04  0.19507608458E+04  0.50400001928E-02 0. -1.
       -1   -1    0    0    0  501  0.00000000000E+00  0.00000000000E+00 -0.52017044649E+03  0.52017044652E+03  0.50400001928E-02 0.  1.
    10030    2    1    2    0    0  0.00000000000E+00  0.00000000000E+00  0.14305903993E+04  0.24709312923E+04  0.20146743064E+04 0.  0.
        3    1    3    3  502    0  0.84528448901E+02 -0.82708201334E+03  0.14128933564E+04  0.16393527266E+04  0.10100000352E+00 0. -1.
       -3    1    3    3    0  502 -0.84528448901E+02  0.82708201334E+03  0.17697042938E+02  0.83157856574E+03  0.10100000352E+00 0.  1.
</event>
<event>
 5   0  0.2093980E-05  0.2002285E+04  0.7818609E-02  0.8605553E-01
        1   -1    0    0  501    0  0.00000000000E+00  0.00000000000E+00  0.87871020622E+03  0.87871020624E+03  0.50400001928E-02 0.  1.
       -1   -1    0    0    0  501  0.00000000000E+00  0.00000000000E+00 -0.11406338254E+04  0.11406338254E+04  0.50400001928E-02 0. -1.
    10030    2    1    2    0    0  0.00000000000E+00  0.00000000000E+00 -0.26192361914E+03  0.20193440316E+04  0.20022852783E+04 0.  0.
        2    1    3    3  502    0 -0.90198183326E+03  0.37959157131E+03 -0.34400927537E+03  0.10373058228E+04  0.25500000920E-02 0. -1.
       -2    1    3    3    0  502  0.90198183326E+03 -0.37959157131E+03  0.82085656226E+02  0.98203820878E+03  0.25500000920E-02 0.  1.
</event>
<event>
 5   0  0.4412054E-05  0.1989771E+04  0.7818609E-02  0.8611418E-01
       -2   -1    0    0    0  501  0.00000000000E+00  0.00000000000E+00  0.52165675092E+03  0.52165675092E+03  0.25500000920E-02 0. -1.
        2   -1    0    0  501    0  0.00000000000E+00  0.00000000000E+00 -0.18974112776E+04  0.18974112777E+04  0.25500000920E-02 0.  1.
    10030    2    1    2    0    0  0.00000000000E+00  0.00000000000E+00 -0.13757545267E+04  0.24190680286E+04  0.19897712454E+04 0.  0.
        4    1    3    3  502    0  0.18019307615E+03 -0.31826355164E+03  0.43696229053E+03  0.56982355975E+03  0.12699999809E+01 0. -1.
       -4    1    3    3    0  502 -0.18019307615E+03  0.31826355164E+03 -0.18127168173E+04  0.18492444688E+04  0.12699999809E+01 0.  1.
</event>
<event>
 5   0  0.2007644E-05  0.1993605E+04  0.7818609E-02  0.8609617E-01
       -1   -1    0    0    0  501  0.00000000000E+00  0.00000000000E+00  0.11197496524E+04  0.11197496524E+04  0.50400001928E-02 0. -1.
        1   -1    0    0  501    0  0.00000000000E+00  0.00000000000E+00 -0.88735450179E+03  0.88735450180E+03  0.50400001928E-02 0.  1.
    10030    2    1    2    0    0  0.00000000000E+00  0.00000000000E+00  0.23239515059E+03  0.20071041542E+04  0.19936046699E+04 0.  0.
        1    1    3    3  502    0 -0.87807217540E+03 -0.42595862880E+03  0.32045905202E+03  0.10272027564E+04  0.50400001928E-02 0. -1.
       -1    1    3    3    0  502  0.87807217540E+03  0.42595862880E+03 -0.88063901435E+02  0.97990139781E+03  0.50400001928E-02 0.  1.
</event>
<event>
 5   0  0.2142551E-05  0.2006147E+04  0.7818609E-02  0.8603752E-01
        1   -1    0    0  501    0  0.00000000000E+00  0.00000000000E+00  0.15302063405E+04  0.15302063406E+04  0.50400001928E-02 0.  1.
       -1   -1    0    0    0  501  0.00000000000E+00  0.00000000000E+00 -0.65752961446E+03  0.65752961448E+03  0.50400001928E-02 0. -1.
    10030    2    1    2    0    0  0.00000000000E+00  0.00000000000E+00  0.87267672608E+03  0.21877359550E+04  0.20061465402E+04 0.  0.
        3    1    3    3  502    0 -0.43712650125E+03 -0.77568439076E+03 -0.67416681269E+02  0.89292265694E+03  0.10100000352E+00 0. -1.
       -3    1    3    3    0  502  0.43712650125E+03  0.77568439076E+03  0.94009340735E+03  0.12948132981E+04  0.10100000352E+00 0.  1.
</event>
<event>
 5   0  0.4473361E-05  0.1887184E+04  0.7818609E-02  0.8661262E-01
        2   -1    0    0  501    0  0.00000000000E+00  0.00000000000E+00  0.20728215031E+04  0.20728215031E+04  0.25500000920E-02 0. -1.
       -2   -1    0    0    0  501  0.00000000000E+00  0.00000000000E+00 -0.42954286853E+03  0.42954286854E+03  0.25500000920E-02 0.  1.
    10030    2    1    2    0    0  0.00000000000E+00  0.00000000000E+00  0.16432786345E+04  0.25023643716E+04  0.18871838219E+04 0.  0.
        2    1    3    3  502    0  0.93773446432E+03 -0.34993096037E+02  0.95287264777E+03  0.13373618528E+04  0.25500000920E-02 0. -1.
       -2    1    3    3    0  502 -0.93773446432E+03  0.34993096037E+02  0.69040598676E+03  0.11650025188E+04  0.25500000920E-02 0.  1.
</event>
<event>
 5   0  0.4412054E-05  0.1999516E+04  0.7818609E-02  0.8606847E-01
        2   -1    0    0  501    0  0.00000000000E+00  0.00000000000E+00  0.83846530911E+03  0.83846530911E+03  0.25500000920E-02 0. -1.
       -2   -1    0    0    0  501  0.00000000000E+00  0.00000000000E+00 -0.11920779521E+04  0.11920779521E+04  0.25500000920E-02 0.  1.
    10030    2    1    2    0    0  0.00000000000E+00  0.00000000000E+00 -0.35361264302E+03  0.20305432612E+04  0.19995159500E+04 0.  0.
        4    1    3    3  502    0  0.19903581843E+03  0.45794857099E+03 -0.10563770431E+04  0.11684460709E+04  0.12699999809E+01 0.  1.
       -4    1    3    3    0  502 -0.19903581843E+03 -0.45794857099E+03  0.70276440003E+03  0.86209719031E+03  0.12699999809E+01 0. -1.
</event>
<event>
 5   0  0.2256868E-05  0.1987524E+04  0.7818609E-02  0.8612476E-01
        1   -1    0    0  501    0  0.00000000000E+00  0.00000000000E+00  0.91894249999E+03  0.91894250000E+03  0.50400001928E-02 0.  1.
       -1   -1    0    0    0  501  0.00000000000E+00  0.00000000000E+00 -0.10746735024E+04  0.10746735025E+04  0.50400001928E-02 0. -1.
    10030    2    1    2    0    0  0.00000000000E+00  0.00000000000E+00 -0.15573100246E+03  0.19936160025E+04  0.19875242439E+04 0.  0.
        5    1    3    3  502    0  0.15712557329E+03 -0.81109091886E+03 -0.63181185014E+03  0.10400794337E+04  0.46999998093E+01 0. -1.
       -5    1    3    3    0  502 -0.15712557329E+03  0.81109091886E+03  0.47608084767E+03  0.95353656876E+03  0.46999998093E+01 0.  1.
</event>
<event>
 5   0  0.4412054E-05  0.2003318E+04  0.7818609E-02  0.8605071E-01
       -2   -1    0    0    0  501  0.00000000000E+00  0.00000000000E+00  0.84024009836E+03  0.84024009837E+03  0.25500000920E-02 0.  1.
        2   -1    0    0  501    0  0.00000000000E+00  0.00000000000E+00 -0.11940876266E+04  0.11940876266E+04  0.25500000920E-02 0. -1.
    10030    2    1    2    0    0  0.00000000000E+00  0.00000000000E+00 -0.35384752820E+03  0.20343277249E+04  0.20033175533E+04 0.  0.
        4    1    3    3  502    0 -0.42927033467E+03 -0.26348669075E+03  0.70228463904E+03  0.86423583793E+03  0.12699999809E+01 0.  1.
       -4    1    3    3    0  502  0.42927033467E+03  0.26348669075E+03 -0.10561321672E+04  0.11700918870E+04  0.12699999809E+01 0. -1.
</event>
<event>
 5   0  0.2093980E-05  0.1998604E+04  0.7818609E-02  0.8607274E-01
        1   -1    0    0  501    0  0.00000000000E+00  0.00000000000E+00  0.20196127279E+04  0.20196127279E+04  0.50400001928E-02 0. -1.
       -1   -1    0    0    0  501  0.00000000000E+00  0.00000000000E+00 -0.49445354844E+03  0.49445354847E+03  0.50400001928E-02 0.  1.
    10030    2    1    2    0    0  0.00000000000E+00  0.00000000000E+00  0.15251591794E+04  0.25140662764E+04  0.19986041928E+04 0.  0.
        2    1    3    3  502    0 -0.29615202181E+03  0.42963209074E+03  0.18346231022E+04  0.19073887072E+04  0.25500000920E-02 0. -1.
       -2    1    3    3    0  502  0.29615202181E+03 -0.42963209074E+03 -0.30946392273E+03  0.60667756913E+03  0.25500000920E-02 0.  1.
</event>
<event>
 5   0  0.4447313E-05  0.2003160E+04  0.7818609E-02  0.8605145E-01
       -2   -1    0    0    0  501  0.00000000000E+00  0.00000000000E+00  0.58756806701E+03  0.58756806702E+03  0.25500000920E-02 0. -1.
        2   -1    0    0  501    0  0.00000000000E+00  0.00000000000E+00 -0.17073122598E+04  0.17073122598E+04  0.25500000920E-02 0.  1.
    10030    2    1    2    0    0  0.00000000000E+00  0.00000000000E+00 -0.11197441928E+04  0.22948803268E+04  0.20031596684E+04 0.  0.
        5    1    3    3  502    0  0.44863460130E+03 -0.25332166308E+03 -0.15438445836E+04  0.16275512461E+04  0.46999998093E+01 0.  1.
       -5    1    3    3    0  502 -0.44863460130E+03  0.25332166308E+03  0.42410039080E+03  0.66732908070E+03  0.46999998093E+01 0. -1.
</event>
<event>
 5   0  0.2110896E-05  0.1998161E+04  0.7818609E-02  0.8607481E-01
        1   -1    0    0  501    0  0.00000000000E+00  0.00000000000E+00  0.13119953761E+04  0.13119953761E+04  0.50400001928E-02 0.  1.
       -1   -1    0    0    0  501  0.00000000000E+00  0.00000000000E+00 -0.76079688526E+03  0.76079688528E+03  0.50400001928E-02 0. -1.
    10030    2    1    2    0    0  0.00000000000E+00  0.00000000000E+00  0.55119849084E+03  0.20727922614E+04  0.19981611503E+04 0.  0.
        4    1    3    3  502    0  0.49438107035E+03 -0.44166262605E+03  0.10509666766E+04  0.12425824263E+04  0.12699999809E+01 0.  1.
       -4    1    3    3    0  502 -0.49438107035E+03  0.44166262605E+03 -0.49976818571E+03  0.83020983511E+03  0.12699999809E+01 0. -1.
</event>
<event>
 5   0  0.4514680E-05  0.1994607E+04  0.7818609E-02  0.8609146E-01
        2   -1    0    0  501    0  0.00000000000E+00  0.00000000000E+00  0.19977751867E+04  0.19977751867E+04  0.25500000920E-02 0.  1.
       -2   -1    0    0    0  501  0.00000000000E+00  0.00000000000E+00 -0.49786078156E+03  0.49786078157E+03  0.25500000920E-02 0. -1.
    10030    2    1    2    0    0  0.00000000000E+00  0.00000000000E+00  0.14999144051E+04  0.24956359683E+04  0.19946066438E+04 0.  0.
        3    1    3    3  502    0 -0.30126986224E+03 -0.18248264768E+03  0.19173605906E+04  0.19494448162E+04  0.10100000352E+00 0.  1.
       -3    1    3    3    0  502  0.30126986224E+03  0.18248264768E+03 -0.41744618552E+03  0.54619115207E+03  0.10100000352E+00 0. -1.
</event>
<event>
 5   0  0.1601500E-05  0.2004191E+04  0.7818609E-02  0.8604664E-01
        4   -1    0    0  501    0  0.00000000000E+00  0.00000000000E+00  0.60462725456E+03  0.60462858835E+03  0.12699999809E+01 0.  1.
       -4   -1    0    0    0  501  0.00000000000E+00  0.00000000000E+00 -0.16608473050E+04  0.16608477906E+04  0.12699999809E+01 0. -1.
    10030    2    1    2    0    0  0.00000000000E+00  0.00000000000E+00 -0.10562200505E+04  0.22654763789E+04  0.20041912156E+04 0.  0.
        3    1    3    3  502    0 -0.35111402581E+03 -0.35686928788E+03 -0.15093584469E+04  0.15902200097E+04  0.10100000352E+00 0. -1.
       -3    1    3    3    0  502  0.35111402581E+03  0.35686928788E+03  0.45313839641E+03  0.67525636928E+03  0.10100000352E+00 0.  1.
</event>
<event>
 5   0  0.4473361E-05  0.2009854E+04  0.7818609E-02  0.8602027E-01
        2   -1    0    0  501    0  0.00000000000E+00  0.00000000000E+00  0.52726445759E+03  0.52726445759E+03  0.25500000920E-02 0. -1.
       -2   -1    0    0    0  501  0.00000000000E+00  0.00000000000E+00 -0.19153167561E+04  0.19153167561E+04  0.25500000920E-02 0.  1.
    10030    2    1    2    0    0  0.00000000000E+00  0.00000000000E+00 -0.13880522985E+04  0.24425812137E+04  0.20098541743E+04 0.  0.
        2    1    3    3  502    0 -0.21945915662E+03  0.37803544969E+03 -0.17937275907E+04  0.18462209489E+04  0.25500000920E-02 0.  1.
       -2    1    3    3    0  502  0.21945915662E+03 -0.37803544969E+03  0.40567529221E+03  0.59636026474E+03  0.25500000920E-02 0. -1.
</event>
<event>
 5   0  0.1601500E-05  0.2008882E+04  0.7818609E-02  0.8602479E-01
        3   -1    0    0  501    0  0.00000000000E+00  0.00000000000E+00  0.94748166762E+03  0.94748167300E+03  0.10100000352E+00 0.  1.
       -3   -1    0    0    0  501  0.00000000000E+00  0.00000000000E+00 -0.10648245402E+04  0.10648245449E+04  0.10100000352E+00 0. -1.
    10030    2    1    2    0    0  0.00000000000E+00  0.00000000000E+00 -0.11734287254E+03  0.20123062180E+04  0.20088820187E+04 0.  0.
        4    1    3    3  502    0  0.82692467777E+03  0.11574282914E+03 -0.61792344590E+03  0.10387645658E+04  0.12699999809E+01 0. -1.
       -4    1    3    3    0  502 -0.82692467777E+03 -0.11574282914E+03  0.50058057336E+03  0.97354165218E+03  0.12699999809E+01 0.  1.
</event>
<event>
 5   0  0.4412054E-05  0.1974828E+04  0.7818609E-02  0.8618481E-01
       -2   -1    0    0    0  501  0.00000000000E+00  0.00000000000E+00  0.10299145477E+04  0.10299145477E+04  0.25500000920E-02 0.  1.
        2   -1    0    0  501    0  0.00000000000E+00  0.00000000000E+00 -0.94666682038E+03  0.94666682039E+03  0.25500000920E-02 0. -1.
    10030    2    1    2    0    0  0.00000000000E+00  0.00000000000E+00  0.83247727357E+02  0.19765813681E+04  0.19748275167E+04 0.  0.
        4    1    3    3  502    0  0.18147903570E+03  0.92978886746E+03  0.32033541932E+03  0.10000291857E+04  0.12699999809E+01 0.  1.
       -4    1    3    3    0  502 -0.18147903570E+03 -0.92978886746E+03 -0.23708769196E+03  0.97655218244E+03  0.12699999809E+01 0. -1.
</event>
<event>
 5   0  0.4447313E-05  0.1999450E+04  0.7818609E-02  0.8606878E-01
        2   -1    0    0  501    0  0.00000000000E+00  0.00000000000E+00  0.12758615369E+04  0.12758615369E+04  0.25500000920E-02 0.  1.
       -2   -1    0    0    0  501  0.00000000000E+00  0.00000000000E+00 -0.78335327912E+03  0.78335327912E+03  0.25500000920E-02 0. -1.
    10030    2    1    2    0    0  0.00000000000E+00  0.00000000000E+00  0.49250825776E+03  0.20592148160E+04  0.19994502431E+04 0.  0.
        5    1    3    3  502    0 -0.93788245753E+03  0.18365056166E+02  0.60222613714E+03  0.11147462445E+04  0.46999998093E+01 0.  1.
       -5    1    3    3    0  502  0.93788245753E+03 -0.18365056166E+02 -0.10971787939E+03  0.94446857147E+03  0.46999998093E+01 0. -1.
</event>
<event>
 5   0  0.2110896E-05  0.2002809E+04  0.7818609E-02  0.8605308E-01
        1   -1    0    0  501    0  0.00000000000E+00  0.00000000000E+00  0.10498504731E+04  0.10498504732E+04  0.50400001928E-02 0.  1.
       -1   -1    0    0    0  501  0.00000000000E+00  0.00000000000E+00 -0.95519408865E+03  0.95519408867E+03  0.50400001928E-02 0. -1.
    10030    2    1    2    0    0  0.00000000000E+00  0.00000000000E+00  0.94656384489E+02  0.20050445618E+04  0.20028089933E+04 0.  0.
        4    1    3    3  502    0  0.25603996641E+03 -0.56531506443E+03 -0.73947003285E+03  0.96537823098E+03  0.12699999809E+01 0. -1.
       -4    1    3    3    0  502 -0.25603996641E+03  0.56531506443E+03  0.83412641734E+03  0.10396663308E+04  0.12699999809E+01 0.  1.
</event>
<event>
 5   0  0.2093980E-05  0.1999287E+04  0.7818609E-02  0.8606954E-01
        1   -1    0    0  501    0  0.00000000000E+00  0.00000000000E+00  0.10797500181E+04  0.10797500181E+04  0.50400001928E-02 0. -1.
       -1   -1    0    0    0  501  0.00000000000E+00  0.00000000000E+00 -0.92547975287E+03  0.92547975288E+03  0.50400001928E-02 0.  1.
    10030    2    1    2    0    0  0.00000000000E+00  0.00000000000E+00  0.15427026518E+03  0.20052297709E+04  0.19992866527E+04 0.  0.
        2    1    3    3  502    0  0.24604356667E+03 -0.81626031304E+03  0.60067189554E+03  0.10428926414E+04  0.25500000920E-02 0. -1.
       -2    1    3    3    0  502 -0.24604356667E+03  0.81626031304E+03 -0.44640163036E+03  0.96233712957E+03  0.25500000920E-02 0.  1.
</event>
<event>
 5   0  0.4447313E-05  0.1980118E+04  0.7818609E-02  0.8615973E-01
       -2   -1    0    0    0  501  0.00000000000E+00  0.00000000000E+00  0.55211704004E+03  0.55211704004E+03  0.25500000920E-02 0. -1.
        2   -1    0    0  501    0  0.00000000000E+00  0.00000000000E+00 -0.17753786347E+04  0.17753786347E+04  0.25500000920E-02 0.  1.
    10030    2    1    2    0    0  0.00000000000E+00  0.00000000000E+00 -0.12232615947E+04  0.23274956748E+04  0.19801179730E+04 0.  0.
        5    1    3    3  502    0  0.61190159977E+03  0.54148649272E+03 -0.12687845003E+04  0.15091280223E+04  0.46999998093E+01 0.  1.
       -5    1    3    3    0  502 -0.61190159977E+03 -0.54148649272E+03  0.45522905627E+02  0.81836765242E+03  0.46999998093E+01 0. -1.
</event>
<event>
 5   0  0.2142551E-05  0.2139437E+04  0.7818609E-02  0.8544067E-01
        1   -1    0    0  501    0  0.00000000000E+00  0.00000000000E+00  0.15046113603E+04  0.15046113603E+04  0.50400001928E-02 0. -1.
       -1   -1    0    0    0  501  0.00000000000E+00  0.00000000000E+00 -0.76052709494E+03  0.76052709496E+03  0.50400001928E-02 0.  1.
    10030    2    1    2    0    0  0.00000000000E+00  0.00000000000E+00  0.74408426540E+03  0.22651384553E+04  0.21394370352E+04 0.  0.
        3    1    3    3  502    0  0.35760274788E+02  0.67367269591E+03  0.12509894325E+04  0.14212980929E+04  0.10100000352E+00 0. -1.
       -3    1    3    3    0  502 -0.35760274788E+02 -0.67367269591E+03 -0.50690516715E+03  0.84384036236E+03  0.10100000352E+00 0.  1.
</event>
<event>
 5   0  0.4577279E-05  0.2012128E+04  0.7818609E-02  0.8600971E-01
        2   -1    0    0  501    0  0.00000000000E+00  0.00000000000E+00  0.10581008530E+04  0.10581008530E+04  0.25500000920E-02 0.  1.
       -2   -1    0    0    0  501  0.00000000000E+00  0.00000000000E+00 -0.95658648691E+03  0.95658648692E+03  0.25500000920E-02 0. -1.
    10030    2    1    2    0    0  0.00000000000E+00  0.00000000000E+00  0.10151436613E+03  0.20146873400E+04  0.20121282045E+04 0.  0.
        1    1    3    3  502    0  0.86785156503E+02 -0.73219285397E+03  0.73611803228E+03  0.10418770543E+04  0.50400001928E-02 0.  1.
       -1    1    3    3    0  502 -0.86785156503E+02  0.73219285397E+03 -0.63460366615E+03  0.97281028567E+03  0.50400001928E-02 0. -1.
</event>
<event>
 5   0  0.2007644E-05  0.2001547E+04  0.7818609E-02  0.8605898E-01
       -1   -1    0    0    0  501  0.00000000000E+00  0.00000000000E+00  0.58798762359E+03  0.58798762361E+03  0.50400001928E-02 0.  1.
        1   -1    0    0  501    0  0.00000000000E+00  0.00000000000E+00 -0.17033473679E+04  0.17033473679E+04  0.50400001928E-02 0. -1.
    10030    2    1    2    0    0  0.00000000000E+00  0.00000000000E+00 -0.11153597443E+04  0.22913349915E+04  0.20015465730E+04 0.  0.
        1    1    3    3  502    0  0.58842932269E+03 -0.69644460763E+02  0.36559091841E+03  0.69624430940E+03  0.50400001928E-02 0.  1.
       -1    1    3    3    0  502 -0.58842932269E+03  0.69644460763E+02 -0.14809506627E+04  0.15950906821E+04  0.50400001928E-02 0. -1.
</event>
<event>
 5   0  0.4577279E-05  0.1998869E+04  0.7818609E-02  0.8607150E-01
        2   -1    0    0  501    0  0.00000000000E+00  0.00000000000E+00  0.24079311805E+04  0.24079311805E+04  0.25500000920E-02 0. -1.
       -2   -1    0    0    0  501  0.00000000000E+00  0.00000000000E+00 -0.41482476621E+03  0.41482476622E+03  0.25500000920E-02 0.  1.
    10030    2    1    2    0    0  0.00000000000E+00  0.00000000000E+00  0.19931064143E+04  0.28227559467E+04  0.19988691693E+04 0.  0.
        1    1    3    3  502    0 -0.40226366793E+03  0.88297329602E+03  0.13349207868E+04  0.16502943395E+04  0.50400001928E-02 0.  1.
       -1    1    3    3    0  502  0.40226366793E+03 -0.88297329602E+03  0.65818562744E+03  0.11724616071E+04  0.50400001928E-02 0. -1.
</event>
<event>
 5   0  0.4577279E-05  0.1997928E+04  0.7818609E-02  0.8607590E-01
        2   -1    0    0  501    0  0.00000000000E+00  0.00000000000E+00  0.18360632101E+04  0.18360632101E+04  0.25500000920E-02 0.  1.
       -2   -1    0    0    0  501  0.00000000000E+00  0.00000000000E+00 -0.54351589517E+03  0.54351589517E+03  0.25500000920E-02 0. -1.
    10030    2    1    2    0    0  0.00000000000E+00  0.00000000000E+00  0.12925473149E+04  0.23795791053E+04  0.19979284664E+04 0.  0.
        1    1    3    3  502    0 -0.81870652954E+03  0.51763051348E+03  0.35524498369E+03  0.10317076759E+04  0.50400001928E-02 0.  1.
       -1    1    3    3    0  502  0.81870652954E+03 -0.51763051348E+03  0.93730233123E+03  0.13478714294E+04  0.50400001928E-02 0. -1.
</event>
<event>
 5   0  0.4447313E-05  0.2007690E+04  0.7818609E-02  0.8603034E-01
       -2   -1    0    0    0  501  0.00000000000E+00  0.00000000000E+00  0.11880346750E+04  0.11880346750E+04  0.25500000920E-02 0.  1.
        2   -1    0    0  501    0  0.00000000000E+00  0.00000000000E+00 -0.84821173634E+03  0.84821173635E+03  0.25500000920E-02 0. -1.
    10030    2    1    2    0    0  0.00000000000E+00  0.00000000000E+00  0.33982293862E+03  0.20362464113E+04  0.20076901698E+04 0.  0.
        5    1    3    3  502    0  0.68816903945E+03 -0.69959974726E+03  0.38426185375E+03  0.10538954860E+04  0.46999998093E+01 0.  1.
       -5    1    3    3    0  502 -0.68816903945E+03  0.69959974726E+03 -0.44438915129E+02  0.98235092528E+03  0.46999998093E+01 0. -1.
</event>
<event>
 5   0  0.4514680E-05  0.1995278E+04  0.7818609E-02  0.8608831E-01
        2   -1    0    0  501    0  0.00000000000E+00  0.00000000000E+00  0.90016975604E+03  0.90016975604E+03  0.25500000920E-02 0.  1.
       -2   -1    0    0    0  501  0.00000000000E+00  0.00000000000E+00 -0.11056626156E+04  0.11056626156E+04  0.25500000920E-02 0. -1.
    10030    2    1    2    0    0  0.00000000000E+00  0.00000000000E+00 -0.20549285958E+03  0.20058323717E+04  0.19952784738E+04 0.  0.
        3    1    3    3  502    0  0.69381286012E+03  0.62733848356E+03  0.24600958478E+03  0.96718694357E+03  0.10100000352E+00 0. -1.
       -3    1    3    3    0  502 -0.69381286012E+03 -0.62733848356E+03 -0.45150244436E+03  0.10386454281E+04  0.10100000352E+00 0.  1.
</event>
<event>
 5   0  0.2093980E-05  0.1992413E+04  0.7818609E-02  0.8610176E-01
       -1   -1    0    0    0  501  0.00000000000E+00  0.00000000000E+00  0.94752030776E+03  0.94752030777E+03  0.50400001928E-02 0.  1.
        1   -1    0    0  501    0  0.00000000000E+00  0.00000000000E+00 -0.10473947074E+04  0.10473947074E+04  0.50400001928E-02 0. -1.
    10030    2    1    2    0    0  0.00000000000E+00  0.00000000000E+00 -0.99874399665E+02  0.19949150152E+04  0.19924133663E+04 0.  0.
        2    1    3    3  502    0 -0.53872420287E+03 -0.52401756045E+03 -0.70467688977E+03  0.10302367152E+04  0.25500000920E-02 0. -1.
       -2    1    3    3    0  502  0.53872420287E+03  0.52401756045E+03  0.60480249011E+03  0.96467829999E+03  0.25500000920E-02 0.  1.
</event>
<event>
 5   0  0.2142551E-05  0.2024389E+04  0.7818609E-02  0.8595302E-01
        1   -1    0    0  501    0  0.00000000000E+00  0.00000000000E+00  0.77651183132E+03  0.77651183134E+03  0.50400001928E-02 0. -1.
       -1   -1    0    0    0  501  0.00000000000E+00  0.00000000000E+00 -0.13194100867E+04  0.13194100867E+04  0.50400001928E-02 0.  1.
    10030    2    1    2    0    0  0.00000000000E+00  0.00000000000E+00 -0.54289825538E+03  0.20959219180E+04  0.20243888389E+04 0.  0.
        3    1    3    3  502    0  0.82543588475E+03  0.24037541109E+03 -0.82456724495E+03  0.11912329284E+04  0.10100000352E+00 0.  1.
       -3    1    3    3    0  502 -0.82543588475E+03 -0.24037541109E+03  0.28166898958E+03  0.90468898964E+03  0.10100000352E+00 0. -1.
</event>
<event>
 5   0  0.1601500E-05  0.1998451E+04  0.7818609E-02  0.8607345E-01
       -3   -1    0    0    0  501  0.00000000000E+00  0.00000000000E+00  0.13217622007E+04  0.13217622045E+04  0.10100000352E+00 0.  1.
        3   -1    0    0  501    0  0.00000000000E+00  0.00000000000E+00 -0.75539422081E+03  0.75539422756E+03  0.10100000352E+00 0. -1.
    10030    2    1    2    0    0  0.00000000000E+00  0.00000000000E+00  0.56636797986E+03  0.20771564321E+04  0.19984509388E+04 0.  0.
        3    1    3    3  502    0  0.40179231489E+03 -0.73120760095E+02  0.12310581021E+04  0.12970303662E+04  0.10100000352E+00 0.  1.
       -3    1    3    3    0  502 -0.40179231489E+03  0.73120760095E+02 -0.66469012225E+03  0.78012606589E+03  0.10100000352E+00 0. -1.
</event>
<event>
 5   0  0.2093980E-05  0.1997784E+04  0.7818609E-02  0.8607657E-01
       -1   -1    0    0    0  501  0.00000000000E+00  0.00000000000E+00  0.85123869406E+03  0.85123869407E+03  0.50400001928E-02 0. -1.
        1   -1    0    0  501    0  0.00000000000E+00  0.00000000000E+00 -0.11721570881E+04  0.11721570881E+04  0.50400001928E-02 0.  1.
    10030    2    1    2    0    0  0.00000000000E+00  0.00000000000E+00 -0.32091839402E+03  0.20233957822E+04  0.19977842415E+04 0.  0.
        2    1    3    3  502    0  0.73762001334E+03  0.21917360939E+03 -0.80554292597E+03  0.11140106646E+04  0.25500000920E-02 0.  1.
       -2    1    3    3    0  502 -0.73762001334E+03 -0.21917360939E+03  0.48462453196E+03  0.90938511760E+03  0.25500000920E-02 0. -1.
</event>
<event>
 5   0  0.2007644E-05  0.2080986E+04  0.7818609E-02  0.8569666E-01
        1   -1    0    0  501    0  0.00000000000E+00  0.00000000000E+00  0.16958272553E+04  0.16958272553E+04  0.50400001928E-02 0. -1.
       -1   -1    0    0    0  501  0.00000000000E+00  0.00000000000E+00 -0.63840558633E+03  0.63840558635E+03  0.50400001928E-02 0.  1.
    10030    2    1    2    0    0  0.00000000000E+00  0.00000000000E+00  0.10574216690E+04  0.23342328417E+04  0.20809859137E+04 0.  0.
        1    1    3    3  502    0 -0.92063223074E+03  0.48316041142E+03  0.48359264635E+03  0.11466776073E+04  0.50400001928E-02 0.  1.
       -1    1    3    3    0  502  0.92063223074E+03 -0.48316041142E+03  0.57382902262E+03  0.11875552344E+04  0.50400001928E-02 0. -1.
</event>
<event>
 5   0  0.4412054E-05  0.2003143E+04  0.7818609E-02  0.8605153E-01
       -2   -1    0    0    0  501  0.00000000000E+00  0.00000000000E+00  0.99421443412E+03  0.99421443412E+03  0.25500000920E-02 0. -1.
        2   -1    0    0  501    0  0.00000000000E+00  0.00000000000E+00 -0.10089825865E+04  0.10089825865E+04  0.25500000920E-02 0.  1.
    10030    2    1    2    0    0  0.00000000000E+00  0.00000000000E+00 -0.14768152349E+02  0.20031970206E+04  0.20031425823E+04 0.  0.
        4    1    3    3  502    0 -0.57417092937E+03 -0.26557729726E+03 -0.78389721410E+03  0.10073231915E+04  0.12699999809E+01 0.  1.
       -4    1    3    3    0  502  0.57417092937E+03  0.26557729726E+03  0.76912906175E+03  0.99587382909E+03  0.12699999809E+01 0. -1.
</event>
<event>
 5   0  0.2142551E-05  0.1995145E+04  0.7818609E-02  0.8608894E-01
       -1   -1    0    0    0  501  0.00000000000E+00  0.00000000000E+00  0.11512178926E+04  0.11512178926E+04  0.50400001928E-02 0.  1.
        1   -1    0    0  501    0  0.00000000000E+00  0.00000000000E+00 -0.86443299441E+03  0.86443299443E+03  0.50400001928E-02 0. -1.
    10030    2    1    2    0    0  0.00000000000E+00  0.00000000000E+00  0.28678489815E+03  0.20156508870E+04  0.19951448370E+04 0.  0.
        3    1    3    3  502    0 -0.40122418693E+03  0.46157742706E+03 -0.65281694336E+03  0.89454152564E+03  0.10100000352E+00 0. -1.
       -3    1    3    3    0  502  0.40122418693E+03 -0.46157742706E+03  0.93960184152E+03  0.11211093614E+04  0.10100000352E+00 0.  1.
</event>
<event>
 5   0  0.4473361E-05  0.1999523E+04  0.7818609E-02  0.8606844E-01
       -2   -1    0    0    0  501  0.00000000000E+00  0.00000000000E+00  0.59372675203E+03  0.59372675203E+03  0.25500000920E-02 0.  1.
        2   -1    0    0  501    0  0.00000000000E+00  0.00000000000E+00 -0.16834735772E+04  0.16834735772E+04  0.25500000920E-02 0. -1.
    10030    2    1    2    0    0  0.00000000000E+00  0.00000000000E+00 -0.10897468252E+04  0.22772003292E+04  0.19995232423E+04 0.  0.
        2    1    3    3  502    0 -0.43675532895E+03  0.58176444584E+03  0.23616191637E+03  0.76483824339E+03  0.25500000920E-02 0.  1.
       -2    1    3    3    0  502  0.43675532895E+03 -0.58176444584E+03 -0.13259087415E+04  0.15123620858E+04  0.25500000920E-02 0. -1.
</event>
<event>
 5   0  0.2256868E-05  0.1998796E+04  0.7818609E-02  0.8607184E-01
       -1   -1    0    0    0  501  0.00000000000E+00  0.00000000000E+00  0.99104485254E+03  0.99104485256E+03  0.50400001928E-02 0.  1.
        1   -1    0    0  501    0  0.00000000000E+00  0.00000000000E+00 -0.10078215933E+04  0.10078215933E+04  0.50400001928E-02 0. -1.
    10030    2    1    2    0    0  0.00000000000E+00  0.00000000000E+00 -0.16776740714E+02  0.19988664458E+04  0.19987960399E+04 0.  0.
        5    1    3    3  502    0  0.50466797270E+03  0.21854169502E+03  0.82610137367E+03  0.99242924419E+03  0.46999998093E+01 0.  1.
       -5    1    3    3    0  502 -0.50466797270E+03 -0.21854169502E+03 -0.84287811439E+03  0.10064372016E+04  0.46999998093E+01 0. -1.
</event>
<event>
 5   0  0.4412054E-05  0.2001481E+04  0.7818609E-02  0.8605929E-01
        2   -1    0    0  501    0  0.00000000000E+00  0.00000000000E+00  0.13321235160E+04  0.13321235160E+04  0.25500000920E-02 0. -1.
       -2   -1    0    0    0  501  0.00000000000E+00  0.00000000000E+00 -0.75179333736E+03  0.75179333737E+03  0.25500000920E-02 0.  1.
    10030    2    1    2    0    0  0.00000000000E+00  0.00000000000E+00  0.58033017865E+03  0.20839168534E+04  0.20014810355E+04 0.  0.
        4    1    3    3  502    0  0.42667248917E+03  0.68241078991E+03  0.90942750202E+03  0.12144109245E+04  0.12699999809E+01 0. -1.
       -4    1    3    3    0  502 -0.42667248917E+03 -0.68241078991E+03 -0.32909732337E+03  0.86950592888E+03  0.12699999809E+01 0.  1.
</event>
<event>
 5   0  0.4577279E-05  0.2027338E+04  0.7818609E-02  0.8593945E-01
       -2   -1    0    0    0  501  0.00000000000E+00  0.00000000000E+00  0.40909968243E+03  0.40909968244E+03  0.25500000920E-02 0.  1.
        2   -1    0    0  501    0  0.00000000000E+00  0.00000000000E+00 -0.25116723777E+04  0.25116723777E+04  0.25500000920E-02 0. -1.
    10030    2    1    2    0    0  0.00000000000E+00  0.00000000000E+00 -0.21025726952E+04  0.29207720601E+04  0.20273375369E+04 0.  0.
        1    1    3    3  502    0  0.82282218610E+03  0.37403542956E+03 -0.39015788251E+03  0.98446027133E+03  0.50400001928E-02 0.  1.
       -1    1    3    3    0  502 -0.82282218610E+03 -0.37403542956E+03 -0.17124148127E+04  0.19363117888E+04  0.50400001928E-02 0. -1.
</event>
<event>
 5   0  0.4577279E-05  0.2000132E+04  0.7818609E-02  0.8606559E-01
        2   -1    0    0  501    0  0.00000000000E+00  0.00000000000E+00  0.11514604329E+04  0.11514604329E+04  0.25500000920E-02 0.  1.
       -2   -1    0    0    0  501  0.00000000000E+00  0.00000000000E+00 -0.86857654794E+03  0.86857654795E+03  0.25500000920E-02 0. -1.
    10030    2    1    2    0    0  0.00000000000E+00  0.00000000000E+00  0.28288388494E+03  0.20200369808E+04  0.20001315236E+04 0.  0.
        1    1    3    3  502    0 -0.10428750275E+03  0.39972635526E+03  0.10612607415E+04  0.11388289616E+04  0.50400001928E-02 0.  1.
       -1    1    3    3    0  502  0.10428750275E+03 -0.39972635526E+03 -0.77837685655E+03  0.88120801923E+03  0.50400001928E-02 0. -1.
</event>
<event>
 5   0  0.2110896E-05  0.1991782E+04  0.7818609E-02  0.8610473E-01
        1   -1    0    0  501    0  0.00000000000E+00  0.00000000000E+00  0.14462318851E+04  0.14462318851E+04  0.50400001928E-02 0.  1.
       -1   -1    0    0    0  501  0.00000000000E+00  0.00000000000E+00 -0.68578120201E+03  0.68578120203E+03  0.50400001928E-02 0. -1.
    10030    2    1    2    0    0  0.00000000000E+00  0.00000000000E+00  0.76045068308E+03  0.21320130871E+04  0.19917817557E+04 0.  0.
        4    1    3    3  502    0 -0.17655683006E+02 -0.95512949318E+03  0.68148863929E+03  0.11734617379E+04  0.12699999809E+01 0.  1.
       -4    1    3    3    0  502  0.17655683006E+02  0.95512949318E+03  0.78962043791E+02  0.95855134925E+03  0.12699999809E+01 0. -1.
</event>
<event>
 5   0  0.4412054E-05  0.2010168E+04  0.7818609E-02  0.8601882E-01
       -2   -1    0    0    0  501  0.00000000000E+00  0.00000000000E+00  0.81517793640E+03  0.81517793641E+03  0.25500000920E-02 0. -1.
        2   -1    0    0  501    0  0.00000000000E+00  0.00000000000E+00 -0.12392308245E+04  0.12392308245E+04  0.25500000920E-02 0.  1.
    10030    2    1    2    0    0  0.00000000000E+00  0.00000000000E+00 -0.42405288805E+03  0.20544087609E+04  0.20101677803E+04 0.  0.
        4    1    3    3  502    0  0.33639289009E+03  0.39747894045E+03  0.66656952704E+03  0.84585237003E+03  0.12699999809E+01 0. -1.
       -4    1    3    3    0  502 -0.33639289009E+03 -0.39747894045E+03 -0.10906224151E+04  0.12085563908E+04  0.12699999809E+01 0.  1.
</event>
<event>
 5   0  0.4412054E-05  0.2005531E+04  0.7818609E-02  0.8604039E-01
        2   -1    0    0  501    0  0.00000000000E+00  0.00000000000E+00  0.96344035005E+03  0.96344035005E+03  0.25500000920E-02 0.  1.
       -2   -1    0    0    0  501  0.00000000000E+00  0.00000000000E+00 -0.10436962232E+04  0.10436962232E+04  0.25500000920E-02 0. -1.
    10030    2    1    2    0    0  0.00000000000E+00  0.00000000000E+00 -0.80255873162E+02  0.20071365733E+04  0.20055314055E+04 0.  0.
        4    1    3    3  502    0  0.63374270353E+03 -0.74762990630E+03 -0.25232865337E+03  0.10120531870E+04  0.12699999809E+01 0.  1.
       -4    1    3    3    0  502 -0.63374270353E+03  0.74762990630E+03  0.17207278021E+03  0.99508338629E+03  0.12699999809E+01 0. -1.
</event>
<event>
 5   0  0.2093980E-05  0.2001260E+04  0.7818609E-02  0.8606032E-01
        1   -1    0    0  501    0  0.00000000000E+00  0.00000000000E+00  0.11422269685E+04  0.11422269686E+04  0.50400001928E-02 0.  1.
       -1   -1    0    0    0  501  0.00000000000E+00  0.00000000000E+00 -0.87658638632E+03  0.87658638634E+03  0.50400001928E-02 0. -1.
    10030    2    1    2    0    0  0.00000000000E+00  0.00000000000E+00  0.26564058223E+03  0.20188133549E+04  0.20012602137E+04 0.  0.
        2    1    3    3  502    0 -0.20301435148E+03 -0.13548904724E+03 -0.84609754483E+03  0.88059818544E+03  0.25500000920E-02 0. -1.
       -2    1    3    3    0  502  0.20301435148E+03  0.13548904724E+03  0.11117381271E+04  0.11382151695E+04  0.25500000920E-02 0.  1.
</event>
<event>
 5   0  0.4412054E-05  0.2013891E+04  0.7818609E-02  0.8600154E-01
        2   -1    0    0  501    0  0.00000000000E+00  0.00000000000E+00  0.17146540485E+04  0.17146540485E+04  0.25500000920E-02 0. -1.
       -2   -1    0    0    0  501  0.00000000000E+00  0.00000000000E+00 -0.59133740759E+03  0.59133740760E+03  0.25500000920E-02 0.  1.
    10030    2    1    2    0    0  0.00000000000E+00  0.00000000000E+00  0.11233166409E+04  0.23059914561E+04  0.20138908411E+04 0.  0.
        4    1    3    3  502    0 -0.18153414706E+03 -0.95730442518E+03  0.85257823387E+03  0.12947114222E+04  0.12699999809E+01 0. -1.
       -4    1    3    3    0  502  0.18153414706E+03  0.95730442518E+03  0.27073840705E+03  0.10112800339E+04  0.12699999809E+01 0.  1.
</event>
<event>
 5   0  0.2142551E-05  0.1999687E+04  0.7818609E-02  0.8606767E-01
       -1   -1    0    0    0  501  0.00000000000E+00  0.00000000000E+00  0.12927540484E+04  0.12927540484E+04  0.50400001928E-02 0. -1.
        1   -1    0    0  501    0  0.00000000000E+00  0.00000000000E+00 -0.77330003670E+03  0.77330003671E+03  0.50400001928E-02 0.  1.
    10030    2    1    2    0    0  0.00000000000E+00  0.00000000000E+00  0.51945401166E+03  0.20660540851E+04  0.19996867285E+04 0.  0.
        3    1    3    3  502    0  0.14346268253E+03  0.22443333043E+03 -0.73596633044E+03  0.78268659809E+03  0.10100000352E+00 0.  1.
       -3    1    3    3    0  502 -0.14346268253E+03 -0.22443333043E+03  0.12554203421E+04  0.12833674870E+04  0.10100000352E+00 0. -1.
</event>
<event>
 5   0  0.2256868E-05  0.1997385E+04  0.7818609E-02  0.8607844E-01
       -1   -1    0    0    0  501  0.00000000000E+00  0.00000000000E+00  0.83543012155E+03  0.83543012157E+03  0.50400001928E-02 0.  1.
        1   -1    0    0  501    0  0.00000000000E+00  0.00000000000E+00 -0.11938605378E+04  0.11938605378E+04  0.50400001928E-02 0. -1.
    10030    2    1    2    0    0  0.00000000000E+00  0.00000000000E+00 -0.35843041622E+03  0.20292906594E+04  0.19973853451E+04 0.  0.
        5    1    3    3  502    0  0.27772587178E+03  0.44749134593E+03 -0.10412882435E+04  0.11669119335E+04  0.46999998093E+01 0. -1.
       -5    1    3    3    0  502 -0.27772587178E+03 -0.44749134593E+03  0.68285782727E+03  0.86237872585E+03  0.46999998093E+01 0.  1.
</event>
<event>
 5   0  0.2256868E-05  0.2001001E+04  0.7818609E-02  0.8606153E-01
        1   -1    0    0  501    0  0.00000000000E+00  0.00000000000E+00  0.20557866435E+04  0.20557866435E+04  0.50400001928E-02 0. -1.
       -1   -1    0    0    0  501  0.00000000000E+00  0.00000000000E+00 -0.48691882536E+03  0.48691882538E+03  0.50400001928E-02 0.  1.
    10030    2    1    2    0    0  0.00000000000E+00  0.00000000000E+00  0.15688678181E+04  0.25427054688E+04  0.20010009672E+04 0.  0.
        5    1    3    3  502    0  0.78718867584E+03 -0.53365316834E+03  0.38963668508E+03  0.10277599680E+04  0.46999998093E+01 0.  1.
       -5    1    3    3    0  502 -0.78718867584E+03  0.53365316834E+03  0.11792311330E+04  0.15149455008E+04  0.46999998093E+01 0. -1.
</event>
<event>
 5   0  0.2093980E-05  0.1997965E+04  0.7818609E-02  0.8607573E-01
        1   -1    0    0  501    0  0.00000000000E+00  0.00000000000E+00  0.19058094201E+04  0.19058094201E+04  0.50400001928E-02 0. -1.
       -1   -1    0    0    0  501  0.00000000000E+00  0.00000000000E+00 -0.52364432019E+03  0.52364432021E+03  0.50400001928E-02 0.  1.
    10030    2    1    2    0    0  0.00000000000E+00  0.00000000000E+00  0.13821650999E+04  0.24294537403E+04  0.19979652431E+04 0.  0.
        2    1    3    3  502    0 -0.13121514374E+03 -0.31724300135E+03  0.18318263902E+04  0.18637189863E+04  0.25500000920E-02 0. -1.
       -2    1    3    3    0  502  0.13121514374E+03  0.31724300135E+03 -0.44966129035E+03  0.56573475401E+03  0.25500000920E-02 0.  1.
</event>
<event>
 5   0  0.4514680E-05  0.2116822E+04  0.7818609E-02  0.8553869E-01
        2   -1    0    0  501    0  0.00000000000E+00  0.00000000000E+00  0.99578257086E+03  0.99578257087E+03  0.25500000920E-02 0. -1.
       -2   -1    0    0    0  501  0.00000000000E+00  0.00000000000E+00 -0.11249785103E+04  0.11249785103E+04  0.25500000920E-02 0.  1.
    10030    2    1    2    0    0  0.00000000000E+00  0.00000000000E+00 -0.12919593939E+03  0.21207610811E+04  0.21168221400E+04 0.  0.
        3    1    3    3  502    0  0.10411172897E+04 -0.13227195717E+03  0.72817385710E+02  0.10520092506E+04  0.10100000352E+00 0. -1.
       -3    1    3    3    0  502 -0.10411172897E+04  0.13227195717E+03 -0.20201332510E+03  0.10687518305E+04  0.10100000352E+00 0.  1.
</event>
<event>
 5   0  0.4447313E-05  0.2040336E+04  0.7818609E-02  0.8587991E-01
        2   -1    0    0  501    0  0.00000000000E+00  0.00000000000E+00  0.15161623907E+04  0.15161623907E+04  0.25500000920E-02 0.  1.
       -2   -1    0    0    0  501  0.00000000000E+00  0.00000000000E+00 -0.68643247966E+03  0.68643247967E+03  0.25500000920E-02 0. -1.
    10030    2    1    2    0    0  0.00000000000E+00  0.00000000000E+00  0.82972991104E+03  0.22025948704E+04  0.20403363541E+04 0.  0.
        5    1    3    3  502    0  0.40479371501E+02 -0.20515315250E+03 -0.66303701025E+03  0.69524568496E+03  0.46999998093E+01 0. -1.
       -5    1    3    3    0  502 -0.40479371501E+02  0.20515315250E+03  0.14927669213E+04  0.15073491854E+04  0.46999998093E+01 0.  1.
</event>
<event>
 5   0  0.4473361E-05  0.2010098E+04  0.7818609E-02  0.8601914E-01
       -2   -1    0    0    0  501  0.00000000000E+00  0.00000000000E+00  0.51743809209E+03  0.51743809210E+03  0.25500000920E-02 0. -1.
        2   -1    0    0  501    0  0.00000000000E+00  0.00000000000E+00 -0.19521637955E+04  0.19521637955E+04  0.25500000920E-02 0.  1.
    10030    2    1    2    0    0  0.00000000000E+00  0.00000000000E+00 -0.14347257034E+04  0.24696018876E+04  0.20100984153E+04 0.  0.
        2    1    3    3  502    0 -0.82448730539E+03  0.57281216978E+03 -0.77539131065E+03  0.12685128234E+04  0.25500000920E-02 0. -1.
       -2    1    3    3    0  502  0.82448730539E+03 -0.57281216978E+03 -0.65933439280E+03  0.12010890642E+04  0.25500000920E-02 0.  1.
</event>
<event>
 5   0  0.2093980E-05  0.2003401E+04  0.7818609E-02  0.8605032E-01
       -1   -1    0    0    0  501  0.00000000000E+00  0.00000000000E+00  0.54222821578E+03  0.54222821580E+03  0.50400001928E-02 0. -1.
        1   -1    0    0  501    0  0.00000000000E+00  0.00000000000E+00 -0.18505191636E+04  0.18505191636E+04  0.50400001928E-02 0.  1.
    10030    2    1    2    0    0  0.00000000000E+00  0.00000000000E+00 -0.13082909478E+04  0.23927473794E+04  0.20034008130E+04 0.  0.
        2    1    3    3  502    0  0.42189119016E+03  0.88083126785E+03 -0.38829268771E+03  0.10510124215E+04  0.25500000920E-02 0. -1.
       -2    1    3    3    0  502 -0.42189119016E+03 -0.88083126785E+03 -0.91999826013E+03  0.13417349580E+04  0.25500000920E-02 0.  1.
</event>
<event>
 5   0  0.4577279E-05  0.2007281E+04  0.7818609E-02  0.8603224E-01
        2   -1    0    0  501    0  0.00000000000E+00  0.00000000000E+00  0.70503745837E+03  0.70503745838E+03  0.25500000920E-02 0. -1.
       -2   -1    0    0    0  501  0.00000000000E+00  0.00000000000E+00 -0.14287104584E+04  0.14287104584E+04  0.25500000920E-02 0.  1.
    10030    2    1    2    0    0  0.00000000000E+00  0.00000000000E+00 -0.72367300006E+03  0.21337479168E+04  0.20072811366E+04 0.  0.
        1    1    3    3  502    0  0.91208937607E+03 -0.39814553092E+03 -0.49989406930E+03  0.11136969849E+04  0.50400001928E-02 0.  1.
       -1    1    3    3    0  502 -0.91208937607E+03  0.39814553092E+03 -0.22377893076E+03  0.10200509319E+04  0.50400001928E-02 0. -1.
</event>
<event>
 5   0  0.1601500E-05  0.1998750E+04  0.7818609E-02  0.8607205E-01
       -3   -1    0    0    0  501  0.00000000000E+00  0.00000000000E+00  0.89729356274E+03  0.89729356843E+03  0.10100000352E+00 0. -1.
        3   -1    0    0  501    0  0.00000000000E+00  0.00000000000E+00 -0.11130697850E+04  0.11130697895E+04  0.10100000352E+00 0.  1.
    10030    2    1    2    0    0  0.00000000000E+00  0.00000000000E+00 -0.21577622221E+03  0.20103633580E+04  0.19987499726E+04 0.  0.
        5    1    3    3  502    0  0.44128869613E+03  0.23959997413E+02  0.79365603392E+03  0.90841718664E+03  0.46999998093E+01 0. -1.
       -5    1    3    3    0  502 -0.44128869613E+03 -0.23959997413E+02 -0.10094322561E+04  0.11019461713E+04  0.46999998093E+01 0.  1.
</event>
<event>
 5   0  0.2093980E-05  0.1999862E+04  0.7818609E-02  0.8606685E-01
       -1   -1    0    0    0  501  0.00000000000E+00  0.00000000000E+00  0.43355289041E+03  0.43355289044E+03  0.50400001928E-02 0.  1.
        1   -1    0    0  501    0  0.00000000000E+00  0.00000000000E+00 -0.23062055940E+04  0.23062055941E+04  0.50400001928E-02 0. -1.
    10030    2    1    2    0    0  0.00000000000E+00  0.00000000000E+00 -0.18726527036E+04  0.27397584845E+04  0.19998620965E+04 0.  0.
        2    1    3    3  502    0  0.35509257298E+03  0.22612734509E+03  0.30623133168E+03  0.52057846680E+03  0.25500000920E-02 0.  1.
       -2    1    3    3    0  502 -0.35509257298E+03 -0.22612734509E+03 -0.21788840353E+04  0.22191800177E+04  0.25500000920E-02 0. -1.
</event>
<event>
 5   0  0.2007644E-05  0.1991049E+04  0.7818609E-02  0.8610817E-01
       -1   -1    0    0    0  501  0.00000000000E+00  0.00000000000E+00  0.93818952735E+03  0.93818952736E+03  0.50400001928E-02 0. -1.
        1   -1    0    0  501    0  0.00000000000E+00  0.00000000000E+00 -0.10563634785E+04  0.10563634785E+04  0.50400001928E-02 0.  1.
    10030    2    1    2    0    0  0.00000000000E+00  0.00000000000E+00 -0.11817395117E+03  0.19945530059E+04  0.19910491231E+04 0.  0.
        1    1    3    3  502    0 -0.78625518581E+03 -0.15254879409E+03 -0.65139800085E+03  0.10323699469E+04  0.50400001928E-02 0.  1.
       -1    1    3    3    0  502  0.78625518581E+03  0.15254879409E+03  0.53322404968E+03  0.96218305897E+03  0.50400001928E-02 0. -1.
</event>
<event>
 5   0  0.2142551E-05  0.1993004E+04  0.7818609E-02  0.8609898E-01
       -1   -1    0    0    0  501  0.00000000000E+00  0.00000000000E+00  0.11997590761E+04  0.11997590761E+04  0.50400001928E-02 0.  1.
        1   -1    0    0  501    0  0.00000000000E+00  0.00000000000E+00 -0.82768005214E+03  0.82768005215E+03  0.50400001928E-02 0. -1.
    10030    2    1    2    0    0  0.00000000000E+00  0.00000000000E+00  0.37207902400E+03  0.20274391283E+04  0.19930044202E+04 0.  0.
        3    1    3    3  502    0  0.89975976107E+03  0.80851048596E+01 -0.24959258006E+03  0.93377163310E+03  0.10100000352E+00 0. -1.
       -3    1    3    3    0  502 -0.89975976107E+03 -0.80851048596E+01  0.62167160406E+03  0.10936674952E+04  0.10100000352E+00 0.  1.
</event>
<event>
 5   0  0.2093980E-05  0.2000121E+04  0.7818609E-02  0.8606564E-01
        1   -1    0    0  501    0  0.00000000000E+00  0.00000000000E+00  0.79557557553E+03  0.79557557554E+03  0.50400001928E-02 0. -1.
       -1   -1    0    0    0  501  0.00000000000E+00  0.00000000000E+00 -0.12571042957E+04  0.12571042957E+04  0.50400001928E-02 0.  1.
    10030    2    1    2    0    0  0.00000000000E+00  0.00000000000E+00 -0.46152872016E+03  0.20526798712E+04  0.20001214699E+04 0.  0.
        2    1    3    3  502    0 -0.66335372662E+03  0.66113867682E+03  0.12913432051E+03  0.94541958376E+03  0.25500000920E-02 0. -1.
       -2    1    3    3    0  502  0.66335372662E+03 -0.66113867682E+03 -0.59066304067E+03  0.11072602875E+04  0.25500000920E-02 0.  1.
</event>
<event>
 5   0  0.2142551E-05  0.1996353E+04  0.7818609E-02  0.8608328E-01
       -1   -1    0    0    0  501  0.00000000000E+00  0.00000000000E+00  0.10466030732E+04  0.10466030732E+04  0.50400001928E-02 0. -1.
        1   -1    0    0  501    0  0.00000000000E+00  0.00000000000E+00 -0.95199070507E+03  0.95199070509E+03  0.50400001928E-02 0.  1.
    10030    2    1    2    0    0  0.00000000000E+00  0.00000000000E+00  0.94612368152E+02  0.19985937783E+04  0.19963530726E+04 0.  0.
        3    1    3    3  502    0  0.30722313237E+03 -0.69514192116E+02 -0.90093067263E+03  0.95440785991E+03  0.10100000352E+00 0.  1.
       -3    1    3    3    0  502 -0.30722313237E+03  0.69514192116E+02  0.99554304078E+03  0.10441859184E+04  0.10100000352E+00 0. -1.
</event>
<event>
 5   0  0.2110896E-05  0.1997772E+04  0.7818609E-02  0.8607663E-01
       -1   -1    0    0    0  501  0.00000000000E+00  0.00000000000E+00  0.80579755832E+03  0.80579755834E+03  0.50400001928E-02 0. -1.
        1   -1    0    0  501    0  0.00000000000E+00  0.00000000000E+00 -0.12382428984E+04  0.12382428984E+04  0.50400001928E-02 0.  1.
    10030    2    1    2    0    0  0.00000000000E+00  0.00000000000E+00 -0.43244534006E+03  0.20440404567E+04  0.19977718630E+04 0.  0.
        4    1    3    3  502    0  0.34710662164E+03  0.82038595310E+03  0.24619065397E+03  0.92419022383E+03  0.12699999809E+01 0. -1.
       -4    1    3    3    0  502 -0.34710662164E+03 -0.82038595310E+03 -0.67863599402E+03  0.11198502329E+04  0.12699999809E+01 0.  1.
</event>
<event>
 5   0  0.2093980E-05  0.1993853E+04  0.7818609E-02  0.8609500E-01
       -1   -1    0    0    0  501  0.00000000000E+00  0.00000000000E+00  0.12287682500E+04  0.12287682500E+04  0.50400001928E-02 0. -1.
        1   -1    0    0  501    0  0.00000000000E+00  0.00000000000E+00 -0.80882856490E+03  0.80882856492E+03  0.50400001928E-02 0.  1.
    10030    2    1    2    0    0  0.00000000000E+00  0.00000000000E+00  0.41993968511E+03  0.20375968149E+04  0.19938534152E+04 0.  0.
        2    1    3    3  502    0  0.52193004726E+02  0.48213868476E+03  0.11001023092E+04  0.12022507691E+04  0.25500000920E-02 0. -1.
       -2    1    3    3    0  502 -0.52193004726E+02 -0.48213868476E+03 -0.68016262409E+03  0.83534604584E+03  0.25500000920E-02 0.  1.
</event>
<event>
 5   0  0.4473361E-05  0.2003449E+04  0.7818609E-02  0.8605010E-01
       -2   -1    0    0    0  501  0.00000000000E+00  0.00000000000E+00  0.12183691043E+04  0.12183691043E+04  0.25500000920E-02 0.  1.
        2   -1    0    0  501    0  0.00000000000E+00  0.00000000000E+00 -0.82360269855E+03  0.82360269855E+03  0.25500000920E-02 0. -1.
    10030    2    1    2    0    0  0.00000000000E+00  0.00000000000E+00  0.39476640576E+03  0.20419718029E+04  0.20034491081E+04 0.  0.
        2    1    3    3  502    0 -0.25195867766E+03  0.51675243716E+03  0.10334832554E+04  0.11826258478E+04  0.25500000920E-02 0.  1.
       -2    1    3    3    0  502  0.25195867766E+03 -0.51675243716E+03 -0.63871684964E+03  0.85934595512E+03  0.25500000920E-02 0. -1.
</event>
<event>
 5   0  0.2093980E-05  0.2006799E+04  0.7818609E-02  0.8603449E-01
       -1   -1    0    0    0  501  0.00000000000E+00  0.00000000000E+00  0.11400505954E+04  0.11400505954E+04  0.50400001928E-02 0. -1.
        1   -1    0    0  501    0  0.00000000000E+00  0.00000000000E+00 -0.88312794104E+03  0.88312794106E+03  0.50400001928E-02 0.  1.
    10030    2    1    2    0    0  0.00000000000E+00  0.00000000000E+00  0.25692265435E+03  0.20231785365E+04  0.20067989785E+04 0.  0.
        2    1    3    3  502    0  0.13202335045E+02  0.99986066120E+03  0.44626779713E+02  0.10009431517E+04  0.25500000920E-02 0.  1.
       -2    1    3    3    0  502 -0.13202335045E+02 -0.99986066120E+03  0.21229587464E+03  0.10222353848E+04  0.25500000920E-02 0. -1.
</event>
<event>
 5   0  0.2256868E-05  0.2002502E+04  0.7818609E-02  0.8605452E-01
        1   -1    0    0  501    0  0.00000000000E+00  0.00000000000E+00  0.14797177014E+04  0.14797177014E+04  0.50400001928E-02 0. -1.
       -1   -1    0    0    0  501  0.00000000000E+00  0.00000000000E+00 -0.67749678150E+03  0.67749678152E+03  0.50400001928E-02 0.  1.
    10030    2    1    2    0    0  0.00000000000E+00  0.00000000000E+00  0.80222091988E+03  0.21572144829E+04  0.20025024147E+04 0.  0.
        5    1    3    3  502    0  0.48848460246E+03 -0.11640205885E+02 -0.54032374528E+03  0.72850843575E+03  0.46999998093E+01 0.  1.
       -5    1    3    3    0  502 -0.48848460246E+03  0.11640205885E+02  0.13425446652E+04  0.14287060472E+04  0.46999998093E+01 0. -1.
</event>
<event>
 5   0  0.1601500E-05  0.1995800E+04  0.7818609E-02  0.8608587E-01
       -3   -1    0    0    0  501  0.00000000000E+00  0.00000000000E+00  0.67141417315E+03  0.67141418075E+03  0.10100000352E+00 0. -1.
        3   -1    0    0  501    0  0.00000000000E+00  0.00000000000E+00 -0.14831449471E+04  0.14831449506E+04  0.10100000352E+00 0.  1.
    10030    2    1    2    0    0  0.00000000000E+00  0.00000000000E+00 -0.81173077396E+03  0.21545591313E+04  0.19958001405E+04 0.  0.
        1    1    3    3  502    0  0.40999616452E+03 -0.73156501317E+03 -0.98973973288E+03  0.12972543938E+04  0.50400001928E-02 0.  1.
       -1    1    3    3    0  502 -0.40999616452E+03  0.73156501317E+03  0.17800895893E+03  0.85730473748E+03  0.50400001928E-02 0. -1.
</event>
<event>
 5   0  0.4514680E-05  0.2008226E+04  0.7818609E-02  0.8602784E-01
        2   -1    0    0  501    0  0.00000000000E+00  0.00000000000E+00  0.19921354818E+04  0.19921354818E+04  0.25500000920E-02 0. -1.
       -2   -1    0    0    0  501  0.00000000000E+00  0.00000000000E+00 -0.50611161826E+03  0.50611161826E+03  0.25500000920E-02 0.  1.
    10030    2    1    2    0    0  0.00000000000E+00  0.00000000000E+00  0.14860238636E+04  0.24982471001E+04  0.20082259957E+04 0.  0.
        3    1    3    3  502    0 -0.52418719146E+02  0.69319568502E+03 -0.15833521111E+03  0.71297828097E+03  0.10100000352E+00 0.  1.
       -3    1    3    3    0  502  0.52418719146E+02 -0.69319568502E+03  0.16443590747E+04  0.17852688191E+04  0.10100000352E+00 0. -1.
</event>
<event>
 5   0  0.4514680E-05  0.2004419E+04  0.7818609E-02  0.8604557E-01
       -2   -1    0    0    0  501  0.00000000000E+00  0.00000000000E+00  0.12119554966E+04  0.12119554967E+04  0.25500000920E-02 0. -1.
        2   -1    0    0  501    0  0.00000000000E+00  0.00000000000E+00 -0.82876295804E+03  0.82876295805E+03  0.25500000920E-02 0.  1.
    10030    2    1    2    0    0  0.00000000000E+00  0.00000000000E+00  0.38319253861E+03  0.20407184547E+04  0.20044189407E+04 0.  0.
        3    1    3    3  502    0  0.96318594211E+03  0.14483477641E+03  0.43192094107E+03  0.10654857958E+04  0.10100000352E+00 0. -1.
       -3    1    3    3    0  502 -0.96318594211E+03 -0.14483477641E+03 -0.48728402467E+02  0.97523265888E+03  0.10100000352E+00 0.  1.
</event>
<event>
 5   0  0.4412054E-05  0.1970436E+04  0.7818609E-02  0.8620569E-01
        2   -1    0    0  501    0  0.00000000000E+00  0.00000000000E+00  0.13344877997E+04  0.13344877997E+04  0.25500000920E-02 0. -1.
       -2   -1    0    0    0  501  0.00000000000E+00  0.00000000000E+00 -0.72736096752E+03  0.72736096752E+03  0.25500000920E-02 0.  1.
    10030    2    1    2    0    0  0.00000000000E+00  0.00000000000E+00  0.60712683221E+03  0.20618487673E+04  0.19704358271E+04 0.  0.
        4    1    3    3  502    0  0.75212548843E+02 -0.98153917537E+03  0.34511248814E+03  0.10431588195E+04  0.12699999809E+01 0.  1.
       -4    1    3    3    0  502 -0.75212548843E+02  0.98153917537E+03  0.26201434407E+03  0.10186899478E+04  0.12699999809E+01 0. -1.
</event>
<event>
 5   0  0.4514680E-05  0.2003073E+04  0.7818609E-02  0.8605185E-01
       -2   -1    0    0    0  501  0.00000000000E+00  0.00000000000E+00  0.38412477731E+03  0.38412477732E+03  0.25500000920E-02 0.  1.
        2   -1    0    0  501    0  0.00000000000E+00  0.00000000000E+00 -0.26113267353E+04  0.26113267353E+04  0.25500000920E-02 0. -1.
    10030    2    1    2    0    0  0.00000000000E+00  0.00000000000E+00 -0.22272019580E+04  0.29954515126E+04  0.20030729400E+04 0.  0.
        3    1    3    3  502    0 -0.18636155780E+03 -0.13901095883E+03 -0.25704124517E+04  0.25809058214E+04  0.10100000352E+00 0. -1.
       -3    1    3    3    0  502  0.18636155780E+03  0.13901095883E+03  0.34321049372E+03  0.41454569121E+03  0.10100000352E+00 0.  1.
</event>
<event>
 5   0  0.4577279E-05  0.1997941E+04  0.7818609E-02  0.8607584E-01
       -2   -1    0    0    0  501  0.00000000000E+00  0.00000000000E+00  0.62342100029E+03  0.62342100030E+03  0.25500000920E-02 0.  1.
        2   -1    0    0  501    0  0.00000000000E+00  0.00000000000E+00 -0.16007510727E+04  0.16007510727E+04  0.25500000920E-02 0. -1.
    10030    2    1    2    0    0  0.00000000000E+00  0.00000000000E+00 -0.97733007240E+03  0.22241720730E+04  0.19979407749E+04 0.  0.
        1    1    3    3  502    0  0.88099322016E+03 -0.32673364797E+03 -0.11108740830E+03  0.94617352690E+03  0.50400001928E-02 0. -1.
       -1    1    3    3    0  502 -0.88099322016E+03  0.32673364797E+03 -0.86624266410E+03  0.12779985461E+04  0.50400001928E-02 0.  1.
</event>
<event>
 5   0  0.4514680E-05  0.2014986E+04  0.7818609E-02  0.8599646E-01
        2   -1    0    0  501    0  0.00000000000E+00  0.00000000000E+00  0.11350573677E+04  0.11350573677E+04  0.25500000920E-02 0.  1.
       -2   -1    0    0    0  501  0.00000000000E+00  0.00000000000E+00 -0.89426543314E+03  0.89426543315E+03  0.25500000920E-02 0. -1.
    10030    2    1    2    0    0  0.00000000000E+00  0.00000000000E+00  0.24079193454E+03  0.20293228008E+04  0.20149864204E+04 0.  0.
        3    1    3    3  502    0  0.47617083241E+03  0.14236112871E+03 -0.76221666882E+03  0.90993385091E+03  0.10100000352E+00 0. -1.
       -3    1    3    3    0  502 -0.47617083241E+03 -0.14236112871E+03  0.10030086034E+04  0.11193889499E+04  0.10100000352E+00 0.  1.
</event>
<event>
 5   0  0.4447313E-05  0.1999634E+04  0.7818609E-02  0.8606792E-01
       -2   -1    0    0    0  501  0.00000000000E+00  0.00000000000E+00  0.66479942761E+03  0.66479942761E+03  0.25500000920E-02 0. -1.
        2   -1    0    0  501    0  0.00000000000E+00  0.00000000000E+00 -0.15036619762E+04  0.15036619762E+04  0.25500000920E-02 0.  1.
    10030    2    1    2    0    0  0.00000000000E+00  0.00000000000E+00 -0.83886254862E+03  0.21684614038E+04  0.19996335876E+04 0.  0.
        5    1    3    3  502    0  0.42679849272E+03  0.56010619823E+03  0.35023526514E+03  0.78648759534E+03  0.46999998093E+01 0. -1.
       -5    1    3    3    0  502 -0.42679849272E+03 -0.56010619823E+03 -0.11890978138E+04  0.13819738085E+04  0.46999998093E+01 0.  1.
</event>
<event>
 5   0  0.2142551E-05  0.1996454E+04  0.7818609E-02  0.8608280E-01
       -1   -1    0    0    0  501  0.00000000000E+00  0.00000000000E+00  0.52410411264E+03  0.52410411266E+03  0.50400001928E-02 0.  1.
        1   -1    0    0  501    0  0.00000000000E+00  0.00000000000E+00 -0.19012574208E+04  0.19012574209E+04  0.50400001928E-02 0. -1.
    10030    2    1    2    0    0  0.00000000000E+00  0.00000000000E+00 -0.13771533082E+04  0.24253615335E+04  0.19964536894E+04 0.  0.
        3    1    3    3  502    0 -0.47555809306E+03 -0.38364386687E+03 -0.16475413953E+04  0.17571940064E+04  0.10100000352E+00 0. -1.
       -3    1    3    3    0  502  0.47555809306E+03  0.38364386687E+03  0.27038808713E+03  0.66816752714E+03  0.10100000352E+00 0.  1.
</event>
<event>
 5   0  0.2007644E-05  0.1991724E+04  0.7818609E-02  0.8610500E-01
        1   -1    0    0  501    0  0.00000000000E+00  0.00000000000E+00  0.89271319036E+03  0.89271319037E+03  0.50400001928E-02 0.  1.
       -1   -1    0    0    0  501  0.00000000000E+00  0.00000000000E+00 -0.11109288444E+04  0.11109288444E+04  0.50400001928E-02 0. -1.
    10030    2    1    2    0    0  0.00000000000E+00  0.00000000000E+00 -0.21821565406E+03  0.20036420348E+04  0.19917237087E+04 0.  0.
        1    1    3    3  502    0  0.70567145602E+03 -0.70018674632E+03 -0.16868339268E+03  0.10083093625E+04  0.50400001928E-02 0.  1.
       -1    1    3    3    0  502 -0.70567145602E+03  0.70018674632E+03 -0.49532261382E+02  0.99533267228E+03  0.50400001928E-02 0. -1.
</event>
<event>
 5   0  0.2142551E-05  0.2062059E+04  0.7818609E-02  0.8578144E-01
        1   -1    0    0  501    0  0.00000000000E+00  0.00000000000E+00  0.68612761551E+03  0.68612761553E+03  0.50400001928E-02 0. -1.
       -1   -1    0    0    0  501  0.00000000000E+00  0.00000000000E+00 -0.15493057148E+04  0.15493057148E+04  0.50400001928E-02 0.  1.
    10030    2    1    2    0    0  0.00000000000E+00  0.00000000000E+00 -0.86317809928E+03  0.22354333303E+04  0.20620586178E+04 0.  0.
        3    1    3    3  502    0 -0.21342111158E+03  0.52157368999E+03  0.50438808309E+03  0.75630353267E+03  0.10100000352E+00 0. -1.
       -3    1    3    3    0  502  0.21342111158E+03 -0.52157368999E+03 -0.13675661824E+04  0.14791297977E+04  0.10100000352E+00 0.  1.
</event>
<event>
 5   0  0.2007644E-05  0.1973037E+04  0.7818609E-02  0.8619331E-01
        1   -1    0    0  501    0  0.00000000000E+00  0.00000000000E+00  0.11833167571E+04  0.11833167571E+04  0.50400001928E-02 0. -1.
       -1   -1    0    0    0  501  0.00000000000E+00  0.00000000000E+00 -0.82245016368E+03  0.82245016369E+03  0.50400001928E-02 0.  1.
    10030    2    1    2    0    0  0.00000000000E+00  0.00000000000E+00  0.36086659341E+03  0.20057669208E+04  0.19730373140E+04 0.  0.
        1    1    3    3  502    0  0.19159923335E+03 -0.51392775156E+03 -0.65316120146E+03  0.85290770612E+03  0.50400001928E-02 0. -1.
       -1    1    3    3    0  502 -0.19159923335E+03  0.51392775156E+03  0.10140277949E+04  0.11528592147E+04  0.50400001928E-02 0.  1.
</event>
<event>
 5   0  0.2110896E-05  0.1999147E+04  0.7818609E-02  0.8607020E-01
        1   -1    0    0  501    0  0.00000000000E+00  0.00000000000E+00  0.93018284677E+03  0.93018284678E+03  0.50400001928E-02 0.  1.
       -1   -1    0    0    0  501  0.00000000000E+00  0.00000000000E+00 -0.10741402887E+04  0.10741402887E+04  0.50400001928E-02 0. -1.
    10030    2    1    2    0    0  0.00000000000E+00  0.00000000000E+00 -0.14395744194E+03  0.20043231355E+04  0.19991466896E+04 0.  0.
        4    1    3    3  502    0 -0.34882277487E+02  0.30584985684E+03 -0.10254323952E+04  0.10706419188E+04  0.12699999809E+01 0. -1.
       -4    1    3    3    0  502  0.34882277487E+02 -0.30584985684E+03  0.88147495330E+03  0.93368121669E+03  0.12699999809E+01 0.  1.
</event>
<event>
 5   0  0.4412054E-05  0.1881286E+04  0.7818609E-02  0.8664228E-01
        2   -1    0    0  501    0  0.00000000000E+00  0.00000000000E+00  0.13088644459E+04  0.13088644459E+04  0.25500000920E-02 0. -1.
       -2   -1    0    0    0  501  0.00000000000E+00  0.00000000000E+00 -0.67601301290E+03  0.67601301290E+03  0.25500000920E-02 0.  1.
    10030    2    1    2    0    0  0.00000000000E+00  0.00000000000E+00  0.63285143302E+03  0.19848774588E+04  0.18812861532E+04 0.  0.
        4    1    3    3  502    0  0.10741526892E+03 -0.12950136213E+03  0.12928583977E+04  0.13037611331E+04  0.12699999809E+01 0. -1.
       -4    1    3    3    0  502 -0.10741526892E+03  0.12950136213E+03 -0.66000696470E+03  0.68111632570E+03  0.12699999809E+01 0.  1.
</event>
<event>
 5   0  0.4447313E-05  0.1999690E+04  0.7818609E-02  0.8606765E-01
       -2   -1    0    0    0  501  0.00000000000E+00  0.00000000000E+00  0.96584818543E+03  0.96584818543E+03  0.25500000920E-02 0. -1.
        2   -1    0    0  501    0  0.00000000000E+00  0.00000000000E+00 -0.10350388314E+04  0.10350388314E+04  0.25500000920E-02 0.  1.
    10030    2    1    2    0    0  0.00000000000E+00  0.00000000000E+00 -0.69190646000E+02  0.20008870169E+04  0.19996903532E+04 0.  0.
        5    1    3    3  502    0  0.82092147738E+03  0.36088022660E+03  0.40784761924E+03  0.98514383747E+03  0.46999998093E+01 0. -1.
       -5    1    3    3    0  502 -0.82092147738E+03 -0.36088022660E+03 -0.47703826524E+03  0.10157431794E+04  0.46999998093E+01 0.  1.
</event>
<event>
 5   0  0.2007644E-05  0.1985570E+04  0.7818609E-02  0.8613397E-01
       -1   -1    0    0    0  501  0.00000000000E+00  0.00000000000E+00  0.13055310703E+04  0.13055310703E+04  0.50400001928E-02 0.  1.
        1   -1    0    0  501    0  0.00000000000E+00  0.00000000000E+00 -0.75495873205E+03  0.75495873207E+03  0.50400001928E-02 0. -1.
    10030    2    1    2    0    0  0.00000000000E+00  0.00000000000E+00  0.55057233825E+03  0.20604898024E+04  0.19855700255E+04 0.  0.
        1    1    3    3  502    0  0.39528705170E+03  0.33806983210E+03  0.11528167876E+04  0.12647251126E+04  0.50400001928E-02 0.  1.
       -1    1    3    3    0  502 -0.39528705170E+03 -0.33806983210E+03 -0.60224444939E+03  0.79576468975E+03  0.50400001928E-02 0. -1.
</event>
<event>
 5   0  0.4514680E-05  0.1999686E+04  0.7818609E-02  0.8606768E-01
       -2   -1    0    0    0  501  0.00000000000E+00  0.00000000000E+00  0.10724898377E+04  0.10724898377E+04  0.25500000920E-02 0.  1.
        2   -1    0    0  501    0  0.00000000000E+00  0.00000000000E+00 -0.93211694399E+03  0.93211694400E+03  0.25500000920E-02 0. -1.
    10030    2    1    2    0    0  0.00000000000E+00  0.00000000000E+00  0.14037289372E+03  0.20046067817E+04  0.19996859253E+04 0.  0.
        3    1    3    3  502    0 -0.40956567650E+03  0.50353327533E+03  0.83258154847E+03  0.10556902234E+04  0.10100000352E+00 0.  1.
       -3    1    3    3    0  502  0.40956567650E+03 -0.50353327533E+03 -0.69220865475E+03  0.94891655831E+03  0.10100000352E+00 0. -1.
</event>
<event>
 5   0  0.4577279E-05  0.1998030E+04  0.7818609E-02  0.8607542E-01
       -2   -1    0    0    0  501  0.00000000000E+00  0.00000000000E+00  0.96842559449E+03  0.96842559449E+03  0.25500000920E-02 0. -1.
        2   -1    0    0  501    0  0.00000000000E+00  0.00000000000E+00 -0.10305704375E+04  0.10305704375E+04  0.25500000920E-02 0.  1.
    10030    2    1    2    0    0  0.00000000000E+00  0.00000000000E+00 -0.62144843029E+02  0.19989960320E+04  0.19980298182E+04 0.  0.
        1    1    3    3  502    0  0.56451824227E+02  0.52381574540E+03  0.81813781118E+03  0.97309774519E+03  0.50400001928E-02 0. -1.
       -1    1    3    3    0  502 -0.56451824227E+02 -0.52381574540E+03 -0.88028265421E+03  0.10258982868E+04  0.50400001928E-02 0.  1.
</event>
<event>
 5   0  0.4473361E-05  0.1995205E+04  0.7818609E-02  0.8608866E-01
       -2   -1    0    0    0  501  0.00000000000E+00  0.00000000000E+00  0.82810898091E+03  0.82810898092E+03  0.25500000920E-02 0.  1.
        2   -1    0    0  501    0  0.00000000000E+00  0.00000000000E+00 -0.12017876969E+04  0.12017876969E+04  0.25500000920E-02 0. -1.
    10030    2    1    2    0    0  0.00000000000E+00  0.00000000000E+00 -0.37367871596E+03  0.20298966778E+04  0.19952054380E+04 0.  0.
        2    1    3    3  502    0 -0.55514359988E+03 -0.51257576265E+03 -0.84954271821E+03  0.11369437801E+04  0.25500000920E-02 0. -1.
       -2    1    3    3    0  502  0.55514359988E+03  0.51257576265E+03  0.47586400225E+03  0.89295289774E+03  0.25500000920E-02 0.  1.
</event>
<event>
 5   0  0.2093980E-05  0.1995226E+04  0.7818609E-02  0.8608856E-01
       -1   -1    0    0    0  501  0.00000000000E+00  0.00000000000E+00  0.92414100040E+03  0.92414100042E+03  0.50400001928E-02 0. -1.
        1   -1    0    0  501    0  0.00000000000E+00  0.00000000000E+00 -0.10769267304E+04  0.10769267304E+04  0.50400001928E-02 0.  1.
    10030    2    1    2    0    0  0.00000000000E+00  0.00000000000E+00 -0.15278572996E+03  0.20010677308E+04  0.19952264493E+04 0.  0.
        2    1    3    3  502    0  0.27442662713E+03  0.81424237725E+03  0.43197523549E+03  0.96171889171E+03  0.25500000920E-02 0. -1.
       -2    1    3    3    0  502 -0.27442662713E+03 -0.81424237725E+03 -0.58476096546E+03  0.10393488391E+04  0.25500000920E-02 0.  1.
</event>
<event>
 5   0  0.2110896E-05  0.2003368E+04  0.7818609E-02  0.8605048E-01
        1   -1    0    0  501    0  0.00000000000E+00  0.00000000000E+00  0.11983879975E+04  0.11983879975E+04  0.50400001928E-02 0.  1.
       -1   -1    0    0    0  501  0.00000000000E+00  0.00000000000E+00 -0.83726707665E+03  0.83726707666E+03  0.50400001928E-02 0. -1.
    10030    2    1    2    0    0  0.00000000000E+00  0.00000000000E+00  0.36112092086E+03  0.20356550742E+04  0.20033679796E+04 0.  0.
        4    1    3    3  502    0 -0.57313234130E+03 -0.78710281976E+03  0.41963447643E+03  0.10602387638E+04  0.12699999809E+01 0.  1.
       -4    1    3    3    0  502  0.57313234130E+03  0.78710281976E+03 -0.58513555572E+02  0.97541631040E+03  0.12699999809E+01 0. -1.
</event>
<event>
 5   0  0.4447313E-05  0.1992633E+04  0.7818609E-02  0.8610073E-01
        2   -1    0    0  501    0  0.00000000000E+00  0.00000000000E+00  0.10508090438E+04  0.10508090438E+04  0.25500000920E-02 0. -1.
       -2   -1    0    0    0  501  0.00000000000E+00  0.00000000000E+00 -0.94465019135E+03  0.94465019135E+03  0.25500000920E-02 0.  1.
    10030    2    1    2    0    0  0.00000000000E+00  0.00000000000E+00  0.10615885244E+03  0.19954592351E+04  0.19926333976E+04 0.  0.
        5    1    3    3  502    0  0.77732103591E+03 -0.32468748507E+03  0.58578768120E+03  0.10260698092E+04  0.46999998093E+01 0. -1.
       -5    1    3    3    0  502 -0.77732103591E+03  0.32468748507E+03 -0.47962882876E+03  0.96938942598E+03  0.46999998093E+01 0.  1.
</event>
<event>
 5   0  0.1601500E-05  0.2002390E+04  0.7818609E-02  0.8605504E-01
       -4   -1    0    0    0  501  0.00000000000E+00  0.00000000000E+00  0.13745218244E+04  0.13745224111E+04  0.12699999809E+01 0. -1.
        4   -1    0    0  501    0  0.00000000000E+00  0.00000000000E+00 -0.72926446478E+03  0.72926557062E+03  0.12699999809E+01 0.  1.
    10030    2    1    2    0    0  0.00000000000E+00  0.00000000000E+00  0.64525735964E+03  0.21037879818E+04  0.20023902746E+04 0.  0.
        3    1    3    3  502    0  0.48634799394E+03 -0.27200872701E+02  0.12416324467E+04  0.13337636228E+04  0.10100000352E+00 0. -1.
       -3    1    3    3    0  502 -0.48634799394E+03  0.27200872701E+02 -0.59637508705E+03  0.77002435893E+03  0.10100000352E+00 0.  1.
</event>
<event>
 5   0  0.2256868E-05  0.1995791E+04  0.7818609E-02  0.8608591E-01
        1   -1    0    0  501    0  0.00000000000E+00  0.00000000000E+00  0.15526364921E+04  0.15526364921E+04  0.50400001928E-02 0. -1.
       -1   -1    0    0    0  501  0.00000000000E+00  0.00000000000E+00 -0.64135770692E+03  0.64135770694E+03  0.50400001928E-02 0.  1.
    10030    2    1    2    0    0  0.00000000000E+00  0.00000000000E+00  0.91127878517E+03  0.21939941990E+04  0.19957909513E+04 0.  0.
        5    1    3    3  502    0 -0.46965084313E+03 -0.22073095527E+03  0.13926230676E+04  0.14861746759E+04  0.46999998093E+01 0. -1.
       -5    1    3    3    0  502  0.46965084313E+03  0.22073095527E+03 -0.48134428241E+03  0.70781952310E+03  0.46999998093E+01 0.  1.
</event>
<event>
 5   0  0.2110896E-05  0.2002703E+04  0.7818609E-02  0.8605358E-01
        1   -1    0    0  501    0  0.00000000000E+00  0.00000000000E+00  0.19345330956E+04  0.19345330956E+04  0.50400001928E-02 0.  1.
       -1   -1    0    0    0  501  0.00000000000E+00  0.00000000000E+00 -0.51831902770E+03  0.51831902773E+03  0.50400001928E-02 0. -1.
    10030    2    1    2    0    0  0.00000000000E+00  0.00000000000E+00  0.14162140679E+04  0.24528521234E+04  0.20027034860E+04 0.  0.
        4    1    3    3  502    0  0.65770953201E+03  0.73711288618E+03  0.50765410183E+03  0.11106896666E+04  0.12699999809E+01 0. -1.
       -4    1    3    3    0  502 -0.65770953201E+03 -0.73711288618E+03  0.90855996611E+03  0.13421624568E+04  0.12699999809E+01 0.  1.
</event>
<event>
 5   0  0.2142551E-05  0.2001151E+04  0.7818609E-02  0.8606083E-01
       -1   -1    0    0    0  501  0.00000000000E+00  0.00000000000E+00  0.81603878435E+03  0.81603878436E+03  0.50400001928E-02 0.  1.
        1   -1    0    0  501    0  0.00000000000E+00  0.00000000000E+00 -0.12268427312E+04  0.12268427312E+04  0.50400001928E-02 0. -1.
    10030    2    1    2    0    0  0.00000000000E+00  0.00000000000E+00 -0.41080394688E+03  0.20428815156E+04  0.20011509199E+04 0.  0.
        3    1    3    3  502    0 -0.92971946549E+03 -0.34305157569E+03 -0.34644449522E+03  0.10498030608E+04  0.10100000352E+00 0. -1.
       -3    1    3    3    0  502  0.92971946549E+03  0.34305157569E+03 -0.64359451663E+02  0.99307845476E+03  0.10100000352E+00 0.  1.
</event>
<event>
 5   0  0.2256868E-05  0.1987509E+04  0.7818609E-02  0.8612483E-01
       -1   -1    0    0    0  501  0.00000000000E+00  0.00000000000E+00  0.48744551915E+03  0.48744551918E+03  0.50400001928E-02 0. -1.
        1   -1    0    0  501    0  0.00000000000E+00  0.00000000000E+00 -0.20259666843E+04  0.20259666843E+04  0.50400001928E-02 0.  1.
    10030    2    1    2    0    0  0.00000000000E+00  0.00000000000E+00 -0.15385211652E+04  0.25134122035E+04  0.19875093783E+04 0.  0.
        5    1    3    3  502    0 -0.43742526227E+03 -0.67542867097E+03 -0.15066250451E+04  0.17080649479E+04  0.46999998093E+01 0.  1.
       -5    1    3    3    0  502  0.43742526227E+03  0.67542867097E+03 -0.31896120043E+02  0.80534725560E+03  0.46999998093E+01 0. -1.
</event>
<event>
 5   0  0.2007644E-05  0.1999753E+04  0.7818609E-02  0.8606736E-01
        1   -1    0    0  501    0  0.00000000000E+00  0.00000000000E+00  0.11446925875E+04  0.11446925875E+04  0.50400001928E-02 0.  1.
       -1   -1    0    0    0  501  0.00000000000E+00  0.00000000000E+00 -0.87338163332E+03  0.87338163334E+03  0.50400001928E-02 0. -1.
    10030    2    1    2    0    0  0.00000000000E+00  0.00000000000E+00  0.27131095418E+03  0.20180742208E+04  0.19997534665E+04 0.  0.
        1    1    3    3  502    0  0.83428144883E+02 -0.73586611111E+03  0.81359444382E+03  0.11001795798E+04  0.50400001928E-02 0.  1.
       -1    1    3    3    0  502 -0.83428144883E+02  0.73586611111E+03 -0.54228348965E+03  0.91789464101E+03  0.50400001928E-02 0. -1.
</event>
<event>
 5   0  0.1601500E-05  0.2001201E+04  0.7818609E-02  0.8606059E-01
       -3   -1    0    0    0  501  0.00000000000E+00  0.00000000000E+00  0.48535470531E+03  0.48535471582E+03  0.10100000352E+00 0.  1.
        3   -1    0    0  501    0  0.00000000000E+00  0.00000000000E+00 -0.20628238267E+04  0.20628238291E+04  0.10100000352E+00 0. -1.
    10030    2    1    2    0    0  0.00000000000E+00  0.00000000000E+00 -0.15774691214E+04  0.25481785450E+04  0.20012009065E+04 0.  0.
        3    1    3    3  502    0 -0.67786500734E+03 -0.57767272665E+03 -0.20801681257E+03  0.91459157650E+03  0.10100000352E+00 0.  1.
       -3    1    3    3    0  502  0.67786500734E+03  0.57767272665E+03 -0.13694523088E+04  0.16335869685E+04  0.10100000352E+00 0. -1.
</event>
<event>
 5   0  0.4577279E-05  0.2038249E+04  0.7818609E-02  0.8588944E-01
        2   -1    0    0  501    0  0.00000000000E+00  0.00000000000E+00  0.13652883859E+04  0.13652883859E+04  0.25500000920E-02 0. -1.
       -2   -1    0    0    0  501  0.00000000000E+00  0.00000000000E+00 -0.76072890204E+03  0.76072890204E+03  0.25500000920E-02 0.  1.
    10030    2    1    2    0    0  0.00000000000E+00  0.00000000000E+00  0.60455948389E+03  0.21260172880E+04  0.20382485960E+04 0.  0.
        1    1    3    3  502    0 -0.96962990900E+03 -0.10451838923E+03 -0.62760614196E+01  0.97526695990E+03  0.50400001928E-02 0.  1.
       -1    1    3    3    0  502  0.96962990900E+03  0.10451838923E+03  0.61083554531E+03  0.11507503281E+04  0.50400001928E-02 0. -1.
</event>
<event>
 5   0  0.2007644E-05  0.1995500E+04  0.7818609E-02  0.8608727E-01
       -1   -1    0    0    0  501  0.00000000000E+00  0.00000000000E+00  0.83461892461E+03  0.83461892463E+03  0.50400001928E-02 0. -1.
        1   -1    0    0  501    0  0.00000000000E+00  0.00000000000E+00 -0.11927660976E+04  0.11927660976E+04  0.50400001928E-02 0.  1.
    10030    2    1    2    0    0  0.00000000000E+00  0.00000000000E+00 -0.35814717299E+03  0.20273850222E+04  0.19955000954E+04 0.  0.
        1    1    3    3  502    0 -0.35219963468E+03  0.75789200015E+03  0.37466754273E+03  0.91587151618E+03  0.50400001928E-02 0.  1.
       -1    1    3    3    0  502  0.35219963468E+03 -0.75789200015E+03 -0.73281471572E+03  0.11115135061E+04  0.50400001928E-02 0. -1.
</event>
<event>
 5   0  0.4412054E-05  0.2001708E+04  0.7818609E-02  0.8605822E-01
        2   -1    0    0  501    0  0.00000000000E+00  0.00000000000E+00  0.16453557822E+04  0.16453557822E+04  0.25500000920E-02 0. -1.
       -2   -1    0    0    0  501  0.00000000000E+00  0.00000000000E+00 -0.60881010563E+03  0.60881010563E+03  0.25500000920E-02 0.  1.
    10030    2    1    2    0    0  0.00000000000E+00  0.00000000000E+00  0.10365456765E+04  0.22541658878E+04  0.20017084978E+04 0.  0.
        4    1    3    3  502    0 -0.96578646884E+03  0.26010461087E+03  0.47751873020E+03  0.11083427550E+04  0.12699999809E+01 0. -1.
       -4    1    3    3    0  502  0.96578646884E+03 -0.26010461087E+03  0.55902694633E+03  0.11458231328E+04  0.12699999809E+01 0.  1.
</event>
<event>
 5   0  0.4447313E-05  0.2000669E+04  0.7818609E-02  0.8606308E-01
       -2   -1    0    0    0  501  0.00000000000E+00  0.00000000000E+00  0.59706823986E+03  0.59706823986E+03  0.25500000920E-02 0.  1.
        2   -1    0    0  501    0  0.00000000000E+00  0.00000000000E+00 -0.16759717082E+04  0.16759717082E+04  0.25500000920E-02 0. -1.
    10030    2    1    2    0    0  0.00000000000E+00  0.00000000000E+00 -0.10789034683E+04  0.22730399480E+04  0.20006693658E+04 0.  0.
        5    1    3    3  502    0  0.24728289162E+03 -0.40171848286E+03 -0.15416537316E+04  0.16122173817E+04  0.46999998093E+01 0. -1.
       -5    1    3    3    0  502 -0.24728289162E+03  0.40171848286E+03  0.46275026326E+03  0.66082256628E+03  0.46999998093E+01 0.  1.
</event>
<event>
 5   0  0.2093980E-05  0.2001138E+04  0.7818609E-02  0.8606089E-01
       -1   -1    0    0    0  501  0.00000000000E+00  0.00000000000E+00  0.12294428500E+04  0.12294428500E+04  0.50400001928E-02 0.  1.
        1   -1    0    0  501    0  0.00000000000E+00  0.00000000000E+00 -0.81430204237E+03  0.81430204238E+03  0.50400001928E-02 0. -1.
    10030    2    1    2    0    0  0.00000000000E+00  0.00000000000E+00  0.41514080766E+03  0.20437448924E+04  0.20011375003E+04 0.  0.
        2    1    3    3  502    0 -0.60984271740E+02  0.71313929572E+03 -0.50649508989E+03  0.87682610168E+03  0.25500000920E-02 0. -1.
       -2    1    3    3    0  502  0.60984271740E+02 -0.71313929572E+03  0.92163589755E+03  0.11669187907E+04  0.25500000920E-02 0.  1.
</event>
<event>
 5   0  0.2007644E-05  0.1995262E+04  0.7818609E-02  0.8608839E-01
        1   -1    0    0  501    0  0.00000000000E+00  0.00000000000E+00  0.18598018424E+04  0.18598018424E+04  0.50400001928E-02 0.  1.
       -1   -1    0    0    0  501  0.00000000000E+00  0.00000000000E+00 -0.53514691321E+03  0.53514691323E+03  0.50400001928E-02 0. -1.
    10030    2    1    2    0    0  0.00000000000E+00  0.00000000000E+00  0.13246549292E+04  0.23949487556E+04  0.19952616021E+04 0.  0.
        1    1    3    3  502    0  0.67089205375E+03  0.72611397412E+03  0.50160327515E+03  0.11085772399E+04  0.50400001928E-02 0. -1.
       -1    1    3    3    0  502 -0.67089205375E+03 -0.72611397412E+03  0.82305165403E+03  0.12863715157E+04  0.50400001928E-02 0.  1.
</event>
<event>
 5   0  0.4473361E-05  0.2001119E+04  0.7818609E-02  0.8606098E-01
        2   -1    0    0  501    0  0.00000000000E+00  0.00000000000E+00  0.54170362200E+03  0.54170362200E+03  0.25500000920E-02 0.  1.
       -2   -1    0    0    0  501  0.00000000000E+00  0.00000000000E+00 -0.18480941002E+04  0.18480941002E+04  0.25500000920E-02 0. -1.
    10030    2    1    2    0    0  0.00000000000E+00  0.00000000000E+00 -0.13063904782E+04  0.23897977222E+04  0.20011189549E+04 0.  0.
        2    1    3    3  502    0 -0.33870755379E+03  0.83755826147E+02 -0.17730891427E+04  0.18070924031E+04  0.25500000920E-02 0. -1.
       -2    1    3    3    0  502  0.33870755379E+03 -0.83755826147E+02  0.46669866452E+03  0.58270531908E+03  0.25500000920E-02 0.  1.
</event>
<event>
 5   0  0.2142551E-05  0.1999690E+04  0.7818609E-02  0.8606766E-01
        1   -1    0    0  501    0  0.00000000000E+00  0.00000000000E+00  0.11350320634E+04  0.11350320634E+04  0.50400001928E-02 0. -1.
       -1   -1    0    0    0  501  0.00000000000E+00  0.00000000000E+00 -0.88075947297E+03  0.88075947299E+03  0.50400001928E-02 0.  1.
    10030    2    1    2    0    0  0.00000000000E+00  0.00000000000E+00  0.25427259039E+03  0.20157915364E+04  0.19996902180E+04 0.  0.
        3    1    3    3  502    0 -0.11526725999E+03  0.17245537630E+03 -0.85883062938E+03  0.88352558435E+03  0.10100000352E+00 0.  1.
       -3    1    3    3    0  502  0.11526725999E+03 -0.17245537630E+03  0.11131032198E+04  0.11322659520E+04  0.10100000352E+00 0. -1.
</event>
<event>
 5   0  0.2142551E-05  0.2000650E+04  0.7818609E-02  0.8606317E-01
        1   -1    0    0  501    0  0.00000000000E+00  0.00000000000E+00  0.94873502568E+03  0.94873502569E+03  0.50400001928E-02 0.  1.
       -1   -1    0    0    0  501  0.00000000000E+00  0.00000000000E+00 -0.10547208110E+04  0.10547208110E+04  0.50400001928E-02 0. -1.
    10030    2    1    2    0    0  0.00000000000E+00  0.00000000000E+00 -0.10598578534E+03  0.20034558367E+04  0.20006504700E+04 0.  0.
        3    1    3    3  502    0 -0.32483476679E+03 -0.84548082419E+03 -0.47820001837E+03  0.10242220060E+04  0.10100000352E+00 0. -1.
       -3    1    3    3    0  502  0.32483476679E+03  0.84548082419E+03  0.37221423303E+03  0.97923383073E+03  0.10100000352E+00 0.  1.
</event>
<event>
 5   0  0.4473361E-05  0.1993990E+04  0.7818609E-02  0.8609436E-01
        2   -1    0    0  501    0  0.00000000000E+00  0.00000000000E+00  0.14459293865E+04  0.14459293865E+04  0.25500000920E-02 0.  1.
       -2   -1    0    0    0  501  0.00000000000E+00  0.00000000000E+00 -0.68744666541E+03  0.68744666541E+03  0.25500000920E-02 0. -1.
    10030    2    1    2    0    0  0.00000000000E+00  0.00000000000E+00  0.75848272105E+03  0.21333760519E+04  0.19939903060E+04 0.  0.
        2    1    3    3  502    0  0.16561950559E+03 -0.50015589055E+03 -0.52633751620E+03  0.74472606806E+03  0.25500000920E-02 0. -1.
       -2    1    3    3    0  502 -0.16561950559E+03  0.50015589055E+03  0.12848202372E+04  0.13886499838E+04  0.25500000920E-02 0.  1.
</event>
<event>
 5   0  0.2256868E-05  0.2002502E+04  0.7818609E-02  0.8605452E-01
       -1   -1    0    0    0  501  0.00000000000E+00  0.00000000000E+00  0.15598819519E+04  0.15598819520E+04  0.50400001928E-02 0.  1.
        1   -1    0    0  501    0  0.00000000000E+00  0.00000000000E+00 -0.64267916177E+03  0.64267916179E+03  0.50400001928E-02 0. -1.
    10030    2    1    2    0    0  0.00000000000E+00  0.00000000000E+00  0.91720279018E+03  0.22025611138E+04  0.20025020603E+04 0.  0.
        5    1    3    3  502    0 -0.73790327722E+03 -0.10473443509E+03  0.11939852565E+04  0.14075132082E+04  0.46999998093E+01 0.  1.
       -5    1    3    3    0  502  0.73790327722E+03  0.10473443509E+03 -0.27678246637E+03  0.79504790554E+03  0.46999998093E+01 0. -1.
</event>
<event>
 5   0  0.4514680E-05  0.2000787E+04  0.7818609E-02  0.8606253E-01
       -2   -1    0    0    0  501  0.00000000000E+00  0.00000000000E+00  0.72397626645E+03  0.72397626646E+03  0.25500000920E-02 0. -1.
        2   -1    0    0  501    0  0.00000000000E+00  0.00000000000E+00 -0.13823482879E+04  0.13823482879E+04  0.25500000920E-02 0.  1.
    10030    2    1    2    0    0  0.00000000000E+00  0.00000000000E+00 -0.65837202147E+03  0.21063245544E+04  0.20007871975E+04 0.  0.
        3    1    3    3  502    0 -0.44879998104E+03 -0.73793347314E+03 -0.86061010238E+03  0.12192690402E+04  0.10100000352E+00 0.  1.
       -3    1    3    3    0  502  0.44879998104E+03  0.73793347314E+03  0.20223808091E+03  0.88705551423E+03  0.10100000352E+00 0. -1.
</event>
<event>
 5   0  0.4514680E-05  0.1976979E+04  0.7818609E-02  0.8617460E-01
        2   -1    0    0  501    0  0.00000000000E+00  0.00000000000E+00  0.15116346343E+04  0.15116346343E+04  0.25500000920E-02 0. -1.
       -2   -1    0    0    0  501  0.00000000000E+00  0.00000000000E+00 -0.64639392878E+03  0.64639392878E+03  0.25500000920E-02 0.  1.
    10030    2    1    2    0    0  0.00000000000E+00  0.00000000000E+00  0.86524070549E+03  0.21580285630E+04  0.19769789580E+04 0.  0.
        3    1    3    3  502    0 -0.92475736033E+03 -0.33877498990E+03  0.52502991114E+03  0.11160650013E+04  0.10100000352E+00 0.  1.
       -3    1    3    3    0  502  0.92475736033E+03  0.33877498990E+03  0.34021079434E+03  0.10419635618E+04  0.10100000352E+00 0. -1.
</event>
<event>
 5   0  0.4473361E-05  0.2004978E+04  0.7818609E-02  0.8604297E-01
        2   -1    0    0  501    0  0.00000000000E+00  0.00000000000E+00  0.16445886084E+04  0.16445886084E+04  0.25500000920E-02 0.  1.
       -2   -1    0    0    0  501  0.00000000000E+00  0.00000000000E+00 -0.61108545343E+03  0.61108545343E+03  0.25500000920E-02 0. -1.
    10030    2    1    2    0    0  0.00000000000E+00  0.00000000000E+00  0.10335031550E+04  0.22556740618E+04  0.20049779804E+04 0.  0.
        2    1    3    3  502    0  0.59418480701E+01 -0.71180332664E+02  0.16417221531E+04  0.16432752579E+04  0.25500000920E-02 0.  1.
       -2    1    3    3    0  502 -0.59418480701E+01  0.71180332664E+02 -0.60821899814E+03  0.61239880390E+03  0.25500000920E-02 0. -1.
</event>
<event>
 5   0  0.2110896E-05  0.1985842E+04  0.7818609E-02  0.8613269E-01
        1   -1    0    0  501    0  0.00000000000E+00  0.00000000000E+00  0.14319660314E+04  0.14319660314E+04  0.50400001928E-02 0. -1.
       -1   -1    0    0    0  501  0.00000000000E+00  0.00000000000E+00 -0.68848839934E+03  0.68848839936E+03  0.50400001928E-02 0.  1.
    10030    2    1    2    0    0  0.00000000000E+00  0.00000000000E+00  0.74347763206E+03  0.21204544308E+04  0.19858418879E+04 0.  0.
        4    1    3    3  502    0  0.47558320603E+03 -0.12346956666E+03 -0.54957331363E+03  0.73719506218E+03  0.12699999809E+01 0.  1.
       -4    1    3    3    0  502 -0.47558320603E+03  0.12346956666E+03  0.12930509457E+04  0.13832593686E+04  0.12699999809E+01 0. -1.
</event>
<event>
 5   0  0.4577279E-05  0.1994601E+04  0.7818609E-02  0.8609149E-01
       -2   -1    0    0    0  501  0.00000000000E+00  0.00000000000E+00  0.54332275588E+03  0.54332275589E+03  0.25500000920E-02 0. -1.
        2   -1    0    0  501    0  0.00000000000E+00  0.00000000000E+00 -0.18306029913E+04  0.18306029913E+04  0.25500000920E-02 0.  1.
    10030    2    1    2    0    0  0.00000000000E+00  0.00000000000E+00 -0.12872802354E+04  0.23739257471E+04  0.19946009748E+04 0.  0.
        1    1    3    3  502    0  0.27511556059E+03 -0.92906034306E+03 -0.92469948750E+03  0.13393695662E+04  0.50400001928E-02 0.  1.
       -1    1    3    3    0  502 -0.27511556059E+03  0.92906034306E+03 -0.36258074787E+03  0.10345561809E+04  0.50400001928E-02 0. -1.
</event>
<event>
 5   0  0.4473361E-05  0.1997774E+04  0.7818609E-02  0.8607662E-01
       -2   -1    0    0    0  501  0.00000000000E+00  0.00000000000E+00  0.91933253246E+03  0.91933253246E+03  0.25500000920E-02 0. -1.
        2   -1    0    0  501    0  0.00000000000E+00  0.00000000000E+00 -0.10853259734E+04  0.10853259734E+04  0.25500000920E-02 0.  1.
    10030    2    1    2    0    0  0.00000000000E+00  0.00000000000E+00 -0.16599344094E+03  0.20046585059E+04  0.19977742372E+04 0.  0.
        2    1    3    3  502    0 -0.76512168475E+03  0.71659024285E+02 -0.72334092655E+03  0.10553522181E+04  0.25500000920E-02 0.  1.
       -2    1    3    3    0  502  0.76512168475E+03 -0.71659024285E+02  0.55734748561E+03  0.94930628775E+03  0.25500000920E-02 0. -1.
</event>
<event>
 5   0  0.4577279E-05  0.1993732E+04  0.7818609E-02  0.8609557E-01
        2   -1    0    0  501    0  0.00000000000E+00  0.00000000000E+00  0.10326791617E+04  0.10326791617E+04  0.25500000920E-02 0. -1.
       -2   -1    0    0    0  501  0.00000000000E+00  0.00000000000E+00 -0.96229454270E+03  0.96229454270E+03  0.25500000920E-02 0.  1.
    10030    2    1    2    0    0  0.00000000000E+00  0.00000000000E+00  0.70384618960E+02  0.19949737044E+04  0.19937316987E+04 0.  0.
        1    1    3    3  502    0  0.16307485598E+02 -0.96744447027E+03 -0.20480452387E+03  0.98901952972E+03  0.50400001928E-02 0. -1.
       -1    1    3    3    0  502 -0.16307485598E+02  0.96744447027E+03  0.27518914283E+03  0.10059541747E+04  0.50400001928E-02 0.  1.
</event>
<event>
 5   0  0.4514680E-05  0.1994971E+04  0.7818609E-02  0.8608976E-01
       -2   -1    0    0    0  501  0.00000000000E+00  0.00000000000E+00  0.85503938860E+03  0.85503938860E+03  0.25500000920E-02 0.  1.
        2   -1    0    0  501    0  0.00000000000E+00  0.00000000000E+00 -0.11636623797E+04  0.11636623797E+04  0.25500000920E-02 0. -1.
    10030    2    1    2    0    0  0.00000000000E+00  0.00000000000E+00 -0.30862299113E+03  0.20187017683E+04  0.19949708466E+04 0.  0.
        3    1    3    3  502    0  0.95389614575E+03  0.33937361713E+02 -0.44742521816E+03  0.10541626712E+04  0.10100000352E+00 0. -1.
       -3    1    3    3    0  502 -0.95389614575E+03 -0.33937361713E+02  0.13880222702E+03  0.96453909710E+03  0.10100000352E+00 0.  1.
</event>
<event>
 5   0  0.2093980E-05  0.2004619E+04  0.7818609E-02  0.8604464E-01
        1   -1    0    0  501    0  0.00000000000E+00  0.00000000000E+00  0.13010470666E+04  0.13010470666E+04  0.50400001928E-02 0. -1.
       -1   -1    0    0    0  501  0.00000000000E+00  0.00000000000E+00 -0.77216578873E+03  0.77216578874E+03  0.50400001928E-02 0.  1.
    10030    2    1    2    0    0  0.00000000000E+00  0.00000000000E+00  0.52888127788E+03  0.20732128554E+04  0.20046187013E+04 0.  0.
        2    1    3    3  502    0  0.34854568925E+03  0.64109427670E+03  0.97507568815E+03  0.12178910324E+04  0.25500000920E-02 0. -1.
       -2    1    3    3    0  502 -0.34854568925E+03 -0.64109427670E+03 -0.44619441027E+03  0.85532182298E+03  0.25500000920E-02 0.  1.
</event>
<event>
 5   0  0.4577279E-05  0.2008030E+04  0.7818609E-02  0.8602875E-01
        2   -1    0    0  501    0  0.00000000000E+00  0.00000000000E+00  0.10950530464E+04  0.10950530464E+04  0.25500000920E-02 0. -1.
       -2   -1    0    0    0  501  0.00000000000E+00  0.00000000000E+00 -0.92054580013E+03  0.92054580013E+03  0.25500000920E-02 0.  1.
    10030    2    1    2    0    0  0.00000000000E+00  0.00000000000E+00  0.17450724631E+03  0.20155988466E+04  0.20080303611E+04 0.  0.
        1    1    3    3  502    0 -0.51541179244E+03 -0.73848585257E+03 -0.35830659794E+03  0.96922354923E+03  0.50400001928E-02 0. -1.
       -1    1    3    3    0  502  0.51541179244E+03  0.73848585257E+03  0.53281384425E+03  0.10463752973E+04  0.50400001928E-02 0.  1.
</event>
<event>
 5   0  0.4412054E-05  0.1933853E+04  0.7818609E-02  0.8638186E-01
        2   -1    0    0  501    0  0.00000000000E+00  0.00000000000E+00  0.14784289519E+04  0.14784289519E+04  0.25500000920E-02 0.  1.
       -2   -1    0    0    0  501  0.00000000000E+00  0.00000000000E+00 -0.63239241650E+03  0.63239241650E+03  0.25500000920E-02 0. -1.
    10030    2    1    2    0    0  0.00000000000E+00  0.00000000000E+00  0.84603653543E+03  0.21108213684E+04  0.19338534149E+04 0.  0.
        4    1    3    3  502    0  0.16250437460E+03 -0.66595006558E+03  0.11673680169E+04  0.13537528805E+04  0.12699999809E+01 0.  1.
       -4    1    3    3    0  502 -0.16250437460E+03  0.66595006558E+03 -0.32133148145E+03  0.75706848797E+03  0.12699999809E+01 0. -1.
</event>
<event>
 5   0  0.2007644E-05  0.1996821E+04  0.7818609E-02  0.8608108E-01
       -1   -1    0    0    0  501  0.00000000000E+00  0.00000000000E+00  0.91626863816E+03  0.91626863817E+03  0.50400001928E-02 0.  1.
        1   -1    0    0  501    0  0.00000000000E+00  0.00000000000E+00 -0.10879167421E+04  0.10879167421E+04  0.50400001928E-02 0. -1.
    10030    2    1    2    0    0  0.00000000000E+00  0.00000000000E+00 -0.17164810389E+03  0.20041853802E+04  0.19968214659E+04 0.  0.
        1    1    3    3  502    0  0.64444591083E+03 -0.55158716866E+03 -0.61432554866E+03  0.10473561077E+04  0.50400001928E-02 0. -1.
       -1    1    3    3    0  502 -0.64444591083E+03  0.55158716866E+03  0.44267744477E+03  0.95682927252E+03  0.50400001928E-02 0.  1.
</event>
<event>
 5   0  0.2093980E-05  0.1998102E+04  0.7818609E-02  0.8607509E-01
       -1   -1    0    0    0  501  0.00000000000E+00  0.00000000000E+00  0.12624096473E+04  0.12624096473E+04  0.50400001928E-02 0.  1.
        1   -1    0    0  501    0  0.00000000000E+00  0.00000000000E+00 -0.79063280894E+03  0.79063280895E+03  0.50400001928E-02 0. -1.
    10030    2    1    2    0    0  0.00000000000E+00  0.00000000000E+00  0.47177683840E+03  0.20530424563E+04  0.19981015845E+04 0.  0.
        2    1    3    3  502    0  0.79643520240E+03 -0.23818268039E+03  0.80525730687E+03  0.11573587824E+04  0.25500000920E-02 0.  1.
       -2    1    3    3    0  502 -0.79643520240E+03  0.23818268039E+03 -0.33348046848E+03  0.89568367392E+03  0.25500000920E-02 0. -1.
</event>
<event>
 5   0  0.2256868E-05  0.2003133E+04  0.7818609E-02  0.8605157E-01
       -1   -1    0    0    0  501  0.00000000000E+00  0.00000000000E+00  0.15926997466E+04  0.15926997466E+04  0.50400001928E-02 0. -1.
        1   -1    0    0  501    0  0.00000000000E+00  0.00000000000E+00 -0.62983343241E+03  0.62983343243E+03  0.50400001928E-02 0.  1.
    10030    2    1    2    0    0  0.00000000000E+00  0.00000000000E+00  0.96286631422E+03  0.22225331791E+04  0.20031330942E+04 0.  0.
        5    1    3    3  502    0 -0.85150069970E+03 -0.11030806205E+03  0.10535585231E+04  0.13591280152E+04  0.46999998093E+01 0. -1.
       -5    1    3    3    0  502  0.85150069970E+03  0.11030806205E+03 -0.90692208923E+02  0.86340516382E+03  0.46999998093E+01 0.  1.
</event>
<event>
 5   0  0.1601500E-05  0.1995759E+04  0.7818609E-02  0.8608606E-01
       -3   -1    0    0    0  501  0.00000000000E+00  0.00000000000E+00  0.20302088857E+04  0.20302088882E+04  0.10100000352E+00 0.  1.
        3   -1    0    0  501    0  0.00000000000E+00  0.00000000000E+00 -0.49047323952E+03  0.49047324992E+03  0.10100000352E+00 0. -1.
    10030    2    1    2    0    0  0.00000000000E+00  0.00000000000E+00  0.15397356462E+04  0.25206821381E+04  0.19957586481E+04 0.  0.
        1    1    3    3  502    0 -0.12037807025E+03 -0.36407055795E+03  0.19334405535E+04  0.19710988369E+04  0.50400001928E-02 0.  1.
       -1    1    3    3    0  502  0.12037807025E+03  0.36407055795E+03 -0.39370490729E+03  0.54958330125E+03  0.50400001928E-02 0. -1.
</event>
<event>
 5   0  0.2142551E-05  0.1999895E+04  0.7818609E-02  0.8606670E-01
       -1   -1    0    0    0  501  0.00000000000E+00  0.00000000000E+00  0.10187468831E+04  0.10187468831E+04  0.50400001928E-02 0. -1.
        1   -1    0    0  501    0  0.00000000000E+00  0.00000000000E+00 -0.98149475382E+03  0.98149475383E+03  0.50400001928E-02 0.  1.
    10030    2    1    2    0    0  0.00000000000E+00  0.00000000000E+00  0.37252129266E+02  0.20002416369E+04  0.19998947185E+04 0.  0.
        3    1    3    3  502    0  0.71264010043E+03 -0.25969202345E+03  0.67035159963E+03  0.10122584340E+04  0.10100000352E+00 0. -1.
       -3    1    3    3    0  502 -0.71264010043E+03  0.25969202345E+03 -0.63309947036E+03  0.98798320297E+03  0.10100000352E+00 0.  1.
</event>
<event>
 5   0  0.4412054E-05  0.1997730E+04  0.7818609E-02  0.8607683E-01
        2   -1    0    0  501    0  0.00000000000E+00  0.00000000000E+00  0.74874220280E+03  0.74874220281E+03  0.25500000920E-02 0. -1.
       -2   -1    0    0    0  501  0.00000000000E+00  0.00000000000E+00 -0.13325435291E+04  0.13325435291E+04  0.25500000920E-02 0.  1.
    10030    2    1    2    0    0  0.00000000000E+00  0.00000000000E+00 -0.58380132627E+03  0.20812857319E+04  0.19977302894E+04 0.  0.
        4    1    3    3  502    0  0.49635783096E+03 -0.77947567453E+03 -0.68693865769E+03  0.11514511522E+04  0.12699999809E+01 0.  1.
       -4    1    3    3    0  502 -0.49635783096E+03  0.77947567453E+03  0.10313733143E+03  0.92983457969E+03  0.12699999809E+01 0. -1.
</event>
<event>
 5   0  0.2007644E-05  0.2000438E+04  0.7818609E-02  0.8606416E-01
        1   -1    0    0  501    0  0.00000000000E+00  0.00000000000E+00  0.21691843128E+04  0.21691843128E+04  0.50400001928E-02 0.  1.
       -1   -1    0    0    0  501  0.00000000000E+00  0.00000000000E+00 -0.46120461100E+03  0.46120461103E+03  0.50400001928E-02 0. -1.
    10030    2    1    2    0    0  0.00000000000E+00  0.00000000000E+00  0.17079797018E+04  0.26303889239E+04  0.20004377593E+04 0.  0.
        1    1    3    3  502    0  0.56069316962E+03 -0.20940266557E+03 -0.19975135412E+03  0.63097298698E+03  0.50400001928E-02 0. -1.
       -1    1    3    3    0  502 -0.56069316962E+03  0.20940266557E+03  0.19077310559E+04  0.19994159369E+04  0.50400001928E-02 0.  1.
</event>
<event>
 5   0  0.4447313E-05  0.1981011E+04  0.7818609E-02  0.8615550E-01
       -2   -1    0    0    0  501  0.00000000000E+00  0.00000000000E+00  0.75316383227E+03  0.75316383227E+03  0.25500000920E-02 0.  1.
        2   -1    0    0  501    0  0.00000000000E+00  0.00000000000E+00 -0.13026400813E+04  0.13026400813E+04  0.25500000920E-02 0. -1.
    10030    2    1    2    0    0  0.00000000000E+00  0.00000000000E+00 -0.54947624907E+03  0.20558039136E+04  0.19810112526E+04 0.  0.
        5    1    3    3  502    0 -0.66420920622E+03 -0.72918152807E+03 -0.36870930024E+03  0.10530186174E+04  0.46999998093E+01 0. -1.
       -5    1    3    3    0  502  0.66420920622E+03  0.72918152807E+03 -0.18076694883E+03  0.10027852962E+04  0.46999998093E+01 0.  1.
</event>
<event>
 5   0  0.4447313E-05  0.1908748E+04  0.7818609E-02  0.8650514E-01
        2   -1    0    0  501    0  0.00000000000E+00  0.00000000000E+00  0.10434873423E+04  0.10434873423E+04  0.25500000920E-02 0. -1.
       -2   -1    0    0    0  501  0.00000000000E+00  0.00000000000E+00 -0.87287045285E+03  0.87287045285E+03  0.25500000920E-02 0.  1.
    10030    2    1    2    0    0  0.00000000000E+00  0.00000000000E+00  0.17061688943E+03  0.19163577951E+04  0.19087475150E+04 0.  0.
        5    1    3    3  502    0 -0.43644047724E+03  0.84412899469E+03 -0.32084265092E+01  0.95029807632E+03  0.46999998093E+01 0. -1.
       -5    1    3    3    0  502  0.43644047724E+03 -0.84412899469E+03  0.17382531594E+03  0.96605971881E+03  0.46999998093E+01 0.  1.
</event>
<event>
 5   0  0.4447313E-05  0.1999773E+04  0.7818609E-02  0.8606727E-01
        2   -1    0    0  501    0  0.00000000000E+00  0.00000000000E+00  0.13619998672E+04  0.13619998673E+04  0.25500000920E-02 0.  1.
       -2   -1    0    0    0  501  0.00000000000E+00  0.00000000000E+00 -0.73404812989E+03  0.73404812990E+03  0.25500000920E-02 0. -1.
    10030    2    1    2    0    0  0.00000000000E+00  0.00000000000E+00  0.62795173736E+03  0.20960479971E+04  0.19997734426E+04 0.  0.
        5    1    3    3  502    0  0.60764562972E+03  0.41016495461E+03  0.10266226441E+04  0.12615247301E+04  0.46999998093E+01 0.  1.
       -5    1    3    3    0  502 -0.60764562972E+03 -0.41016495461E+03 -0.39867090676E+03  0.83452326702E+03  0.46999998093E+01 0. -1.
</event>
<event>
 5   0  0.4473361E-05  0.1990904E+04  0.7818609E-02  0.8610885E-01
       -2   -1    0    0    0  501  0.00000000000E+00  0.00000000000E+00  0.10583853146E+04  0.10583853146E+04  0.25500000920E-02 0.  1.
        2   -1    0    0  501    0  0.00000000000E+00  0.00000000000E+00 -0.93626054145E+03  0.93626054146E+03  0.25500000920E-02 0. -1.
    10030    2    1    2    0    0  0.00000000000E+00  0.00000000000E+00  0.12212477311E+03  0.19946458560E+04  0.19909037221E+04 0.  0.
        2    1    3    3  502    0  0.61971441862E+02 -0.93355333282E+03 -0.27952087184E+03  0.97647027739E+03  0.25500000920E-02 0.  1.
       -2    1    3    3    0  502 -0.61971441862E+02  0.93355333282E+03  0.40164564496E+03  0.10181755786E+04  0.25500000920E-02 0. -1.
</event>
<event>
 5   0  0.2110896E-05  0.1987833E+04  0.7818609E-02  0.8612330E-01
       -1   -1    0    0    0  501  0.00000000000E+00  0.00000000000E+00  0.64017853341E+03  0.64017853343E+03  0.50400001928E-02 0.  1.
        1   -1    0    0  501    0  0.00000000000E+00  0.00000000000E+00 -0.15431167910E+04  0.15431167910E+04  0.50400001928E-02 0. -1.
    10030    2    1    2    0    0  0.00000000000E+00  0.00000000000E+00 -0.90293825763E+03  0.21832953245E+04  0.19878332367E+04 0.  0.
        4    1    3    3  502    0  0.46402147544E+03 -0.51445435512E+03  0.33127013448E+03  0.76793276273E+03  0.12699999809E+01 0.  1.
       -4    1    3    3    0  502 -0.46402147544E+03  0.51445435512E+03 -0.12342083921E+04  0.14153625618E+04  0.12699999809E+01 0. -1.
</event>
<event>
 5   0  0.4577279E-05  0.1998339E+04  0.7818609E-02  0.8607398E-01
        2   -1    0    0  501    0  0.00000000000E+00  0.00000000000E+00  0.23151450605E+04  0.23151450605E+04  0.25500000920E-02 0.  1.
       -2   -1    0    0    0  501  0.00000000000E+00  0.00000000000E+00 -0.43122109377E+03  0.43122109378E+03  0.25500000920E-02 0. -1.
    10030    2    1    2    0    0  0.00000000000E+00  0.00000000000E+00  0.18839239667E+04  0.27463661543E+04  0.19983386953E+04 0.  0.
        1    1    3    3  502    0  0.41230485215E+03  0.89708346264E+03  0.11530242271E+04  0.15179653811E+04  0.50400001928E-02 0.  1.
       -1    1    3    3    0  502 -0.41230485215E+03 -0.89708346264E+03  0.73089973966E+03  0.12284007732E+04  0.50400001928E-02 0. -1.
</event>
<event>
 5   0  0.4447313E-05  0.1995671E+04  0.7818609E-02  0.8608647E-01
       -2   -1    0    0    0  501  0.00000000000E+00  0.00000000000E+00  0.81357968896E+03  0.81357968896E+03  0.25500000920E-02 0.  1.
        2   -1    0    0  501    0  0.00000000000E+00  0.00000000000E+00 -0.12238203557E+04  0.12238203557E+04  0.25500000920E-02 0. -1.
    10030    2    1    2    0    0  0.00000000000E+00  0.00000000000E+00 -0.41024066672E+03  0.20374000446E+04  0.19956706986E+04 0.  0.
        5    1    3    3  502    0  0.41907383232E+03 -0.88800042050E+03 -0.38627265491E+03  0.10551759463E+04  0.46999998093E+01 0.  1.
       -5    1    3    3    0  502 -0.41907383232E+03  0.88800042050E+03 -0.23968011811E+02  0.98222409833E+03  0.46999998093E+01 0. -1.
</event>
<event>
 5   0  0.4412054E-05  0.1993804E+04  0.7818609E-02  0.8609523E-01
       -2   -1    0    0    0  501  0.00000000000E+00  0.00000000000E+00  0.14138354039E+04  0.14138354039E+04  0.25500000920E-02 0. -1.
        2   -1    0    0  501    0  0.00000000000E+00  0.00000000000E+00 -0.70292023424E+03  0.70292023424E+03  0.25500000920E-02 0.  1.
    10030    2    1    2    0    0  0.00000000000E+00  0.00000000000E+00  0.71091516962E+03  0.21167556381E+04  0.19938039154E+04 0.  0.
        4    1    3    3  502    0  0.55567274963E+02  0.63073952406E+03  0.11729354724E+04  0.13329288445E+04  0.12699999809E+01 0. -1.
       -4    1    3    3    0  502 -0.55567274963E+02 -0.63073952406E+03 -0.46202030278E+03  0.78382679358E+03  0.12699999809E+01 0.  1.
</event>
<event>
 5   0  0.4514680E-05  0.2001694E+04  0.7818609E-02  0.8605829E-01
        2   -1    0    0  501    0  0.00000000000E+00  0.00000000000E+00  0.47674170241E+03  0.47674170241E+03  0.25500000920E-02 0.  1.
       -2   -1    0    0    0  501  0.00000000000E+00  0.00000000000E+00 -0.21011258071E+04  0.21011258071E+04  0.25500000920E-02 0. -1.
    10030    2    1    2    0    0  0.00000000000E+00  0.00000000000E+00 -0.16243841047E+04  0.25778675096E+04  0.20016935772E+04 0.  0.
        3    1    3    3  502    0 -0.47286478883E+03 -0.86432651420E+03 -0.58532373753E+03  0.11459778879E+04  0.10100000352E+00 0.  1.
       -3    1    3    3    0  502  0.47286478883E+03  0.86432651420E+03 -0.10390603672E+04  0.14318896216E+04  0.10100000352E+00 0. -1.
</event>
<event>
 5   0  0.4447313E-05  0.1989222E+04  0.7818609E-02  0.8611676E-01
       -2   -1    0    0    0  501  0.00000000000E+00  0.00000000000E+00  0.20476639941E+04  0.20476639941E+04  0.25500000920E-02 0.  1.
        2   -1    0    0  501    0  0.00000000000E+00  0.00000000000E+00 -0.48311210683E+03  0.48311210683E+03  0.25500000920E-02 0. -1.
    10030    2    1    2    0    0  0.00000000000E+00  0.00000000000E+00  0.15645518872E+04  0.25307761009E+04  0.19892222262E+04 0.  0.
        5    1    3    3  502    0 -0.10976862080E+02  0.72465151328E+03 -0.84335066908E+02  0.72964018578E+03  0.46999998093E+01 0. -1.
       -5    1    3    3    0  502  0.10976862080E+02 -0.72465151328E+03  0.16488869542E+04  0.18011359151E+04  0.46999998093E+01 0.  1.
</event>
<event>
 5   0  0.2110896E-05  0.2005511E+04  0.7818609E-02  0.8604048E-01
        1   -1    0    0  501    0  0.00000000000E+00  0.00000000000E+00  0.63644931297E+03  0.63644931299E+03  0.50400001928E-02 0. -1.
       -1   -1    0    0    0  501  0.00000000000E+00  0.00000000000E+00 -0.15798885699E+04  0.15798885699E+04  0.50400001928E-02 0.  1.
    10030    2    1    2    0    0  0.00000000000E+00  0.00000000000E+00 -0.94343925689E+03  0.22163378829E+04  0.20055114010E+04 0.  0.
        4    1    3    3  502    0  0.43020659867E+03 -0.77142552353E+03 -0.99632438139E+03  0.13314799817E+04  0.12699999809E+01 0.  1.
       -4    1    3    3    0  502 -0.43020659867E+03  0.77142552353E+03  0.52885124500E+02  0.88485790113E+03  0.12699999809E+01 0. -1.
</event>
<event>
 5   0  0.2142551E-05  0.2007250E+04  0.7818609E-02  0.8603239E-01
        1   -1    0    0  501    0  0.00000000000E+00  0.00000000000E+00  0.21556964356E+04  0.21556964356E+04  0.50400001928E-02 0. -1.
       -1   -1    0    0    0  501  0.00000000000E+00  0.00000000000E+00 -0.46725635521E+03  0.46725635523E+03  0.50400001928E-02 0.  1.
    10030    2    1    2    0    0  0.00000000000E+00  0.00000000000E+00  0.16884400804E+04  0.26229527909E+04  0.20072497199E+04 0.  0.
        3    1    3    3  502    0  0.90365122278E+03  0.62449635719E+02  0.27947661417E+03  0.94794128378E+03  0.10100000352E+00 0. -1.
       -3    1    3    3    0  502 -0.90365122278E+03 -0.62449635719E+02  0.14089634662E+04  0.16750115071E+04  0.10100000352E+00 0.  1.
</event>
<event>
 5   0  0.2256868E-05  0.2004174E+04  0.7818609E-02  0.8604672E-01
       -1   -1    0    0    0  501  0.00000000000E+00  0.00000000000E+00  0.10809581355E+04  0.10809581355E+04  0.50400001928E-02 0. -1.
        1   -1    0    0  501    0  0.00000000000E+00  0.00000000000E+00 -0.92897047096E+03  0.92897047098E+03  0.50400001928E-02 0.  1.
    10030    2    1    2    0    0  0.00000000000E+00  0.00000000000E+00  0.15198766454E+03  0.20099286065E+04  0.20041738330E+04 0.  0.
        5    1    3    3  502    0 -0.81010430137E+03  0.58406518627E+03 -0.64308330153E+01  0.99873147869E+03  0.46999998093E+01 0.  1.
       -5    1    3    3    0  502  0.81010430137E+03 -0.58406518627E+03  0.15841849755E+03  0.10111971278E+04  0.46999998093E+01 0. -1.
</event>
<event>
 5   0  0.4577279E-05  0.2001708E+04  0.7818609E-02  0.8605822E-01
        2   -1    0    0  501    0  0.00000000000E+00  0.00000000000E+00  0.19406584230E+04  0.19406584230E+04  0.25500000920E-02 0. -1.
       -2   -1    0    0    0  501  0.00000000000E+00  0.00000000000E+00 -0.51616974745E+03  0.51616974746E+03  0.25500000920E-02 0.  1.
    10030    2    1    2    0    0  0.00000000000E+00  0.00000000000E+00  0.14244886755E+04  0.24568281704E+04  0.20017084384E+04 0.  0.
        1    1    3    3  502    0 -0.78973746561E+03  0.29146698244E+02 -0.41536429072E+02  0.79136595174E+03  0.50400001928E-02 0. -1.
       -1    1    3    3    0  502  0.78973746561E+03 -0.29146698244E+02  0.14660251046E+04  0.16654622187E+04  0.50400001928E-02 0.  1.
</event>
<event>
 5   0  0.4447313E-05  0.1934361E+04  0.7818609E-02  0.8637939E-01
        2   -1    0    0  501    0  0.00000000000E+00  0.00000000000E+00  0.81982885816E+03  0.81982885816E+03  0.25500000920E-02 0.  1.
       -2   -1    0    0    0  501  0.00000000000E+00  0.00000000000E+00 -0.11410168691E+04  0.11410168691E+04  0.25500000920E-02 0. -1.
    10030    2    1    2    0    0  0.00000000000E+00  0.00000000000E+00 -0.32118801096E+03  0.19608457273E+04  0.19343614522E+04 0.  0.
        5    1    3    3  502    0 -0.31592714411E+03  0.36255861494E+03  0.69003616266E+03  0.84108899971E+03  0.46999998093E+01 0.  1.
       -5    1    3    3    0  502  0.31592714411E+03 -0.36255861494E+03 -0.10112241736E+04  0.11197567276E+04  0.46999998093E+01 0. -1.
</event>
<event>
 5   0  0.2256868E-05  0.2013997E+04  0.7818609E-02  0.8600104E-01
       -1   -1    0    0    0  501  0.00000000000E+00  0.00000000000E+00  0.97990882642E+03  0.97990882644E+03  0.50400001928E-02 0.  1.
        1   -1    0    0  501    0  0.00000000000E+00  0.00000000000E+00 -0.10348374157E+04  0.10348374157E+04  0.50400001928E-02 0. -1.
    10030    2    1    2    0    0  0.00000000000E+00  0.00000000000E+00 -0.54928589297E+02  0.20147462422E+04  0.20139973362E+04 0.  0.
        5    1    3    3  502    0  0.94473930138E+03 -0.21395549925E+03  0.24780147532E+03  0.99986847355E+03  0.46999998093E+01 0. -1.
       -5    1    3    3    0  502 -0.94473930138E+03  0.21395549925E+03 -0.30273006462E+03  0.10148777686E+04  0.46999998093E+01 0.  1.
</event>
<event>
 5   0  0.2007644E-05  0.2002039E+04  0.7818609E-02  0.8605668E-01
       -1   -1    0    0    0  501  0.00000000000E+00  0.00000000000E+00  0.85932673562E+03  0.85932673563E+03  0.50400001928E-02 0.  1.
        1   -1    0    0  501    0  0.00000000000E+00  0.00000000000E+00 -0.11660753438E+04  0.11660753439E+04  0.50400001928E-02 0. -1.
    10030    2    1    2    0    0  0.00000000000E+00  0.00000000000E+00 -0.30674860823E+03  0.20254020795E+04  0.20020386797E+04 0.  0.
        1    1    3    3  502    0  0.95718373164E+03  0.21272918653E+03  0.50434646309E+02  0.98183402696E+03  0.50400001928E-02 0.  1.
       -1    1    3    3    0  502 -0.95718373164E+03 -0.21272918653E+03 -0.35718325454E+03  0.10435680525E+04  0.50400001928E-02 0. -1.
</event>
<event>
 5   0  0.4412054E-05  0.2004633E+04  0.7818609E-02  0.8604458E-01
        2   -1    0    0  501    0  0.00000000000E+00  0.00000000000E+00  0.18874265618E+04  0.18874265618E+04  0.25500000920E-02 0.  1.
       -2   -1    0    0    0  501  0.00000000000E+00  0.00000000000E+00 -0.53227949030E+03  0.53227949030E+03  0.25500000920E-02 0. -1.
    10030    2    1    2    0    0  0.00000000000E+00  0.00000000000E+00  0.13551470715E+04  0.24197060521E+04  0.20046330820E+04 0.  0.
        4    1    3    3  502    0  0.66466128738E+03  0.74522340446E+03  0.57300948386E+03  0.11512923308E+04  0.12699999809E+01 0. -1.
       -4    1    3    3    0  502 -0.66466128738E+03 -0.74522340446E+03  0.78213758769E+03  0.12684137213E+04  0.12699999809E+01 0.  1.
</event>
<event>
 5   0  0.2007644E-05  0.1943748E+04  0.7818609E-02  0.8633381E-01
       -1   -1    0    0    0  501  0.00000000000E+00  0.00000000000E+00  0.51521327585E+03  0.51521327588E+03  0.50400001928E-02 0. -1.
        1   -1    0    0  501    0  0.00000000000E+00  0.00000000000E+00 -0.18332978388E+04  0.18332978388E+04  0.50400001928E-02 0.  1.
    10030    2    1    2    0    0  0.00000000000E+00  0.00000000000E+00 -0.13180845629E+04  0.23485111147E+04  0.19437483224E+04 0.  0.
        1    1    3    3  502    0 -0.12644771219E+03  0.26319590394E+03  0.46096154085E+03  0.54566166251E+03  0.50400001928E-02 0. -1.
       -1    1    3    3    0  502  0.12644771219E+03 -0.26319590394E+03 -0.17790461038E+04  0.18028494522E+04  0.50400001928E-02 0.  1.
</event>
<event>
 5   0  0.4412054E-05  0.2002403E+04  0.7818609E-02  0.8605498E-01
        2   -1    0    0  501    0  0.00000000000E+00  0.00000000000E+00  0.13061586114E+04  0.13061586114E+04  0.25500000920E-02 0. -1.
       -2   -1    0    0    0  501  0.00000000000E+00  0.00000000000E+00 -0.76744437519E+03  0.76744437520E+03  0.25500000920E-02 0.  1.
    10030    2    1    2    0    0  0.00000000000E+00  0.00000000000E+00  0.53871423624E+03  0.20736029866E+04  0.20024026363E+04 0.  0.
        4    1    3    3  502    0  0.48803958422E+03  0.30047850019E+03 -0.58076712682E+03  0.81594242035E+03  0.12699999809E+01 0.  1.
       -4    1    3    3    0  502 -0.48803958422E+03 -0.30047850019E+03  0.11194813631E+04  0.12576605663E+04  0.12699999809E+01 0. -1.
</event>
<event>
 5   0  0.4577279E-05  0.1982991E+04  0.7818609E-02  0.8614614E-01
       -2   -1    0    0    0  501  0.00000000000E+00  0.00000000000E+00  0.92918101147E+03  0.92918101148E+03  0.25500000920E-02 0.  1.
        2   -1    0    0  501    0  0.00000000000E+00  0.00000000000E+00 -0.10579889249E+04  0.10579889249E+04  0.25500000920E-02 0. -1.
    10030    2    1    2    0    0  0.00000000000E+00  0.00000000000E+00 -0.12880791339E+03  0.19871699363E+04  0.19829908919E+04 0.  0.
        1    1    3    3  502    0  0.94680133584E+02  0.48382767475E+03  0.79764709684E+03  0.93770701057E+03  0.50400001928E-02 0.  1.
       -1    1    3    3    0  502 -0.94680133584E+02 -0.48382767475E+03 -0.92645501024E+03  0.10494629258E+04  0.50400001928E-02 0. -1.
</event>
<event>
 5   0  0.1601500E-05  0.1999293E+04  0.7818609E-02  0.8606951E-01
       -4   -1    0    0    0  501  0.00000000000E+00  0.00000000000E+00  0.75717257404E+03  0.75717363912E+03  0.12699999809E+01 0.  1.
        4   -1    0    0  501    0  0.00000000000E+00  0.00000000000E+00 -0.13197672303E+04  0.13197678413E+04  0.12699999809E+01 0. -1.
    10030    2    1    2    0    0  0.00000000000E+00  0.00000000000E+00 -0.56259465622E+03  0.20769414804E+04  0.19992931666E+04 0.  0.
        1    1    3    3  502    0  0.37459315849E+03 -0.73532682836E+03  0.30476535614E+03  0.87972012665E+03  0.50400001928E-02 0.  1.
       -1    1    3    3    0  502 -0.37459315849E+03  0.73532682836E+03 -0.86736001236E+03  0.11972213538E+04  0.50400001928E-02 0. -1.
</event>
<event>
 5   0  0.2007644E-05  0.1998851E+04  0.7818609E-02  0.8607158E-01
        1   -1    0    0  501    0  0.00000000000E+00  0.00000000000E+00  0.11624843138E+04  0.11624843138E+04  0.50400001928E-02 0.  1.
       -1   -1    0    0    0  501  0.00000000000E+00  0.00000000000E+00 -0.85923827265E+03  0.85923827267E+03  0.50400001928E-02 0. -1.
    10030    2    1    2    0    0  0.00000000000E+00  0.00000000000E+00  0.30324604112E+03  0.20217225864E+04  0.19988506835E+04 0.  0.
        1    1    3    3  502    0  0.16805348109E+02 -0.19750982505E+03  0.11424023333E+04  0.11594721394E+04  0.50400001928E-02 0.  1.
       -1    1    3    3    0  502 -0.16805348109E+02  0.19750982505E+03 -0.83915629221E+03  0.86225044709E+03  0.50400001928E-02 0. -1.
</event>
<event>
 5   0  0.1601500E-05  0.1987786E+04  0.7818609E-02  0.8612353E-01
       -3   -1    0    0    0  501  0.00000000000E+00  0.00000000000E+00  0.17691720965E+04  0.17691720994E+04  0.10100000352E+00 0. -1.
        3   -1    0    0  501    0  0.00000000000E+00  0.00000000000E+00 -0.55835326552E+03  0.55835327465E+03  0.10100000352E+00 0.  1.
    10030    2    1    2    0    0  0.00000000000E+00  0.00000000000E+00  0.12108188310E+04  0.23275253740E+04  0.19877857343E+04 0.  0.
        2    1    3    3  502    0 -0.72281315391E+02 -0.81959497523E+03  0.12582528426E+04  0.15033830942E+04  0.25500000920E-02 0. -1.
       -2    1    3    3    0  502  0.72281315391E+02  0.81959497523E+03 -0.47434011615E+02  0.82414227985E+03  0.25500000920E-02 0.  1.
</event>
<event>
 5   0  0.4412054E-05  0.2006983E+04  0.7818609E-02  0.8603363E-01
        2   -1    0    0  501    0  0.00000000000E+00  0.00000000000E+00  0.10362457703E+04  0.10362457703E+04  0.25500000920E-02 0.  1.
       -2   -1    0    0    0  501  0.00000000000E+00  0.00000000000E+00 -0.97177222309E+03  0.97177222309E+03  0.25500000920E-02 0. -1.
    10030    2    1    2    0    0  0.00000000000E+00  0.00000000000E+00  0.64473547242E+02  0.20080179934E+04  0.20069826665E+04 0.  0.
        4    1    3    3  502    0  0.79426687717E+03  0.52942302372E+03 -0.27751077452E+03  0.99406360616E+03  0.12699999809E+01 0. -1.
       -4    1    3    3    0  502 -0.79426687717E+03 -0.52942302372E+03  0.34198432176E+03  0.10139543873E+04  0.12699999809E+01 0.  1.
</event>
<event>
 5   0  0.2110896E-05  0.1999194E+04  0.7818609E-02  0.8606998E-01
       -1   -1    0    0    0  501  0.00000000000E+00  0.00000000000E+00  0.14234202376E+04  0.14234202376E+04  0.50400001928E-02 0. -1.
        1   -1    0    0  501    0  0.00000000000E+00  0.00000000000E+00 -0.70196704732E+03  0.70196704734E+03  0.50400001928E-02 0.  1.
    10030    2    1    2    0    0  0.00000000000E+00  0.00000000000E+00  0.72145319025E+03  0.21253872849E+04  0.19991939389E+04 0.  0.
        4    1    3    3  502    0 -0.95371630307E+03  0.29184734276E+03  0.28986465998E+03  0.10386398761E+04  0.12699999809E+01 0.  1.
       -4    1    3    3    0  502  0.95371630307E+03 -0.29184734276E+03  0.43158853027E+03  0.10867474088E+04  0.12699999809E+01 0. -1.
</event>
<event>
 5   0  0.4412054E-05  0.2002628E+04  0.7818609E-02  0.8605393E-01
       -2   -1    0    0    0  501  0.00000000000E+00  0.00000000000E+00  0.50923181173E+03  0.50923181174E+03  0.25500000920E-02 0.  1.
        2   -1    0    0  501    0  0.00000000000E+00  0.00000000000E+00 -0.19689062979E+04  0.19689062979E+04  0.25500000920E-02 0. -1.
    10030    2    1    2    0    0  0.00000000000E+00  0.00000000000E+00 -0.14596744861E+04  0.24781381096E+04  0.20026279946E+04 0.  0.
        4    1    3    3  502    0 -0.12647636723E+03 -0.69468686445E+01  0.49927675478E+03  0.51509554571E+03  0.12699999809E+01 0.  1.
       -4    1    3    3    0  502  0.12647636723E+03  0.69468686445E+01 -0.19589512409E+04  0.19630425639E+04  0.12699999809E+01 0. -1.
</event>
<event>
 5   0  0.2093980E-05  0.2000672E+04  0.7818609E-02  0.8606306E-01
        1   -1    0    0  501    0  0.00000000000E+00  0.00000000000E+00  0.15970679516E+04  0.15970679516E+04  0.50400001928E-02 0. -1.
       -1   -1    0    0    0  501  0.00000000000E+00  0.00000000000E+00 -0.62656851683E+03  0.62656851685E+03  0.50400001928E-02 0.  1.
    10030    2    1    2    0    0  0.00000000000E+00  0.00000000000E+00  0.97049943475E+03  0.22236364684E+04  0.20006723847E+04 0.  0.
        2    1    3    3  502    0  0.98568701315E+03  0.13232113055E+03  0.36562229756E+03  0.10596072074E+04  0.25500000920E-02 0.  1.
       -2    1    3    3    0  502 -0.98568701315E+03 -0.13232113055E+03  0.60487713719E+03  0.11640292611E+04  0.25500000920E-02 0. -1.
</event>
<event>
 5   0  0.4577279E-05  0.2002427E+04  0.7818609E-02  0.8605487E-01
        2   -1    0    0  501    0  0.00000000000E+00  0.00000000000E+00  0.47230083636E+03  0.47230083636E+03  0.25500000920E-02 0. -1.
       -2   -1    0    0    0  501  0.00000000000E+00  0.00000000000E+00 -0.21224372821E+04  0.21224372821E+04  0.25500000920E-02 0.  1.
    10030    2    1    2    0    0  0.00000000000E+00  0.00000000000E+00 -0.16501364457E+04  0.25947381185E+04  0.20024274304E+04 0.  0.
        1    1    3    3  502    0  0.43284495939E+03  0.90234858000E+03 -0.78748600212E+03  0.12734684614E+04  0.50400001928E-02 0. -1.
       -1    1    3    3    0  502 -0.43284495939E+03 -0.90234858000E+03 -0.86265044363E+03  0.13212696570E+04  0.50400001928E-02 0.  1.
</event>
<event>
 5   0  0.2007644E-05  0.1966012E+04  0.7818609E-02  0.8622678E-01
       -1   -1    0    0    0  501  0.00000000000E+00  0.00000000000E+00  0.67644370716E+03  0.67644370718E+03  0.50400001928E-02 0. -1.
        1   -1    0    0  501    0  0.00000000000E+00  0.00000000000E+00 -0.14285010384E+04  0.14285010384E+04  0.50400001928E-02 0.  1.
    10030    2    1    2    0    0  0.00000000000E+00  0.00000000000E+00 -0.75205733124E+03  0.21049447456E+04  0.19660117376E+04 0.  0.
        1    1    3    3  502    0 -0.18898221063E+03  0.94593342966E+03 -0.17345960685E+03  0.98009824228E+03  0.50400001928E-02 0. -1.
       -1    1    3    3    0  502  0.18898221063E+03 -0.94593342966E+03 -0.57859772439E+03  0.11248465033E+04  0.50400001928E-02 0.  1.
</event>
<event>
 5   0  0.2007644E-05  0.1964097E+04  0.7818609E-02  0.8623593E-01
        1   -1    0    0  501    0  0.00000000000E+00  0.00000000000E+00  0.10516347385E+04  0.10516347385E+04  0.50400001928E-02 0.  1.
       -1   -1    0    0    0  501  0.00000000000E+00  0.00000000000E+00 -0.91706676873E+03  0.91706676875E+03  0.50400001928E-02 0. -1.
    10030    2    1    2    0    0  0.00000000000E+00  0.00000000000E+00  0.13456796972E+03  0.19687015072E+04  0.19640970154E+04 0.  0.
        1    1    3    3  502    0 -0.25919923321E+03  0.20900210046E+03  0.99332926600E+03  0.10476493455E+04  0.50400001928E-02 0.  1.
       -1    1    3    3    0  502  0.25919923321E+03 -0.20900210046E+03 -0.85876129628E+03  0.92105216167E+03  0.50400001928E-02 0. -1.
</event>
<event>
 5   0  0.2142551E-05  0.2005660E+04  0.7818609E-02  0.8603979E-01
        1   -1    0    0  501    0  0.00000000000E+00  0.00000000000E+00  0.85358269176E+03  0.85358269178E+03  0.50400001928E-02 0.  1.
       -1   -1    0    0    0  501  0.00000000000E+00  0.00000000000E+00 -0.11781732594E+04  0.11781732594E+04  0.50400001928E-02 0. -1.
    10030    2    1    2    0    0  0.00000000000E+00  0.00000000000E+00 -0.32459056761E+03  0.20317559512E+04  0.20056602924E+04 0.  0.
        3    1    3    3  502    0 -0.10617644959E+03  0.24460258599E+03 -0.11416021227E+04  0.11723307043E+04  0.10100000352E+00 0. -1.
       -3    1    3    3    0  502  0.10617644959E+03 -0.24460258599E+03  0.81701155510E+03  0.85942524683E+03  0.10100000352E+00 0.  1.
</event>
<event>
 5   0  0.4514680E-05  0.1990922E+04  0.7818609E-02  0.8610877E-01
       -2   -1    0    0    0  501  0.00000000000E+00  0.00000000000E+00  0.91854762347E+03  0.91854762347E+03  0.25500000920E-02 0. -1.
        2   -1    0    0  501    0  0.00000000000E+00  0.00000000000E+00 -0.10788148595E+04  0.10788148595E+04  0.25500000920E-02 0.  1.
    10030    2    1    2    0    0  0.00000000000E+00  0.00000000000E+00 -0.16026723605E+03  0.19973624830E+04  0.19909222239E+04 0.  0.
        3    1    3    3  502    0 -0.24655833119E+03 -0.19107664180E+02 -0.10475072797E+04  0.10763027570E+04  0.10100000352E+00 0.  1.
       -3    1    3    3    0  502  0.24655833119E+03  0.19107664180E+02  0.88724004367E+03  0.92105972597E+03  0.10100000352E+00 0. -1.
</event>
<event>
 5   0  0.4473361E-05  0.2001686E+04  0.7818609E-02  0.8605833E-01
       -2   -1    0    0    0  501  0.00000000000E+00  0.00000000000E+00  0.10623562315E+04  0.10623562315E+04  0.25500000920E-02 0. -1.
        2   -1    0    0  501    0  0.00000000000E+00  0.00000000000E+00 -0.94289149263E+03  0.94289149264E+03  0.25500000920E-02 0.  1.
    10030    2    1    2    0    0  0.00000000000E+00  0.00000000000E+00  0.11946473883E+03  0.20052477241E+04  0.20016859422E+04 0.  0.
        2    1    3    3  502    0  0.20898465540E+03 -0.78659043281E+03 -0.52378805208E+03  0.96786002020E+03  0.25500000920E-02 0.  1.
       -2    1    3    3    0  502 -0.20898465540E+03  0.78659043281E+03  0.64325279091E+03  0.10373877039E+04  0.25500000920E-02 0. -1.
</event>
<event>
 5   0  0.2110896E-05  0.1999881E+04  0.7818609E-02  0.8606676E-01
        1   -1    0    0  501    0  0.00000000000E+00  0.00000000000E+00  0.19461602574E+04  0.19461602574E+04  0.50400001928E-02 0.  1.
       -1   -1    0    0    0  501  0.00000000000E+00  0.00000000000E+00 -0.51377123377E+03  0.51377123379E+03  0.50400001928E-02 0. -1.
    10030    2    1    2    0    0  0.00000000000E+00  0.00000000000E+00  0.14323890236E+04  0.24599314912E+04  0.19998811531E+04 0.  0.
        4    1    3    3  502    0 -0.47362992908E+03  0.78022286008E+03  0.21382261221E+03  0.93744052798E+03  0.12699999809E+01 0. -1.
       -4    1    3    3    0  502  0.47362992908E+03 -0.78022286008E+03  0.12185664114E+04  0.15224909632E+04  0.12699999809E+01 0.  1.
</event>
<event>
 5   0  0.4577279E-05  0.2012189E+04  0.7818609E-02  0.8600943E-01
       -2   -1    0    0    0  501  0.00000000000E+00  0.00000000000E+00  0.12174066920E+04  0.12174066920E+04  0.25500000920E-02 0.  1.
        2   -1    0    0  501    0  0.00000000000E+00  0.00000000000E+00 -0.83146075007E+03  0.83146075007E+03  0.25500000920E-02 0. -1.
    10030    2    1    2    0    0  0.00000000000E+00  0.00000000000E+00  0.38594594195E+03  0.20488674421E+04  0.20121887399E+04 0.  0.
        1    1    3    3  502    0 -0.14780365725E+03  0.98587300873E+03  0.33122111403E+03  0.10504755765E+04  0.50400001928E-02 0.  1.
       -1    1    3    3    0  502  0.14780365725E+03 -0.98587300873E+03  0.54724827915E+02  0.99839186558E+03  0.50400001928E-02 0. -1.
</event>
<event>
 5   0  0.4447313E-05  0.2012915E+04  0.7818609E-02  0.8600606E-01
       -2   -1    0    0    0  501  0.00000000000E+00  0.00000000000E+00  0.70414737585E+03  0.70414737585E+03  0.25500000920E-02 0.  1.
        2   -1    0    0  501    0  0.00000000000E+00  0.00000000000E+00 -0.14385584686E+04  0.14385584686E+04  0.25500000920E-02 0. -1.
    10030    2    1    2    0    0  0.00000000000E+00  0.00000000000E+00 -0.73441109279E+03  0.21427058445E+04  0.20129154684E+04 0.  0.
        5    1    3    3  502    0 -0.30702361312E+03  0.17496479084E+03 -0.13703371277E+04  0.14151756465E+04  0.46999998093E+01 0. -1.
       -5    1    3    3    0  502  0.30702361312E+03 -0.17496479084E+03  0.63592603490E+03  0.72753019794E+03  0.46999998093E+01 0.  1.
</event>
<event>
 5   0  0.2110896E-05  0.2020177E+04  0.7818609E-02  0.8597245E-01
        1   -1    0    0  501    0  0.00000000000E+00  0.00000000000E+00  0.18365513535E+04  0.18365513535E+04  0.50400001928E-02 0. -1.
       -1   -1    0    0    0  501  0.00000000000E+00  0.00000000000E+00 -0.55554065437E+03  0.55554065439E+03  0.50400001928E-02 0.  1.
    10030    2    1    2    0    0  0.00000000000E+00  0.00000000000E+00  0.12810106992E+04  0.23920920079E+04  0.20201771613E+04 0.  0.
        4    1    3    3  502    0 -0.10900613191E+03  0.16138375647E+03 -0.53309872448E+03  0.56755873404E+03  0.12699999809E+01 0.  1.
       -4    1    3    3    0  502  0.10900613191E+03 -0.16138375647E+03  0.18141094237E+04  0.18245332739E+04  0.12699999809E+01 0. -1.
</event>
<event>
 5   0  0.4577279E-05  0.1986318E+04  0.7818609E-02  0.8613044E-01
       -2   -1    0    0    0  501  0.00000000000E+00  0.00000000000E+00  0.11283304484E+04  0.11283304484E+04  0.25500000920E-02 0. -1.
        2   -1    0    0  501    0  0.00000000000E+00  0.00000000000E+00 -0.87418086963E+03  0.87418086964E+03  0.25500000920E-02 0.  1.
    10030    2    1    2    0    0  0.00000000000E+00  0.00000000000E+00  0.25414957877E+03  0.20025113180E+04  0.19863180940E+04 0.  0.
        1    1    3    3  502    0  0.23729839055E+03 -0.50459968758E+02  0.10979983720E+04  0.11244808400E+04  0.50400001928E-02 0. -1.
       -1    1    3    3    0  502 -0.23729839055E+03  0.50459968758E+02 -0.84384879320E+03  0.87803047807E+03  0.50400001928E-02 0.  1.
</event>
<event>
 5   0  0.2007644E-05  0.1995784E+04  0.7818609E-02  0.8608594E-01
        1   -1    0    0  501    0  0.00000000000E+00  0.00000000000E+00  0.20965445880E+04  0.20965445880E+04  0.50400001928E-02 0. -1.
       -1   -1    0    0    0  501  0.00000000000E+00  0.00000000000E+00 -0.47496637421E+03  0.47496637424E+03  0.50400001928E-02 0.  1.
    10030    2    1    2    0    0  0.00000000000E+00  0.00000000000E+00  0.16215782138E+04  0.25715109622E+04  0.19957837372E+04 0.  0.
        1    1    3    3  502    0  0.50974630660E+03  0.41989582654E+03 -0.15310004739E+03  0.67793320230E+03  0.50400001928E-02 0.  1.
       -1    1    3    3    0  502 -0.50974630660E+03 -0.41989582654E+03  0.17746782612E+04  0.18935777599E+04  0.50400001928E-02 0. -1.
</event>
<event>
 5   0  0.4577279E-05  0.1998380E+04  0.7818609E-02  0.8607378E-01
        2   -1    0    0  501    0  0.00000000000E+00  0.00000000000E+00  0.14322218637E+04  0.14322218637E+04  0.25500000920E-02 0.  1.
       -2   -1    0    0    0  501  0.00000000000E+00  0.00000000000E+00 -0.69708551197E+03  0.69708551197E+03  0.25500000920E-02 0. -1.
    10030    2    1    2    0    0  0.00000000000E+00  0.00000000000E+00  0.73513635172E+03  0.21293073757E+04  0.19983804554E+04 0.  0.
        1    1    3    3  502    0  0.24537867572E+03 -0.43127158973E+03 -0.55653337556E+03  0.74561067371E+03  0.50400001928E-02 0. -1.
       -1    1    3    3    0  502 -0.24537867572E+03  0.43127158973E+03  0.12916697273E+04  0.13836967020E+04  0.50400001928E-02 0.  1.
</event>
<event>
 5   0  0.2110896E-05  0.1999439E+04  0.7818609E-02  0.8606883E-01
        1   -1    0    0  501    0  0.00000000000E+00  0.00000000000E+00  0.93970722896E+03  0.93970722897E+03  0.50400001928E-02 0.  1.
       -1   -1    0    0    0  501  0.00000000000E+00  0.00000000000E+00 -0.10635646706E+04  0.10635646706E+04  0.50400001928E-02 0. -1.
    10030    2    1    2    0    0  0.00000000000E+00  0.00000000000E+00 -0.12385744164E+03  0.20032718996E+04  0.19994393309E+04 0.  0.
        4    1    3    3  502    0  0.86091525172E+03 -0.11132679357E+03 -0.55873104434E+03  0.10323520322E+04  0.12699999809E+01 0. -1.
       -4    1    3    3    0  502 -0.86091525172E+03  0.11132679357E+03  0.43487360270E+03  0.97091986736E+03  0.12699999809E+01 0.  1.
</event>
<event>
 5   0  0.4473361E-05  0.1990241E+04  0.7818609E-02  0.8611197E-01
       -2   -1    0    0    0  501  0.00000000000E+00  0.00000000000E+00  0.14947784865E+04  0.14947784865E+04  0.25500000920E-02 0.  1.
        2   -1    0    0  501    0  0.00000000000E+00  0.00000000000E+00 -0.66248253160E+03  0.66248253161E+03  0.25500000920E-02 0. -1.
    10030    2    1    2    0    0  0.00000000000E+00  0.00000000000E+00  0.83229595486E+03  0.21572610181E+04  0.19902408255E+04 0.  0.
        2    1    3    3  502    0 -0.32002068593E+03  0.19467254184E+03  0.14154454194E+04  0.14641708825E+04  0.25500000920E-02 0.  1.
       -2    1    3    3    0  502  0.32002068593E+03 -0.19467254184E+03 -0.58314946454E+03  0.69309013553E+03  0.25500000920E-02 0. -1.
</event>
<event>
 5   0  0.4473361E-05  0.1973127E+04  0.7818609E-02  0.8619288E-01
       -2   -1    0    0    0  501  0.00000000000E+00  0.00000000000E+00  0.84807997129E+03  0.84807997130E+03  0.25500000920E-02 0.  1.
        2   -1    0    0  501    0  0.00000000000E+00  0.00000000000E+00 -0.11476606592E+04  0.11476606592E+04  0.25500000920E-02 0. -1.
    10030    2    1    2    0    0  0.00000000000E+00  0.00000000000E+00 -0.29958068795E+03  0.19957406305E+04  0.19731274860E+04 0.  0.
        2    1    3    3  502    0 -0.50506901730E+03 -0.72678907352E+03 -0.59066527936E+03  0.10640500655E+04  0.25500000920E-02 0. -1.
       -2    1    3    3    0  502  0.50506901730E+03  0.72678907352E+03  0.29108459141E+03  0.93169056505E+03  0.25500000920E-02 0.  1.
</event>
<event>
 5   0  0.2110896E-05  0.2007250E+04  0.7818609E-02  0.8603238E-01
       -1   -1    0    0    0  501  0.00000000000E+00  0.00000000000E+00  0.11477229385E+04  0.11477229385E+04  0.50400001928E-02 0.  1.
        1   -1    0    0  501    0  0.00000000000E+00  0.00000000000E+00 -0.87761891832E+03  0.87761891833E+03  0.50400001928E-02 0. -1.
    10030    2    1    2    0    0  0.00000000000E+00  0.00000000000E+00  0.27010402021E+03  0.20253418569E+04  0.20072502224E+04 0.  0.
        4    1    3    3  502    0 -0.83105053656E+03  0.27116936279E+03 -0.36242721706E+03  0.94632601053E+03  0.12699999809E+01 0. -1.
       -4    1    3    3    0  502  0.83105053656E+03 -0.27116936279E+03  0.63253123727E+03  0.10790158463E+04  0.12699999809E+01 0.  1.
</event>
<event>
 5   0  0.2256868E-05  0.2041494E+04  0.7818609E-02  0.8587463E-01
        1   -1    0    0  501    0  0.00000000000E+00  0.00000000000E+00  0.11155519590E+04  0.11155519590E+04  0.50400001928E-02 0. -1.
       -1   -1    0    0    0  501  0.00000000000E+00  0.00000000000E+00 -0.93399943909E+03  0.93399943910E+03  0.50400001928E-02 0.  1.
    10030    2    1    2    0    0  0.00000000000E+00  0.00000000000E+00  0.18155251990E+03  0.20495513981E+04  0.20414944565E+04 0.  0.
        5    1    3    3  502    0 -0.68543813578E+03  0.51814298583E+03 -0.46240215768E+03  0.97577427573E+03  0.46999998093E+01 0.  1.
       -5    1    3    3    0  502  0.68543813578E+03 -0.51814298583E+03  0.64395467759E+03  0.10737771224E+04  0.46999998093E+01 0. -1.
</event>
<event>
 5   0  0.2093980E-05  0.1986331E+04  0.7818609E-02  0.8613038E-01
       -1   -1    0    0    0  501  0.00000000000E+00  0.00000000000E+00  0.85149536562E+03  0.85149536563E+03  0.50400001928E-02 0.  1.
        1   -1    0    0  501    0  0.00000000000E+00  0.00000000000E+00 -0.11584060340E+04  0.11584060340E+04  0.50400001928E-02 0. -1.
    10030    2    1    2    0    0  0.00000000000E+00  0.00000000000E+00 -0.30691066834E+03  0.20099013996E+04  0.19863306567E+04 0.  0.
        2    1    3    3  502    0 -0.43612444450E+02 -0.37903628575E+03 -0.10812915487E+04  0.11466307010E+04  0.25500000920E-02 0. -1.
       -2    1    3    3    0  502  0.43612444450E+02  0.37903628575E+03  0.77438088034E+03  0.86327069860E+03  0.25500000920E-02 0.  1.
</event>
<event>
 5   0  0.4514680E-05  0.1985639E+04  0.7818609E-02  0.8613364E-01
        2   -1    0    0  501    0  0.00000000000E+00  0.00000000000E+00  0.68189100665E+03  0.68189100665E+03  0.25500000920E-02 0. -1.
       -2   -1    0    0    0  501  0.00000000000E+00  0.00000000000E+00 -0.14455253390E+04  0.14455253390E+04  0.25500000920E-02 0.  1.
    10030    2    1    2    0    0  0.00000000000E+00  0.00000000000E+00 -0.76363433235E+03  0.21274163457E+04  0.19856391702E+04 0.  0.
        3    1    3    3  502    0  0.15719802506E+03 -0.54975094550E+03  0.48777094640E+03  0.75157024124E+03  0.10100000352E+00 0. -1.
       -3    1    3    3    0  502 -0.15719802506E+03  0.54975094550E+03 -0.12514052787E+04  0.13758461044E+04  0.10100000352E+00 0.  1.
</event>
<event>
 5   0  0.2093980E-05  0.2004200E+04  0.7818609E-02  0.8604660E-01
       -1   -1    0    0    0  501  0.00000000000E+00  0.00000000000E+00  0.45728766294E+03  0.45728766297E+03  0.50400001928E-02 0.  1.
        1   -1    0    0  501    0  0.00000000000E+00  0.00000000000E+00 -0.21960014310E+04  0.21960014310E+04  0.50400001928E-02 0. -1.
    10030    2    1    2    0    0  0.00000000000E+00  0.00000000000E+00 -0.17387137680E+04  0.26532890939E+04  0.20041999523E+04 0.  0.
        2    1    3    3  502    0 -0.53246372851E+03  0.15448356100E+02 -0.19930426281E+04  0.20630015005E+04  0.25500000920E-02 0.  1.
       -2    1    3    3    0  502  0.53246372851E+03 -0.15448356100E+02  0.25432886004E+03  0.59028759341E+03  0.25500000920E-02 0. -1.
</event>
<event>
 5   0  0.2007644E-05  0.1992554E+04  0.7818609E-02  0.8610110E-01
       -1   -1    0    0    0  501  0.00000000000E+00  0.00000000000E+00  0.81271151109E+03  0.81271151111E+03  0.50400001928E-02 0.  1.
        1   -1    0    0  501    0  0.00000000000E+00  0.00000000000E+00 -0.12213041247E+04  0.12213041247E+04  0.50400001928E-02 0. -1.
    10030    2    1    2    0    0  0.00000000000E+00  0.00000000000E+00 -0.40859261361E+03  0.20340156358E+04  0.19925540602E+04 0.  0.
        1    1    3    3  502    0  0.25212619943E+03 -0.34741393759E+03  0.71346871003E+03  0.83264738316E+03  0.50400001928E-02 0.  1.
       -1    1    3    3    0  502 -0.25212619943E+03  0.34741393759E+03 -0.11220613236E+04  0.12013682527E+04  0.50400001928E-02 0. -1.
</event>
<event>
 5   0  0.4577279E-05  0.2006335E+04  0.7818609E-02  0.8603665E-01
        2   -1    0    0  501    0  0.00000000000E+00  0.00000000000E+00  0.14054769723E+04  0.14054769723E+04  0.25500000920E-02 0. -1.
       -2   -1    0    0    0  501  0.00000000000E+00  0.00000000000E+00 -0.71601646437E+03  0.71601646438E+03  0.25500000920E-02 0.  1.
    10030    2    1    2    0    0  0.00000000000E+00  0.00000000000E+00  0.68946050794E+03  0.21214934367E+04  0.20063346206E+04 0.  0.
        1    1    3    3  502    0  0.74668816102E+03  0.53822212378E+03 -0.77061913328E+02  0.92366920640E+03  0.50400001928E-02 0.  1.
       -1    1    3    3    0  502 -0.74668816102E+03 -0.53822212378E+03  0.76652242127E+03  0.11978242303E+04  0.50400001928E-02 0. -1.
</event>
<event>
 5   0  0.2256868E-05  0.2014302E+04  0.7818609E-02  0.8599963E-01
       -1   -1    0    0    0  501  0.00000000000E+00  0.00000000000E+00  0.53815636272E+03  0.53815636274E+03  0.50400001928E-02 0. -1.
        1   -1    0    0  501    0  0.00000000000E+00  0.00000000000E+00 -0.18848675054E+04  0.18848675054E+04  0.50400001928E-02 0.  1.
    10030    2    1    2    0    0  0.00000000000E+00  0.00000000000E+00 -0.13467111427E+04  0.24230238682E+04  0.20143023020E+04 0.  0.
        5    1    3    3  502    0  0.80028966061E+03 -0.75853800811E+02  0.56478639502E+02  0.80587174333E+03  0.46999998093E+01 0. -1.
       -5    1    3    3    0  502 -0.80028966061E+03  0.75853800811E+02 -0.14031897822E+04  0.16171521248E+04  0.46999998093E+01 0.  1.
</event>
<event>
 5   0  0.2256868E-05  0.1995796E+04  0.7818609E-02  0.8608589E-01
        1   -1    0    0  501    0  0.00000000000E+00  0.00000000000E+00  0.11949932751E+04  0.11949932751E+04  0.50400001928E-02 0.  1.
       -1   -1    0    0    0  501  0.00000000000E+00  0.00000000000E+00 -0.83331055296E+03  0.83331055297E+03  0.50400001928E-02 0. -1.
    10030    2    1    2    0    0  0.00000000000E+00  0.00000000000E+00  0.36168272212E+03  0.20283038281E+04  0.19957960886E+04 0.  0.
        5    1    3    3  502    0 -0.46217258199E+03  0.86485668570E+02 -0.71366258712E+03  0.85464591771E+03  0.46999998093E+01 0. -1.
       -5    1    3    3    0  502  0.46217258199E+03 -0.86485668570E+02  0.10753453092E+04  0.11736579103E+04  0.46999998093E+01 0.  1.
</event>
<event>
 5   0  0.4473361E-05  0.2009283E+04  0.7818609E-02  0.8602293E-01
        2   -1    0    0  501    0  0.00000000000E+00  0.00000000000E+00  0.10419582580E+04  0.10419582580E+04  0.25500000920E-02 0.  1.
       -2   -1    0    0    0  501  0.00000000000E+00  0.00000000000E+00 -0.96866092125E+03  0.96866092125E+03  0.25500000920E-02 0. -1.
    10030    2    1    2    0    0  0.00000000000E+00  0.00000000000E+00  0.73297336781E+02  0.20106191793E+04  0.20092827040E+04 0.  0.
        2    1    3    3  502    0 -0.25973392635E+03  0.55139006060E+03 -0.76251357930E+03  0.97617604460E+03  0.25500000920E-02 0. -1.
       -2    1    3    3    0  502  0.25973392635E+03 -0.55139006060E+03  0.83581091609E+03  0.10344431347E+04  0.25500000920E-02 0.  1.
</event>
<event>
 5   0  0.4473361E-05  0.1995169E+04  0.7818609E-02  0.8608883E-01
        2   -1    0    0  501    0  0.00000000000E+00  0.00000000000E+00  0.24774227331E+04  0.24774227331E+04  0.25500000920E-02 0. -1.
       -2   -1    0    0    0  501  0.00000000000E+00  0.00000000000E+00 -0.40169747645E+03  0.40169747646E+03  0.25500000920E-02 0.  1.
    10030    2    1    2    0    0  0.00000000000E+00  0.00000000000E+00  0.20757252566E+04  0.28791202096E+04  0.19951686244E+04 0.  0.
        2    1    3    3  502    0 -0.80217715645E+02  0.79164532978E+03  0.19061366754E+04  0.20655493786E+04  0.25500000920E-02 0. -1.
       -2    1    3    3    0  502  0.80217715645E+02 -0.79164532978E+03  0.16958858122E+03  0.81357083094E+03  0.25500000920E-02 0.  1.
</event>
<event>
 5   0  0.2142551E-05  0.1977784E+04  0.7818609E-02  0.8617079E-01
        1   -1    0    0  501    0  0.00000000000E+00  0.00000000000E+00  0.12769405689E+04  0.12769405689E+04  0.50400001928E-02 0. -1.
       -1   -1    0    0    0  501  0.00000000000E+00  0.00000000000E+00 -0.76582029823E+03  0.76582029825E+03  0.50400001928E-02 0.  1.
    10030    2    1    2    0    0  0.00000000000E+00  0.00000000000E+00  0.51112027063E+03  0.20427608671E+04  0.19777836154E+04 0.  0.
        3    1    3    3  502    0  0.62564228770E+03 -0.59548403292E+03 -0.24179665484E+03  0.89693652959E+03  0.10100000352E+00 0.  1.
       -3    1    3    3    0  502 -0.62564228770E+03  0.59548403292E+03  0.75291692547E+03  0.11458243375E+04  0.10100000352E+00 0. -1.
</event>
<event>
 5   0  0.4447313E-05  0.1987425E+04  0.7818609E-02  0.8612523E-01
        2   -1    0    0  501    0  0.00000000000E+00  0.00000000000E+00  0.10059467898E+04  0.10059467898E+04  0.25500000920E-02 0.  1.
       -2   -1    0    0    0  501  0.00000000000E+00  0.00000000000E+00 -0.98162666387E+03  0.98162666387E+03  0.25500000920E-02 0. -1.
    10030    2    1    2    0    0  0.00000000000E+00  0.00000000000E+00  0.24320125913E+02  0.19875734537E+04  0.19874246565E+04 0.  0.
        5    1    3    3  502    0  0.66135743133E+03  0.46554199263E+03 -0.56522110668E+03  0.98672183938E+03  0.46999998093E+01 0. -1.
       -5    1    3    3    0  502 -0.66135743133E+03 -0.46554199263E+03  0.58954123259E+03  0.10008516143E+04  0.46999998093E+01 0.  1.
</event>
<event>
 5   0  0.2110896E-05  0.1999587E+04  0.7818609E-02  0.8606814E-01
       -1   -1    0    0    0  501  0.00000000000E+00  0.00000000000E+00  0.63313269295E+03  0.63313269297E+03  0.50400001928E-02 0.  1.
        1   -1    0    0  501    0  0.00000000000E+00  0.00000000000E+00 -0.15787951170E+04  0.15787951170E+04  0.50400001928E-02 0. -1.
    10030    2    1    2    0    0  0.00000000000E+00  0.00000000000E+00 -0.94566242402E+03  0.22119278099E+04  0.19995867614E+04 0.  0.
        4    1    3    3  502    0  0.65530172818E+03  0.65345076924E+03 -0.54276678940E+02  0.92701986686E+03  0.12699999809E+01 0.  1.
       -4    1    3    3    0  502 -0.65530172818E+03 -0.65345076924E+03 -0.89138574508E+03  0.12849079431E+04  0.12699999809E+01 0. -1.
</event>
<event>
 5   0  0.4473361E-05  0.2004061E+04  0.7818609E-02  0.8604725E-01
       -2   -1    0    0    0  501  0.00000000000E+00  0.00000000000E+00  0.43653333833E+03  0.43653333834E+03  0.25500000920E-02 0. -1.
        2   -1    0    0  501    0  0.00000000000E+00  0.00000000000E+00 -0.23000873971E+04  0.23000873971E+04  0.25500000920E-02 0.  1.
    10030    2    1    2    0    0  0.00000000000E+00  0.00000000000E+00 -0.18635540588E+04  0.27366207355E+04  0.20040607076E+04 0.  0.
        2    1    3    3  502    0 -0.28507245651E+03 -0.59223233534E+03 -0.19645962173E+04  0.20716282827E+04  0.25500000920E-02 0.  1.
       -2    1    3    3    0  502  0.28507245651E+03  0.59223233534E+03  0.10104215851E+03  0.66499245280E+03  0.25500000920E-02 0. -1.
</event>
<event>
 5   0  0.2142551E-05  0.1995954E+04  0.7818609E-02  0.8608515E-01
       -1   -1    0    0    0  501  0.00000000000E+00  0.00000000000E+00  0.57962624447E+03  0.57962624449E+03  0.50400001928E-02 0.  1.
        1   -1    0    0  501    0  0.00000000000E+00  0.00000000000E+00 -0.17182768255E+04  0.17182768255E+04  0.50400001928E-02 0. -1.
    10030    2    1    2    0    0  0.00000000000E+00  0.00000000000E+00 -0.11386505810E+04  0.22979030700E+04  0.19959542513E+04 0.  0.
        3    1    3    3  502    0  0.30174204998E+03  0.71996334884E+03  0.14647385717E+03  0.79426071881E+03  0.10100000352E+00 0.  1.
       -3    1    3    3    0  502 -0.30174204998E+03 -0.71996334884E+03 -0.12851244382E+04  0.15036423512E+04  0.10100000352E+00 0. -1.
</event>
<event>
 5   0  0.2256868E-05  0.2001321E+04  0.7818609E-02  0.8606003E-01
        1   -1    0    0  501    0  0.00000000000E+00  0.00000000000E+00  0.10262896925E+04  0.10262896925E+04  0.50400001928E-02 0. -1.
       -1   -1    0    0    0  501  0.00000000000E+00  0.00000000000E+00 -0.97567172551E+03  0.97567172552E+03  0.50400001928E-02 0.  1.
    10030    2    1    2    0    0  0.00000000000E+00  0.00000000000E+00  0.50617967024E+02  0.20019614181E+04  0.20013213987E+04 0.  0.
        5    1    3    3  502    0  0.62087377661E+03 -0.10613304386E+03 -0.75246862391E+03  0.98131523450E+03  0.46999998093E+01 0.  1.
       -5    1    3    3    0  502 -0.62087377661E+03  0.10613304386E+03  0.80308659094E+03  0.10206461836E+04  0.46999998093E+01 0. -1.
</event>
<event>
 5   0  0.2093980E-05  0.1990416E+04  0.7818609E-02  0.8611115E-01
       -1   -1    0    0    0  501  0.00000000000E+00  0.00000000000E+00  0.10485660293E+04  0.10485660293E+04  0.50400001928E-02 0.  1.
        1   -1    0    0  501    0  0.00000000000E+00  0.00000000000E+00 -0.94456512022E+03  0.94456512023E+03  0.50400001928E-02 0. -1.
    10030    2    1    2    0    0  0.00000000000E+00  0.00000000000E+00  0.10400090905E+03  0.19931311495E+04  0.19904159339E+04 0.  0.
        2    1    3    3  502    0 -0.63494853785E+03 -0.76540755796E+03  0.89874291871E+02  0.99854181878E+03  0.25500000920E-02 0. -1.
       -2    1    3    3    0  502  0.63494853785E+03  0.76540755796E+03  0.14126617180E+02  0.99458933074E+03  0.25500000920E-02 0.  1.
</event>
<event>
 5   0  0.2256868E-05  0.1972450E+04  0.7818609E-02  0.8619611E-01
       -1   -1    0    0    0  501  0.00000000000E+00  0.00000000000E+00  0.53731779066E+03  0.53731779068E+03  0.50400001928E-02 0.  1.
        1   -1    0    0  501    0  0.00000000000E+00  0.00000000000E+00 -0.18101759771E+04  0.18101759771E+04  0.50400001928E-02 0. -1.
    10030    2    1    2    0    0  0.00000000000E+00  0.00000000000E+00 -0.12728581864E+04  0.23474937678E+04  0.19724500062E+04 0.  0.
        5    1    3    3  502    0  0.73862658971E+03 -0.64378304098E+03 -0.76997874609E+03  0.12461601832E+04  0.46999998093E+01 0.  1.
       -5    1    3    3    0  502 -0.73862658971E+03  0.64378304098E+03 -0.50287944032E+03  0.11013335845E+04  0.46999998093E+01 0. -1.
</event>
<event>
 5   0  0.4473361E-05  0.2024935E+04  0.7818609E-02  0.8595051E-01
       -2   -1    0    0    0  501  0.00000000000E+00  0.00000000000E+00  0.49533969052E+03  0.49533969053E+03  0.25500000920E-02 0. -1.
        2   -1    0    0  501    0  0.00000000000E+00  0.00000000000E+00 -0.20694692306E+04  0.20694692306E+04  0.25500000920E-02 0.  1.
    10030    2    1    2    0    0  0.00000000000E+00  0.00000000000E+00 -0.15741295401E+04  0.25648089211E+04  0.20249348120E+04 0.  0.
        2    1    3    3  502    0 -0.47363869264E+03 -0.52716346502E+03  0.12880712837E+03  0.72029591582E+03  0.25500000920E-02 0. -1.
       -2    1    3    3    0  502  0.47363869264E+03  0.52716346502E+03 -0.17029366685E+04  0.18445130053E+04  0.25500000920E-02 0.  1.
</event>
<event>
 5   0  0.4473361E-05  0.1996832E+04  0.7818609E-02  0.8608103E-01
        2   -1    0    0  501    0  0.00000000000E+00  0.00000000000E+00  0.91564887670E+03  0.91564887671E+03  0.25500000920E-02 0. -1.
       -2   -1    0    0    0  501  0.00000000000E+00  0.00000000000E+00 -0.10886649639E+04  0.10886649639E+04  0.25500000920E-02 0.  1.
    10030    2    1    2    0    0  0.00000000000E+00  0.00000000000E+00 -0.17301608716E+03  0.20043138406E+04  0.19968323428E+04 0.  0.
        2    1    3    3  502    0 -0.45056093161E+03 -0.15276897125E+03  0.79455706701E+03  0.92610174625E+03  0.25500000920E-02 0. -1.
       -2    1    3    3    0  502  0.45056093161E+03  0.15276897125E+03 -0.96757315417E+03  0.10782120943E+04  0.25500000920E-02 0.  1.
</event>
<event>
 5   0  0.2110896E-05  0.1998007E+04  0.7818609E-02  0.8607553E-01
       -1   -1    0    0    0  501  0.00000000000E+00  0.00000000000E+00  0.11184063698E+04  0.11184063699E+04  0.50400001928E-02 0.  1.
        1   -1    0    0  501    0  0.00000000000E+00  0.00000000000E+00 -0.89234789616E+03  0.89234789617E+03  0.50400001928E-02 0. -1.
    10030    2    1    2    0    0  0.00000000000E+00  0.00000000000E+00  0.22605847369E+03  0.20107542660E+04  0.19980065778E+04 0.  0.
        4    1    3    3  502    0  0.23046953887E+03  0.44061680552E+03  0.98501373957E+03  0.11034097415E+04  0.12699999809E+01 0.  1.
       -4    1    3    3    0  502 -0.23046953887E+03 -0.44061680552E+03 -0.75895526588E+03  0.90734452451E+03  0.12699999809E+01 0. -1.
</event>
<event>
 5   0  0.4412054E-05  0.2000468E+04  0.7818609E-02  0.8606402E-01
        2   -1    0    0  501    0  0.00000000000E+00  0.00000000000E+00  0.23585410401E+04  0.23585410401E+04  0.25500000920E-02 0. -1.
       -2   -1    0    0    0  501  0.00000000000E+00  0.00000000000E+00 -0.42418944930E+03  0.42418944930E+03  0.25500000920E-02 0.  1.
    10030    2    1    2    0    0  0.00000000000E+00  0.00000000000E+00  0.19343515908E+04  0.27827304894E+04  0.20004681701E+04 0.  0.
        4    1    3    3  502    0  0.10492223277E+03 -0.97826087678E+03  0.71654305627E+03  0.12171436162E+04  0.12699999809E+01 0.  1.
       -4    1    3    3    0  502 -0.10492223277E+03  0.97826087678E+03  0.12178085345E+04  0.15655868732E+04  0.12699999809E+01 0. -1.
</event>
<event>
 5   0  0.1601500E-05  0.2016668E+04  0.7818609E-02  0.8598867E-01
        3   -1    0    0  501    0  0.00000000000E+00  0.00000000000E+00  0.15783877348E+04  0.15783877381E+04  0.10100000352E+00 0. -1.
       -3   -1    0    0    0  501  0.00000000000E+00  0.00000000000E+00 -0.64416171729E+03  0.64416172521E+03  0.10100000352E+00 0.  1.
    10030    2    1    2    0    0  0.00000000000E+00  0.00000000000E+00  0.93422601755E+03  0.22225494633E+04  0.20166675147E+04 0.  0.
        4    1    3    3  502    0  0.97022670827E+03 -0.56351443434E+02  0.17093972355E+03  0.98678130941E+03  0.12699999809E+01 0.  1.
       -4    1    3    3    0  502 -0.97022670827E+03  0.56351443434E+02  0.76328629399E+03  0.12357681539E+04  0.12699999809E+01 0. -1.
</event>
<event>
 5   0  0.2256868E-05  0.1996608E+04  0.7818609E-02  0.8608208E-01
        1   -1    0    0  501    0  0.00000000000E+00  0.00000000000E+00  0.16468776961E+04  0.16468776961E+04  0.50400001928E-02 0.  1.
       -1   -1    0    0    0  501  0.00000000000E+00  0.00000000000E+00 -0.60515142421E+03  0.60515142423E+03  0.50400001928E-02 0. -1.
    10030    2    1    2    0    0  0.00000000000E+00  0.00000000000E+00  0.10417262718E+04  0.22520291203E+04  0.19966075060E+04 0.  0.
        5    1    3    3  502    0 -0.94379427270E+03 -0.21475811430E+01  0.88780572254E+03  0.12957520335E+04  0.46999998093E+01 0.  1.
       -5    1    3    3    0  502  0.94379427270E+03  0.21475811430E+01  0.15392054930E+03  0.95627708682E+03  0.46999998093E+01 0. -1.
</event>
<event>
 5   0  0.2142551E-05  0.1997941E+04  0.7818609E-02  0.8607584E-01
       -1   -1    0    0    0  501  0.00000000000E+00  0.00000000000E+00  0.87265140611E+03  0.87265140612E+03  0.50400001928E-02 0. -1.
        1   -1    0    0  501    0  0.00000000000E+00  0.00000000000E+00 -0.11435750942E+04  0.11435750942E+04  0.50400001928E-02 0.  1.
    10030    2    1    2    0    0  0.00000000000E+00  0.00000000000E+00 -0.27092368810E+03  0.20162265003E+04  0.19979413545E+04 0.  0.
        3    1    3    3  502    0  0.26873809482E+03  0.36187488731E+03  0.76419520877E+03  0.88722484466E+03  0.10100000352E+00 0. -1.
       -3    1    3    3    0  502 -0.26873809482E+03 -0.36187488731E+03 -0.10351188969E+04  0.11290016557E+04  0.10100000352E+00 0.  1.
</event>
<event>
 5   0  0.4473361E-05  0.1964419E+04  0.7818609E-02  0.8623439E-01
       -2   -1    0    0    0  501  0.00000000000E+00  0.00000000000E+00  0.84567966654E+03  0.84567966655E+03  0.25500000920E-02 0. -1.
        2   -1    0    0  501    0  0.00000000000E+00  0.00000000000E+00 -0.11407809666E+04  0.11407809666E+04  0.25500000920E-02 0.  1.
    10030    2    1    2    0    0  0.00000000000E+00  0.00000000000E+00 -0.29510130005E+03  0.19864606331E+04  0.19644187613E+04 0.  0.
        2    1    3    3  502    0 -0.65690853835E+03  0.52954713593E+03  0.36086935529E+03  0.91770130682E+03  0.25500000920E-02 0. -1.
       -2    1    3    3    0  502  0.65690853835E+03 -0.52954713593E+03 -0.65597065534E+03  0.10687593263E+04  0.25500000920E-02 0.  1.
</event>
<event>
 5   0  0.2007644E-05  0.2001934E+04  0.7818609E-02  0.8605717E-01
        1   -1    0    0  501    0  0.00000000000E+00  0.00000000000E+00  0.12253046694E+04  0.12253046694E+04  0.50400001928E-02 0. -1.
       -1   -1    0    0    0  501  0.00000000000E+00  0.00000000000E+00 -0.81770261445E+03  0.81770261446E+03  0.50400001928E-02 0.  1.
    10030    2    1    2    0    0  0.00000000000E+00  0.00000000000E+00  0.40760205499E+03  0.20430072839E+04  0.20019338967E+04 0.  0.
        1    1    3    3  502    0 -0.22826946416E+03  0.97398400643E+03  0.16870001459E+03  0.10145006101E+04  0.50400001928E-02 0.  1.
       -1    1    3    3    0  502  0.22826946416E+03 -0.97398400643E+03  0.23890204041E+03  0.10285066738E+04  0.50400001928E-02 0. -1.
</event>
<event>
 5   0  0.4473361E-05  0.2001077E+04  0.7818609E-02  0.8606117E-01
        2   -1    0    0  501    0  0.00000000000E+00  0.00000000000E+00  0.16551520155E+04  0.16551520155E+04  0.25500000920E-02 0. -1.
       -2   -1    0    0    0  501  0.00000000000E+00  0.00000000000E+00 -0.60482485837E+03  0.60482485837E+03  0.25500000920E-02 0.  1.
    10030    2    1    2    0    0  0.00000000000E+00  0.00000000000E+00  0.10503271571E+04  0.22599768738E+04  0.20010767935E+04 0.  0.
        2    1    3    3  502    0  0.46874322134E+03  0.78823438312E+03  0.97697704280E+03  0.13399693252E+04  0.25500000920E-02 0.  1.
       -2    1    3    3    0  502 -0.46874322134E+03 -0.78823438312E+03  0.73350114295E+02  0.92000754864E+03  0.25500000920E-02 0. -1.
</event>
<event>
 5   0  0.4473361E-05  0.1997952E+04  0.7818609E-02  0.8607579E-01
        2   -1    0    0  501    0  0.00000000000E+00  0.00000000000E+00  0.26311740267E+04  0.26311740268E+04  0.25500000920E-02 0. -1.
       -2   -1    0    0    0  501  0.00000000000E+00  0.00000000000E+00 -0.37928048184E+03  0.37928048185E+03  0.25500000920E-02 0.  1.
    10030    2    1    2    0    0  0.00000000000E+00  0.00000000000E+00  0.22518935449E+04  0.30104545086E+04  0.19979519040E+04 0.  0.
        2    1    3    3  502    0 -0.79465289114E+03 -0.18906157450E+03  0.25940916167E+03  0.85703594412E+03  0.25500000920E-02 0.  1.
       -2    1    3    3    0  502  0.79465289114E+03  0.18906157450E+03  0.19924843832E+04  0.21534185645E+04  0.25500000920E-02 0. -1.
</event>
<event>
 5   0  0.2142551E-05  0.1983914E+04  0.7818609E-02  0.8614179E-01
       -1   -1    0    0    0  501  0.00000000000E+00  0.00000000000E+00  0.17765828211E+04  0.17765828211E+04  0.50400001928E-02 0. -1.
        1   -1    0    0  501    0  0.00000000000E+00  0.00000000000E+00 -0.55386017790E+03  0.55386017792E+03  0.50400001928E-02 0.  1.
    10030    2    1    2    0    0  0.00000000000E+00  0.00000000000E+00  0.12227226432E+04  0.23304429990E+04  0.19839137858E+04 0.  0.
        3    1    3    3  502    0 -0.14596295380E+03 -0.78441284215E+03 -0.80966372144E+02  0.80197522058E+03  0.10100000352E+00 0.  1.
       -3    1    3    3    0  502  0.14596295380E+03  0.78441284215E+03  0.13036890153E+04  0.15284677784E+04  0.10100000352E+00 0. -1.
</event>
<event>
 5   0  0.2007644E-05  0.2007423E+04  0.7818609E-02  0.8603158E-01
        1   -1    0    0  501    0  0.00000000000E+00  0.00000000000E+00  0.12332268934E+04  0.12332268935E+04  0.50400001928E-02 0.  1.
       -1   -1    0    0    0  501  0.00000000000E+00  0.00000000000E+00 -0.81691128247E+03  0.81691128248E+03  0.50400001928E-02 0. -1.
    10030    2    1    2    0    0  0.00000000000E+00  0.00000000000E+00  0.41631561097E+03  0.20501381759E+04  0.20074231872E+04 0.  0.
        1    1    3    3  502    0 -0.26806934141E+03  0.13275260778E+03  0.11866431147E+04  0.12237672607E+04  0.50400001928E-02 0.  1.
       -1    1    3    3    0  502  0.26806934141E+03 -0.13275260778E+03 -0.77032750368E+03  0.82637091528E+03  0.50400001928E-02 0. -1.
</event>
<event>
 5   0  0.2142551E-05  0.2049555E+04  0.7818609E-02  0.8583796E-01
       -1   -1    0    0    0  501  0.00000000000E+00  0.00000000000E+00  0.64371211374E+03  0.64371211376E+03  0.50400001928E-02 0. -1.
        1   -1    0    0  501    0  0.00000000000E+00  0.00000000000E+00 -0.16314264774E+04  0.16314264774E+04  0.50400001928E-02 0.  1.
    10030    2    1    2    0    0  0.00000000000E+00  0.00000000000E+00 -0.98771436364E+03  0.22751385912E+04  0.20495550602E+04 0.  0.
        3    1    3    3  502    0 -0.57651753112E+03 -0.12155480135E+03 -0.14246057964E+04  0.15416386473E+04  0.10100000352E+00 0.  1.
       -3    1    3    3    0  502  0.57651753112E+03  0.12155480135E+03  0.43689143277E+03  0.73349994386E+03  0.10100000352E+00 0. -1.
</event>
<event>
 5   0  0.1601500E-05  0.1995360E+04  0.7818609E-02  0.8608793E-01
       -3   -1    0    0    0  501  0.00000000000E+00  0.00000000000E+00  0.91960165763E+03  0.91960166318E+03  0.10100000352E+00 0. -1.
        3   -1    0    0  501    0  0.00000000000E+00  0.00000000000E+00 -0.10823877352E+04  0.10823877399E+04  0.10100000352E+00 0.  1.
    10030    2    1    2    0    0  0.00000000000E+00  0.00000000000E+00 -0.16278607759E+03  0.20019894031E+04  0.19953601838E+04 0.  0.
        2    1    3    3  502    0 -0.57099878162E+03  0.42977877945E+03 -0.77984962593E+03  0.10577877136E+04  0.25500000920E-02 0.  1.
       -2    1    3    3    0  502  0.57099878162E+03 -0.42977877945E+03  0.61706354834E+03  0.94420168956E+03  0.25500000920E-02 0. -1.
</event>
<event>
 5   0  0.2110896E-05  0.1971597E+04  0.7818609E-02  0.8620016E-01
       -1   -1    0    0    0  501  0.00000000000E+00  0.00000000000E+00  0.37182324209E+03  0.37182324212E+03  0.50400001928E-02 0. -1.
        1   -1    0    0  501    0  0.00000000000E+00  0.00000000000E+00 -0.26136034224E+04  0.26136034224E+04  0.50400001928E-02 0.  1.
    10030    2    1    2    0    0  0.00000000000E+00  0.00000000000E+00 -0.22417801803E+04  0.29854266645E+04  0.19715968128E+04 0.  0.
        4    1    3    3  502    0 -0.37148250396E+03  0.45686783955E+03 -0.23180507126E+04  0.23916705862E+04  0.12699999809E+01 0.  1.
       -4    1    3    3    0  502  0.37148250396E+03 -0.45686783955E+03  0.76270532321E+02  0.59375607834E+03  0.12699999809E+01 0. -1.
</event>
<event>
 5   0  0.2110896E-05  0.2023770E+04  0.7818609E-02  0.8595587E-01
        1   -1    0    0  501    0  0.00000000000E+00  0.00000000000E+00  0.12158015177E+04  0.12158015177E+04  0.50400001928E-02 0. -1.
       -1   -1    0    0    0  501  0.00000000000E+00  0.00000000000E+00 -0.84216969728E+03  0.84216969729E+03  0.50400001928E-02 0.  1.
    10030    2    1    2    0    0  0.00000000000E+00  0.00000000000E+00  0.37363182037E+03  0.20579712150E+04  0.20237699435E+04 0.  0.
        4    1    3    3  502    0 -0.24512792629E+03  0.13133182393E+03 -0.80254649176E+03  0.84936342785E+03  0.12699999809E+01 0.  1.
       -4    1    3    3    0  502  0.24512792629E+03 -0.13133182393E+03  0.11761783121E+04  0.12086077871E+04  0.12699999809E+01 0. -1.
</event>
<event>
 5   0  0.4577279E-05  0.2000100E+04  0.7818609E-02  0.8606574E-01
        2   -1    0    0  501    0  0.00000000000E+00  0.00000000000E+00  0.11945219254E+04  0.11945219254E+04  0.25500000920E-02 0. -1.
       -2   -1    0    0    0  501  0.00000000000E+00  0.00000000000E+00 -0.83723835552E+03  0.83723835552E+03  0.25500000920E-02 0.  1.
    10030    2    1    2    0    0  0.00000000000E+00  0.00000000000E+00  0.35728356991E+03  0.20317602809E+04  0.20000995700E+04 0.  0.
        1    1    3    3  502    0  0.53495853019E+03  0.27699566578E+03  0.98952091743E+03  0.11584726470E+04  0.50400001928E-02 0. -1.
       -1    1    3    3    0  502 -0.53495853019E+03 -0.27699566578E+03 -0.63223734753E+03  0.87328763390E+03  0.50400001928E-02 0.  1.
</event>
<event>
 5   0  0.4514680E-05  0.2000227E+04  0.7818609E-02  0.8606514E-01
        2   -1    0    0  501    0  0.00000000000E+00  0.00000000000E+00  0.10395803801E+04  0.10395803801E+04  0.25500000920E-02 0. -1.
       -2   -1    0    0    0  501  0.00000000000E+00  0.00000000000E+00 -0.96214527632E+03  0.96214527633E+03  0.25500000920E-02 0.  1.
    10030    2    1    2    0    0  0.00000000000E+00  0.00000000000E+00  0.77435103755E+02  0.20017256564E+04  0.20002273391E+04 0.  0.
        3    1    3    3  502    0  0.52570939014E+03 -0.25291334158E+03  0.85166331012E+03  0.10323109634E+04  0.10100000352E+00 0. -1.
       -3    1    3    3    0  502 -0.52570939014E+03  0.25291334158E+03 -0.77422820636E+03  0.96941469297E+03  0.10100000352E+00 0.  1.
</event>
<event>
 5   0  0.2256868E-05  0.2004189E+04  0.7818609E-02  0.8604665E-01
        1   -1    0    0  501    0  0.00000000000E+00  0.00000000000E+00  0.22254998994E+04  0.22254998994E+04  0.50400001928E-02 0. -1.
       -1   -1    0    0    0  501  0.00000000000E+00  0.00000000000E+00 -0.45122145420E+03  0.45122145423E+03  0.50400001928E-02 0.  1.
    10030    2    1    2    0    0  0.00000000000E+00  0.00000000000E+00  0.17742784452E+04  0.26767213536E+04  0.20041889142E+04 0.  0.
        5    1    3    3  502    0  0.72177161183E+03  0.69497375714E+03  0.86695372830E+03  0.13249806186E+04  0.46999998093E+01 0.  1.
       -5    1    3    3    0  502 -0.72177161183E+03 -0.69497375714E+03  0.90732471691E+03  0.13517407350E+04  0.46999998093E+01 0. -1.
</event>
<event>
 5   0  0.4473361E-05  0.2008741E+04  0.7818609E-02  0.8602545E-01
        2   -1    0    0  501    0  0.00000000000E+00  0.00000000000E+00  0.15799614656E+04  0.15799614656E+04  0.25500000920E-02 0.  1.
       -2   -1    0    0    0  501  0.00000000000E+00  0.00000000000E+00 -0.63847139349E+03  0.63847139349E+03  0.25500000920E-02 0. -1.
    10030    2    1    2    0    0  0.00000000000E+00  0.00000000000E+00  0.94149007211E+03  0.22184328591E+04  0.20087410969E+04 0.  0.
        2    1    3    3  502    0 -0.72351756971E+03  0.28642837601E+03 -0.23055656934E+03  0.81158808513E+03  0.25500000920E-02 0. -1.
       -2    1    3    3    0  502  0.72351756971E+03 -0.28642837601E+03  0.11720466414E+04  0.14068447740E+04  0.25500000920E-02 0.  1.
</event>
<event>
 5   0  0.4412054E-05  0.2132140E+04  0.7818609E-02  0.8547216E-01
       -2   -1    0    0    0  501  0.00000000000E+00  0.00000000000E+00  0.85979736354E+03  0.85979736354E+03  0.25500000920E-02 0.  1.
        2   -1    0    0  501    0  0.00000000000E+00  0.00000000000E+00 -0.13218289823E+04  0.13218289823E+04  0.25500000920E-02 0. -1.
    10030    2    1    2    0    0  0.00000000000E+00  0.00000000000E+00 -0.46203161876E+03  0.21816263458E+04  0.21321398397E+04 0.  0.
        4    1    3    3  502    0 -0.54717617318E+03  0.91397266189E+03 -0.27388903156E+03  0.10998929974E+04  0.12699999809E+01 0.  1.
       -4    1    3    3    0  502  0.54717617318E+03 -0.91397266189E+03 -0.18814258720E+03  0.10817333485E+04  0.12699999809E+01 0. -1.
</event>
<event>
 5   0  0.2110896E-05  0.1998391E+04  0.7818609E-02  0.8607374E-01
        1   -1    0    0  501    0  0.00000000000E+00  0.00000000000E+00  0.13143007282E+04  0.13143007282E+04  0.50400001928E-02 0. -1.
       -1   -1    0    0    0  501  0.00000000000E+00  0.00000000000E+00 -0.75963677898E+03  0.75963677899E+03  0.50400001928E-02 0.  1.
    10030    2    1    2    0    0  0.00000000000E+00  0.00000000000E+00  0.55466394921E+03  0.20739375072E+04  0.19983905242E+04 0.  0.
        4    1    3    3  502    0 -0.48770232356E+03  0.91926441951E+02 -0.62268131270E+03  0.79626481601E+03  0.12699999809E+01 0.  1.
       -4    1    3    3    0  502  0.48770232356E+03 -0.91926441951E+02  0.11773452619E+04  0.12776726912E+04  0.12699999809E+01 0. -1.
</event>
<event>
 5   0  0.4447313E-05  0.2005834E+04  0.7818609E-02  0.8603898E-01
        2   -1    0    0  501    0  0.00000000000E+00  0.00000000000E+00  0.10181031977E+04  0.10181031978E+04  0.25500000920E-02 0.  1.
       -2   -1    0    0    0  501  0.00000000000E+00  0.00000000000E+00 -0.98795705298E+03  0.98795705298E+03  0.25500000920E-02 0. -1.
    10030    2    1    2    0    0  0.00000000000E+00  0.00000000000E+00  0.30146144769E+02  0.20060602507E+04  0.20058337268E+04 0.  0.
        5    1    3    3  502    0  0.28645934286E+03 -0.88780080875E+03  0.38331421108E+03  0.10085638827E+04  0.46999998093E+01 0.  1.
       -5    1    3    3    0  502 -0.28645934286E+03  0.88780080875E+03 -0.35316806631E+03  0.99749636801E+03  0.46999998093E+01 0. -1.
</event>
<event>
 5   0  0.4514680E-05  0.1997774E+04  0.7818609E-02  0.8607662E-01
       -2   -1    0    0    0  501  0.00000000000E+00  0.00000000000E+00  0.38307504100E+03  0.38307504101E+03  0.25500000920E-02 0. -1.
        2   -1    0    0  501    0  0.00000000000E+00  0.00000000000E+00 -0.26046470648E+04  0.26046470648E+04  0.25500000920E-02 0.  1.
    10030    2    1    2    0    0  0.00000000000E+00  0.00000000000E+00 -0.22215720238E+04  0.29877221058E+04  0.19977740424E+04 0.  0.
        3    1    3    3  502    0  0.64527864937E+03 -0.21055279906E+03 -0.14801208386E+02  0.67892275149E+03  0.10100000352E+00 0. -1.
       -3    1    3    3    0  502 -0.64527864937E+03  0.21055279906E+03 -0.22067708154E+04  0.23087993543E+04  0.10100000352E+00 0.  1.
</event>
<event>
 5   0  0.2110896E-05  0.1976469E+04  0.7818609E-02  0.8617702E-01
        1   -1    0    0  501    0  0.00000000000E+00  0.00000000000E+00  0.18878871353E+04  0.18878871353E+04  0.50400001928E-02 0. -1.
       -1   -1    0    0    0  501  0.00000000000E+00  0.00000000000E+00 -0.51730201819E+03  0.51730201822E+03  0.50400001928E-02 0.  1.
    10030    2    1    2    0    0  0.00000000000E+00  0.00000000000E+00  0.13705851171E+04  0.24051891535E+04  0.19764694030E+04 0.  0.
        4    1    3    3  502    0 -0.24303433901E+03  0.63584759428E+03 -0.18651111576E+03  0.70580157431E+03  0.12699999809E+01 0.  1.
       -4    1    3    3    0  502  0.24303433901E+03 -0.63584759428E+03  0.15570962328E+04  0.16993875792E+04  0.12699999809E+01 0. -1.
</event>
<event>
 5   0  0.2007644E-05  0.1996328E+04  0.7818609E-02  0.8608339E-01
       -1   -1    0    0    0  501  0.00000000000E+00  0.00000000000E+00  0.48893561136E+03  0.48893561139E+03  0.50400001928E-02 0. -1.
        1   -1    0    0  501    0  0.00000000000E+00  0.00000000000E+00 -0.20377555100E+04  0.20377555101E+04  0.50400001928E-02 0.  1.
    10030    2    1    2    0    0  0.00000000000E+00  0.00000000000E+00 -0.15488198987E+04  0.25266911214E+04  0.19963278650E+04 0.  0.
        1    1    3    3  502    0 -0.15319624901E+02  0.12597925225E+03 -0.20275030654E+04  0.20314709310E+04  0.50400001928E-02 0.  1.
       -1    1    3    3    0  502  0.15319624901E+02 -0.12597925225E+03  0.47868316676E+03  0.49522019049E+03  0.50400001928E-02 0. -1.
</event>
<event>
 5   0  0.4412054E-05  0.1996324E+04  0.7818609E-02  0.8608341E-01
        2   -1    0    0  501    0  0.00000000000E+00  0.00000000000E+00  0.19548816554E+04  0.19548816554E+04  0.25500000920E-02 0.  1.
       -2   -1    0    0    0  501  0.00000000000E+00  0.00000000000E+00 -0.50966124140E+03  0.50966124141E+03  0.25500000920E-02 0. -1.
    10030    2    1    2    0    0  0.00000000000E+00  0.00000000000E+00  0.14452204140E+04  0.24645428968E+04  0.19963240331E+04 0.  0.
        4    1    3    3  502    0 -0.44642838946E+03  0.12459876192E+03  0.18139765877E+04  0.18722542113E+04  0.12699999809E+01 0.  1.
       -4    1    3    3    0  502  0.44642838946E+03 -0.12459876192E+03 -0.36875617368E+03  0.59228868545E+03  0.12699999809E+01 0. -1.
</event>
<event>
 5   0  0.4514680E-05  0.1997233E+04  0.7818609E-02  0.8607915E-01
       -2   -1    0    0    0  501  0.00000000000E+00  0.00000000000E+00  0.68739591052E+03  0.68739591052E+03  0.25500000920E-02 0.  1.
        2   -1    0    0  501    0  0.00000000000E+00  0.00000000000E+00 -0.14507435989E+04  0.14507435989E+04  0.25500000920E-02 0. -1.
    10030    2    1    2    0    0  0.00000000000E+00  0.00000000000E+00 -0.76334768835E+03  0.21381395094E+04  0.19972333034E+04 0.  0.
        3    1    3    3  502    0  0.24609941408E+03  0.36359643673E+03  0.57852593917E+03  0.72626411374E+03  0.10100000352E+00 0.  1.
       -3    1    3    3    0  502 -0.24609941408E+03 -0.36359643673E+03 -0.13418736275E+04  0.14118753957E+04  0.10100000352E+00 0. -1.
</event>
<event>
 5   0  0.4473361E-05  0.2003413E+04  0.7818609E-02  0.8605027E-01
        2   -1    0    0  501    0  0.00000000000E+00  0.00000000000E+00  0.15186162709E+04  0.15186162709E+04  0.25500000920E-02 0.  1.
       -2   -1    0    0    0  501  0.00000000000E+00  0.00000000000E+00 -0.66074338854E+03  0.66074338854E+03  0.25500000920E-02 0. -1.
    10030    2    1    2    0    0  0.00000000000E+00  0.00000000000E+00  0.85787288232E+03  0.21793596594E+04  0.20034127490E+04 0.  0.
        2    1    3    3  502    0 -0.46532068724E+03 -0.28542617796E+03 -0.48472154894E+03  0.73003179729E+03  0.25500000920E-02 0. -1.
       -2    1    3    3    0  502  0.46532068724E+03  0.28542617796E+03  0.13425944313E+04  0.14493278621E+04  0.25500000920E-02 0.  1.
</event>
<event>
 5   0  0.4473361E-05  0.1995412E+04  0.7818609E-02  0.8608769E-01
        2   -1    0    0  501    0  0.00000000000E+00  0.00000000000E+00  0.18210289406E+04  0.18210289406E+04  0.25500000920E-02 0.  1.
       -2   -1    0    0    0  501  0.00000000000E+00  0.00000000000E+00 -0.54662327274E+03  0.54662327275E+03  0.25500000920E-02 0. -1.
    10030    2    1    2    0    0  0.00000000000E+00  0.00000000000E+00  0.12744056679E+04  0.23676522133E+04  0.19954115358E+04 0.  0.
        2    1    3    3  502    0 -0.35551560621E+03 -0.89983030513E+03  0.34818422476E+03  0.10282597817E+04  0.25500000920E-02 0. -1.
       -2    1    3    3    0  502  0.35551560621E+03  0.89983030513E+03  0.92622144309E+03  0.13393924316E+04  0.25500000920E-02 0.  1.
</event>
<event>
 5   0  0.4412054E-05  0.2005554E+04  0.7818609E-02  0.8604028E-01
        2   -1    0    0  501    0  0.00000000000E+00  0.00000000000E+00  0.12141175176E+04  0.12141175176E+04  0.25500000920E-02 0. -1.
       -2   -1    0    0    0  501  0.00000000000E+00  0.00000000000E+00 -0.82822440556E+03  0.82822440556E+03  0.25500000920E-02 0.  1.
    10030    2    1    2    0    0  0.00000000000E+00  0.00000000000E+00  0.38589311200E+03  0.20423419231E+04  0.20055540474E+04 0.  0.
        4    1    3    3  502    0  0.75006309667E+02 -0.87338919106E+03  0.68883413573E+03  0.11148671244E+04  0.12699999809E+01 0. -1.
       -4    1    3    3    0  502 -0.75006309667E+02  0.87338919106E+03 -0.30294102373E+03  0.92747479875E+03  0.12699999809E+01 0.  1.
</event>
<event>
 5   0  0.4447313E-05  0.2001486E+04  0.7818609E-02  0.8605926E-01
        2   -1    0    0  501    0  0.00000000000E+00  0.00000000000E+00  0.11330326424E+04  0.11330326424E+04  0.25500000920E-02 0. -1.
       -2   -1    0    0    0  501  0.00000000000E+00  0.00000000000E+00 -0.88389898985E+03  0.88389898985E+03  0.25500000920E-02 0.  1.
    10030    2    1    2    0    0  0.00000000000E+00  0.00000000000E+00  0.24913365254E+03  0.20169316323E+04  0.20014858561E+04 0.  0.
        5    1    3    3  502    0  0.16488457509E+03  0.97367128171E+03 -0.38675981874E+02  0.98830188176E+03  0.46999998093E+01 0.  1.
       -5    1    3    3    0  502 -0.16488457509E+03 -0.97367128171E+03  0.28780963442E+03  0.10286297505E+04  0.46999998093E+01 0. -1.
</event>
<event>
 5   0  0.4447313E-05  0.2007184E+04  0.7818609E-02  0.8603269E-01
        2   -1    0    0  501    0  0.00000000000E+00  0.00000000000E+00  0.16037064981E+04  0.16037064981E+04  0.25500000920E-02 0. -1.
       -2   -1    0    0    0  501  0.00000000000E+00  0.00000000000E+00 -0.62804325249E+03  0.62804325250E+03  0.25500000920E-02 0.  1.
    10030    2    1    2    0    0  0.00000000000E+00  0.00000000000E+00  0.97566324557E+03  0.22317497506E+04  0.20071841421E+04 0.  0.
        5    1    3    3  502    0 -0.34491941000E+03  0.50621827300E+03 -0.39606029182E+03  0.72946020047E+03  0.46999998093E+01 0.  1.
       -5    1    3    3    0  502  0.34491941000E+03 -0.50621827300E+03  0.13717235374E+04  0.15022895501E+04  0.46999998093E+01 0. -1.
</event>
<event>
 5   0  0.4514680E-05  0.2005892E+04  0.7818609E-02  0.8603871E-01
       -2   -1    0    0    0  501  0.00000000000E+00  0.00000000000E+00  0.45778706743E+03  0.45778706743E+03  0.25500000920E-02 0.  1.
        2   -1    0    0  501    0  0.00000000000E+00  0.00000000000E+00 -0.21973121311E+04  0.21973121311E+04  0.25500000920E-02 0. -1.
    10030    2    1    2    0    0  0.00000000000E+00  0.00000000000E+00 -0.17395250637E+04  0.26550991986E+04  0.20058923967E+04 0.  0.
        3    1    3    3  502    0  0.93589290400E+03 -0.31785152671E+03 -0.64444658538E+03  0.11799307320E+04  0.10100000352E+00 0.  1.
       -3    1    3    3    0  502 -0.93589290400E+03  0.31785152671E+03 -0.10950784783E+04  0.14751684665E+04  0.10100000352E+00 0. -1.
</event>
<event>
 5   0  0.2007644E-05  0.1995469E+04  0.7818609E-02  0.8608742E-01
        1   -1    0    0  501    0  0.00000000000E+00  0.00000000000E+00  0.68560519946E+03  0.68560519948E+03  0.50400001928E-02 0. -1.
       -1   -1    0    0    0  501  0.00000000000E+00  0.00000000000E+00 -0.14519642659E+04  0.14519642660E+04  0.50400001928E-02 0.  1.
    10030    2    1    2    0    0  0.00000000000E+00  0.00000000000E+00 -0.76635906648E+03  0.21375694654E+04  0.19954691180E+04 0.  0.
        1    1    3    3  502    0  0.15379333513E+03  0.73721261639E+03  0.31790316174E+03  0.81743333182E+03  0.50400001928E-02 0. -1.
       -1    1    3    3    0  502 -0.15379333513E+03 -0.73721261639E+03 -0.10842622282E+04  0.13201361336E+04  0.50400001928E-02 0.  1.
</event>
<event>
 5   0  0.2007644E-05  0.1994810E+04  0.7818609E-02  0.8609051E-01
        1   -1    0    0  501    0  0.00000000000E+00  0.00000000000E+00  0.10624203780E+04  0.10624203780E+04  0.50400001928E-02 0.  1.
       -1   -1    0    0    0  501  0.00000000000E+00  0.00000000000E+00 -0.93636867664E+03  0.93636867665E+03  0.50400001928E-02 0. -1.
    10030    2    1    2    0    0  0.00000000000E+00  0.00000000000E+00  0.12605170139E+03  0.19987890547E+04  0.19948104305E+04 0.  0.
        1    1    3    3  502    0  0.78285083202E+03  0.61716056630E+03  0.95871920944E+02  0.10014659330E+04  0.50400001928E-02 0.  1.
       -1    1    3    3    0  502 -0.78285083202E+03 -0.61716056630E+03  0.30179780446E+02  0.99732312165E+03  0.50400001928E-02 0. -1.
</event>
<event>
 5   0  0.4473361E-05  0.1985942E+04  0.7818609E-02  0.8613221E-01
       -2   -1    0    0    0  501  0.00000000000E+00  0.00000000000E+00  0.69481157008E+03  0.69481157008E+03  0.25500000920E-02 0.  1.
        2   -1    0    0  501    0  0.00000000000E+00  0.00000000000E+00 -0.14190777503E+04  0.14190777503E+04  0.25500000920E-02 0. -1.
    10030    2    1    2    0    0  0.00000000000E+00  0.00000000000E+00 -0.72426618021E+03  0.21138893204E+04  0.19859422346E+04 0.  0.
        2    1    3    3  502    0  0.31506035891E+03  0.40063741644E+03  0.54495448489E+03  0.74615598893E+03  0.25500000920E-02 0.  1.
       -2    1    3    3    0  502 -0.31506035891E+03 -0.40063741644E+03 -0.12692206651E+04  0.13677333314E+04  0.25500000920E-02 0. -1.
</event>
<event>
 5   0  0.4412054E-05  0.1994343E+04  0.7818609E-02  0.8609270E-01
        2   -1    0    0  501    0  0.00000000000E+00  0.00000000000E+00  0.52453643115E+03  0.52453643116E+03  0.25500000920E-02 0.  1.
       -2   -1    0    0    0  501  0.00000000000E+00  0.00000000000E+00 -0.18956754439E+04  0.18956754439E+04  0.25500000920E-02 0. -1.
    10030    2    1    2    0    0  0.00000000000E+00  0.00000000000E+00 -0.13711390128E+04  0.24202118751E+04  0.19943428311E+04 0.  0.
        4    1    3    3  502    0 -0.56649947573E+03 -0.74854132114E+03 -0.10937109559E+04  0.14413330751E+04  0.12699999809E+01 0. -1.
       -4    1    3    3    0  502  0.56649947573E+03  0.74854132114E+03 -0.27742805692E+03  0.97887880001E+03  0.12699999809E+01 0.  1.
</event>
<event>
 5   0  0.2256868E-05  0.1997462E+04  0.7818609E-02  0.8607808E-01
       -1   -1    0    0    0  501  0.00000000000E+00  0.00000000000E+00  0.11764056263E+04  0.11764056263E+04  0.50400001928E-02 0. -1.
        1   -1    0    0  501    0  0.00000000000E+00  0.00000000000E+00 -0.84789094356E+03  0.84789094358E+03  0.50400001928E-02 0.  1.
    10030    2    1    2    0    0  0.00000000000E+00  0.00000000000E+00  0.32851468273E+03  0.20242965699E+04  0.19974620662E+04 0.  0.
        5    1    3    3  502    0  0.17656978793E+03  0.18312681608E+03  0.11430110048E+04  0.11709861519E+04  0.46999998093E+01 0. -1.
       -5    1    3    3    0  502 -0.17656978793E+03 -0.18312681608E+03 -0.81449632208E+03  0.85331041800E+03  0.46999998093E+01 0.  1.
</event>
<event>
 5   0  0.1601500E-05  0.1993326E+04  0.7818609E-02  0.8609747E-01
       -3   -1    0    0    0  501  0.00000000000E+00  0.00000000000E+00  0.76772897420E+03  0.76772898085E+03  0.10100000352E+00 0. -1.
        3   -1    0    0  501    0  0.00000000000E+00  0.00000000000E+00 -0.12938642373E+04  0.12938642412E+04  0.10100000352E+00 0.  1.
    10030    2    1    2    0    0  0.00000000000E+00  0.00000000000E+00 -0.52613526306E+03  0.20615932221E+04  0.19933259388E+04 0.  0.
        5    1    3    3  502    0 -0.86448692274E+03 -0.32715710025E+03 -0.64858772835E+03  0.11291844576E+04  0.46999998093E+01 0.  1.
       -5    1    3    3    0  502  0.86448692274E+03  0.32715710025E+03  0.12245246529E+03  0.93240876449E+03  0.46999998093E+01 0. -1.
</event>
<event>
 5   0  0.4412054E-05  0.1951568E+04  0.7818609E-02  0.8629605E-01
       -2   -1    0    0    0  501  0.00000000000E+00  0.00000000000E+00  0.36582497778E+03  0.36582497779E+03  0.25500000920E-02 0.  1.
        2   -1    0    0  501    0  0.00000000000E+00  0.00000000000E+00 -0.26027585908E+04  0.26027585908E+04  0.25500000920E-02 0. -1.
    10030    2    1    2    0    0  0.00000000000E+00  0.00000000000E+00 -0.22369336130E+04  0.29685835686E+04  0.19515676813E+04 0.  0.
        4    1    3    3  502    0  0.26420296660E+03  0.50066757275E+03  0.90500787681E+02  0.57329157628E+03  0.12699999809E+01 0.  1.
       -4    1    3    3    0  502 -0.26420296660E+03 -0.50066757275E+03 -0.23274344007E+04  0.23952919923E+04  0.12699999809E+01 0. -1.
</event>
<event>
 5   0  0.2256868E-05  0.1998853E+04  0.7818609E-02  0.8607157E-01
        1   -1    0    0  501    0  0.00000000000E+00  0.00000000000E+00  0.60752756692E+03  0.60752756694E+03  0.50400001928E-02 0. -1.
       -1   -1    0    0    0  501  0.00000000000E+00  0.00000000000E+00 -0.16441277256E+04  0.16441277256E+04  0.50400001928E-02 0.  1.
    10030    2    1    2    0    0  0.00000000000E+00  0.00000000000E+00 -0.10366001587E+04  0.22516552926E+04  0.19988525877E+04 0.  0.
        5    1    3    3  502    0 -0.11114680810E+03 -0.88917569637E+03 -0.10168125719E+04  0.13553290849E+04  0.46999998093E+01 0.  1.
       -5    1    3    3    0  502  0.11114680810E+03  0.88917569637E+03 -0.19787586787E+02  0.89632620767E+03  0.46999998093E+01 0. -1.
</event>
<event>
 5   0  0.2110896E-05  0.2001029E+04  0.7818609E-02  0.8606140E-01
       -1   -1    0    0    0  501  0.00000000000E+00  0.00000000000E+00  0.81445074081E+03  0.81445074082E+03  0.50400001928E-02 0.  1.
        1   -1    0    0  501    0  0.00000000000E+00  0.00000000000E+00 -0.12290854638E+04  0.12290854638E+04  0.50400001928E-02 0. -1.
    10030    2    1    2    0    0  0.00000000000E+00  0.00000000000E+00 -0.41463472303E+03  0.20435362047E+04  0.20010293017E+04 0.  0.
        4    1    3    3  502    0 -0.57650657806E+03 -0.38798209531E+03  0.52779142839E+03  0.87261408745E+03  0.12699999809E+01 0.  1.
       -4    1    3    3    0  502  0.57650657806E+03  0.38798209531E+03 -0.94242615142E+03  0.11709221172E+04  0.12699999809E+01 0. -1.
</event>
<event>
 5   0  0.2007644E-05  0.2030840E+04  0.7818609E-02  0.8592336E-01
        1   -1    0    0  501    0  0.00000000000E+00  0.00000000000E+00  0.98521850527E+03  0.98521850528E+03  0.50400001928E-02 0. -1.
       -1   -1    0    0    0  501  0.00000000000E+00  0.00000000000E+00 -0.10465472451E+04  0.10465472451E+04  0.50400001928E-02 0.  1.
    10030    2    1    2    0    0  0.00000000000E+00  0.00000000000E+00 -0.61328739851E+02  0.20317657504E+04  0.20308399371E+04 0.  0.
        1    1    3    3  502    0  0.55251306814E+03  0.83822627612E+03 -0.18299583342E+03  0.10204809922E+04  0.50400001928E-02 0.  1.
       -1    1    3    3    0  502 -0.55251306814E+03 -0.83822627612E+03  0.12166709357E+03  0.10112847582E+04  0.50400001928E-02 0. -1.
</event>
<event>
 5   0  0.2007644E-05  0.2019107E+04  0.7818609E-02  0.8597739E-01
        1   -1    0    0  501    0  0.00000000000E+00  0.00000000000E+00  0.54958345148E+03  0.54958345150E+03  0.50400001928E-02 0.  1.
       -1   -1    0    0    0  501  0.00000000000E+00  0.00000000000E+00 -0.18544928496E+04  0.18544928496E+04  0.50400001928E-02 0. -1.
    10030    2    1    2    0    0  0.00000000000E+00  0.00000000000E+00 -0.13049093981E+04  0.24040763011E+04  0.20191073087E+04 0.  0.
        1    1    3    3  502    0  0.61042519244E+03 -0.16330760484E+03  0.28500643115E+03  0.69319330290E+03  0.50400001928E-02 0.  1.
       -1    1    3    3    0  502 -0.61042519244E+03  0.16330760484E+03 -0.15899158292E+04  0.17108829982E+04  0.50400001928E-02 0. -1.
</event>
<event>
 5   0  0.2007644E-05  0.1997932E+04  0.7818609E-02  0.8607588E-01
        1   -1    0    0  501    0  0.00000000000E+00  0.00000000000E+00  0.10526898692E+04  0.10526898692E+04  0.50400001928E-02 0. -1.
       -1   -1    0    0    0  501  0.00000000000E+00  0.00000000000E+00 -0.94798381189E+03  0.94798381190E+03  0.50400001928E-02 0.  1.
    10030    2    1    2    0    0  0.00000000000E+00  0.00000000000E+00  0.10470605730E+03  0.20006736811E+04  0.19979318857E+04 0.  0.
        1    1    3    3  502    0  0.91222680575E+03 -0.33738971845E+03  0.28057671512E+03  0.10122810185E+04  0.50400001928E-02 0. -1.
       -1    1    3    3    0  502 -0.91222680575E+03  0.33738971845E+03 -0.17587065782E+03  0.98839266264E+03  0.50400001928E-02 0.  1.
</event>
<event>
 5   0  0.2093980E-05  0.1994928E+04  0.7818609E-02  0.8608996E-01
       -1   -1    0    0    0  501  0.00000000000E+00  0.00000000000E+00  0.50093492622E+03  0.50093492625E+03  0.50400001928E-02 0. -1.
        1   -1    0    0  501    0  0.00000000000E+00  0.00000000000E+00 -0.19861556576E+04  0.19861556576E+04  0.50400001928E-02 0.  1.
    10030    2    1    2    0    0  0.00000000000E+00  0.00000000000E+00 -0.14852207314E+04  0.24870905839E+04  0.19949283073E+04 0.  0.
        2    1    3    3  502    0 -0.97723751077E+03 -0.14655868382E+03 -0.91200720474E+03  0.13447043325E+04  0.25500000920E-02 0.  1.
       -2    1    3    3    0  502  0.97723751077E+03  0.14655868382E+03 -0.57321352668E+03  0.11423862514E+04  0.25500000920E-02 0. -1.
</event>
<event>
 5   0  0.2256868E-05  0.1997625E+04  0.7818609E-02  0.8607732E-01
        1   -1    0    0  501    0  0.00000000000E+00  0.00000000000E+00  0.11919754607E+04  0.11919754607E+04  0.50400001928E-02 0. -1.
       -1   -1    0    0    0  501  0.00000000000E+00  0.00000000000E+00 -0.83695214578E+03  0.83695214580E+03  0.50400001928E-02 0.  1.
    10030    2    1    2    0    0  0.00000000000E+00  0.00000000000E+00  0.35502331493E+03  0.20289276065E+04  0.19976250094E+04 0.  0.
        5    1    3    3  502    0 -0.72230867871E+03  0.47481904630E+02  0.87649622650E+03  0.11367726614E+04  0.46999998093E+01 0. -1.
       -5    1    3    3    0  502  0.72230867871E+03 -0.47481904630E+02 -0.52147291157E+03  0.89215494513E+03  0.46999998093E+01 0.  1.
</event>
<event>
 5   0  0.4514680E-05  0.2001148E+04  0.7818609E-02  0.8606084E-01
        2   -1    0    0  501    0  0.00000000000E+00  0.00000000000E+00  0.12487946721E+04  0.12487946721E+04  0.25500000920E-02 0. -1.
       -2   -1    0    0    0  501  0.00000000000E+00  0.00000000000E+00 -0.80169173508E+03  0.80169173508E+03  0.25500000920E-02 0.  1.
    10030    2    1    2    0    0  0.00000000000E+00  0.00000000000E+00  0.44710293705E+03  0.20504864072E+04  0.20011480380E+04 0.  0.
        3    1    3    3  502    0 -0.58131144914E+03 -0.64945607496E+03  0.72702337247E+03  0.11350238714E+04  0.10100000352E+00 0.  1.
       -3    1    3    3    0  502  0.58131144914E+03  0.64945607496E+03 -0.27992043542E+03  0.91546253587E+03  0.10100000352E+00 0. -1.
</event>
<event>
 5   0  0.2142551E-05  0.2001305E+04  0.7818609E-02  0.8606011E-01
        1   -1    0    0  501    0  0.00000000000E+00  0.00000000000E+00  0.17889126751E+04  0.17889126751E+04  0.50400001928E-02 0. -1.
       -1   -1    0    0    0  501  0.00000000000E+00  0.00000000000E+00 -0.55972874385E+03  0.55972874388E+03  0.50400001928E-02 0.  1.
    10030    2    1    2    0    0  0.00000000000E+00  0.00000000000E+00  0.12291839312E+04  0.23486414190E+04  0.20013054185E+04 0.  0.
        3    1    3    3  502    0 -0.27057646457E+03  0.79161173550E+03  0.12589206089E+04  0.15115362624E+04  0.10100000352E+00 0. -1.
       -3    1    3    3    0  502  0.27057646457E+03 -0.79161173550E+03 -0.29736677616E+02  0.83710515657E+03  0.10100000352E+00 0.  1.
</event>
<event>
 5   0  0.2093980E-05  0.1993802E+04  0.7818609E-02  0.8609524E-01
        1   -1    0    0  501    0  0.00000000000E+00  0.00000000000E+00  0.15246117870E+04  0.15246117870E+04  0.50400001928E-02 0. -1.
       -1   -1    0    0    0  501  0.00000000000E+00  0.00000000000E+00 -0.65184580051E+03  0.65184580053E+03  0.50400001928E-02 0.  1.
    10030    2    1    2    0    0  0.00000000000E+00  0.00000000000E+00  0.87276598649E+03  0.21764575875E+04  0.19938021876E+04 0.  0.
        2    1    3    3  502    0  0.51366325379E+03  0.75050579238E+03  0.88208001123E+03  0.12669546278E+04  0.25500000920E-02 0.  1.
       -2    1    3    3    0  502 -0.51366325379E+03 -0.75050579238E+03 -0.93140247377E+01  0.90950295973E+03  0.25500000920E-02 0. -1.
</event>
<event>
 5   0  0.4447313E-05  0.2004675E+04  0.7818609E-02  0.8604438E-01
        2   -1    0    0  501    0  0.00000000000E+00  0.00000000000E+00  0.72982000394E+03  0.72982000395E+03  0.25500000920E-02 0. -1.
       -2   -1    0    0    0  501  0.00000000000E+00  0.00000000000E+00 -0.13766134798E+04  0.13766134798E+04  0.25500000920E-02 0.  1.
    10030    2    1    2    0    0  0.00000000000E+00  0.00000000000E+00 -0.64679347587E+03  0.21064334838E+04  0.20046745923E+04 0.  0.
        5    1    3    3  502    0 -0.73971965391E+03  0.19083886835E+03 -0.10052209423E+04  0.12625750959E+04  0.46999998093E+01 0. -1.
       -5    1    3    3    0  502  0.73971965391E+03 -0.19083886835E+03  0.35842746640E+03  0.84385838784E+03  0.46999998093E+01 0.  1.
</event>
<event>
 5   0  0.4514680E-05  0.1997533E+04  0.7818609E-02  0.8607775E-01
        2   -1    0    0  501    0  0.00000000000E+00  0.00000000000E+00  0.14120252443E+04  0.14120252443E+04  0.25500000920E-02 0.  1.
       -2   -1    0    0    0  501  0.00000000000E+00  0.00000000000E+00 -0.70645678487E+03  0.70645678488E+03  0.25500000920E-02 0. -1.
    10030    2    1    2    0    0  0.00000000000E+00  0.00000000000E+00  0.70556845942E+03  0.21184820292E+04  0.19975332931E+04 0.  0.
        3    1    3    3  502    0  0.57236229598E+02 -0.59413543128E+03  0.12020595016E+04  0.13420953589E+04  0.10100000352E+00 0.  1.
       -3    1    3    3    0  502 -0.57236229598E+02  0.59413543128E+03 -0.49649104218E+03  0.77638667032E+03  0.10100000352E+00 0. -1.
</event>
<event>
 5   0  0.2007644E-05  0.1999733E+04  0.7818609E-02  0.8606745E-01
        1   -1    0    0  501    0  0.00000000000E+00  0.00000000000E+00  0.11405438398E+04  0.11405438398E+04  0.50400001928E-02 0.  1.
       -1   -1    0    0    0  501  0.00000000000E+00  0.00000000000E+00 -0.87654104199E+03  0.87654104200E+03  0.50400001928E-02 0. -1.
    10030    2    1    2    0    0  0.00000000000E+00  0.00000000000E+00  0.26400279778E+03  0.20170848818E+04  0.19997334680E+04 0.  0.
        1    1    3    3  502    0  0.24896868309E+03 -0.77966960996E+03 -0.44731938745E+03  0.93271900392E+03  0.50400001928E-02 0. -1.
       -1    1    3    3    0  502 -0.24896868309E+03  0.77966960996E+03  0.71132218523E+03  0.10843658779E+04  0.50400001928E-02 0.  1.
</event>
<event>
 5   0  0.4412054E-05  0.1997382E+04  0.7818609E-02  0.8607846E-01
        2   -1    0    0  501    0  0.00000000000E+00  0.00000000000E+00  0.22730517555E+04  0.22730517555E+04  0.25500000920E-02 0.  1.
       -2   -1    0    0    0  501  0.00000000000E+00  0.00000000000E+00 -0.43878602885E+03  0.43878602886E+03  0.25500000920E-02 0. -1.
    10030    2    1    2    0    0  0.00000000000E+00  0.00000000000E+00  0.18342657266E+04  0.27118377843E+04  0.19973816392E+04 0.  0.
        4    1    3    3  502    0  0.23900034807E+03 -0.51919062439E+03  0.20290370048E+04  0.21080020993E+04  0.12699999809E+01 0.  1.
       -4    1    3    3    0  502 -0.23900034807E+03  0.51919062439E+03 -0.19477127819E+03  0.60383568504E+03  0.12699999809E+01 0. -1.
</event>
<event>
 5   0  0.4577279E-05  0.2001686E+04  0.7818609E-02  0.8605833E-01
       -2   -1    0    0    0  501  0.00000000000E+00  0.00000000000E+00  0.11492804617E+04  0.11492804617E+04  0.25500000920E-02 0. -1.
        2   -1    0    0  501    0  0.00000000000E+00  0.00000000000E+00 -0.87157750846E+03  0.87157750846E+03  0.25500000920E-02 0.  1.
    10030    2    1    2    0    0  0.00000000000E+00  0.00000000000E+00  0.27770295320E+03  0.20208579701E+04  0.20016862904E+04 0.  0.
        1    1    3    3  502    0  0.21567403872E+03 -0.88084578406E+03  0.56632441221E+03  0.10691716074E+04  0.50400001928E-02 0. -1.
       -1    1    3    3    0  502 -0.21567403872E+03  0.88084578406E+03 -0.28862145901E+03  0.95168636267E+03  0.50400001928E-02 0.  1.
</event>
<event>
 5   0  0.4514680E-05  0.1928958E+04  0.7818609E-02  0.8640575E-01
        2   -1    0    0  501    0  0.00000000000E+00  0.00000000000E+00  0.67396115609E+03  0.67396115609E+03  0.25500000920E-02 0.  1.
       -2   -1    0    0    0  501  0.00000000000E+00  0.00000000000E+00 -0.13802273757E+04  0.13802273757E+04  0.25500000920E-02 0. -1.
    10030    2    1    2    0    0  0.00000000000E+00  0.00000000000E+00 -0.70626621960E+03  0.20541885318E+04  0.19289578925E+04 0.  0.
        3    1    3    3  502    0  0.37138650946E+03 -0.27530455565E+03  0.54828312240E+03  0.71717147899E+03  0.10100000352E+00 0.  1.
       -3    1    3    3    0  502 -0.37138650946E+03  0.27530455565E+03 -0.12545493420E+04  0.13370170528E+04  0.10100000352E+00 0. -1.
</event>
<event>
 5   0  0.2256868E-05  0.2003738E+04  0.7818609E-02  0.8604875E-01
        1   -1    0    0  501    0  0.00000000000E+00  0.00000000000E+00  0.19753699001E+04  0.19753699001E+04  0.50400001928E-02 0.  1.
       -1   -1    0    0    0  501  0.00000000000E+00  0.00000000000E+00 -0.50812843101E+03  0.50812843104E+03  0.50400001928E-02 0. -1.
    10030    2    1    2    0    0  0.00000000000E+00  0.00000000000E+00  0.14672414690E+04  0.24834983311E+04  0.20037381146E+04 0.  0.
        5    1    3    3  502    0  0.95007257651E+03  0.10383107298E+02  0.33977397036E+03  0.10090659793E+04  0.46999998093E+01 0. -1.
       -5    1    3    3    0  502 -0.95007257651E+03 -0.10383107298E+02  0.11274674987E+04  0.14744323518E+04  0.46999998093E+01 0.  1.
</event>
<event>
 5   0  0.2093980E-05  0.1996257E+04  0.7818609E-02  0.8608373E-01
        1   -1    0    0  501    0  0.00000000000E+00  0.00000000000E+00  0.12378771933E+04  0.12378771933E+04  0.50400001928E-02 0. -1.
       -1   -1    0    0    0  501  0.00000000000E+00  0.00000000000E+00 -0.80481365632E+03  0.80481365633E+03  0.50400001928E-02 0.  1.
    10030    2    1    2    0    0  0.00000000000E+00  0.00000000000E+00  0.43306353700E+03  0.20426908497E+04  0.19962569675E+04 0.  0.
        2    1    3    3  502    0 -0.24412848059E+03 -0.44097813940E+03 -0.66501769187E+03  0.83445129574E+03  0.25500000920E-02 0.  1.
       -2    1    3    3    0  502  0.24412848059E+03  0.44097813940E+03  0.10980812289E+04  0.12082395539E+04  0.25500000920E-02 0. -1.
</event>
<event>
 5   0  0.2007644E-05  0.1968832E+04  0.7818609E-02  0.8621333E-01
       -1   -1    0    0    0  501  0.00000000000E+00  0.00000000000E+00  0.88790776443E+03  0.88790776444E+03  0.50400001928E-02 0.  1.
        1   -1    0    0  501    0  0.00000000000E+00  0.00000000000E+00 -0.10914138720E+04  0.10914138721E+04  0.50400001928E-02 0. -1.
    10030    2    1    2    0    0  0.00000000000E+00  0.00000000000E+00 -0.20350610762E+03  0.19793216365E+04  0.19688319900E+04 0.  0.
        1    1    3    3  502    0  0.91778721723E+02 -0.95810724328E+03  0.10594395263E+03  0.96830622455E+03  0.50400001928E-02 0.  1.
       -1    1    3    3    0  502 -0.91778721723E+02  0.95810724328E+03 -0.30945006024E+03  0.10110154119E+04  0.50400001928E-02 0. -1.
</event>
<event>
 5   0  0.4473361E-05  0.1999243E+04  0.7818609E-02  0.8606975E-01
       -2   -1    0    0    0  501  0.00000000000E+00  0.00000000000E+00  0.52434402056E+03  0.52434402057E+03  0.25500000920E-02 0.  1.
        2   -1    0    0  501    0  0.00000000000E+00  0.00000000000E+00 -0.19057004808E+04  0.19057004808E+04  0.25500000920E-02 0. -1.
    10030    2    1    2    0    0  0.00000000000E+00  0.00000000000E+00 -0.13813564603E+04  0.24300445014E+04  0.19992425087E+04 0.  0.
        2    1    3    3  502    0 -0.91861154905E+03 -0.38933614574E+03 -0.76573208817E+03  0.12576865441E+04  0.25500000920E-02 0.  1.
       -2    1    3    3    0  502  0.91861154905E+03  0.38933614574E+03 -0.61562437208E+03  0.11723579573E+04  0.25500000920E-02 0. -1.
</event>
<event>
 5   0  0.4412054E-05  0.2008376E+04  0.7818609E-02  0.8602715E-01
        2   -1    0    0  501    0  0.00000000000E+00  0.00000000000E+00  0.12134736297E+04  0.12134736297E+04  0.25500000920E-02 0. -1.
       -2   -1    0    0    0  501  0.00000000000E+00  0.00000000000E+00 -0.83099749668E+03  0.83099749669E+03  0.25500000920E-02 0.  1.
    10030    2    1    2    0    0  0.00000000000E+00  0.00000000000E+00  0.38247613305E+03  0.20444711264E+04  0.20083760092E+04 0.  0.
        4    1    3    3  502    0 -0.18294085634E+02  0.97113607508E+03 -0.68199088555E+02  0.97370050759E+03  0.12699999809E+01 0.  1.
       -4    1    3    3    0  502  0.18294085634E+02 -0.97113607508E+03  0.45067522161E+03  0.10707706188E+04  0.12699999809E+01 0. -1.
</event>
<event>
 5   0  0.2093980E-05  0.2004124E+04  0.7818609E-02  0.8604695E-01
        1   -1    0    0  501    0  0.00000000000E+00  0.00000000000E+00  0.10927808882E+04  0.10927808882E+04  0.50400001928E-02 0.  1.
       -1   -1    0    0    0  501  0.00000000000E+00  0.00000000000E+00 -0.91887391718E+03  0.91887391719E+03  0.50400001928E-02 0. -1.
    10030    2    1    2    0    0  0.00000000000E+00  0.00000000000E+00  0.17390697105E+03  0.20116548054E+04  0.20041236044E+04 0.  0.
        2    1    3    3  502    0  0.80262558776E+03  0.21964782012E+03 -0.47342291835E+03  0.95738302608E+03  0.25500000920E-02 0. -1.
       -2    1    3    3    0  502 -0.80262558776E+03 -0.21964782012E+03  0.64732988940E+03  0.10542717793E+04  0.25500000920E-02 0.  1.
</event>
<event>
 5   0  0.2256868E-05  0.1998189E+04  0.7818609E-02  0.8607468E-01
       -1   -1    0    0    0  501  0.00000000000E+00  0.00000000000E+00  0.69769325432E+03  0.69769325434E+03  0.50400001928E-02 0.  1.
        1   -1    0    0  501    0  0.00000000000E+00  0.00000000000E+00 -0.14306999009E+04  0.14306999009E+04  0.50400001928E-02 0. -1.
    10030    2    1    2    0    0  0.00000000000E+00  0.00000000000E+00 -0.73300664659E+03  0.21283931553E+04  0.19981888498E+04 0.  0.
        5    1    3    3  502    0 -0.49706763574E+03 -0.77443079060E+03 -0.78088838416E+03  0.12069084648E+04  0.46999998093E+01 0. -1.
       -5    1    3    3    0  502  0.49706763574E+03  0.77443079060E+03  0.47881737570E+02  0.92148469045E+03  0.46999998093E+01 0.  1.
</event>
<event>
 5   0  0.2093980E-05  0.2001100E+04  0.7818609E-02  0.8606106E-01
        1   -1    0    0  501    0  0.00000000000E+00  0.00000000000E+00  0.12114501928E+04  0.12114501929E+04  0.50400001928E-02 0.  1.
       -1   -1    0    0    0  501  0.00000000000E+00  0.00000000000E+00 -0.82636540297E+03  0.82636540298E+03  0.50400001928E-02 0. -1.
    10030    2    1    2    0    0  0.00000000000E+00  0.00000000000E+00  0.38508478987E+03  0.20378155958E+04  0.20011002242E+04 0.  0.
        2    1    3    3  502    0  0.87563739455E+03 -0.31645937083E+03 -0.18053039110E+03  0.94840845749E+03  0.25500000920E-02 0. -1.
       -2    1    3    3    0  502 -0.87563739455E+03  0.31645937083E+03  0.56561518097E+03  0.10894071383E+04  0.25500000920E-02 0.  1.
</event>
<event>
 5   0  0.1601500E-05  0.1971268E+04  0.7818609E-02  0.8620173E-01
       -3   -1    0    0    0  501  0.00000000000E+00  0.00000000000E+00  0.10083061660E+04  0.10083061710E+04  0.10100000352E+00 0. -1.
        3   -1    0    0  501    0  0.00000000000E+00  0.00000000000E+00 -0.96347172649E+03  0.96347173179E+03  0.10100000352E+00 0.  1.
    10030    2    1    2    0    0  0.00000000000E+00  0.00000000000E+00  0.44834439492E+02  0.19717779028E+04  0.19712681124E+04 0.  0.
        5    1    3    3  502    0 -0.69723149992E+03  0.69131220962E+03  0.10850960749E+03  0.98784652683E+03  0.46999998093E+01 0. -1.
       -5    1    3    3    0  502  0.69723149992E+03 -0.69131220962E+03 -0.63675168002E+02  0.98393137600E+03  0.46999998093E+01 0.  1.
</event>
<event>
 5   0  0.4473361E-05  0.1996821E+04  0.7818609E-02  0.8608108E-01
        2   -1    0    0  501    0  0.00000000000E+00  0.00000000000E+00  0.55839397603E+03  0.55839397604E+03  0.25500000920E-02 0.  1.
       -2   -1    0    0    0  501  0.00000000000E+00  0.00000000000E+00 -0.17851617405E+04  0.17851617405E+04  0.25500000920E-02 0. -1.
    10030    2    1    2    0    0  0.00000000000E+00  0.00000000000E+00 -0.12267677645E+04  0.23435557166E+04  0.19968210357E+04 0.  0.
        2    1    3    3  502    0 -0.14017106139E+03  0.98334154023E+03 -0.49476429491E+03  0.11096847384E+04  0.25500000920E-02 0.  1.
       -2    1    3    3    0  502  0.14017106139E+03 -0.98334154023E+03 -0.73200346961E+03  0.12338709781E+04  0.25500000920E-02 0. -1.
</event>
<event>
 5   0  0.4514680E-05  0.1983035E+04  0.7818609E-02  0.8614594E-01
       -2   -1    0    0    0  501  0.00000000000E+00  0.00000000000E+00  0.82553061852E+03  0.82553061853E+03  0.25500000920E-02 0. -1.
        2   -1    0    0  501    0  0.00000000000E+00  0.00000000000E+00 -0.11908787388E+04  0.11908787388E+04  0.25500000920E-02 0.  1.
    10030    2    1    2    0    0  0.00000000000E+00  0.00000000000E+00 -0.36534812029E+03  0.20164093573E+04  0.19830349083E+04 0.  0.
        3    1    3    3  502    0 -0.71861335455E+03 -0.44555653485E+03  0.34390357102E+03  0.91279540722E+03  0.10100000352E+00 0. -1.
       -3    1    3    3    0  502  0.71861335455E+03  0.44555653485E+03 -0.70925169131E+03  0.11036139501E+04  0.10100000352E+00 0.  1.
</event>
<event>
 5   0  0.4473361E-05  0.1992002E+04  0.7818609E-02  0.8610369E-01
       -2   -1    0    0    0  501  0.00000000000E+00  0.00000000000E+00  0.42756184147E+03  0.42756184148E+03  0.25500000920E-02 0.  1.
        2   -1    0    0  501    0  0.00000000000E+00  0.00000000000E+00 -0.23201734843E+04  0.23201734843E+04  0.25500000920E-02 0. -1.
    10030    2    1    2    0    0  0.00000000000E+00  0.00000000000E+00 -0.18926116428E+04  0.27477353258E+04  0.19920016541E+04 0.  0.
        2    1    3    3  502    0  0.91193003813E+03 -0.29638333782E+03 -0.57474632708E+03  0.11179413302E+04  0.25500000920E-02 0.  1.
       -2    1    3    3    0  502 -0.91193003813E+03  0.29638333782E+03 -0.13178653157E+04  0.16297939955E+04  0.25500000920E-02 0. -1.
</event>
<event>
 5   0  0.2142551E-05  0.2000118E+04  0.7818609E-02  0.8606566E-01
       -1   -1    0    0    0  501  0.00000000000E+00  0.00000000000E+00  0.79282217690E+03  0.79282217691E+03  0.50400001928E-02 0.  1.
        1   -1    0    0  501    0  0.00000000000E+00  0.00000000000E+00 -0.12614655415E+04  0.12614655415E+04  0.50400001928E-02 0. -1.
    10030    2    1    2    0    0  0.00000000000E+00  0.00000000000E+00 -0.46864336464E+03  0.20542877185E+04  0.20001178533E+04 0.  0.
        3    1    3    3  502    0 -0.69627098555E+03  0.58183303131E+03 -0.66617924679E+03  0.11256632537E+04  0.10100000352E+00 0. -1.
       -3    1    3    3    0  502  0.69627098555E+03 -0.58183303131E+03  0.19753588215E+03  0.92862446477E+03  0.10100000352E+00 0.  1.
</event>
<event>
 5   0  0.2256868E-05  0.2002138E+04  0.7818609E-02  0.8605622E-01
       -1   -1    0    0    0  501  0.00000000000E+00  0.00000000000E+00  0.13293144721E+04  0.13293144721E+04  0.50400001928E-02 0.  1.
        1   -1    0    0  501    0  0.00000000000E+00  0.00000000000E+00 -0.75387662393E+03  0.75387662395E+03  0.50400001928E-02 0. -1.
    10030    2    1    2    0    0  0.00000000000E+00  0.00000000000E+00  0.57543784813E+03  0.20831910960E+04  0.20021379636E+04 0.  0.
        5    1    3    3  502    0  0.26954609240E+03  0.87859057686E+03 -0.12526319232E+03  0.92751790011E+03  0.46999998093E+01 0. -1.
       -5    1    3    3    0  502 -0.26954609240E+03 -0.87859057686E+03  0.70070104044E+03  0.11556731959E+04  0.46999998093E+01 0.  1.
</event>
<event>
 5   0  0.4447313E-05  0.1992179E+04  0.7818609E-02  0.8610286E-01
       -2   -1    0    0    0  501  0.00000000000E+00  0.00000000000E+00  0.66553153791E+03  0.66553153791E+03  0.25500000920E-02 0. -1.
        2   -1    0    0  501    0  0.00000000000E+00  0.00000000000E+00 -0.14908292950E+04  0.14908292950E+04  0.25500000920E-02 0.  1.
    10030    2    1    2    0    0  0.00000000000E+00  0.00000000000E+00 -0.82529775708E+03  0.21563608329E+04  0.19921786200E+04 0.  0.
        5    1    3    3  502    0  0.76374875500E+03  0.60291628557E+03 -0.18213900105E+03  0.98995803642E+03  0.46999998093E+01 0.  1.
       -5    1    3    3    0  502 -0.76374875500E+03 -0.60291628557E+03 -0.64315875602E+03  0.11664027965E+04  0.46999998093E+01 0. -1.
</event>
<event>
 5   0  0.2256868E-05  0.2012332E+04  0.7818609E-02  0.8600877E-01
        1   -1    0    0  501    0  0.00000000000E+00  0.00000000000E+00  0.64838437018E+03  0.64838437020E+03  0.50400001928E-02 0.  1.
       -1   -1    0    0    0  501  0.00000000000E+00  0.00000000000E+00 -0.15613728469E+04  0.15613728469E+04  0.50400001928E-02 0. -1.
    10030    2    1    2    0    0  0.00000000000E+00  0.00000000000E+00 -0.91298847669E+03  0.22097572171E+04  0.20123317321E+04 0.  0.
        5    1    3    3  502    0  0.28604282037E+03  0.83273698132E+03 -0.99116820884E+03  0.13257857607E+04  0.46999998093E+01 0. -1.
       -5    1    3    3    0  502 -0.28604282037E+03 -0.83273698132E+03  0.78179732149E+02  0.88397145636E+03  0.46999998093E+01 0.  1.
</event>
<event>
 5   0  0.2093980E-05  0.2038867E+04  0.7818609E-02  0.8588661E-01
       -1   -1    0    0    0  501  0.00000000000E+00  0.00000000000E+00  0.11677349688E+04  0.11677349688E+04  0.50400001928E-02 0. -1.
        1   -1    0    0  501    0  0.00000000000E+00  0.00000000000E+00 -0.88996647329E+03  0.88996647331E+03  0.50400001928E-02 0.  1.
    10030    2    1    2    0    0  0.00000000000E+00  0.00000000000E+00  0.27776849554E+03  0.20577014421E+04  0.20388673051E+04 0.  0.
        2    1    3    3  502    0  0.96127293255E+03 -0.32078465957E+03  0.25079828656E+03  0.10439579633E+04  0.25500000920E-02 0. -1.
       -2    1    3    3    0  502 -0.96127293255E+03  0.32078465957E+03  0.26970208978E+02  0.10137434788E+04  0.25500000920E-02 0.  1.
</event>
<event>
 5   0  0.4447313E-05  0.1994304E+04  0.7818609E-02  0.8609289E-01
       -2   -1    0    0    0  501  0.00000000000E+00  0.00000000000E+00  0.73462985884E+03  0.73462985885E+03  0.25500000920E-02 0. -1.
        2   -1    0    0  501    0  0.00000000000E+00  0.00000000000E+00 -0.13534865367E+04  0.13534865367E+04  0.25500000920E-02 0.  1.
    10030    2    1    2    0    0  0.00000000000E+00  0.00000000000E+00 -0.61885667789E+03  0.20881163956E+04  0.19943035109E+04 0.  0.
        5    1    3    3  502    0 -0.18887970401E+03 -0.41642550587E+03  0.61837224788E+03  0.76908521730E+03  0.46999998093E+01 0. -1.
       -5    1    3    3    0  502  0.18887970401E+03  0.41642550587E+03 -0.12372289258E+04  0.13190311783E+04  0.46999998093E+01 0.  1.
</event>
<event>
 5   0  0.2007644E-05  0.1996464E+04  0.7818609E-02  0.8608276E-01
        1   -1    0    0  501    0  0.00000000000E+00  0.00000000000E+00  0.10130378092E+04  0.10130378093E+04  0.50400001928E-02 0. -1.
       -1   -1    0    0    0  501  0.00000000000E+00  0.00000000000E+00 -0.98364238115E+03  0.98364238116E+03  0.50400001928E-02 0.  1.
    10030    2    1    2    0    0  0.00000000000E+00  0.00000000000E+00  0.29395428097E+02  0.19966801904E+04  0.19964637967E+04 0.  0.
        1    1    3    3  502    0 -0.68154673496E+02 -0.79349999674E+03  0.61657655151E+03  0.10072010466E+04  0.50400001928E-02 0. -1.
       -1    1    3    3    0  502  0.68154673496E+02  0.79349999674E+03 -0.58718112342E+03  0.98947914383E+03  0.50400001928E-02 0.  1.
</event>
<event>
 5   0  0.4514680E-05  0.1942877E+04  0.7818609E-02  0.8633803E-01
       -2   -1    0    0    0  501  0.00000000000E+00  0.00000000000E+00  0.82010935529E+03  0.82010935529E+03  0.25500000920E-02 0. -1.
        2   -1    0    0  501    0  0.00000000000E+00  0.00000000000E+00 -0.11506915872E+04  0.11506915872E+04  0.25500000920E-02 0.  1.
    10030    2    1    2    0    0  0.00000000000E+00  0.00000000000E+00 -0.33058223192E+03  0.19708009425E+04  0.19428771816E+04 0.  0.
        3    1    3    3  502    0 -0.17587227917E+03  0.95442967524E+03 -0.20863535533E+03  0.99267103577E+03  0.10100000352E+00 0.  1.
       -3    1    3    3    0  502  0.17587227917E+03 -0.95442967524E+03 -0.12194687658E+03  0.97812990674E+03  0.10100000352E+00 0. -1.
</event>
<event>
 5   0  0.4577279E-05  0.2007677E+04  0.7818609E-02  0.8603040E-01
        2   -1    0    0  501    0  0.00000000000E+00  0.00000000000E+00  0.21790580482E+04  0.21790580482E+04  0.25500000920E-02 0.  1.
       -2   -1    0    0    0  501  0.00000000000E+00  0.00000000000E+00 -0.46244367890E+03  0.46244367891E+03  0.25500000920E-02 0. -1.
    10030    2    1    2    0    0  0.00000000000E+00  0.00000000000E+00  0.17166143693E+04  0.26415017271E+04  0.20076768867E+04 0.  0.
        1    1    3    3  502    0  0.28150505952E+03 -0.96248754213E+03  0.91808479454E+03  0.13595981234E+04  0.50400001928E-02 0. -1.
       -1    1    3    3    0  502 -0.28150505952E+03  0.96248754213E+03  0.79852957473E+03  0.12819036036E+04  0.50400001928E-02 0.  1.
</event>
<event>
 5   0  0.4514680E-05  0.2004573E+04  0.7818609E-02  0.8604486E-01
       -2   -1    0    0    0  501  0.00000000000E+00  0.00000000000E+00  0.11173792015E+04  0.11173792015E+04  0.25500000920E-02 0. -1.
        2   -1    0    0  501    0  0.00000000000E+00  0.00000000000E+00 -0.89904851289E+03  0.89904851289E+03  0.25500000920E-02 0.  1.
    10030    2    1    2    0    0  0.00000000000E+00  0.00000000000E+00  0.21833068857E+03  0.20164277144E+04  0.20045728816E+04 0.  0.
        3    1    3    3  502    0  0.13261240229E+03 -0.83082645287E+03  0.65710637019E+03  0.10675427092E+04  0.10100000352E+00 0. -1.
       -3    1    3    3    0  502 -0.13261240229E+03  0.83082645287E+03 -0.43877568162E+03  0.94888500515E+03  0.10100000352E+00 0.  1.
</event>
<event>
 5   0  0.2093980E-05  0.2043975E+04  0.7818609E-02  0.8586333E-01
       -1   -1    0    0    0  501  0.00000000000E+00  0.00000000000E+00  0.11997564435E+04  0.11997564435E+04  0.50400001928E-02 0. -1.
        1   -1    0    0  501    0  0.00000000000E+00  0.00000000000E+00 -0.87055835436E+03  0.87055835437E+03  0.50400001928E-02 0.  1.
    10030    2    1    2    0    0  0.00000000000E+00  0.00000000000E+00  0.32919808915E+03  0.20703147979E+04  0.20439745548E+04 0.  0.
        2    1    3    3  502    0 -0.64630115825E+03  0.18607997479E+03  0.94401331360E+03  0.11590910579E+04  0.25500000920E-02 0. -1.
       -2    1    3    3    0  502  0.64630115825E+03 -0.18607997479E+03 -0.61481522445E+03  0.91122374003E+03  0.25500000920E-02 0.  1.
</event>
<event>
 5   0  0.4412054E-05  0.2031849E+04  0.7818609E-02  0.8591874E-01
       -2   -1    0    0    0  501  0.00000000000E+00  0.00000000000E+00  0.59565825815E+03  0.59565825815E+03  0.25500000920E-02 0. -1.
        2   -1    0    0  501    0  0.00000000000E+00  0.00000000000E+00 -0.17327084559E+04  0.17327084559E+04  0.25500000920E-02 0.  1.
    10030    2    1    2    0    0  0.00000000000E+00  0.00000000000E+00 -0.11370501978E+04  0.23283667141E+04  0.20318485187E+04 0.  0.
        4    1    3    3  502    0  0.26371286533E+03 -0.97579249926E+03 -0.45174642652E+03  0.11071548779E+04  0.12699999809E+01 0.  1.
       -4    1    3    3    0  502 -0.26371286533E+03  0.97579249926E+03 -0.68530377126E+03  0.12212118362E+04  0.12699999809E+01 0. -1.
</event>
<event>
 5   0  0.2256868E-05  0.2003371E+04  0.7818609E-02  0.8605046E-01
        1   -1    0    0  501    0  0.00000000000E+00  0.00000000000E+00  0.13622118409E+04  0.13622118409E+04  0.50400001928E-02 0.  1.
       -1   -1    0    0    0  501  0.00000000000E+00  0.00000000000E+00 -0.73657676996E+03  0.73657676997E+03  0.50400001928E-02 0. -1.
    10030    2    1    2    0    0  0.00000000000E+00  0.00000000000E+00  0.62563507097E+03  0.20987886109E+04  0.20033707573E+04 0.  0.
        5    1    3    3  502    0 -0.85214809512E+03 -0.18576793772E+03 -0.20327692566E+03  0.89554994345E+03  0.46999998093E+01 0. -1.
       -5    1    3    3    0  502  0.85214809512E+03  0.18576793772E+03  0.82891199664E+03  0.12032386675E+04  0.46999998093E+01 0.  1.
</event>
<event>
 5   0  0.1601500E-05  0.1999367E+04  0.7818609E-02  0.8606916E-01
       -4   -1    0    0    0  501  0.00000000000E+00  0.00000000000E+00  0.11642857711E+04  0.11642864637E+04  0.12699999809E+01 0.  1.
        4   -1    0    0  501    0  0.00000000000E+00  0.00000000000E+00 -0.85835097082E+03  0.85835191036E+03  0.12699999809E+01 0. -1.
    10030    2    1    2    0    0  0.00000000000E+00  0.00000000000E+00  0.30593480023E+03  0.20226383741E+04  0.19993673725E+04 0.  0.
        5    1    3    3  502    0  0.11160511282E+03 -0.26740671868E+03 -0.81492513665E+03  0.86492029849E+03  0.46999998093E+01 0. -1.
       -5    1    3    3    0  502 -0.11160511282E+03  0.26740671868E+03  0.11208599369E+04  0.11577180756E+04  0.46999998093E+01 0.  1.
</event>
<event>
 5   0  0.1601500E-05  0.2002033E+04  0.7818609E-02  0.8605671E-01
        3   -1    0    0  501    0  0.00000000000E+00  0.00000000000E+00  0.12469808328E+04  0.12469808369E+04  0.10100000352E+00 0.  1.
       -3   -1    0    0    0  501  0.00000000000E+00  0.00000000000E+00 -0.80356804830E+03  0.80356805464E+03  0.10100000352E+00 0. -1.
    10030    2    1    2    0    0  0.00000000000E+00  0.00000000000E+00  0.44341278451E+03  0.20505488915E+04  0.20020329316E+04 0.  0.
        1    1    3    3  502    0  0.70701244519E+03  0.35607673569E+03 -0.40582084752E+03  0.88957731517E+03  0.50400001928E-02 0. -1.
       -1    1    3    3    0  502 -0.70701244519E+03 -0.35607673569E+03  0.84923363203E+03  0.11609715764E+04  0.50400001928E-02 0.  1.
</event>
<event>
 5   0  0.2093980E-05  0.1998108E+04  0.7818609E-02  0.8607506E-01
       -1   -1    0    0    0  501  0.00000000000E+00  0.00000000000E+00  0.84485751905E+03  0.84485751906E+03  0.50400001928E-02 0.  1.
        1   -1    0    0  501    0  0.00000000000E+00  0.00000000000E+00 -0.11813936021E+04  0.11813936021E+04  0.50400001928E-02 0. -1.
    10030    2    1    2    0    0  0.00000000000E+00  0.00000000000E+00 -0.33653608302E+03  0.20262511211E+04  0.19981083731E+04 0.  0.
        2    1    3    3  502    0 -0.82547734300E+03  0.41655952275E+03 -0.55198164776E+03  0.10768558024E+04  0.25500000920E-02 0. -1.
       -2    1    3    3    0  502  0.82547734300E+03 -0.41655952275E+03  0.21544556474E+03  0.94939531870E+03  0.25500000920E-02 0.  1.
</event>
<event>
 5   0  0.2142551E-05  0.2018220E+04  0.7818609E-02  0.8598149E-01
       -1   -1    0    0    0  501  0.00000000000E+00  0.00000000000E+00  0.38172273768E+03  0.38172273771E+03  0.50400001928E-02 0.  1.
        1   -1    0    0  501    0  0.00000000000E+00  0.00000000000E+00 -0.26676511085E+04  0.26676511085E+04  0.50400001928E-02 0. -1.
    10030    2    1    2    0    0  0.00000000000E+00  0.00000000000E+00 -0.22859283709E+04  0.30493738462E+04  0.20182200914E+04 0.  0.
        3    1    3    3  502    0 -0.12882930477E+03  0.56084205111E+03 -0.23954470741E+04  0.24635964546E+04  0.10100000352E+00 0. -1.
       -3    1    3    3    0  502  0.12882930477E+03 -0.56084205111E+03  0.10951870321E+03  0.58577739169E+03  0.10100000352E+00 0.  1.
</event>
<event>
 5   0  0.2256868E-05  0.1990809E+04  0.7818609E-02  0.8610930E-01
        1   -1    0    0  501    0  0.00000000000E+00  0.00000000000E+00  0.13774196653E+04  0.13774196653E+04  0.50400001928E-02 0.  1.
       -1   -1    0    0    0  501  0.00000000000E+00  0.00000000000E+00 -0.71933758762E+03  0.71933758764E+03  0.50400001928E-02 0. -1.
    10030    2    1    2    0    0  0.00000000000E+00  0.00000000000E+00  0.65808207768E+03  0.20967572529E+04  0.19908086188E+04 0.  0.
        5    1    3    3  502    0 -0.50338526102E+03 -0.85601024573E+03  0.40091801922E+03  0.10709377246E+04  0.46999998093E+01 0. -1.
       -5    1    3    3    0  502  0.50338526102E+03  0.85601024573E+03  0.25716405846E+03  0.10258195284E+04  0.46999998093E+01 0.  1.
</event>
<event>
 5   0  0.4447313E-05  0.1965464E+04  0.7818609E-02  0.8622940E-01
        2   -1    0    0  501    0  0.00000000000E+00  0.00000000000E+00  0.15698294813E+04  0.15698294813E+04  0.25500000920E-02 0. -1.
       -2   -1    0    0    0  501  0.00000000000E+00  0.00000000000E+00 -0.61520221582E+03  0.61520221583E+03  0.25500000920E-02 0.  1.
    10030    2    1    2    0    0  0.00000000000E+00  0.00000000000E+00  0.95462726544E+03  0.21850316971E+04  0.19654643984E+04 0.  0.
        5    1    3    3  502    0 -0.56258809860E+03 -0.64104005131E+03 -0.65382971939E+02  0.85541495140E+03  0.46999998093E+01 0.  1.
       -5    1    3    3    0  502  0.56258809860E+03  0.64104005131E+03  0.10200102374E+04  0.13296167457E+04  0.46999998093E+01 0. -1.
</event>
<event>
 5   0  0.2007644E-05  0.2000715E+04  0.7818609E-02  0.8606287E-01
       -1   -1    0    0    0  501  0.00000000000E+00  0.00000000000E+00  0.84971799347E+03  0.84971799349E+03  0.50400001928E-02 0.  1.
        1   -1    0    0  501    0  0.00000000000E+00  0.00000000000E+00 -0.11777020559E+04  0.11777020559E+04  0.50400001928E-02 0. -1.
    10030    2    1    2    0    0  0.00000000000E+00  0.00000000000E+00 -0.32798406245E+03  0.20274200494E+04  0.20007145003E+04 0.  0.
        1    1    3    3  502    0  0.76520984135E+03 -0.86987542926E+01  0.48888478637E+03  0.90809146236E+03  0.50400001928E-02 0.  1.
       -1    1    3    3    0  502 -0.76520984135E+03  0.86987542926E+01 -0.81686884882E+03  0.11193285871E+04  0.50400001928E-02 0. -1.
</event>
<event>
 5   0  0.2256868E-05  0.1990111E+04  0.7818609E-02  0.8611258E-01
        1   -1    0    0  501    0  0.00000000000E+00  0.00000000000E+00  0.13264104118E+04  0.13264104118E+04  0.50400001928E-02 0. -1.
       -1   -1    0    0    0  501  0.00000000000E+00  0.00000000000E+00 -0.74647740697E+03  0.74647740699E+03  0.50400001928E-02 0.  1.
    10030    2    1    2    0    0  0.00000000000E+00  0.00000000000E+00  0.57993300479E+03  0.20728878188E+04  0.19901109565E+04 0.  0.
        5    1    3    3  502    0  0.99088774339E+03  0.18828144028E+02  0.38254714356E+03  0.10623452480E+04  0.46999998093E+01 0.  1.
       -5    1    3    3    0  502 -0.99088774339E+03 -0.18828144028E+02  0.19738586123E+03  0.10105425707E+04  0.46999998093E+01 0. -1.
</event>
<event>
 5   0  0.2110896E-05  0.2004268E+04  0.7818609E-02  0.8604628E-01
        1   -1    0    0  501    0  0.00000000000E+00  0.00000000000E+00  0.12416883404E+04  0.12416883404E+04  0.50400001928E-02 0. -1.
       -1   -1    0    0    0  501  0.00000000000E+00  0.00000000000E+00 -0.80879630369E+03  0.80879630371E+03  0.50400001928E-02 0.  1.
    10030    2    1    2    0    0  0.00000000000E+00  0.00000000000E+00  0.43289203671E+03  0.20504846441E+04  0.20042683853E+04 0.  0.
        4    1    3    3  502    0  0.38267016637E+03  0.55402294947E+03 -0.54289077949E+03  0.86493346341E+03  0.12699999809E+01 0.  1.
       -4    1    3    3    0  502 -0.38267016637E+03 -0.55402294947E+03  0.97578281620E+03  0.11855511807E+04  0.12699999809E+01 0. -1.
</event>
<event>
 5   0  0.2093980E-05  0.2001156E+04  0.7818609E-02  0.8606080E-01
        1   -1    0    0  501    0  0.00000000000E+00  0.00000000000E+00  0.11630623166E+04  0.11630623166E+04  0.50400001928E-02 0. -1.
       -1   -1    0    0    0  501  0.00000000000E+00  0.00000000000E+00 -0.86079363680E+03  0.86079363681E+03  0.50400001928E-02 0.  1.
    10030    2    1    2    0    0  0.00000000000E+00  0.00000000000E+00  0.30226867976E+03  0.20238559534E+04  0.20011563071E+04 0.  0.
        2    1    3    3  502    0  0.92789166653E+03 -0.37379090337E+03  0.12958401600E+03  0.10087093741E+04  0.25500000920E-02 0. -1.
       -2    1    3    3    0  502 -0.92789166653E+03  0.37379090337E+03  0.17268466376E+03  0.10151465792E+04  0.25500000920E-02 0.  1.
</event>
<event>
 5   0  0.4473361E-05  0.1997436E+04  0.7818609E-02  0.8607820E-01
        2   -1    0    0  501    0  0.00000000000E+00  0.00000000000E+00  0.80389050145E+03  0.80389050145E+03  0.25500000920E-02 0. -1.
       -2   -1    0    0    0  501  0.00000000000E+00  0.00000000000E+00 -0.12407634848E+04  0.12407634848E+04  0.25500000920E-02 0.  1.
    10030    2    1    2    0    0  0.00000000000E+00  0.00000000000E+00 -0.43687298334E+03  0.20446539862E+04  0.19974363369E+04 0.  0.
        2    1    3    3  502    0  0.42079004083E+03 -0.73202884295E+03 -0.76443786237E+03  0.11389889072E+04  0.25500000920E-02 0.  1.
       -2    1    3    3    0  502 -0.42079004083E+03  0.73202884295E+03  0.32756487902E+03  0.90566507902E+03  0.25500000920E-02 0. -1.
</event>
<event>
 5   0  0.4514680E-05  0.2010583E+04  0.7818609E-02  0.8601689E-01
        2   -1    0    0  501    0  0.00000000000E+00  0.00000000000E+00  0.11867613259E+04  0.11867613260E+04  0.25500000920E-02 0.  1.
       -2   -1    0    0    0  501  0.00000000000E+00  0.00000000000E+00 -0.85157031669E+03  0.85157031670E+03  0.25500000920E-02 0. -1.
    10030    2    1    2    0    0  0.00000000000E+00  0.00000000000E+00  0.33519100926E+03  0.20383316426E+04  0.20105827197E+04 0.  0.
        3    1    3    3  502    0 -0.17801852306E+03  0.89599348808E+03  0.59304894461E+03  0.10891290034E+04  0.10100000352E+00 0.  1.
       -3    1    3    3    0  502  0.17801852306E+03 -0.89599348808E+03 -0.25785793535E+03  0.94920263920E+03  0.10100000352E+00 0. -1.
</event>
<event>
 5   0  0.4412054E-05  0.1975240E+04  0.7818609E-02  0.8618285E-01
        2   -1    0    0  501    0  0.00000000000E+00  0.00000000000E+00  0.10764323287E+04  0.10764323287E+04  0.25500000920E-02 0.  1.
       -2   -1    0    0    0  501  0.00000000000E+00  0.00000000000E+00 -0.90613525043E+03  0.90613525044E+03  0.25500000920E-02 0. -1.
    10030    2    1    2    0    0  0.00000000000E+00  0.00000000000E+00  0.17029707826E+03  0.19825675791E+04  0.19752400135E+04 0.  0.
        4    1    3    3  502    0 -0.37267858619E+03  0.54970509732E+03  0.81883674830E+03  0.10543055799E+04  0.12699999809E+01 0.  1.
       -4    1    3    3    0  502  0.37267858619E+03 -0.54970509732E+03 -0.64853967005E+03  0.92826199919E+03  0.12699999809E+01 0. -1.
</event>
<event>
 5   0  0.2256868E-05  0.2005769E+04  0.7818609E-02  0.8603928E-01
       -1   -1    0    0    0  501  0.00000000000E+00  0.00000000000E+00  0.69165572276E+03  0.69165572278E+03  0.50400001928E-02 0.  1.
        1   -1    0    0  501    0  0.00000000000E+00  0.00000000000E+00 -0.14541593215E+04  0.14541593216E+04  0.50400001928E-02 0. -1.
    10030    2    1    2    0    0  0.00000000000E+00  0.00000000000E+00 -0.76250359878E+03  0.21458150443E+04  0.20057692954E+04 0.  0.
        5    1    3    3  502    0  0.89584573339E+03  0.44774448179E+03 -0.43726007031E+03  0.10928097538E+04  0.46999998093E+01 0. -1.
       -5    1    3    3    0  502 -0.89584573339E+03 -0.44774448179E+03 -0.32524352847E+03  0.10530052905E+04  0.46999998093E+01 0.  1.
</event>
<event>
 5   0  0.4577279E-05  0.2013807E+04  0.7818609E-02  0.8600192E-01
       -2   -1    0    0    0  501  0.00000000000E+00  0.00000000000E+00  0.46860846199E+03  0.46860846199E+03  0.25500000920E-02 0. -1.
        2   -1    0    0  501    0  0.00000000000E+00  0.00000000000E+00 -0.21635433664E+04  0.21635433664E+04  0.25500000920E-02 0.  1.
    10030    2    1    2    0    0  0.00000000000E+00  0.00000000000E+00 -0.16949349044E+04  0.26321518284E+04  0.20138070706E+04 0.  0.
        1    1    3    3  502    0  0.38879300812E+03 -0.58080796888E+03  0.99903940791E+02  0.70603023822E+03  0.50400001928E-02 0. -1.
       -1    1    3    3    0  502 -0.38879300812E+03  0.58080796888E+03 -0.17948388452E+04  0.19261215902E+04  0.50400001928E-02 0.  1.
</event>
<event>
 5   0  0.4447313E-05  0.2003102E+04  0.7818609E-02  0.8605172E-01
        2   -1    0    0  501    0  0.00000000000E+00  0.00000000000E+00  0.23727162675E+04  0.23727162675E+04  0.25500000920E-02 0. -1.
       -2   -1    0    0    0  501  0.00000000000E+00  0.00000000000E+00 -0.42276635448E+03  0.42276635449E+03  0.25500000920E-02 0.  1.
    10030    2    1    2    0    0  0.00000000000E+00  0.00000000000E+00  0.19499499130E+04  0.27954826220E+04  0.20031022007E+04 0.  0.
        5    1    3    3  502    0  0.85060221821E+03 -0.30103076632E+03  0.36835829457E+03  0.97460431924E+03  0.46999998093E+01 0.  1.
       -5    1    3    3    0  502 -0.85060221821E+03  0.30103076632E+03  0.15815916185E+04  0.18208783028E+04  0.46999998093E+01 0. -1.
</event>
<event>
 5   0  0.2110896E-05  0.1998236E+04  0.7818609E-02  0.8607446E-01
       -1   -1    0    0    0  501  0.00000000000E+00  0.00000000000E+00  0.98949141399E+03  0.98949141401E+03  0.50400001928E-02 0. -1.
        1   -1    0    0  501    0  0.00000000000E+00  0.00000000000E+00 -0.10088379399E+04  0.10088379399E+04  0.50400001928E-02 0.  1.
    10030    2    1    2    0    0  0.00000000000E+00  0.00000000000E+00 -0.19346525904E+02  0.19983293539E+04  0.19982357015E+04 0.  0.
        4    1    3    3  502    0  0.80888853915E+03 -0.50093379218E+03  0.29529927906E+03  0.99621213104E+03  0.12699999809E+01 0.  1.
       -4    1    3    3    0  502 -0.80888853915E+03  0.50093379218E+03 -0.31464580497E+03  0.10021172229E+04  0.12699999809E+01 0. -1.
</event>
<event>
 5   0  0.2093980E-05  0.2066368E+04  0.7818609E-02  0.8576205E-01
        1   -1    0    0  501    0  0.00000000000E+00  0.00000000000E+00  0.10188183538E+04  0.10188183538E+04  0.50400001928E-02 0. -1.
       -1   -1    0    0    0  501  0.00000000000E+00  0.00000000000E+00 -0.10477526836E+04  0.10477526836E+04  0.50400001928E-02 0.  1.
    10030    2    1    2    0    0  0.00000000000E+00  0.00000000000E+00 -0.28934329856E+02  0.20665710374E+04  0.20663684708E+04 0.  0.
        2    1    3    3  502    0  0.93333638012E+02 -0.93610012418E+03 -0.44168002956E+03  0.10392669816E+04  0.25500000920E-02 0.  1.
       -2    1    3    3    0  502 -0.93333638012E+02  0.93610012418E+03  0.41274569970E+03  0.10273040558E+04  0.25500000920E-02 0. -1.
</event>
<event>
 5   0  0.2093980E-05  0.1990460E+04  0.7818609E-02  0.8611094E-01
       -1   -1    0    0    0  501  0.00000000000E+00  0.00000000000E+00  0.12227916425E+04  0.12227916426E+04  0.50400001928E-02 0. -1.
        1   -1    0    0  501    0  0.00000000000E+00  0.00000000000E+00 -0.81001797005E+03  0.81001797007E+03  0.50400001928E-02 0.  1.
    10030    2    1    2    0    0  0.00000000000E+00  0.00000000000E+00  0.41277367249E+03  0.20328096126E+04  0.19904604534E+04 0.  0.
        2    1    3    3  502    0 -0.71172045026E+03  0.62844092271E+03  0.51106142365E+03  0.10782707320E+04  0.25500000920E-02 0. -1.
       -2    1    3    3    0  502  0.71172045026E+03 -0.62844092271E+03 -0.98287751156E+02  0.95453888066E+03  0.25500000920E-02 0.  1.
</event>
<event>
 5   0  0.2142551E-05  0.1997950E+04  0.7818609E-02  0.8607580E-01
        1   -1    0    0  501    0  0.00000000000E+00  0.00000000000E+00  0.19740225125E+04  0.19740225125E+04  0.50400001928E-02 0. -1.
       -1   -1    0    0    0  501  0.00000000000E+00  0.00000000000E+00 -0.50554194714E+03  0.50554194716E+03  0.50400001928E-02 0.  1.
    10030    2    1    2    0    0  0.00000000000E+00  0.00000000000E+00  0.14684805653E+04  0.24795644596E+04  0.19979501342E+04 0.  0.
        3    1    3    3  502    0  0.20316237671E+03 -0.75037424743E+03  0.15128618324E+04  0.17009078154E+04  0.10100000352E+00 0. -1.
       -3    1    3    3    0  502 -0.20316237671E+03  0.75037424743E+03 -0.44381267045E+02  0.77865664421E+03  0.10100000352E+00 0.  1.
</event>
<event>
 5   0  0.2093980E-05  0.2005377E+04  0.7818609E-02  0.8604111E-01
        1   -1    0    0  501    0  0.00000000000E+00  0.00000000000E+00  0.16195663117E+04  0.16195663117E+04  0.50400001928E-02 0. -1.
       -1   -1    0    0    0  501  0.00000000000E+00  0.00000000000E+00 -0.62077359200E+03  0.62077359202E+03  0.50400001928E-02 0.  1.
    10030    2    1    2    0    0  0.00000000000E+00  0.00000000000E+00  0.99879271966E+03  0.22403399037E+04  0.20053767694E+04 0.  0.
        2    1    3    3  502    0 -0.58879730632E+03  0.22519714842E+03  0.13704911752E+04  0.15085231470E+04  0.25500000920E-02 0. -1.
       -2    1    3    3    0  502  0.58879730632E+03 -0.22519714842E+03 -0.37169845553E+03  0.73181675673E+03  0.25500000920E-02 0.  1.
</event>
<event>
 5   0  0.4473361E-05  0.2002459E+04  0.7818609E-02  0.8605472E-01
       -2   -1    0    0    0  501  0.00000000000E+00  0.00000000000E+00  0.13665487712E+04  0.13665487712E+04  0.25500000920E-02 0. -1.
        2   -1    0    0  501    0  0.00000000000E+00  0.00000000000E+00 -0.73357114150E+03  0.73357114150E+03  0.25500000920E-02 0.  1.
    10030    2    1    2    0    0  0.00000000000E+00  0.00000000000E+00  0.63297762975E+03  0.21001199127E+04  0.20024592301E+04 0.  0.
        2    1    3    3  502    0  0.32069113005E+03 -0.25811963519E+03  0.12736848175E+04  0.13385595098E+04  0.25500000920E-02 0. -1.
       -2    1    3    3    0  502 -0.32069113005E+03  0.25811963519E+03 -0.64070718772E+03  0.76156040297E+03  0.25500000920E-02 0.  1.
</event>
<event>
 5   0  0.4473361E-05  0.1992455E+04  0.7818609E-02  0.8610156E-01
       -2   -1    0    0    0  501  0.00000000000E+00  0.00000000000E+00  0.48222174281E+03  0.48222174282E+03  0.25500000920E-02 0. -1.
        2   -1    0    0  501    0  0.00000000000E+00  0.00000000000E+00 -0.20581183375E+04  0.20581183375E+04  0.25500000920E-02 0.  1.
    10030    2    1    2    0    0  0.00000000000E+00  0.00000000000E+00 -0.15758965947E+04  0.25403400803E+04  0.19924551806E+04 0.  0.
        2    1    3    3  502    0  0.73129753883E+02  0.87610374171E+03 -0.19052307415E+03  0.89955809647E+03  0.25500000920E-02 0. -1.
       -2    1    3    3    0  502 -0.73129753883E+02 -0.87610374171E+03 -0.13853735205E+04  0.16407819839E+04  0.25500000920E-02 0.  1.
</event>
<event>
 5   0  0.4514680E-05  0.1994409E+04  0.7818609E-02  0.8609239E-01
       -2   -1    0    0    0  501  0.00000000000E+00  0.00000000000E+00  0.12550716821E+04  0.12550716821E+04  0.25500000920E-02 0. -1.
        2   -1    0    0  501    0  0.00000000000E+00  0.00000000000E+00 -0.79231846035E+03  0.79231846035E+03  0.25500000920E-02 0.  1.
    10030    2    1    2    0    0  0.00000000000E+00  0.00000000000E+00  0.46275322175E+03  0.20473901425E+04  0.19944086470E+04 0.  0.
        3    1    3    3  502    0 -0.72698028712E+03  0.67579752759E+03  0.13283804495E+03  0.10014232834E+04  0.10100000352E+00 0. -1.
       -3    1    3    3    0  502  0.72698028712E+03 -0.67579752759E+03  0.32991517680E+03  0.10459668591E+04  0.10100000352E+00 0.  1.
</event>
<event>
 5   0  0.2007644E-05  0.2002901E+04  0.7818609E-02  0.8605265E-01
        1   -1    0    0  501    0  0.00000000000E+00  0.00000000000E+00  0.12002762055E+04  0.12002762055E+04  0.50400001928E-02 0.  1.
       -1   -1    0    0    0  501  0.00000000000E+00  0.00000000000E+00 -0.83556038667E+03  0.83556038668E+03  0.50400001928E-02 0. -1.
    10030    2    1    2    0    0  0.00000000000E+00  0.00000000000E+00  0.36471581887E+03  0.20358365922E+04  0.20029011463E+04 0.  0.
        1    1    3    3  502    0 -0.78471891450E+03 -0.13039357387E+01 -0.45006116132E+03  0.90462175741E+03  0.50400001928E-02 0. -1.
       -1    1    3    3    0  502  0.78471891450E+03  0.13039357387E+01  0.81477698019E+03  0.11312148348E+04  0.50400001928E-02 0.  1.
</event>
<event>
 5   0  0.2093980E-05  0.2021092E+04  0.7818609E-02  0.8596823E-01
       -1   -1    0    0    0  501  0.00000000000E+00  0.00000000000E+00  0.76597321557E+03  0.76597321559E+03  0.50400001928E-02 0.  1.
        1   -1    0    0  501    0  0.00000000000E+00  0.00000000000E+00 -0.13332099693E+04  0.13332099693E+04  0.50400001928E-02 0. -1.
    10030    2    1    2    0    0  0.00000000000E+00  0.00000000000E+00 -0.56723675371E+03  0.20991831849E+04  0.20210919101E+04 0.  0.
        2    1    3    3  502    0  0.33371753445E+03 -0.95372846870E+03 -0.26760372132E+03  0.10452641468E+04  0.25500000920E-02 0.  1.
       -2    1    3    3    0  502 -0.33371753445E+03  0.95372846870E+03 -0.29963303239E+03  0.10539190381E+04  0.25500000920E-02 0. -1.
</event>
<event>
 5   0  0.2093980E-05  0.2000931E+04  0.7818609E-02  0.8606186E-01
       -1   -1    0    0    0  501  0.00000000000E+00  0.00000000000E+00  0.58610481618E+03  0.58610481620E+03  0.50400001928E-02 0. -1.
        1   -1    0    0  501    0  0.00000000000E+00  0.00000000000E+00 -0.17077678774E+04  0.17077678774E+04  0.50400001928E-02 0.  1.
    10030    2    1    2    0    0  0.00000000000E+00  0.00000000000E+00 -0.11216630613E+04  0.22938726936E+04  0.20009307613E+04 0.  0.
        2    1    3    3  502    0  0.65431625627E+03 -0.43137109660E+02  0.30539731121E+03  0.72336580728E+03  0.25500000920E-02 0. -1.
       -2    1    3    3    0  502 -0.65431625627E+03  0.43137109660E+02 -0.14270603725E+04  0.15705068864E+04  0.25500000920E-02 0.  1.
</event>
<event>
 5   0  0.4514680E-05  0.2009309E+04  0.7818609E-02  0.8602281E-01
       -2   -1    0    0    0  501  0.00000000000E+00  0.00000000000E+00  0.57864007591E+03  0.57864007591E+03  0.25500000920E-02 0. -1.
        2   -1    0    0  501    0  0.00000000000E+00  0.00000000000E+00 -0.17443146136E+04  0.17443146136E+04  0.25500000920E-02 0.  1.
    10030    2    1    2    0    0  0.00000000000E+00  0.00000000000E+00 -0.11656745377E+04  0.23229546895E+04  0.20093086776E+04 0.  0.
        3    1    3    3  502    0 -0.50613448007E+03  0.86495940217E+03 -0.50106069698E+03  0.11204413022E+04  0.10100000352E+00 0. -1.
       -3    1    3    3    0  502  0.50613448007E+03 -0.86495940217E+03 -0.66461384074E+03  0.12025133874E+04  0.10100000352E+00 0.  1.
</event>
<event>
 5   0  0.4473361E-05  0.1998947E+04  0.7818609E-02  0.8607113E-01
       -2   -1    0    0    0  501  0.00000000000E+00  0.00000000000E+00  0.62298198022E+03  0.62298198023E+03  0.25500000920E-02 0.  1.
        2   -1    0    0  501    0  0.00000000000E+00  0.00000000000E+00 -0.16034938325E+04  0.16034938325E+04  0.25500000920E-02 0. -1.
    10030    2    1    2    0    0  0.00000000000E+00  0.00000000000E+00 -0.98051185231E+03  0.22264758128E+04  0.19989474861E+04 0.  0.
        2    1    3    3  502    0 -0.84709170952E+03 -0.38274097783E+03 -0.81173437885E+02  0.93308314071E+03  0.25500000920E-02 0.  1.
       -2    1    3    3    0  502  0.84709170952E+03  0.38274097783E+03 -0.89933841443E+03  0.12933926721E+04  0.25500000920E-02 0. -1.
</event>
<event>
 5   0  0.4473361E-05  0.1986893E+04  0.7818609E-02  0.8612773E-01
        2   -1    0    0  501    0  0.00000000000E+00  0.00000000000E+00  0.23129306946E+04  0.23129306946E+04  0.25500000920E-02 0. -1.
       -2   -1    0    0    0  501  0.00000000000E+00  0.00000000000E+00 -0.42670343618E+03  0.42670343619E+03  0.25500000920E-02 0.  1.
    10030    2    1    2    0    0  0.00000000000E+00  0.00000000000E+00  0.18862272584E+04  0.27396341308E+04  0.19868925236E+04 0.  0.
        2    1    3    3  502    0  0.62143821476E+03 -0.10143126479E+03 -0.11641834126E+03  0.64033349626E+03  0.25500000920E-02 0.  1.
       -2    1    3    3    0  502 -0.62143821476E+03  0.10143126479E+03  0.20026455997E+04  0.20993006346E+04  0.25500000920E-02 0. -1.
</event>
<event>
 5   0  0.2110896E-05  0.2003012E+04  0.7818609E-02  0.8605214E-01
       -1   -1    0    0    0  501  0.00000000000E+00  0.00000000000E+00  0.25852571122E+04  0.25852571122E+04  0.50400001928E-02 0.  1.
        1   -1    0    0  501    0  0.00000000000E+00  0.00000000000E+00 -0.38797480713E+03  0.38797480716E+03  0.50400001928E-02 0. -1.
    10030    2    1    2    0    0  0.00000000000E+00  0.00000000000E+00  0.21972823051E+04  0.29732319194E+04  0.20030123610E+04 0.  0.
        4    1    3    3  502    0  0.94146895891E+03  0.33579861026E+03  0.11912040060E+04  0.15550218983E+04  0.12699999809E+01 0. -1.
       -4    1    3    3    0  502 -0.94146895891E+03 -0.33579861026E+03  0.10060782990E+04  0.14182100211E+04  0.12699999809E+01 0.  1.
</event>
<event>
 5   0  0.1601500E-05  0.2007864E+04  0.7818609E-02  0.8602953E-01
        3   -1    0    0  501    0  0.00000000000E+00  0.00000000000E+00  0.87535056335E+03  0.87535056918E+03  0.10100000352E+00 0.  1.
       -3   -1    0    0    0  501  0.00000000000E+00  0.00000000000E+00 -0.11514011292E+04  0.11514011336E+04  0.10100000352E+00 0. -1.
    10030    2    1    2    0    0  0.00000000000E+00  0.00000000000E+00 -0.27605056583E+03  0.20267517028E+04  0.20078641761E+04 0.  0.
        2    1    3    3  502    0 -0.50472566025E+03  0.23116228886E+03  0.70632139638E+03  0.89837292417E+03  0.25500000920E-02 0.  1.
       -2    1    3    3    0  502  0.50472566025E+03 -0.23116228886E+03 -0.98237196220E+03  0.11283787786E+04  0.25500000920E-02 0. -1.
</event>
<event>
 5   0  0.4577279E-05  0.2015504E+04  0.7818609E-02  0.8599406E-01
        2   -1    0    0  501    0  0.00000000000E+00  0.00000000000E+00  0.11804809381E+04  0.11804809381E+04  0.25500000920E-02 0. -1.
       -2   -1    0    0    0  501  0.00000000000E+00  0.00000000000E+00 -0.86029663227E+03  0.86029663227E+03  0.25500000920E-02 0.  1.
    10030    2    1    2    0    0  0.00000000000E+00  0.00000000000E+00  0.32018430581E+03  0.20407775703E+04  0.20155036844E+04 0.  0.
        1    1    3    3  502    0  0.36845562489E+03 -0.42573889731E+03  0.10063661894E+04  0.11531635024E+04  0.50400001928E-02 0. -1.
       -1    1    3    3    0  502 -0.36845562489E+03  0.42573889731E+03 -0.68618188357E+03  0.88761406791E+03  0.50400001928E-02 0.  1.
</event>
<event>
 5   0  0.4514680E-05  0.1899363E+04  0.7818609E-02  0.8655174E-01
       -2   -1    0    0    0  501  0.00000000000E+00  0.00000000000E+00  0.48005636465E+03  0.48005636466E+03  0.25500000920E-02 0. -1.
        2   -1    0    0  501    0  0.00000000000E+00  0.00000000000E+00 -0.18787268639E+04  0.18787268639E+04  0.25500000920E-02 0.  1.
    10030    2    1    2    0    0  0.00000000000E+00  0.00000000000E+00 -0.13986704993E+04  0.23587832286E+04  0.18993628284E+04 0.  0.
        3    1    3    3  502    0  0.45716943598E+03  0.78763907770E+03 -0.36491256845E+03  0.98109143444E+03  0.10100000352E+00 0. -1.
       -3    1    3    3    0  502 -0.45716943598E+03 -0.78763907770E+03 -0.10337579308E+04  0.13776917941E+04  0.10100000352E+00 0.  1.
</event>
<event>
 5   0  0.2093980E-05  0.1994937E+04  0.7818609E-02  0.8608991E-01
        1   -1    0    0  501    0  0.00000000000E+00  0.00000000000E+00  0.12673111975E+04  0.12673111975E+04  0.50400001928E-02 0. -1.
       -1   -1    0    0    0  501  0.00000000000E+00  0.00000000000E+00 -0.78508209260E+03  0.78508209262E+03  0.50400001928E-02 0.  1.
    10030    2    1    2    0    0  0.00000000000E+00  0.00000000000E+00  0.48222910491E+03  0.20523932901E+04  0.19949369183E+04 0.  0.
        2    1    3    3  502    0 -0.54480900022E+03  0.22052631903E+02  0.11004191902E+04  0.12280983509E+04  0.25500000920E-02 0. -1.
       -2    1    3    3    0  502  0.54480900022E+03 -0.22052631903E+02 -0.61819008530E+03  0.82429493924E+03  0.25500000920E-02 0.  1.
</event>
<event>
 5   0  0.4514680E-05  0.1941993E+04  0.7818609E-02  0.8634232E-01
       -2   -1    0    0    0  501  0.00000000000E+00  0.00000000000E+00  0.16440045824E+04  0.16440045824E+04  0.25500000920E-02 0.  1.
        2   -1    0    0  501    0  0.00000000000E+00  0.00000000000E+00 -0.57349849438E+03  0.57349849439E+03  0.25500000920E-02 0. -1.
    10030    2    1    2    0    0  0.00000000000E+00  0.00000000000E+00  0.10705060880E+04  0.22175030767E+04  0.19419929482E+04 0.  0.
        3    1    3    3  502    0 -0.76043768683E+03 -0.35548312049E+03  0.10925515030E+04  0.13777889974E+04  0.10100000352E+00 0.  1.
       -3    1    3    3    0  502  0.76043768683E+03  0.35548312049E+03 -0.22045415016E+02  0.83971407933E+03  0.10100000352E+00 0. -1.
</event>
<event>
 5   0  0.4473361E-05  0.2001816E+04  0.7818609E-02  0.8605772E-01
        2   -1    0    0  501    0  0.00000000000E+00  0.00000000000E+00  0.18800568946E+04  0.18800568946E+04  0.25500000920E-02 0.  1.
       -2   -1    0    0    0  501  0.00000000000E+00  0.00000000000E+00 -0.53286532686E+03  0.53286532686E+03  0.25500000920E-02 0. -1.
    10030    2    1    2    0    0  0.00000000000E+00  0.00000000000E+00  0.13471915677E+04  0.24129222214E+04  0.20018163069E+04 0.  0.
        2    1    3    3  502    0 -0.24686211136E+03  0.96936372882E+03  0.63166373967E+03  0.11830494583E+04  0.25500000920E-02 0. -1.
       -2    1    3    3    0  502  0.24686211136E+03 -0.96936372882E+03  0.71552782806E+03  0.12298727631E+04  0.25500000920E-02 0.  1.
</event>
<event>
 5   0  0.4447313E-05  0.1996664E+04  0.7818609E-02  0.8608182E-01
       -2   -1    0    0    0  501  0.00000000000E+00  0.00000000000E+00  0.80460245523E+03  0.80460245523E+03  0.25500000920E-02 0.  1.
        2   -1    0    0  501    0  0.00000000000E+00  0.00000000000E+00 -0.12387073009E+04  0.12387073009E+04  0.25500000920E-02 0. -1.
    10030    2    1    2    0    0  0.00000000000E+00  0.00000000000E+00 -0.43410484564E+03  0.20433097561E+04  0.19966641536E+04 0.  0.
        5    1    3    3  502    0 -0.57027504205E+03 -0.79625731891E+03 -0.41497573199E+03  0.10637040423E+04  0.46999998093E+01 0. -1.
       -5    1    3    3    0  502  0.57027504205E+03  0.79625731891E+03 -0.19129113649E+02  0.97960571379E+03  0.46999998093E+01 0.  1.
</event>
<event>
 5   0  0.2142551E-05  0.1989734E+04  0.7818609E-02  0.8611435E-01
        1   -1    0    0  501    0  0.00000000000E+00  0.00000000000E+00  0.53977245388E+03  0.53977245390E+03  0.50400001928E-02 0. -1.
       -1   -1    0    0    0  501  0.00000000000E+00  0.00000000000E+00 -0.18336623474E+04  0.18336623474E+04  0.50400001928E-02 0.  1.
    10030    2    1    2    0    0  0.00000000000E+00  0.00000000000E+00 -0.12938898935E+04  0.23734348013E+04  0.19897340776E+04 0.  0.
        3    1    3    3  502    0  0.79945525418E+03 -0.49722224883E+02 -0.13507807221E+04  0.15704170059E+04  0.10100000352E+00 0.  1.
       -3    1    3    3    0  502 -0.79945525418E+03  0.49722224883E+02  0.56890828602E+02  0.80301779536E+03  0.10100000352E+00 0. -1.
</event>
<event>
 5   0  0.2256868E-05  0.1998900E+04  0.7818609E-02  0.8607135E-01
        1   -1    0    0  501    0  0.00000000000E+00  0.00000000000E+00  0.20229595173E+04  0.20229595173E+04  0.50400001928E-02 0.  1.
       -1   -1    0    0    0  501  0.00000000000E+00  0.00000000000E+00 -0.49378167781E+03  0.49378167784E+03  0.50400001928E-02 0. -1.
    10030    2    1    2    0    0  0.00000000000E+00  0.00000000000E+00  0.15291778395E+04  0.25167411951E+04  0.19989000422E+04 0.  0.
        5    1    3    3  502    0  0.33975322763E+03  0.93986956660E+03  0.77661259090E+03  0.12656762083E+04  0.46999998093E+01 0. -1.
       -5    1    3    3    0  502 -0.33975322763E+03 -0.93986956660E+03  0.75256524857E+03  0.12510649868E+04  0.46999998093E+01 0.  1.
</event>
<event>
 5   0  0.4577279E-05  0.1996885E+04  0.7818609E-02  0.8608079E-01
       -2   -1    0    0    0  501  0.00000000000E+00  0.00000000000E+00  0.92548273365E+03  0.92548273365E+03  0.25500000920E-02 0.  1.
        2   -1    0    0  501    0  0.00000000000E+00  0.00000000000E+00 -0.10771536208E+04  0.10771536208E+04  0.25500000920E-02 0. -1.
    10030    2    1    2    0    0  0.00000000000E+00  0.00000000000E+00 -0.15167088717E+03  0.20026363545E+04  0.19968846512E+04 0.  0.
        1    1    3    3  502    0  0.30845117324E+03  0.79964906354E+03 -0.58946913069E+03  0.10402185382E+04  0.50400001928E-02 0. -1.
       -1    1    3    3    0  502 -0.30845117324E+03 -0.79964906354E+03  0.43779824352E+03  0.96241781631E+03  0.50400001928E-02 0.  1.
</event>
<event>
 5   0  0.2093980E-05  0.2010087E+04  0.7818609E-02  0.8601919E-01
        1   -1    0    0  501    0  0.00000000000E+00  0.00000000000E+00  0.15207285991E+04  0.15207285991E+04  0.50400001928E-02 0.  1.
       -1   -1    0    0    0  501  0.00000000000E+00  0.00000000000E+00 -0.66422909893E+03  0.66422909895E+03  0.50400001928E-02 0. -1.
    10030    2    1    2    0    0  0.00000000000E+00  0.00000000000E+00  0.85649950016E+03  0.21849576980E+04  0.20100867515E+04 0.  0.
        2    1    3    3  502    0  0.39867636017E+03  0.30563217955E+03  0.13744729416E+04  0.14633966436E+04  0.25500000920E-02 0.  1.
       -2    1    3    3    0  502 -0.39867636017E+03 -0.30563217955E+03 -0.51797344139E+03  0.72156105447E+03  0.25500000920E-02 0. -1.
</event>
<event>
 5   0  0.4473361E-05  0.2001321E+04  0.7818609E-02  0.8606003E-01
       -2   -1    0    0    0  501  0.00000000000E+00  0.00000000000E+00  0.90486024943E+03  0.90486024943E+03  0.25500000920E-02 0.  1.
        2   -1    0    0  501    0  0.00000000000E+00  0.00000000000E+00 -0.11066033581E+04  0.11066033581E+04  0.25500000920E-02 0. -1.
    10030    2    1    2    0    0  0.00000000000E+00  0.00000000000E+00 -0.20174310865E+03  0.20114636075E+04  0.20013209544E+04 0.  0.
        2    1    3    3  502    0  0.83066261403E+03  0.42897735760E+03  0.25772712159E+03  0.96976554945E+03  0.25500000920E-02 0.  1.
       -2    1    3    3    0  502 -0.83066261403E+03 -0.42897735760E+03 -0.45947023024E+03  0.10416980581E+04  0.25500000920E-02 0. -1.
</event>
<event>
 5   0  0.2007644E-05  0.2000852E+04  0.7818609E-02  0.8606223E-01
       -1   -1    0    0    0  501  0.00000000000E+00  0.00000000000E+00  0.99568718741E+03  0.99568718742E+03  0.50400001928E-02 0. -1.
        1   -1    0    0  501    0  0.00000000000E+00  0.00000000000E+00 -0.10051871935E+04  0.10051871935E+04  0.50400001928E-02 0.  1.
    10030    2    1    2    0    0  0.00000000000E+00  0.00000000000E+00 -0.95000060913E+01  0.20008743809E+04  0.20008518281E+04 0.  0.
        1    1    3    3  502    0  0.75183253847E+02  0.97061267970E+03  0.22570977903E+03  0.99934298418E+03  0.50400001928E-02 0. -1.
       -1    1    3    3    0  502 -0.75183253847E+02 -0.97061267970E+03 -0.23520978512E+03  0.10015313968E+04  0.50400001928E-02 0.  1.
</event>
<event>
 5   0  0.4412054E-05  0.2000638E+04  0.7818609E-02  0.8606322E-01
       -2   -1    0    0    0  501  0.00000000000E+00  0.00000000000E+00  0.58534758690E+03  0.58534758691E+03  0.25500000920E-02 0. -1.
        2   -1    0    0  501    0  0.00000000000E+00  0.00000000000E+00 -0.17094770192E+04  0.17094770192E+04  0.25500000920E-02 0.  1.
    10030    2    1    2    0    0  0.00000000000E+00  0.00000000000E+00 -0.11241294323E+04  0.22948246061E+04  0.20006381463E+04 0.  0.
        4    1    3    3  502    0 -0.38145155533E+03 -0.71232833858E+03  0.11432281172E+03  0.81608104327E+03  0.12699999809E+01 0. -1.
       -4    1    3    3    0  502  0.38145155533E+03  0.71232833858E+03 -0.12384522440E+04  0.14787435629E+04  0.12699999809E+01 0.  1.
</event>
<event>
 5   0  0.2110896E-05  0.1981135E+04  0.7818609E-02  0.8615492E-01
        1   -1    0    0  501    0  0.00000000000E+00  0.00000000000E+00  0.13969462420E+04  0.13969462420E+04  0.50400001928E-02 0. -1.
       -1   -1    0    0    0  501  0.00000000000E+00  0.00000000000E+00 -0.70240664667E+03  0.70240664668E+03  0.50400001928E-02 0.  1.
    10030    2    1    2    0    0  0.00000000000E+00  0.00000000000E+00  0.69453959537E+03  0.20993528887E+04  0.19811353568E+04 0.  0.
        4    1    3    3  502    0  0.66256596769E+02 -0.81263606286E+03 -0.24884178075E+03  0.85246181851E+03  0.12699999809E+01 0.  1.
       -4    1    3    3    0  502 -0.66256596769E+02  0.81263606286E+03  0.94338137611E+03  0.12468910702E+04  0.12699999809E+01 0. -1.
</event>
<event>
 5   0  0.4447313E-05  0.1999347E+04  0.7818609E-02  0.8606926E-01
        2   -1    0    0  501    0  0.00000000000E+00  0.00000000000E+00  0.93427801025E+03  0.93427801025E+03  0.25500000920E-02 0. -1.
       -2   -1    0    0    0  501  0.00000000000E+00  0.00000000000E+00 -0.10696468521E+04  0.10696468521E+04  0.25500000920E-02 0.  1.
    10030    2    1    2    0    0  0.00000000000E+00  0.00000000000E+00 -0.13536884182E+03  0.20039248623E+04  0.19993474262E+04 0.  0.
        5    1    3    3  502    0  0.72609108908E+03  0.63059872274E+03  0.20581836229E+03  0.98348681080E+03  0.46999998093E+01 0.  1.
       -5    1    3    3    0  502 -0.72609108908E+03 -0.63059872274E+03 -0.34118720411E+03  0.10204380515E+04  0.46999998093E+01 0. -1.
</event>
<event>
 5   0  0.2110896E-05  0.1979119E+04  0.7818609E-02  0.8616446E-01
       -1   -1    0    0    0  501  0.00000000000E+00  0.00000000000E+00  0.12853785559E+04  0.12853785559E+04  0.50400001928E-02 0. -1.
        1   -1    0    0  501    0  0.00000000000E+00  0.00000000000E+00 -0.76182071219E+03  0.76182071221E+03  0.50400001928E-02 0.  1.
    10030    2    1    2    0    0  0.00000000000E+00  0.00000000000E+00  0.52355784367E+03  0.20471992681E+04  0.19791190029E+04 0.  0.
        4    1    3    3  502    0  0.57498958506E+03 -0.41037111117E+03 -0.45502986647E+03  0.84028046752E+03  0.12699999809E+01 0.  1.
       -4    1    3    3    0  502 -0.57498958506E+03  0.41037111117E+03  0.97858771015E+03  0.12069188006E+04  0.12699999809E+01 0. -1.
</event>
<event>
 5   0  0.2256868E-05  0.2016493E+04  0.7818609E-02  0.8598948E-01
        1   -1    0    0  501    0  0.00000000000E+00  0.00000000000E+00  0.18649174691E+04  0.18649174691E+04  0.50400001928E-02 0.  1.
       -1   -1    0    0    0  501  0.00000000000E+00  0.00000000000E+00 -0.54509715893E+03  0.54509715896E+03  0.50400001928E-02 0. -1.
    10030    2    1    2    0    0  0.00000000000E+00  0.00000000000E+00  0.13198203101E+04  0.24100146280E+04  0.20164932076E+04 0.  0.
        5    1    3    3  502    0 -0.99350052739E+02  0.67694140279E+03 -0.22516300845E+03  0.72030588375E+03  0.46999998093E+01 0. -1.
       -5    1    3    3    0  502  0.99350052739E+02 -0.67694140279E+03  0.15449833186E+04  0.16897087443E+04  0.46999998093E+01 0.  1.
</event>
<event>
 5   0  0.4577279E-05  0.2003314E+04  0.7818609E-02  0.8605073E-01
        2   -1    0    0  501    0  0.00000000000E+00  0.00000000000E+00  0.10043724896E+04  0.10043724896E+04  0.25500000920E-02 0.  1.
       -2   -1    0    0    0  501  0.00000000000E+00  0.00000000000E+00 -0.99894856029E+03  0.99894856029E+03  0.25500000920E-02 0. -1.
    10030    2    1    2    0    0  0.00000000000E+00  0.00000000000E+00  0.54239292956E+01  0.20033210499E+04  0.20033137073E+04 0.  0.
        1    1    3    3  502    0  0.97800768962E+03  0.39067531178E+02  0.21552989507E+03  0.10022367229E+04  0.50400001928E-02 0.  1.
       -1    1    3    3    0  502 -0.97800768962E+03 -0.39067531178E+02 -0.21010596578E+03  0.10010843270E+04  0.50400001928E-02 0. -1.
</event>
<event>
 5   0  0.2142551E-05  0.1991568E+04  0.7818609E-02  0.8610573E-01
       -1   -1    0    0    0  501  0.00000000000E+00  0.00000000000E+00  0.69432733931E+03  0.69432733932E+03  0.50400001928E-02 0.  1.
        1   -1    0    0  501    0  0.00000000000E+00  0.00000000000E+00 -0.14281246421E+04  0.14281246421E+04  0.50400001928E-02 0. -1.
    10030    2    1    2    0    0  0.00000000000E+00  0.00000000000E+00 -0.73379730275E+03  0.21224519814E+04  0.19915682092E+04 0.  0.
        3    1    3    3  502    0 -0.19939619790E+03 -0.12734763718E+03  0.66393846681E+03  0.70483371255E+03  0.10100000352E+00 0.  1.
       -3    1    3    3    0  502  0.19939619790E+03  0.12734763718E+03 -0.13977357696E+04  0.14176182688E+04  0.10100000352E+00 0. -1.
</event>
<event>
 5   0  0.4577279E-05  0.2016417E+04  0.7818609E-02  0.8598984E-01
       -2   -1    0    0    0  501  0.00000000000E+00  0.00000000000E+00  0.51778297373E+03  0.51778297374E+03  0.25500000920E-02 0. -1.
        2   -1    0    0  501    0  0.00000000000E+00  0.00000000000E+00 -0.19631467496E+04  0.19631467496E+04  0.25500000920E-02 0.  1.
    10030    2    1    2    0    0  0.00000000000E+00  0.00000000000E+00 -0.14453637759E+04  0.24809297234E+04  0.20164165858E+04 0.  0.
        1    1    3    3  502    0 -0.49651783782E+03 -0.87247386272E+03 -0.60763541227E+03  0.11734399851E+04  0.50400001928E-02 0. -1.
       -1    1    3    3    0  502  0.49651783782E+03  0.87247386272E+03 -0.83772836364E+03  0.13074897383E+04  0.50400001928E-02 0.  1.
</event>
<event>
 5   0  0.2142551E-05  0.1983340E+04  0.7818609E-02  0.8614450E-01
       -1   -1    0    0    0  501  0.00000000000E+00  0.00000000000E+00  0.79224233414E+03  0.79224233416E+03  0.50400001928E-02 0.  1.
        1   -1    0    0  501    0  0.00000000000E+00  0.00000000000E+00 -0.12412981690E+04  0.12412981690E+04  0.50400001928E-02 0. -1.
    10030    2    1    2    0    0  0.00000000000E+00  0.00000000000E+00 -0.44905583489E+03  0.20335405032E+04  0.19833395663E+04 0.  0.
        3    1    3    3  502    0 -0.44132873035E+02  0.72725629439E+03  0.46522509168E+03  0.86445579664E+03  0.10100000352E+00 0.  1.
       -3    1    3    3    0  502  0.44132873035E+02 -0.72725629439E+03 -0.91428092657E+03  0.11690847066E+04  0.10100000352E+00 0. -1.
</event>
<event>
 5   0  0.2256868E-05  0.1998222E+04  0.7818609E-02  0.8607452E-01
       -1   -1    0    0    0  501  0.00000000000E+00  0.00000000000E+00  0.53413836680E+03  0.53413836683E+03  0.50400001928E-02 0. -1.
        1   -1    0    0  501    0  0.00000000000E+00  0.00000000000E+00 -0.18688467626E+04  0.18688467626E+04  0.50400001928E-02 0.  1.
    10030    2    1    2    0    0  0.00000000000E+00  0.00000000000E+00 -0.13347083958E+04  0.24029851294E+04  0.19982219672E+04 0.  0.
        5    1    3    3  502    0 -0.90176514502E+03  0.32957574146E+03 -0.33495927721E+03  0.10168679135E+04  0.46999998093E+01 0. -1.
       -5    1    3    3    0  502  0.90176514502E+03 -0.32957574146E+03 -0.99974911855E+03  0.13861172159E+04  0.46999998093E+01 0.  1.
</event>
<event>
 5   0  0.4412054E-05  0.1992964E+04  0.7818609E-02  0.8609917E-01
       -2   -1    0    0    0  501  0.00000000000E+00  0.00000000000E+00  0.62349940688E+03  0.62349940689E+03  0.25500000920E-02 0. -1.
        2   -1    0    0  501    0  0.00000000000E+00  0.00000000000E+00 -0.15925862849E+04  0.15925862849E+04  0.25500000920E-02 0.  1.
    10030    2    1    2    0    0  0.00000000000E+00  0.00000000000E+00 -0.96908687802E+03  0.22160856918E+04  0.19929642285E+04 0.  0.
        4    1    3    3  502    0  0.15292274297E+03 -0.61882547993E+03 -0.13362198206E+04  0.14804780855E+04  0.12699999809E+01 0.  1.
       -4    1    3    3    0  502 -0.15292274297E+03  0.61882547993E+03  0.36713294258E+03  0.73560760624E+03  0.12699999809E+01 0. -1.
</event>
<event>
 5   0  0.4473361E-05  0.2001582E+04  0.7818609E-02  0.8605881E-01
        2   -1    0    0  501    0  0.00000000000E+00  0.00000000000E+00  0.17658686958E+04  0.17658686958E+04  0.25500000920E-02 0. -1.
       -2   -1    0    0    0  501  0.00000000000E+00  0.00000000000E+00 -0.56718972003E+03  0.56718972004E+03  0.25500000920E-02 0.  1.
    10030    2    1    2    0    0  0.00000000000E+00  0.00000000000E+00  0.11986789757E+04  0.23330584158E+04  0.20015819455E+04 0.  0.
        2    1    3    3  502    0 -0.23052593350E+03 -0.92296818615E+03  0.23711854087E+03  0.98042729516E+03  0.25500000920E-02 0.  1.
       -2    1    3    3    0  502  0.23052593350E+03  0.92296818615E+03  0.96156043486E+03  0.13526311206E+04  0.25500000920E-02 0. -1.
</event>
<event>
 5   0  0.2110896E-05  0.2011084E+04  0.7818609E-02  0.8601456E-01
       -1   -1    0    0    0  501  0.00000000000E+00  0.00000000000E+00  0.54184175474E+03  0.54184175477E+03  0.50400001928E-02 0. -1.
        1   -1    0    0  501    0  0.00000000000E+00  0.00000000000E+00 -0.18660692541E+04  0.18660692541E+04  0.50400001928E-02 0.  1.
    10030    2    1    2    0    0  0.00000000000E+00  0.00000000000E+00 -0.13242274994E+04  0.24079110089E+04  0.20110835280E+04 0.  0.
        4    1    3    3  502    0 -0.53560013159E+03  0.18693079544E+03 -0.16561794608E+04  0.17506406377E+04  0.12699999809E+01 0.  1.
       -4    1    3    3    0  502  0.53560013159E+03 -0.18693079544E+03  0.33195196140E+03  0.65727037117E+03  0.12699999809E+01 0. -1.
</event>
<event>
 5   0  0.4447313E-05  0.1991495E+04  0.7818609E-02  0.8610607E-01
        2   -1    0    0  501    0  0.00000000000E+00  0.00000000000E+00  0.13637364008E+04  0.13637364008E+04  0.25500000920E-02 0.  1.
       -2   -1    0    0    0  501  0.00000000000E+00  0.00000000000E+00 -0.72705644824E+03  0.72705644825E+03  0.25500000920E-02 0. -1.
    10030    2    1    2    0    0  0.00000000000E+00  0.00000000000E+00  0.63667995251E+03  0.20907928490E+04  0.19914952612E+04 0.  0.
        5    1    3    3  502    0 -0.86409432710E+03 -0.24326239979E+03  0.77070166532E+03  0.11831478133E+04  0.46999998093E+01 0.  1.
       -5    1    3    3    0  502  0.86409432710E+03  0.24326239979E+03 -0.13402171281E+03  0.90764503567E+03  0.46999998093E+01 0. -1.
</event>
<event>
 5   0  0.2007644E-05  0.2004703E+04  0.7818609E-02  0.8604425E-01
       -1   -1    0    0    0  501  0.00000000000E+00  0.00000000000E+00  0.15245413299E+04  0.15245413299E+04  0.50400001928E-02 0. -1.
        1   -1    0    0  501    0  0.00000000000E+00  0.00000000000E+00 -0.65902347705E+03  0.65902347707E+03  0.50400001928E-02 0.  1.
    10030    2    1    2    0    0  0.00000000000E+00  0.00000000000E+00  0.86551785284E+03  0.21835648070E+04  0.20047029986E+04 0.  0.
        1    1    3    3  502    0  0.69149435130E+03 -0.70185438801E+03  0.63343740832E+03  0.11713270125E+04  0.50400001928E-02 0. -1.
       -1    1    3    3    0  502 -0.69149435130E+03  0.70185438801E+03  0.23208044452E+03  0.10122377945E+04  0.50400001928E-02 0.  1.
</event>
<event>
 5   0  0.4412054E-05  0.1993825E+04  0.7818609E-02  0.8609513E-01
        2   -1    0    0  501    0  0.00000000000E+00  0.00000000000E+00  0.12257088043E+04  0.12257088043E+04  0.25500000920E-02 0. -1.
       -2   -1    0    0    0  501  0.00000000000E+00  0.00000000000E+00 -0.81082429383E+03  0.81082429383E+03  0.25500000920E-02 0.  1.
    10030    2    1    2    0    0  0.00000000000E+00  0.00000000000E+00  0.41488451050E+03  0.20365330982E+04  0.19938249429E+04 0.  0.
        4    1    3    3  502    0 -0.94116101956E+02  0.60862025370E+03 -0.59328631404E+03  0.85514134340E+03  0.12699999809E+01 0.  1.
       -4    1    3    3    0  502  0.94116101956E+02 -0.60862025370E+03  0.10081708245E+04  0.11813917548E+04  0.12699999809E+01 0. -1.
</event>
<event>
 5   0  0.2093980E-05  0.2003142E+04  0.7818609E-02  0.8605153E-01
        1   -1    0    0  501    0  0.00000000000E+00  0.00000000000E+00  0.12780920803E+04  0.12780920803E+04  0.50400001928E-02 0. -1.
       -1   -1    0    0    0  501  0.00000000000E+00  0.00000000000E+00 -0.78487613233E+03  0.78487613235E+03  0.50400001928E-02 0.  1.
    10030    2    1    2    0    0  0.00000000000E+00  0.00000000000E+00  0.49321594797E+03  0.20629682127E+04  0.20031415015E+04 0.  0.
        2    1    3    3  502    0 -0.55349471519E+03  0.14084034437E+03  0.10939518715E+04  0.12340677046E+04  0.25500000920E-02 0. -1.
       -2    1    3    3    0  502  0.55349471519E+03 -0.14084034437E+03 -0.60073592357E+03  0.82890050804E+03  0.25500000920E-02 0.  1.
</event>
<event>
 5   0  0.2093980E-05  0.2000302E+04  0.7818609E-02  0.8606479E-01
       -1   -1    0    0    0  501  0.00000000000E+00  0.00000000000E+00  0.59689560659E+03  0.59689560662E+03  0.50400001928E-02 0. -1.
        1   -1    0    0  501    0  0.00000000000E+00  0.00000000000E+00 -0.16758411393E+04  0.16758411394E+04  0.50400001928E-02 0.  1.
    10030    2    1    2    0    0  0.00000000000E+00  0.00000000000E+00 -0.10789455328E+04  0.22727367460E+04  0.20003021906E+04 0.  0.
        2    1    3    3  502    0  0.90303690537E+03 -0.35135668335E+03 -0.25799154645E+03  0.10027396519E+04  0.25500000920E-02 0. -1.
       -2    1    3    3    0  502 -0.90303690537E+03  0.35135668335E+03 -0.82095398630E+03  0.12699970941E+04  0.25500000920E-02 0.  1.
</event>
<event>
 5   0  0.4473361E-05  0.1994223E+04  0.7818609E-02  0.8609326E-01
       -2   -1    0    0    0  501  0.00000000000E+00  0.00000000000E+00  0.88825422716E+03  0.88825422716E+03  0.25500000920E-02 0. -1.
        2   -1    0    0  501    0  0.00000000000E+00  0.00000000000E+00 -0.11193093644E+04  0.11193093644E+04  0.25500000920E-02 0.  1.
    10030    2    1    2    0    0  0.00000000000E+00  0.00000000000E+00 -0.23105513724E+03  0.20075635916E+04  0.19942229308E+04 0.  0.
        2    1    3    3  502    0  0.41066592758E+02  0.38803055136E+03 -0.10392590506E+04  0.11100961886E+04  0.25500000920E-02 0.  1.
       -2    1    3    3    0  502 -0.41066592758E+02 -0.38803055136E+03  0.80820391332E+03  0.89746740294E+03  0.25500000920E-02 0. -1.
</event>
<event>
 5   0  0.2256868E-05  0.1998269E+04  0.7818609E-02  0.8607431E-01
       -1   -1    0    0    0  501  0.00000000000E+00  0.00000000000E+00  0.85950856882E+03  0.85950856884E+03  0.50400001928E-02 0.  1.
        1   -1    0    0  501    0  0.00000000000E+00  0.00000000000E+00 -0.11614419343E+04  0.11614419343E+04  0.50400001928E-02 0. -1.
    10030    2    1    2    0    0  0.00000000000E+00  0.00000000000E+00 -0.30193336543E+03  0.20209505031E+04  0.19982685452E+04 0.  0.
        5    1    3    3  502    0 -0.53992000169E+03  0.56321892116E+03  0.48023131820E+03  0.91617322071E+03  0.46999998093E+01 0.  1.
       -5    1    3    3    0  502  0.53992000169E+03 -0.56321892116E+03 -0.78216468363E+03  0.11047772824E+04  0.46999998093E+01 0. -1.
</event>
<event>
 5   0  0.2110896E-05  0.2002614E+04  0.7818609E-02  0.8605399E-01
       -1   -1    0    0    0  501  0.00000000000E+00  0.00000000000E+00  0.81441379811E+03  0.81441379812E+03  0.50400001928E-02 0.  1.
        1   -1    0    0  501    0  0.00000000000E+00  0.00000000000E+00 -0.12310889065E+04  0.12310889065E+04  0.50400001928E-02 0. -1.
    10030    2    1    2    0    0  0.00000000000E+00  0.00000000000E+00 -0.41667510835E+03  0.20455027046E+04  0.20026140838E+04 0.  0.
        4    1    3    3  502    0  0.31421282082E+03  0.89749799889E+03  0.11203863266E+03  0.95748975080E+03  0.12699999809E+01 0.  1.
       -4    1    3    3    0  502 -0.31421282082E+03 -0.89749799889E+03 -0.52871374101E+03  0.10880129538E+04  0.12699999809E+01 0. -1.
</event>
<event>
 5   0  0.2256868E-05  0.2002405E+04  0.7818609E-02  0.8605497E-01
       -1   -1    0    0    0  501  0.00000000000E+00  0.00000000000E+00  0.11180060734E+04  0.11180060734E+04  0.50400001928E-02 0.  1.
        1   -1    0    0  501    0  0.00000000000E+00  0.00000000000E+00 -0.89660221183E+03  0.89660221184E+03  0.50400001928E-02 0. -1.
    10030    2    1    2    0    0  0.00000000000E+00  0.00000000000E+00  0.22140386156E+03  0.20146082852E+04  0.20024052719E+04 0.  0.
        5    1    3    3  502    0 -0.14143027960E+03  0.76853549708E+03 -0.51899994437E+03  0.93810040321E+03  0.46999998093E+01 0. -1.
       -5    1    3    3    0  502  0.14143027960E+03 -0.76853549708E+03  0.74040380593E+03  0.10765078820E+04  0.46999998093E+01 0.  1.
</event>
<event>
 5   0  0.4473361E-05  0.2001212E+04  0.7818609E-02  0.8606054E-01
       -2   -1    0    0    0  501  0.00000000000E+00  0.00000000000E+00  0.91110377916E+03  0.91110377916E+03  0.25500000920E-02 0.  1.
        2   -1    0    0  501    0  0.00000000000E+00  0.00000000000E+00 -0.10989009662E+04  0.10989009662E+04  0.25500000920E-02 0. -1.
    10030    2    1    2    0    0  0.00000000000E+00  0.00000000000E+00 -0.18779718708E+03  0.20100047454E+04  0.20012124558E+04 0.  0.
        2    1    3    3  502    0  0.22998726507E+03 -0.12454660199E+03 -0.10639611532E+04  0.10956364970E+04  0.25500000920E-02 0. -1.
       -2    1    3    3    0  502 -0.22998726507E+03  0.12454660199E+03  0.87616396609E+03  0.91436824838E+03  0.25500000920E-02 0.  1.
</event>
<event>
 5   0  0.4473361E-05  0.2006780E+04  0.7818609E-02  0.8603457E-01
        2   -1    0    0  501    0  0.00000000000E+00  0.00000000000E+00  0.10555479712E+04  0.10555479712E+04  0.25500000920E-02 0.  1.
       -2   -1    0    0    0  501  0.00000000000E+00  0.00000000000E+00 -0.95380904136E+03  0.95380904137E+03  0.25500000920E-02 0. -1.
    10030    2    1    2    0    0  0.00000000000E+00  0.00000000000E+00  0.10173892981E+03  0.20093570125E+04  0.20067797074E+04 0.  0.
        2    1    3    3  502    0 -0.17703482301E+03 -0.28334520346E+03  0.99821637183E+03  0.10526451244E+04  0.25500000920E-02 0.  1.
       -2    1    3    3    0  502  0.17703482301E+03  0.28334520346E+03 -0.89647744202E+03  0.95671188816E+03  0.25500000920E-02 0. -1.
</event>
<event>
 5   0  0.2007644E-05  0.1996179E+04  0.7818609E-02  0.8608409E-01
        1   -1    0    0  501    0  0.00000000000E+00  0.00000000000E+00  0.70257949772E+03  0.70257949774E+03  0.50400001928E-02 0. -1.
       -1   -1    0    0    0  501  0.00000000000E+00  0.00000000000E+00 -0.14178932886E+04  0.14178932886E+04  0.50400001928E-02 0.  1.
    10030    2    1    2    0    0  0.00000000000E+00  0.00000000000E+00 -0.71531379084E+03  0.21204727863E+04  0.19961791047E+04 0.  0.
        1    1    3    3  502    0  0.78704281264E+03  0.49890695361E+03  0.22150617076E+02  0.93211329094E+03  0.50400001928E-02 0. -1.
       -1    1    3    3    0  502 -0.78704281264E+03 -0.49890695361E+03 -0.73746440792E+03  0.11883594954E+04  0.50400001928E-02 0.  1.
</event>
<event>
 5   0  0.4514680E-05  0.2001629E+04  0.7818609E-02  0.8605859E-01
       -2   -1    0    0    0  501  0.00000000000E+00  0.00000000000E+00  0.65811225099E+03  0.65811225100E+03  0.25500000920E-02 0.  1.
        2   -1    0    0  501    0  0.00000000000E+00  0.00000000000E+00 -0.15219742099E+04  0.15219742099E+04  0.25500000920E-02 0. -1.
    10030    2    1    2    0    0  0.00000000000E+00  0.00000000000E+00 -0.86386195894E+03  0.21800864609E+04  0.20016292097E+04 0.  0.
        3    1    3    3  502    0 -0.23791624992E+03 -0.10475186250E+03 -0.14845611018E+04  0.15071492195E+04  0.10100000352E+00 0. -1.
       -3    1    3    3    0  502  0.23791624992E+03  0.10475186250E+03  0.62069914289E+03  0.67293724140E+03  0.10100000352E+00 0.  1.
</event>
<event>
 5   0  0.4514680E-05  0.2003723E+04  0.7818609E-02  0.8604882E-01
       -2   -1    0    0    0  501  0.00000000000E+00  0.00000000000E+00  0.10955292825E+04  0.10955292825E+04  0.25500000920E-02 0. -1.
        2   -1    0    0  501    0  0.00000000000E+00  0.00000000000E+00 -0.91620189062E+03  0.91620189063E+03  0.25500000920E-02 0.  1.
    10030    2    1    2    0    0  0.00000000000E+00  0.00000000000E+00  0.17932739185E+03  0.20117311731E+04  0.20037225355E+04 0.  0.
        3    1    3    3  502    0  0.20340341722E+03 -0.15585532938E+03 -0.88274351520E+03  0.91918439807E+03  0.10100000352E+00 0.  1.
       -3    1    3    3    0  502 -0.20340341722E+03  0.15585532938E+03  0.10620709071E+04  0.10925467750E+04  0.10100000352E+00 0. -1.
</event>
<event>
 5   0  0.4412054E-05  0.1969303E+04  0.7818609E-02  0.8621108E-01
       -2   -1    0    0    0  501  0.00000000000E+00  0.00000000000E+00  0.91258292372E+03  0.91258292372E+03  0.25500000920E-02 0.  1.
        2   -1    0    0  501    0  0.00000000000E+00  0.00000000000E+00 -0.10624120056E+04  0.10624120056E+04  0.25500000920E-02 0. -1.
    10030    2    1    2    0    0  0.00000000000E+00  0.00000000000E+00 -0.14982908188E+03  0.19749949293E+04  0.19693034853E+04 0.  0.
        4    1    3    3  502    0 -0.49591625140E+03  0.30526879997E+03  0.72136721840E+03  0.92708912480E+03  0.12699999809E+01 0.  1.
       -4    1    3    3    0  502  0.49591625140E+03 -0.30526879997E+03 -0.87119630028E+03  0.10479058045E+04  0.12699999809E+01 0. -1.
</event>
<event>
 5   0  0.2110896E-05  0.1992585E+04  0.7818609E-02  0.8610095E-01
        1   -1    0    0  501    0  0.00000000000E+00  0.00000000000E+00  0.82798668592E+03  0.82798668593E+03  0.50400001928E-02 0. -1.
       -1   -1    0    0    0  501  0.00000000000E+00  0.00000000000E+00 -0.11988101204E+04  0.11988101204E+04  0.50400001928E-02 0.  1.
    10030    2    1    2    0    0  0.00000000000E+00  0.00000000000E+00 -0.37082343451E+03  0.20267968064E+04  0.19925850734E+04 0.  0.
        4    1    3    3  502    0 -0.92329171727E+03  0.37431613838E+03 -0.18121299436E+03  0.10126302034E+04  0.12699999809E+01 0.  1.
       -4    1    3    3    0  502  0.92329171727E+03 -0.37431613838E+03 -0.18961044015E+03  0.10141666030E+04  0.12699999809E+01 0. -1.
</event>
<event>
 5   0  0.2110896E-05  0.2003264E+04  0.7818609E-02  0.8605096E-01
       -1   -1    0    0    0  501  0.00000000000E+00  0.00000000000E+00  0.77745232432E+03  0.77745232434E+03  0.50400001928E-02 0.  1.
        1   -1    0    0  501    0  0.00000000000E+00  0.00000000000E+00 -0.12904543977E+04  0.12904543977E+04  0.50400001928E-02 0. -1.
    10030    2    1    2    0    0  0.00000000000E+00  0.00000000000E+00 -0.51300207339E+03  0.20679067221E+04  0.20032641074E+04 0.  0.
        4    1    3    3  502    0  0.57901786439E+03 -0.65487211415E+03  0.24830470042E+03  0.90872218545E+03  0.12699999809E+01 0.  1.
       -4    1    3    3    0  502 -0.57901786439E+03  0.65487211415E+03 -0.76130677380E+03  0.11591845366E+04  0.12699999809E+01 0. -1.
</event>
<event>
 5   0  0.4447313E-05  0.2035334E+04  0.7818609E-02  0.8590277E-01
       -2   -1    0    0    0  501  0.00000000000E+00  0.00000000000E+00  0.47201570498E+03  0.47201570498E+03  0.25500000920E-02 0. -1.
        2   -1    0    0  501    0  0.00000000000E+00  0.00000000000E+00 -0.21940929634E+04  0.21940929634E+04  0.25500000920E-02 0.  1.
    10030    2    1    2    0    0  0.00000000000E+00  0.00000000000E+00 -0.17220772584E+04  0.26661086684E+04  0.20353342103E+04 0.  0.
        5    1    3    3  502    0  0.53368565393E+03 -0.47715215475E+03  0.86390644385E+02  0.72109638012E+03  0.46999998093E+01 0. -1.
       -5    1    3    3    0  502 -0.53368565393E+03  0.47715215475E+03 -0.18084679028E+04  0.19450122882E+04  0.46999998093E+01 0.  1.
</event>
<event>
 5   0  0.2110896E-05  0.1996291E+04  0.7818609E-02  0.8608357E-01
       -1   -1    0    0    0  501  0.00000000000E+00  0.00000000000E+00  0.87072222698E+03  0.87072222700E+03  0.50400001928E-02 0.  1.
        1   -1    0    0  501    0  0.00000000000E+00  0.00000000000E+00 -0.11442161295E+04  0.11442161295E+04  0.50400001928E-02 0. -1.
    10030    2    1    2    0    0  0.00000000000E+00  0.00000000000E+00 -0.27349390252E+03  0.20149383565E+04  0.19962909772E+04 0.  0.
        4    1    3    3  502    0 -0.47626145607E+03  0.54380525607E+03 -0.83146667894E+03  0.11017656657E+04  0.12699999809E+01 0. -1.
       -4    1    3    3    0  502  0.47626145607E+03 -0.54380525607E+03  0.55797277642E+03  0.91317269079E+03  0.12699999809E+01 0.  1.
</event>
<event>
 5   0  0.4514680E-05  0.2014236E+04  0.7818609E-02  0.8599994E-01
       -2   -1    0    0    0  501  0.00000000000E+00  0.00000000000E+00  0.16369775919E+04  0.16369775919E+04  0.25500000920E-02 0. -1.
        2   -1    0    0  501    0  0.00000000000E+00  0.00000000000E+00 -0.61960949538E+03  0.61960949539E+03  0.25500000920E-02 0.  1.
    10030    2    1    2    0    0  0.00000000000E+00  0.00000000000E+00  0.10173680966E+04  0.22565870873E+04  0.20142361924E+04 0.  0.
        3    1    3    3  502    0 -0.21872008727E+03 -0.20140287180E+03  0.15866878381E+04  0.16143047727E+04  0.10100000352E+00 0. -1.
       -3    1    3    3    0  502  0.21872008727E+03  0.20140287180E+03 -0.56931974156E+03  0.64228231462E+03  0.10100000352E+00 0.  1.
</event>
<event>
 5   0  0.4514680E-05  0.2010338E+04  0.7818609E-02  0.8601803E-01
        2   -1    0    0  501    0  0.00000000000E+00  0.00000000000E+00  0.16469427056E+04  0.16469427056E+04  0.25500000920E-02 0. -1.
       -2   -1    0    0    0  501  0.00000000000E+00  0.00000000000E+00 -0.61347888173E+03  0.61347888173E+03  0.25500000920E-02 0.  1.
    10030    2    1    2    0    0  0.00000000000E+00  0.00000000000E+00  0.10334638239E+04  0.22604215874E+04  0.20103378515E+04 0.  0.
        3    1    3    3  502    0  0.16703806963E+03  0.44449916573E+03 -0.47941398430E+03  0.67477329792E+03  0.10100000352E+00 0.  1.
       -3    1    3    3    0  502 -0.16703806963E+03 -0.44449916573E+03  0.15128778082E+04  0.15856482894E+04  0.10100000352E+00 0. -1.
</event>
<event>
 5   0  0.2110896E-05  0.2011890E+04  0.7818609E-02  0.8601082E-01
        1   -1    0    0  501    0  0.00000000000E+00  0.00000000000E+00  0.10882784175E+04  0.10882784175E+04  0.50400001928E-02 0.  1.
       -1   -1    0    0    0  501  0.00000000000E+00  0.00000000000E+00 -0.92984014326E+03  0.92984014328E+03  0.50400001928E-02 0. -1.
    10030    2    1    2    0    0  0.00000000000E+00  0.00000000000E+00  0.15843827421E+03  0.20181185608E+04  0.20118896189E+04 0.  0.
        4    1    3    3  502    0 -0.99791548565E+03 -0.44339934174E+02 -0.39984810499E+02  0.99970082736E+03  0.12699999809E+01 0. -1.
       -4    1    3    3    0  502  0.99791548565E+03  0.44339934174E+02  0.19842308471E+03  0.10184177334E+04  0.12699999809E+01 0.  1.
</event>
<event>
 5   0  0.2142551E-05  0.1998647E+04  0.7818609E-02  0.8607254E-01
        1   -1    0    0  501    0  0.00000000000E+00  0.00000000000E+00  0.22294752821E+04  0.22294752821E+04  0.50400001928E-02 0. -1.
       -1   -1    0    0    0  501  0.00000000000E+00  0.00000000000E+00 -0.44792920669E+03  0.44792920672E+03  0.50400001928E-02 0.  1.
    10030    2    1    2    0    0  0.00000000000E+00  0.00000000000E+00  0.17815460754E+04  0.26774044889E+04  0.19986466366E+04 0.  0.
        3    1    3    3  502    0  0.18947015568E+03  0.60639194494E+03  0.19241289744E+04  0.20262977203E+04  0.10100000352E+00 0. -1.
       -3    1    3    3    0  502 -0.18947015568E+03 -0.60639194494E+03 -0.14258289900E+03  0.65110676856E+03  0.10100000352E+00 0.  1.
</event>
<event>
 5   0  0.2110896E-05  0.2000606E+04  0.7818609E-02  0.8606337E-01
       -1   -1    0    0    0  501  0.00000000000E+00  0.00000000000E+00  0.57392153339E+03  0.57392153342E+03  0.50400001928E-02 0.  1.
        1   -1    0    0  501    0  0.00000000000E+00  0.00000000000E+00 -0.17434543517E+04  0.17434543517E+04  0.50400001928E-02 0. -1.
    10030    2    1    2    0    0  0.00000000000E+00  0.00000000000E+00 -0.11695328183E+04  0.23173758851E+04  0.20006059032E+04 0.  0.
        4    1    3    3  502    0 -0.61683432623E+03  0.31091358687E+03 -0.14228234751E+04  0.15816384222E+04  0.12699999809E+01 0. -1.
       -4    1    3    3    0  502  0.61683432623E+03 -0.31091358687E+03  0.25329065682E+03  0.73573746285E+03  0.12699999809E+01 0.  1.
</event>
<event>
 5   0  0.4447313E-05  0.2001486E+04  0.7818609E-02  0.8605926E-01
       -2   -1    0    0    0  501  0.00000000000E+00  0.00000000000E+00  0.76522977117E+03  0.76522977117E+03  0.25500000920E-02 0.  1.
        2   -1    0    0  501    0  0.00000000000E+00  0.00000000000E+00 -0.13087393074E+04  0.13087393074E+04  0.25500000920E-02 0. -1.
    10030    2    1    2    0    0  0.00000000000E+00  0.00000000000E+00 -0.54350953620E+03  0.20739690785E+04  0.20014857289E+04 0.  0.
        5    1    3    3  502    0 -0.40799341779E+03 -0.35747620039E+03  0.59966201242E+03  0.80861887311E+03  0.46999998093E+01 0.  1.
       -5    1    3    3    0  502  0.40799341779E+03  0.35747620039E+03 -0.11431715486E+04  0.12653502054E+04  0.46999998093E+01 0. -1.
</event>
<event>
 5   0  0.2110896E-05  0.2000439E+04  0.7818609E-02  0.8606415E-01
       -1   -1    0    0    0  501  0.00000000000E+00  0.00000000000E+00  0.95656670632E+03  0.95656670633E+03  0.50400001928E-02 0.  1.
        1   -1    0    0  501    0  0.00000000000E+00  0.00000000000E+00 -0.10458647177E+04  0.10458647177E+04  0.50400001928E-02 0. -1.
    10030    2    1    2    0    0  0.00000000000E+00  0.00000000000E+00 -0.89298011332E+02  0.20024314240E+04  0.20004393200E+04 0.  0.
        4    1    3    3  502    0 -0.17653572731E+03  0.10143273862E+03 -0.10249016363E+04  0.10449298734E+04  0.12699999809E+01 0. -1.
       -4    1    3    3    0  502  0.17653572731E+03 -0.10143273862E+03  0.93560362492E+03  0.95750155057E+03  0.12699999809E+01 0.  1.
</event>
<event>
 5   0  0.1601500E-05  0.2009046E+04  0.7818609E-02  0.8602403E-01
        3   -1    0    0  501    0  0.00000000000E+00  0.00000000000E+00  0.13385552934E+04  0.13385552973E+04  0.10100000352E+00 0. -1.
       -3   -1    0    0    0  501  0.00000000000E+00  0.00000000000E+00 -0.75384709674E+03  0.75384710351E+03  0.10100000352E+00 0.  1.
    10030    2    1    2    0    0  0.00000000000E+00  0.00000000000E+00  0.58470819671E+03  0.20924024008E+04  0.20090455772E+04 0.  0.
        5    1    3    3  502    0 -0.55461619500E+03  0.53695344368E+03  0.96177086993E+03  0.12332653489E+04  0.46999998093E+01 0. -1.
       -5    1    3    3    0  502  0.55461619500E+03 -0.53695344368E+03 -0.37706267323E+03  0.85913705191E+03  0.46999998093E+01 0.  1.
</event>
<event>
 5   0  0.2093980E-05  0.1998994E+04  0.7818609E-02  0.8607091E-01
       -1   -1    0    0    0  501  0.00000000000E+00  0.00000000000E+00  0.50408959581E+03  0.50408959584E+03  0.50400001928E-02 0. -1.
        1   -1    0    0  501    0  0.00000000000E+00  0.00000000000E+00 -0.19817785864E+04  0.19817785864E+04  0.50400001928E-02 0.  1.
    10030    2    1    2    0    0  0.00000000000E+00  0.00000000000E+00 -0.14776889906E+04  0.24858681822E+04  0.19989937135E+04 0.  0.
        2    1    3    3  502    0 -0.62807257167E+03 -0.46389025709E+03  0.37085629093E+02  0.78169346281E+03  0.25500000920E-02 0. -1.
       -2    1    3    3    0  502  0.62807257167E+03  0.46389025709E+03 -0.15147746197E+04  0.17041747194E+04  0.25500000920E-02 0.  1.
</event>
<event>
 5   0  0.2256868E-05  0.1997599E+04  0.7818609E-02  0.8607744E-01
       -1   -1    0    0    0  501  0.00000000000E+00  0.00000000000E+00  0.10671562016E+04  0.10671562016E+04  0.50400001928E-02 0. -1.
        1   -1    0    0  501    0  0.00000000000E+00  0.00000000000E+00 -0.93482152403E+03  0.93482152404E+03  0.50400001928E-02 0.  1.
    10030    2    1    2    0    0  0.00000000000E+00  0.00000000000E+00  0.13233467759E+03  0.20019777257E+04  0.19975991458E+04 0.  0.
        5    1    3    3  502    0 -0.20272832619E+03  0.65708338452E+03 -0.65979682299E+03  0.95300119941E+03  0.46999998093E+01 0.  1.
       -5    1    3    3    0  502  0.20272832619E+03 -0.65708338452E+03  0.79213150057E+03  0.10489765263E+04  0.46999998093E+01 0. -1.
</event>
<event>
 5   0  0.4473361E-05  0.1998196E+04  0.7818609E-02  0.8607465E-01
        2   -1    0    0  501    0  0.00000000000E+00  0.00000000000E+00  0.27255672402E+04  0.27255672402E+04  0.25500000920E-02 0. -1.
       -2   -1    0    0    0  501  0.00000000000E+00  0.00000000000E+00 -0.36623438327E+03  0.36623438328E+03  0.25500000920E-02 0.  1.
    10030    2    1    2    0    0  0.00000000000E+00  0.00000000000E+00  0.23593328569E+04  0.30918016234E+04  0.19981956233E+04 0.  0.
        2    1    3    3  502    0 -0.14002766877E+03 -0.23118133565E+03 -0.30859168017E+03  0.41022113920E+03  0.25500000920E-02 0.  1.
       -2    1    3    3    0  502  0.14002766877E+03  0.23118133565E+03  0.26679245371E+04  0.26815804842E+04  0.25500000920E-02 0. -1.
</event>
<event>
 5   0  0.4412054E-05  0.1997003E+04  0.7818609E-02  0.8608023E-01
        2   -1    0    0  501    0  0.00000000000E+00  0.00000000000E+00  0.57978519330E+03  0.57978519330E+03  0.25500000920E-02 0.  1.
       -2   -1    0    0    0  501  0.00000000000E+00  0.00000000000E+00 -0.17196111269E+04  0.17196111269E+04  0.25500000920E-02 0. -1.
    10030    2    1    2    0    0  0.00000000000E+00  0.00000000000E+00 -0.11398259336E+04  0.22993963202E+04  0.19970028239E+04 0.  0.
        4    1    3    3  502    0  0.67736260879E+03  0.76976125106E+02  0.27011987163E+03  0.73328833727E+03  0.12699999809E+01 0.  1.
       -4    1    3    3    0  502 -0.67736260879E+03 -0.76976125106E+02 -0.14099458052E+04  0.15661079829E+04  0.12699999809E+01 0. -1.
</event>
<event>
 5   0  0.4514680E-05  0.2000745E+04  0.7818609E-02  0.8606273E-01
       -2   -1    0    0    0  501  0.00000000000E+00  0.00000000000E+00  0.58763903115E+03  0.58763903116E+03  0.25500000920E-02 0.  1.
        2   -1    0    0  501    0  0.00000000000E+00  0.00000000000E+00 -0.17029926075E+04  0.17029926076E+04  0.25500000920E-02 0. -1.
    10030    2    1    2    0    0  0.00000000000E+00  0.00000000000E+00 -0.11153535764E+04  0.22906316387E+04  0.20007447873E+04 0.  0.
        3    1    3    3  502    0  0.83432600881E+03 -0.18752521375E+03  0.36651337549E+02  0.85592577104E+03  0.10100000352E+00 0.  1.
       -3    1    3    3    0  502 -0.83432600881E+03  0.18752521375E+03 -0.11520049139E+04  0.14347058677E+04  0.10100000352E+00 0. -1.
</event>
<event>
 5   0  0.2007644E-05  0.1984089E+04  0.7818609E-02  0.8614096E-01
       -1   -1    0    0    0  501  0.00000000000E+00  0.00000000000E+00  0.11086605865E+04  0.11086605865E+04  0.50400001928E-02 0.  1.
        1   -1    0    0  501    0  0.00000000000E+00  0.00000000000E+00 -0.88769442536E+03  0.88769442537E+03  0.50400001928E-02 0. -1.
    10030    2    1    2    0    0  0.00000000000E+00  0.00000000000E+00  0.22096616114E+03  0.19963550119E+04  0.19840885285E+04 0.  0.
        1    1    3    3  502    0  0.96698413751E+03  0.20553817499E+03  0.19374465318E+03  0.10073932967E+04  0.50400001928E-02 0.  1.
       -1    1    3    3    0  502 -0.96698413751E+03 -0.20553817499E+03  0.27221507965E+02  0.98896171518E+03  0.50400001928E-02 0. -1.
</event>
<event>
 5   0  0.2142551E-05  0.2001501E+04  0.7818609E-02  0.8605919E-01
       -1   -1    0    0    0  501  0.00000000000E+00  0.00000000000E+00  0.12044444653E+04  0.12044444653E+04  0.50400001928E-02 0. -1.
        1   -1    0    0  501    0  0.00000000000E+00  0.00000000000E+00 -0.83150484616E+03  0.83150484618E+03  0.50400001928E-02 0.  1.
    10030    2    1    2    0    0  0.00000000000E+00  0.00000000000E+00  0.37293961918E+03  0.20359493115E+04  0.20015008468E+04 0.  0.
        3    1    3    3  502    0 -0.88337116969E+03  0.19872360301E+03 -0.24708864383E+03  0.93855660562E+03  0.10100000352E+00 0.  1.
       -3    1    3    3    0  502  0.88337116969E+03 -0.19872360301E+03  0.62002826301E+03  0.10973927059E+04  0.10100000352E+00 0. -1.
</event>
<event>
 5   0  0.2256868E-05  0.1998614E+04  0.7818609E-02  0.8607269E-01
        1   -1    0    0  501    0  0.00000000000E+00  0.00000000000E+00  0.11029032718E+04  0.11029032718E+04  0.50400001928E-02 0.  1.
       -1   -1    0    0    0  501  0.00000000000E+00  0.00000000000E+00 -0.90544193700E+03  0.90544193702E+03  0.50400001928E-02 0. -1.
    10030    2    1    2    0    0  0.00000000000E+00  0.00000000000E+00  0.19746133476E+03  0.20083452088E+04  0.19986143948E+04 0.  0.
        5    1    3    3  502    0 -0.53367160935E+03  0.70886137713E+03 -0.36318440083E+03  0.95875692311E+03  0.46999998093E+01 0. -1.
       -5    1    3    3    0  502  0.53367160935E+03 -0.70886137713E+03  0.56064573559E+03  0.10495882857E+04  0.46999998093E+01 0.  1.
</event>
<event>
 5   0  0.2256868E-05  0.2003995E+04  0.7818609E-02  0.8604755E-01
       -1   -1    0    0    0  501  0.00000000000E+00  0.00000000000E+00  0.13192558069E+04  0.13192558069E+04  0.50400001928E-02 0. -1.
        1   -1    0    0  501    0  0.00000000000E+00  0.00000000000E+00 -0.76103431282E+03  0.76103431284E+03  0.50400001928E-02 0.  1.
    10030    2    1    2    0    0  0.00000000000E+00  0.00000000000E+00  0.55822149407E+03  0.20802901197E+04  0.20039949466E+04 0.  0.
        5    1    3    3  502    0  0.77509295332E+03  0.25788057650E+03  0.88146544902E+03  0.12017798908E+04  0.46999998093E+01 0. -1.
       -5    1    3    3    0  502 -0.77509295332E+03 -0.25788057650E+03 -0.32324395494E+03  0.87851022898E+03  0.46999998093E+01 0.  1.
</event>
<event>
 5   0  0.4473361E-05  0.2003921E+04  0.7818609E-02  0.8604790E-01
       -2   -1    0    0    0  501  0.00000000000E+00  0.00000000000E+00  0.52728455170E+03  0.52728455171E+03  0.25500000920E-02 0.  1.
        2   -1    0    0  501    0  0.00000000000E+00  0.00000000000E+00 -0.19039523185E+04  0.19039523185E+04  0.25500000920E-02 0. -1.
    10030    2    1    2    0    0  0.00000000000E+00  0.00000000000E+00 -0.13766677668E+04  0.24312368702E+04  0.20039208015E+04 0.  0.
        2    1    3    3  502    0  0.72351914965E+03 -0.43691039154E+03 -0.35486752009E+02  0.84594914724E+03  0.25500000920E-02 0.  1.
       -2    1    3    3    0  502 -0.72351914965E+03  0.43691039154E+03 -0.13411810147E+04  0.15852877229E+04  0.25500000920E-02 0. -1.
</event>
<event>
 5   0  0.4473361E-05  0.2002862E+04  0.7818609E-02  0.8605284E-01
        2   -1    0    0  501    0  0.00000000000E+00  0.00000000000E+00  0.22494748268E+04  0.22494748268E+04  0.25500000920E-02 0. -1.
       -2   -1    0    0    0  501  0.00000000000E+00  0.00000000000E+00 -0.44582125748E+03  0.44582125749E+03  0.25500000920E-02 0.  1.
    10030    2    1    2    0    0  0.00000000000E+00  0.00000000000E+00  0.18036535693E+04  0.26952960843E+04  0.20028616487E+04 0.  0.
        2    1    3    3  502    0  0.62788867661E+03 -0.42602626907E+03  0.22336482557E+02  0.75910571768E+03  0.25500000920E-02 0.  1.
       -2    1    3    3    0  502 -0.62788867661E+03  0.42602626907E+03  0.17813170867E+04  0.19361903666E+04  0.25500000920E-02 0. -1.
</event>
<event>
 5   0  0.2142551E-05  0.1994240E+04  0.7818609E-02  0.8609319E-01
       -1   -1    0    0    0  501  0.00000000000E+00  0.00000000000E+00  0.16916684324E+04  0.16916684324E+04  0.50400001928E-02 0. -1.
        1   -1    0    0  501    0  0.00000000000E+00  0.00000000000E+00 -0.58773207682E+03  0.58773207684E+03  0.50400001928E-02 0.  1.
    10030    2    1    2    0    0  0.00000000000E+00  0.00000000000E+00  0.11039363556E+04  0.22794005093E+04  0.19942395053E+04 0.  0.
        3    1    3    3  502    0 -0.98705968227E+03  0.11870940442E+03  0.46440383371E+03  0.10972919712E+04  0.10100000352E+00 0.  1.
       -3    1    3    3    0  502  0.98705968227E+03 -0.11870940442E+03  0.63953252189E+03  0.11821085381E+04  0.10100000352E+00 0. -1.
</event>
<event>
 5   0  0.2007644E-05  0.1994590E+04  0.7818609E-02  0.8609154E-01
        1   -1    0    0  501    0  0.00000000000E+00  0.00000000000E+00  0.17121196168E+04  0.17121196168E+04  0.50400001928E-02 0.  1.
       -1   -1    0    0    0  501  0.00000000000E+00  0.00000000000E+00 -0.58091575220E+03  0.58091575222E+03  0.50400001928E-02 0. -1.
    10030    2    1    2    0    0  0.00000000000E+00  0.00000000000E+00  0.11312038646E+04  0.22930353690E+04  0.19945899379E+04 0.  0.
        1    1    3    3  502    0  0.16486220623E+03 -0.52901693040E+03 -0.38765956225E+03  0.67625320400E+03  0.50400001928E-02 0. -1.
       -1    1    3    3    0  502 -0.16486220623E+03  0.52901693040E+03  0.15188634268E+04  0.16167821650E+04  0.50400001928E-02 0.  1.
</event>
<event>
 5   0  0.4577279E-05  0.2003862E+04  0.7818609E-02  0.8604817E-01
       -2   -1    0    0    0  501  0.00000000000E+00  0.00000000000E+00  0.11360778456E+04  0.11360778456E+04  0.25500000920E-02 0.  1.
        2   -1    0    0  501    0  0.00000000000E+00  0.00000000000E+00 -0.88362408481E+03  0.88362408481E+03  0.25500000920E-02 0. -1.
    10030    2    1    2    0    0  0.00000000000E+00  0.00000000000E+00  0.25245376077E+03  0.20197019304E+04  0.20038620178E+04 0.  0.
        1    1    3    3  502    0  0.32662048331E+03 -0.94675155476E+03  0.96905687492E+02  0.10061859465E+04  0.50400001928E-02 0.  1.
       -1    1    3    3    0  502 -0.32662048331E+03  0.94675155476E+03  0.15554807328E+03  0.10135159839E+04  0.50400001928E-02 0. -1.
</event>
<event>
 5   0  0.4447313E-05  0.2003350E+04  0.7818609E-02  0.8605056E-01
        2   -1    0    0  501    0  0.00000000000E+00  0.00000000000E+00  0.14675181943E+04  0.14675181943E+04  0.25500000920E-02 0.  1.
       -2   -1    0    0    0  501  0.00000000000E+00  0.00000000000E+00 -0.68370690677E+03  0.68370690678E+03  0.25500000920E-02 0. -1.
    10030    2    1    2    0    0  0.00000000000E+00  0.00000000000E+00  0.78381128757E+03  0.21512251011E+04  0.20033495205E+04 0.  0.
        5    1    3    3  502    0  0.42477653663E+03  0.17322033844E+03 -0.56426533424E+03  0.72722613343E+03  0.46999998093E+01 0. -1.
       -5    1    3    3    0  502 -0.42477653663E+03 -0.17322033844E+03  0.13480766218E+04  0.14239989677E+04  0.46999998093E+01 0.  1.
</event>
<event>
 5   0  0.2093980E-05  0.1993731E+04  0.7818609E-02  0.8609557E-01
        1   -1    0    0  501    0  0.00000000000E+00  0.00000000000E+00  0.11364432773E+04  0.11364432773E+04  0.50400001928E-02 0. -1.
       -1   -1    0    0    0  501  0.00000000000E+00  0.00000000000E+00 -0.87443084033E+03  0.87443084034E+03  0.50400001928E-02 0.  1.
    10030    2    1    2    0    0  0.00000000000E+00  0.00000000000E+00  0.26201243694E+03  0.20108741176E+04  0.19937312256E+04 0.  0.
        2    1    3    3  502    0  0.72112477352E+03 -0.48392927191E+02  0.82347952472E+03  0.10956647946E+04  0.25500000920E-02 0.  1.
       -2    1    3    3    0  502 -0.72112477352E+03  0.48392927191E+02 -0.56146708777E+03  0.91520932308E+03  0.25500000920E-02 0. -1.
</event>
<event>
 5   0  0.2093980E-05  0.1999217E+04  0.7818609E-02  0.8606987E-01
        1   -1    0    0  501    0  0.00000000000E+00  0.00000000000E+00  0.28808466701E+04  0.28808466701E+04  0.50400001928E-02 0. -1.
       -1   -1    0    0    0  501  0.00000000000E+00  0.00000000000E+00 -0.34684837238E+03  0.34684837242E+03  0.50400001928E-02 0.  1.
    10030    2    1    2    0    0  0.00000000000E+00  0.00000000000E+00  0.25339982977E+04  0.32276950425E+04  0.19992168253E+04 0.  0.
        2    1    3    3  502    0 -0.38015683942E+02 -0.87635824430E+03  0.49311244991E+03  0.10062846778E+04  0.25500000920E-02 0.  1.
       -2    1    3    3    0  502  0.38015683942E+02  0.87635824430E+03  0.20408858478E+04  0.22214103647E+04  0.25500000920E-02 0. -1.
</event>
<event>
 5   0  0.2142551E-05  0.1998011E+04  0.7818609E-02  0.8607551E-01
        1   -1    0    0  501    0  0.00000000000E+00  0.00000000000E+00  0.14700757429E+04  0.14700757429E+04  0.50400001928E-02 0. -1.
       -1   -1    0    0    0  501  0.00000000000E+00  0.00000000000E+00 -0.67888506440E+03  0.67888506442E+03  0.50400001928E-02 0.  1.
    10030    2    1    2    0    0  0.00000000000E+00  0.00000000000E+00  0.79119067853E+03  0.21489608074E+04  0.19980114769E+04 0.  0.
        3    1    3    3  502    0 -0.31254890785E+03  0.86238575065E+03  0.82124197753E+03  0.12311922671E+04  0.10100000352E+00 0. -1.
       -3    1    3    3    0  502  0.31254890785E+03 -0.86238575065E+03 -0.30051298998E+02  0.91776854026E+03  0.10100000352E+00 0.  1.
</event>
<event>
 5   0  0.4514680E-05  0.1977172E+04  0.7818609E-02  0.8617369E-01
        2   -1    0    0  501    0  0.00000000000E+00  0.00000000000E+00  0.11648654535E+04  0.11648654535E+04  0.25500000920E-02 0.  1.
       -2   -1    0    0    0  501  0.00000000000E+00  0.00000000000E+00 -0.83898276416E+03  0.83898276416E+03  0.25500000920E-02 0. -1.
    10030    2    1    2    0    0  0.00000000000E+00  0.00000000000E+00  0.32588268933E+03  0.20038482177E+04  0.19771717559E+04 0.  0.
        3    1    3    3  502    0  0.32684383895E+03 -0.88416121703E+02 -0.77838384808E+03  0.84883787074E+03  0.10100000352E+00 0. -1.
       -3    1    3    3    0  502 -0.32684383895E+03  0.88416121703E+02  0.11042665374E+04  0.11550103469E+04  0.10100000352E+00 0.  1.
</event>
<event>
 5   0  0.2256868E-05  0.1997712E+04  0.7818609E-02  0.8607691E-01
        1   -1    0    0  501    0  0.00000000000E+00  0.00000000000E+00  0.92861679287E+03  0.92861679288E+03  0.50400001928E-02 0. -1.
       -1   -1    0    0    0  501  0.00000000000E+00  0.00000000000E+00 -0.10744077475E+04  0.10744077475E+04  0.50400001928E-02 0.  1.
    10030    2    1    2    0    0  0.00000000000E+00  0.00000000000E+00 -0.14579095466E+03  0.20030245404E+04  0.19977117678E+04 0.  0.
        5    1    3    3  502    0 -0.49078843411E+03 -0.81355739160E+03 -0.38184162985E+03  0.10239990414E+04  0.46999998093E+01 0. -1.
       -5    1    3    3    0  502  0.49078843411E+03  0.81355739160E+03  0.23605067519E+03  0.97902549902E+03  0.46999998093E+01 0.  1.
</event>
<event>
 5   0  0.2093980E-05  0.1987615E+04  0.7818609E-02  0.8612433E-01
        1   -1    0    0  501    0  0.00000000000E+00  0.00000000000E+00  0.12539774906E+04  0.12539774906E+04  0.50400001928E-02 0. -1.
       -1   -1    0    0    0  501  0.00000000000E+00  0.00000000000E+00 -0.78761649745E+03  0.78761649747E+03  0.50400001928E-02 0.  1.
    10030    2    1    2    0    0  0.00000000000E+00  0.00000000000E+00  0.46636099318E+03  0.20415939881E+04  0.19876150121E+04 0.  0.
        2    1    3    3  502    0 -0.22902268700E+03  0.88610091505E+03  0.63103293090E+03  0.11116783630E+04  0.25500000920E-02 0. -1.
       -2    1    3    3    0  502  0.22902268700E+03 -0.88610091505E+03 -0.16467193772E+03  0.92991562514E+03  0.25500000920E-02 0.  1.
</event>
<event>
 5   0  0.4514680E-05  0.1999946E+04  0.7818609E-02  0.8606646E-01
        2   -1    0    0  501    0  0.00000000000E+00  0.00000000000E+00  0.20119391469E+04  0.20119391469E+04  0.25500000920E-02 0.  1.
       -2   -1    0    0    0  501  0.00000000000E+00  0.00000000000E+00 -0.49700624650E+03  0.49700624651E+03  0.25500000920E-02 0. -1.
    10030    2    1    2    0    0  0.00000000000E+00  0.00000000000E+00  0.15149329004E+04  0.25089453934E+04  0.19999463229E+04 0.  0.
        3    1    3    3  502    0  0.23187830683E+03 -0.48997158719E+03  0.18116300290E+04  0.18909899729E+04  0.10100000352E+00 0.  1.
       -3    1    3    3    0  502 -0.23187830683E+03  0.48997158719E+03 -0.29669712859E+03  0.61795542052E+03  0.10100000352E+00 0. -1.
</event>
<event>
 5   0  0.4447313E-05  0.2002052E+04  0.7818609E-02  0.8605662E-01
        2   -1    0    0  501    0  0.00000000000E+00  0.00000000000E+00  0.68701717631E+03  0.68701717631E+03  0.25500000920E-02 0. -1.
       -2   -1    0    0    0  501  0.00000000000E+00  0.00000000000E+00 -0.14585558806E+04  0.14585558806E+04  0.25500000920E-02 0.  1.
    10030    2    1    2    0    0  0.00000000000E+00  0.00000000000E+00 -0.77153870425E+03  0.21455730569E+04  0.20020518900E+04 0.  0.
        5    1    3    3  502    0 -0.70976995740E+03 -0.43585799394E+03  0.20926818580E+03  0.85881362757E+03  0.46999998093E+01 0. -1.
       -5    1    3    3    0  502  0.70976995740E+03  0.43585799394E+03 -0.98080689005E+03  0.12867594293E+04  0.46999998093E+01 0.  1.
</event>
<event>
 5   0  0.4447313E-05  0.1996136E+04  0.7818609E-02  0.8608429E-01
       -2   -1    0    0    0  501  0.00000000000E+00  0.00000000000E+00  0.10027816656E+04  0.10027816656E+04  0.25500000920E-02 0. -1.
        2   -1    0    0  501    0  0.00000000000E+00  0.00000000000E+00 -0.99337677266E+03  0.99337677267E+03  0.25500000920E-02 0.  1.
    10030    2    1    2    0    0  0.00000000000E+00  0.00000000000E+00  0.94048929818E+01  0.19961584383E+04  0.19961362826E+04 0.  0.
        5    1    3    3  502    0  0.68337852792E+02  0.31165174004E+03  0.95039843796E+03  0.10025348623E+04  0.46999998093E+01 0. -1.
       -5    1    3    3    0  502 -0.68337852792E+02 -0.31165174004E+03 -0.94099354498E+03  0.99362357605E+03  0.46999998093E+01 0.  1.
</event>
<event>
 5   0  0.4447313E-05  0.2003394E+04  0.7818609E-02  0.8605035E-01
        2   -1    0    0  501    0  0.00000000000E+00  0.00000000000E+00  0.11136869829E+04  0.11136869829E+04  0.25500000920E-02 0.  1.
       -2   -1    0    0    0  501  0.00000000000E+00  0.00000000000E+00 -0.90096869491E+03  0.90096869491E+03  0.25500000920E-02 0. -1.
    10030    2    1    2    0    0  0.00000000000E+00  0.00000000000E+00  0.21271828800E+03  0.20146556778E+04  0.20033942273E+04 0.  0.
        5    1    3    3  502    0 -0.79642453278E+03  0.26072269527E+03  0.65817553039E+03  0.10655916099E+04  0.46999998093E+01 0.  1.
       -5    1    3    3    0  502  0.79642453278E+03 -0.26072269527E+03 -0.44545724239E+03  0.94906406794E+03  0.46999998093E+01 0. -1.
</event>
<event>
 5   0  0.4473361E-05  0.2020055E+04  0.7818609E-02  0.8597301E-01
       -2   -1    0    0    0  501  0.00000000000E+00  0.00000000000E+00  0.90182606296E+03  0.90182606296E+03  0.25500000920E-02 0.  1.
        2   -1    0    0  501    0  0.00000000000E+00  0.00000000000E+00 -0.11312112859E+04  0.11312112859E+04  0.25500000920E-02 0. -1.
    10030    2    1    2    0    0  0.00000000000E+00  0.00000000000E+00 -0.22938522294E+03  0.20330373489E+04  0.20200552669E+04 0.  0.
        2    1    3    3  502    0 -0.16855150473E+03  0.79854384862E+03  0.48417259651E+03  0.94894941442E+03  0.25500000920E-02 0.  1.
       -2    1    3    3    0  502  0.16855150473E+03 -0.79854384862E+03 -0.71355781945E+03  0.10840879344E+04  0.25500000920E-02 0. -1.
</event>
<event>
 5   0  0.4412054E-05  0.2009953E+04  0.7818609E-02  0.8601982E-01
        2   -1    0    0  501    0  0.00000000000E+00  0.00000000000E+00  0.81975994471E+03  0.81975994471E+03  0.25500000920E-02 0.  1.
       -2   -1    0    0    0  501  0.00000000000E+00  0.00000000000E+00 -0.12320404343E+04  0.12320404343E+04  0.25500000920E-02 0. -1.
    10030    2    1    2    0    0  0.00000000000E+00  0.00000000000E+00 -0.41228048961E+03  0.20518003790E+04  0.20099526346E+04 0.  0.
        4    1    3    3  502    0  0.85908787366E+03 -0.68618518966E+02 -0.73385131258E+03  0.11319363223E+04  0.12699999809E+01 0. -1.
       -4    1    3    3    0  502 -0.85908787366E+03  0.68618518966E+02  0.32157082297E+03  0.91986405675E+03  0.12699999809E+01 0.  1.
</event>
<event>
 5   0  0.4514680E-05  0.1991100E+04  0.7818609E-02  0.8610793E-01
       -2   -1    0    0    0  501  0.00000000000E+00  0.00000000000E+00  0.83215505831E+03  0.83215505831E+03  0.25500000920E-02 0. -1.
        2   -1    0    0  501    0  0.00000000000E+00  0.00000000000E+00 -0.11910278788E+04  0.11910278788E+04  0.25500000920E-02 0.  1.
    10030    2    1    2    0    0  0.00000000000E+00  0.00000000000E+00 -0.35887282048E+03  0.20231829371E+04  0.19911000717E+04 0.  0.
        3    1    3    3  502    0 -0.71912730105E+03 -0.59385658748E+02  0.51750842087E+03  0.88796717701E+03  0.10100000352E+00 0. -1.
       -3    1    3    3    0  502  0.71912730105E+03  0.59385658748E+02 -0.87638124135E+03  0.11352157601E+04  0.10100000352E+00 0.  1.
</event>
<event>
 5   0  0.4447313E-05  0.1990854E+04  0.7818609E-02  0.8610909E-01
        2   -1    0    0  501    0  0.00000000000E+00  0.00000000000E+00  0.96627064275E+03  0.96627064275E+03  0.25500000920E-02 0. -1.
       -2   -1    0    0    0  501  0.00000000000E+00  0.00000000000E+00 -0.10254627250E+04  0.10254627250E+04  0.25500000920E-02 0.  1.
    10030    2    1    2    0    0  0.00000000000E+00  0.00000000000E+00 -0.59192082249E+02  0.19917333678E+04  0.19908536123E+04 0.  0.
        5    1    3    3  502    0  0.40251781622E+03  0.13707903150E+03  0.87082455698E+03  0.96910719339E+03  0.46999998093E+01 0. -1.
       -5    1    3    3    0  502 -0.40251781622E+03 -0.13707903150E+03 -0.93001663923E+03  0.10226261744E+04  0.46999998093E+01 0.  1.
</event>
<event>
 5   0  0.4412054E-05  0.1997480E+04  0.7818609E-02  0.8607800E-01
       -2   -1    0    0    0  501  0.00000000000E+00  0.00000000000E+00  0.56380725573E+03  0.56380725573E+03  0.25500000920E-02 0.  1.
        2   -1    0    0  501    0  0.00000000000E+00  0.00000000000E+00 -0.17691891383E+04  0.17691891383E+04  0.25500000920E-02 0. -1.
    10030    2    1    2    0    0  0.00000000000E+00  0.00000000000E+00 -0.12053818826E+04  0.23329963941E+04  0.19974800855E+04 0.  0.
        4    1    3    3  502    0  0.41821058269E+03  0.76871574438E+03 -0.11648425454E+04  0.14569432919E+04  0.12699999809E+01 0. -1.
       -4    1    3    3    0  502 -0.41821058269E+03 -0.76871574438E+03 -0.40539337164E+02  0.87605310221E+03  0.12699999809E+01 0.  1.
</event>
<event>
 5   0  0.1601500E-05  0.2003113E+04  0.7818609E-02  0.8605167E-01
        3   -1    0    0  501    0  0.00000000000E+00  0.00000000000E+00  0.18984373901E+04  0.18984373928E+04  0.10100000352E+00 0.  1.
       -3   -1    0    0    0  501  0.00000000000E+00  0.00000000000E+00 -0.52838983694E+03  0.52838984660E+03  0.10100000352E+00 0. -1.
    10030    2    1    2    0    0  0.00000000000E+00  0.00000000000E+00  0.13700475532E+04  0.24268272394E+04  0.20031126159E+04 0.  0.
        1    1    3    3  502    0  0.82357721150E+03 -0.47446504266E+03  0.10676030569E+04  0.14293959518E+04  0.50400001928E-02 0.  1.
       -1    1    3    3    0  502 -0.82357721150E+03  0.47446504266E+03  0.30244449624E+03  0.99743128753E+03  0.50400001928E-02 0. -1.
</event>
<event>
 5   0  0.4577279E-05  0.1971724E+04  0.7818609E-02  0.8619956E-01
       -2   -1    0    0    0  501  0.00000000000E+00  0.00000000000E+00  0.41697239977E+03  0.41697239977E+03  0.25500000920E-02 0.  1.
        2   -1    0    0  501    0  0.00000000000E+00  0.00000000000E+00 -0.23309062237E+04  0.23309062237E+04  0.25500000920E-02 0. -1.
    10030    2    1    2    0    0  0.00000000000E+00  0.00000000000E+00 -0.19139338239E+04  0.27478786234E+04  0.19717236741E+04 0.  0.
        1    1    3    3  502    0  0.76491347535E+03 -0.56437077101E+03 -0.59270436443E+03  0.11202256271E+04  0.50400001928E-02 0.  1.
       -1    1    3    3    0  502 -0.76491347535E+03  0.56437077101E+03 -0.13212294595E+04  0.16276529963E+04  0.50400001928E-02 0. -1.
</event>
<event>
 5   0  0.2093980E-05  0.2030503E+04  0.7818609E-02  0.8592491E-01
       -1   -1    0    0    0  501  0.00000000000E+00  0.00000000000E+00  0.48133983908E+03  0.48133983911E+03  0.50400001928E-02 0. -1.
        1   -1    0    0  501    0  0.00000000000E+00  0.00000000000E+00 -0.21413893516E+04  0.21413893516E+04  0.50400001928E-02 0.  1.
    10030    2    1    2    0    0  0.00000000000E+00  0.00000000000E+00 -0.16600495125E+04  0.26227291907E+04  0.20305033917E+04 0.  0.
        2    1    3    3  502    0 -0.42033294423E+03  0.24947119014E+03 -0.19794032307E+04  0.20388606643E+04  0.25500000920E-02 0.  1.
       -2    1    3    3    0  502  0.42033294423E+03 -0.24947119014E+03  0.31935371824E+03  0.58386852636E+03  0.25500000920E-02 0. -1.
</event>
<event>
 5   0  0.4514680E-05  0.2001039E+04  0.7818609E-02  0.8606135E-01
        2   -1    0    0  501    0  0.00000000000E+00  0.00000000000E+00  0.86046827658E+03  0.86046827658E+03  0.25500000920E-02 0.  1.
       -2   -1    0    0    0  501  0.00000000000E+00  0.00000000000E+00 -0.11633652260E+04  0.11633652260E+04  0.25500000920E-02 0. -1.
    10030    2    1    2    0    0  0.00000000000E+00  0.00000000000E+00 -0.30289694941E+03  0.20238335026E+04  0.20010386014E+04 0.  0.
        3    1    3    3  502    0  0.53324865775E+03 -0.74897950535E+03  0.24765337919E+03  0.95218519042E+03  0.10100000352E+00 0.  1.
       -3    1    3    3    0  502 -0.53324865775E+03  0.74897950535E+03 -0.55055032859E+03  0.10716483122E+04  0.10100000352E+00 0. -1.
</event>
<event>
 5   0  0.2110896E-05  0.2096720E+04  0.7818609E-02  0.8562689E-01
        1   -1    0    0  501    0  0.00000000000E+00  0.00000000000E+00  0.26140672199E+04  0.26140672200E+04  0.50400001928E-02 0.  1.
       -1   -1    0    0    0  501  0.00000000000E+00  0.00000000000E+00 -0.42044022970E+03  0.42044022973E+03  0.50400001928E-02 0. -1.
    10030    2    1    2    0    0  0.00000000000E+00  0.00000000000E+00  0.21936269902E+04  0.30345074497E+04  0.20967203175E+04 0.  0.
        4    1    3    3  502    0  0.75747141130E+03 -0.11929163803E+03  0.21314441431E+04  0.22651819313E+04  0.12699999809E+01 0.  1.
       -4    1    3    3    0  502 -0.75747141130E+03  0.11929163803E+03  0.62182847143E+02  0.76932551838E+03  0.12699999809E+01 0. -1.
</event>
<event>
 5   0  0.2007644E-05  0.2001393E+04  0.7818609E-02  0.8605970E-01
       -1   -1    0    0    0  501  0.00000000000E+00  0.00000000000E+00  0.74606329949E+03  0.74606329950E+03  0.50400001928E-02 0. -1.
        1   -1    0    0  501    0  0.00000000000E+00  0.00000000000E+00 -0.13422363366E+04  0.13422363366E+04  0.50400001928E-02 0.  1.
    10030    2    1    2    0    0  0.00000000000E+00  0.00000000000E+00 -0.59617303712E+03  0.20882996361E+04  0.20013927850E+04 0.  0.
        1    1    3    3  502    0  0.80888318173E+03 -0.33150725765E+03  0.21009828741E+03  0.89907194037E+03  0.50400001928E-02 0. -1.
       -1    1    3    3    0  502 -0.80888318173E+03  0.33150725765E+03 -0.80627132453E+03  0.11892276958E+04  0.50400001928E-02 0.  1.
</event>
<event>
 5   0  0.2256868E-05  0.1997506E+04  0.7818609E-02  0.8607787E-01
        1   -1    0    0  501    0  0.00000000000E+00  0.00000000000E+00  0.99857647401E+03  0.99857647403E+03  0.50400001928E-02 0. -1.
       -1   -1    0    0    0  501  0.00000000000E+00  0.00000000000E+00 -0.99892984605E+03  0.99892984606E+03  0.50400001928E-02 0.  1.
    10030    2    1    2    0    0  0.00000000000E+00  0.00000000000E+00 -0.35337203479E+00  0.19975063201E+04  0.19975062888E+04 0.  0.
        5    1    3    3  502    0  0.45044639024E+03 -0.82831681931E+03  0.32917882593E+03  0.99869489488E+03  0.46999998093E+01 0. -1.
       -5    1    3    3    0  502 -0.45044639024E+03  0.82831681931E+03 -0.32953219797E+03  0.99881142520E+03  0.46999998093E+01 0.  1.
</event>
<event>
 5   0  0.4412054E-05  0.1995871E+04  0.7818609E-02  0.8608553E-01
       -2   -1    0    0    0  501  0.00000000000E+00  0.00000000000E+00  0.83052305204E+03  0.83052305204E+03  0.25500000920E-02 0.  1.
        2   -1    0    0  501    0  0.00000000000E+00  0.00000000000E+00 -0.11990945229E+04  0.11990945229E+04  0.25500000920E-02 0. -1.
    10030    2    1    2    0    0  0.00000000000E+00  0.00000000000E+00 -0.36857147085E+03  0.20296175749E+04  0.19958713815E+04 0.  0.
        4    1    3    3  502    0 -0.67337589261E+03 -0.44731213219E+03  0.41071476833E+03  0.90675877177E+03  0.12699999809E+01 0.  1.
       -4    1    3    3    0  502  0.67337589261E+03  0.44731213219E+03 -0.77928623918E+03  0.11228588032E+04  0.12699999809E+01 0. -1.
</event>
<event>
 5   0  0.2093980E-05  0.2004463E+04  0.7818609E-02  0.8604537E-01
       -1   -1    0    0    0  501  0.00000000000E+00  0.00000000000E+00  0.84287177723E+03  0.84287177725E+03  0.50400001928E-02 0.  1.
        1   -1    0    0  501    0  0.00000000000E+00  0.00000000000E+00 -0.11917210266E+04  0.11917210266E+04  0.50400001928E-02 0. -1.
    10030    2    1    2    0    0  0.00000000000E+00  0.00000000000E+00 -0.34884924932E+03  0.20345928038E+04  0.20044630400E+04 0.  0.
        2    1    3    3  502    0 -0.38090714870E+03  0.77886009842E+03  0.33587950237E+03  0.92980016615E+03  0.25500000920E-02 0.  1.
       -2    1    3    3    0  502  0.38090714870E+03 -0.77886009842E+03 -0.68472875169E+03  0.11047926377E+04  0.25500000920E-02 0. -1.
</event>
<event>
 5   0  0.4473361E-05  0.2002011E+04  0.7818609E-02  0.8605681E-01
        2   -1    0    0  501    0  0.00000000000E+00  0.00000000000E+00  0.11457438198E+04  0.11457438198E+04  0.25500000920E-02 0. -1.
       -2   -1    0    0    0  501  0.00000000000E+00  0.00000000000E+00 -0.87455129777E+03  0.87455129778E+03  0.25500000920E-02 0.  1.
    10030    2    1    2    0    0  0.00000000000E+00  0.00000000000E+00  0.27119252207E+03  0.20202951176E+04  0.20020107338E+04 0.  0.
        2    1    3    3  502    0  0.64582484719E+02  0.97557082661E+03 -0.81079447132E+02  0.98106228743E+03  0.25500000920E-02 0.  1.
       -2    1    3    3    0  502 -0.64582484719E+02 -0.97557082661E+03  0.35227196921E+03  0.10392328302E+04  0.25500000920E-02 0. -1.
</event>
<event>
 5   0  0.4577279E-05  0.2003398E+04  0.7818609E-02  0.8605034E-01
        2   -1    0    0  501    0  0.00000000000E+00  0.00000000000E+00  0.15499313283E+04  0.15499313283E+04  0.25500000920E-02 0.  1.
       -2   -1    0    0    0  501  0.00000000000E+00  0.00000000000E+00 -0.64738393995E+03  0.64738393996E+03  0.25500000920E-02 0. -1.
    10030    2    1    2    0    0  0.00000000000E+00  0.00000000000E+00  0.90254738833E+03  0.21973152682E+04  0.20033977638E+04 0.  0.
        1    1    3    3  502    0  0.51257105326E+03  0.14155799929E+03  0.13823434746E+04  0.14810946066E+04  0.50400001928E-02 0.  1.
       -1    1    3    3    0  502 -0.51257105326E+03 -0.14155799929E+03 -0.47979608626E+03  0.71622066168E+03  0.50400001928E-02 0. -1.
</event>
<event>
 5   0  0.4447313E-05  0.1994390E+04  0.7818609E-02  0.8609248E-01
        2   -1    0    0  501    0  0.00000000000E+00  0.00000000000E+00  0.11161279600E+04  0.11161279600E+04  0.25500000920E-02 0.  1.
       -2   -1    0    0    0  501  0.00000000000E+00  0.00000000000E+00 -0.89093577349E+03  0.89093577350E+03  0.25500000920E-02 0. -1.
    10030    2    1    2    0    0  0.00000000000E+00  0.00000000000E+00  0.22519218648E+03  0.20070637335E+04  0.19943904606E+04 0.  0.
        5    1    3    3  502    0 -0.43393988160E+03 -0.80191974739E+03  0.51889060985E+03  0.10491180377E+04  0.46999998093E+01 0.  1.
       -5    1    3    3    0  502  0.43393988160E+03  0.80191974739E+03 -0.29369842338E+03  0.95794569574E+03  0.46999998093E+01 0. -1.
</event>
<event>
 5   0  0.2093980E-05  0.2009860E+04  0.7818609E-02  0.8602025E-01
       -1   -1    0    0    0  501  0.00000000000E+00  0.00000000000E+00  0.64655510298E+03  0.64655510300E+03  0.50400001928E-02 0.  1.
        1   -1    0    0  501    0  0.00000000000E+00  0.00000000000E+00 -0.15619459368E+04  0.15619459368E+04  0.50400001928E-02 0. -1.
    10030    2    1    2    0    0  0.00000000000E+00  0.00000000000E+00 -0.91539083386E+03  0.22085010398E+04  0.20098598121E+04 0.  0.
        2    1    3    3  502    0  0.91145233894E+03 -0.19456182856E+03 -0.87072296229E+03  0.12754442945E+04  0.25500000920E-02 0. -1.
       -2    1    3    3    0  502 -0.91145233894E+03  0.19456182856E+03 -0.44667871573E+02  0.93305674535E+03  0.25500000920E-02 0.  1.
</event>
<event>
 5   0  0.2110896E-05  0.2000342E+04  0.7818609E-02  0.8606461E-01
        1   -1    0    0  501    0  0.00000000000E+00  0.00000000000E+00  0.10022021510E+04  0.10022021510E+04  0.50400001928E-02 0.  1.
       -1   -1    0    0    0  501  0.00000000000E+00  0.00000000000E+00 -0.99814440693E+03  0.99814440694E+03  0.50400001928E-02 0. -1.
    10030    2    1    2    0    0  0.00000000000E+00  0.00000000000E+00  0.40577440806E+01  0.20003465580E+04  0.20003424424E+04 0.  0.
        4    1    3    3  502    0  0.44689227411E+03 -0.84886901187E+03  0.28495975442E+03  0.10007472101E+04  0.12699999809E+01 0.  1.
       -4    1    3    3    0  502 -0.44689227411E+03  0.84886901187E+03 -0.28090201034E+03  0.99959934788E+03  0.12699999809E+01 0. -1.
</event>
<event>
 5   0  0.4412054E-05  0.2014320E+04  0.7818609E-02  0.8599955E-01
       -2   -1    0    0    0  501  0.00000000000E+00  0.00000000000E+00  0.86148078496E+03  0.86148078496E+03  0.25500000920E-02 0.  1.
        2   -1    0    0  501    0  0.00000000000E+00  0.00000000000E+00 -0.11774743448E+04  0.11774743448E+04  0.25500000920E-02 0. -1.
    10030    2    1    2    0    0  0.00000000000E+00  0.00000000000E+00 -0.31599355979E+03  0.20389551297E+04  0.20143202554E+04 0.  0.
        4    1    3    3  502    0 -0.44965280864E+03 -0.45502907777E+03  0.62941839072E+03  0.89744539300E+03  0.12699999809E+01 0.  1.
       -4    1    3    3    0  502  0.44965280864E+03  0.45502907777E+03 -0.94541195052E+03  0.11415097367E+04  0.12699999809E+01 0. -1.
</event>
<event>
 5   0  0.4514680E-05  0.1991477E+04  0.7818609E-02  0.8610616E-01
       -2   -1    0    0    0  501  0.00000000000E+00  0.00000000000E+00  0.54218169653E+03  0.54218169654E+03  0.25500000920E-02 0.  1.
        2   -1    0    0  501    0  0.00000000000E+00  0.00000000000E+00 -0.18287140723E+04  0.18287140723E+04  0.25500000920E-02 0. -1.
    10030    2    1    2    0    0  0.00000000000E+00  0.00000000000E+00 -0.12865323758E+04  0.23708957689E+04  0.19914771384E+04 0.  0.
        3    1    3    3  502    0 -0.27565739260E+03  0.14269547298E+03  0.48311177448E+03  0.57423513733E+03  0.10100000352E+00 0.  1.
       -3    1    3    3    0  502  0.27565739260E+03 -0.14269547298E+03 -0.17696441503E+04  0.17966606316E+04  0.10100000352E+00 0. -1.
</event>
<event>
 5   0  0.2007644E-05  0.1985954E+04  0.7818609E-02  0.8613216E-01
       -1   -1    0    0    0  501  0.00000000000E+00  0.00000000000E+00  0.90850623742E+03  0.90850623743E+03  0.50400001928E-02 0.  1.
        1   -1    0    0  501    0  0.00000000000E+00  0.00000000000E+00 -0.10853014426E+04  0.10853014426E+04  0.50400001928E-02 0. -1.
    10030    2    1    2    0    0  0.00000000000E+00  0.00000000000E+00 -0.17679520521E+03  0.19938076801E+04  0.19859538062E+04 0.  0.
        1    1    3    3  502    0  0.94889230583E+03 -0.78939957661E+02 -0.37124748676E+03  0.10219847462E+04  0.50400001928E-02 0. -1.
       -1    1    3    3    0  502 -0.94889230583E+03  0.78939957661E+02  0.19445228155E+03  0.97182293388E+03  0.50400001928E-02 0.  1.
</event>
<event>
 5   0  0.2007644E-05  0.2004249E+04  0.7818609E-02  0.8604637E-01
        1   -1    0    0  501    0  0.00000000000E+00  0.00000000000E+00  0.80561780471E+03  0.80561780473E+03  0.50400001928E-02 0.  1.
       -1   -1    0    0    0  501  0.00000000000E+00  0.00000000000E+00 -0.12465626979E+04  0.12465626979E+04  0.50400001928E-02 0. -1.
    10030    2    1    2    0    0  0.00000000000E+00  0.00000000000E+00 -0.44094489322E+03  0.20521805027E+04  0.20042485915E+04 0.  0.
        1    1    3    3  502    0  0.17314687390E+03  0.66867986701E+03  0.52293543646E+03  0.86635678286E+03  0.50400001928E-02 0.  1.
       -1    1    3    3    0  502 -0.17314687390E+03 -0.66867986701E+03 -0.96388032968E+03  0.11858237198E+04  0.50400001928E-02 0. -1.
</event>
<event>
 5   0  0.2093980E-05  0.1957816E+04  0.7818609E-02  0.8626601E-01
        1   -1    0    0  501    0  0.00000000000E+00  0.00000000000E+00  0.91223578661E+03  0.91223578662E+03  0.50400001928E-02 0. -1.
       -1   -1    0    0    0  501  0.00000000000E+00  0.00000000000E+00 -0.10504528654E+04  0.10504528655E+04  0.50400001928E-02 0.  1.
    10030    2    1    2    0    0  0.00000000000E+00  0.00000000000E+00 -0.13821707883E+03  0.19626886521E+04  0.19578158198E+04 0.  0.
        2    1    3    3  502    0 -0.14055637224E+03  0.73526385899E+03  0.56324797379E+03  0.93681231637E+03  0.25500000920E-02 0. -1.
       -2    1    3    3    0  502  0.14055637224E+03 -0.73526385899E+03 -0.70146505262E+03  0.10258763357E+04  0.25500000920E-02 0.  1.
</event>
<event>
 5   0  0.2093980E-05  0.1996319E+04  0.7818609E-02  0.8608344E-01
        1   -1    0    0  501    0  0.00000000000E+00  0.00000000000E+00  0.26326151818E+04  0.26326151818E+04  0.50400001928E-02 0.  1.
       -1   -1    0    0    0  501  0.00000000000E+00  0.00000000000E+00 -0.37845330747E+03  0.37845330751E+03  0.50400001928E-02 0. -1.
    10030    2    1    2    0    0  0.00000000000E+00  0.00000000000E+00  0.22541618743E+04  0.30110684893E+04  0.19963185346E+04 0.  0.
        2    1    3    3  502    0 -0.64268770162E+03 -0.60378449915E+03  0.42168367038E+03  0.97745604561E+03  0.25500000920E-02 0. -1.
       -2    1    3    3    0  502  0.64268770162E+03  0.60378449915E+03  0.18324782039E+04  0.20336124437E+04  0.25500000920E-02 0.  1.
</event>
<event>
 5   0  0.4447313E-05  0.2000314E+04  0.7818609E-02  0.8606474E-01
        2   -1    0    0  501    0  0.00000000000E+00  0.00000000000E+00  0.93998211768E+03  0.93998211768E+03  0.25500000920E-02 0. -1.
       -2   -1    0    0    0  501  0.00000000000E+00  0.00000000000E+00 -0.10641840858E+04  0.10641840858E+04  0.25500000920E-02 0.  1.
    10030    2    1    2    0    0  0.00000000000E+00  0.00000000000E+00 -0.12420196812E+03  0.20041662035E+04  0.20003139859E+04 0.  0.
        5    1    3    3  502    0  0.95065035941E+03  0.26591895907E+03  0.98965942157E+02  0.99210147986E+03  0.46999998093E+01 0. -1.
       -5    1    3    3    0  502 -0.95065035941E+03 -0.26591895907E+03 -0.22316791028E+03  0.10120647236E+04  0.46999998093E+01 0.  1.
</event>
<event>
 5   0  0.2256868E-05  0.1997910E+04  0.7818609E-02  0.8607599E-01
        1   -1    0    0  501    0  0.00000000000E+00  0.00000000000E+00  0.18428171252E+04  0.18428171252E+04  0.50400001928E-02 0. -1.
       -1   -1    0    0    0  501  0.00000000000E+00  0.00000000000E+00 -0.54151378125E+03  0.54151378127E+03  0.50400001928E-02 0.  1.
    10030    2    1    2    0    0  0.00000000000E+00  0.00000000000E+00  0.13013033440E+04  0.23843309065E+04  0.19979097774E+04 0.  0.
        5    1    3    3  502    0 -0.29295290418E+03  0.45505022051E+03  0.16526896677E+04  0.17390506993E+04  0.46999998093E+01 0. -1.
       -5    1    3    3    0  502  0.29295290418E+03 -0.45505022051E+03 -0.35138632370E+03  0.64528020715E+03  0.46999998093E+01 0.  1.
</event>
<event>
 5   0  0.2142551E-05  0.2005345E+04  0.7818609E-02  0.8604126E-01
        1   -1    0    0  501    0  0.00000000000E+00  0.00000000000E+00  0.91926394249E+03  0.91926394250E+03  0.50400001928E-02 0. -1.
       -1   -1    0    0    0  501  0.00000000000E+00  0.00000000000E+00 -0.10936491624E+04  0.10936491624E+04  0.50400001928E-02 0.  1.
    10030    2    1    2    0    0  0.00000000000E+00  0.00000000000E+00 -0.17438521987E+03  0.20129131049E+04  0.20053450982E+04 0.  0.
        3    1    3    3  502    0  0.38084067454E+03 -0.43396627042E+03  0.73564850255E+03  0.93517114624E+03  0.10100000352E+00 0. -1.
       -3    1    3    3    0  502 -0.38084067454E+03  0.43396627042E+03 -0.91003372243E+03  0.10777419586E+04  0.10100000352E+00 0.  1.
</event>
<event>
 5   0  0.2256868E-05  0.2013880E+04  0.7818609E-02  0.8600159E-01
        1   -1    0    0  501    0  0.00000000000E+00  0.00000000000E+00  0.73483985325E+03  0.73483985327E+03  0.50400001928E-02 0.  1.
       -1   -1    0    0    0  501  0.00000000000E+00  0.00000000000E+00 -0.13797951205E+04  0.13797951206E+04  0.50400001928E-02 0. -1.
    10030    2    1    2    0    0  0.00000000000E+00  0.00000000000E+00 -0.64495526729E+03  0.21146349738E+04  0.20138802784E+04 0.  0.
        5    1    3    3  502    0 -0.37270136707E+03  0.87067447706E+03 -0.68152959877E+03  0.11668269100E+04  0.46999998093E+01 0. -1.
       -5    1    3    3    0  502  0.37270136707E+03 -0.87067447706E+03  0.36574331472E+02  0.94780806377E+03  0.46999998093E+01 0.  1.
</event>
<event>
 5   0  0.2007644E-05  0.1994435E+04  0.7818609E-02  0.8609227E-01
       -1   -1    0    0    0  501  0.00000000000E+00  0.00000000000E+00  0.88267174198E+03  0.88267174199E+03  0.50400001928E-02 0.  1.
        1   -1    0    0  501    0  0.00000000000E+00  0.00000000000E+00 -0.11266283513E+04  0.11266283513E+04  0.50400001928E-02 0. -1.
    10030    2    1    2    0    0  0.00000000000E+00  0.00000000000E+00 -0.24395660934E+03  0.20093000933E+04  0.19944352679E+04 0.  0.
        1    1    3    3  502    0 -0.97505679562E+03 -0.13921531549E+03  0.35153225808E+02  0.98557212220E+03  0.50400001928E-02 0.  1.
       -1    1    3    3    0  502  0.97505679562E+03  0.13921531549E+03 -0.27910983515E+03  0.10237279711E+04  0.50400001928E-02 0. -1.
</event>
<event>
 5   0  0.4473361E-05  0.1994610E+04  0.7818609E-02  0.8609145E-01
        2   -1    0    0  501    0  0.00000000000E+00  0.00000000000E+00  0.18970917437E+04  0.18970917437E+04  0.25500000920E-02 0. -1.
       -2   -1    0    0    0  501  0.00000000000E+00  0.00000000000E+00 -0.52428535045E+03  0.52428535046E+03  0.25500000920E-02 0.  1.
    10030    2    1    2    0    0  0.00000000000E+00  0.00000000000E+00  0.13728063933E+04  0.24213770942E+04  0.19946101471E+04 0.  0.
        2    1    3    3  502    0 -0.32445066608E+03 -0.46622629385E+02 -0.45702573554E+03  0.56241837385E+03  0.25500000920E-02 0.  1.
       -2    1    3    3    0  502  0.32445066608E+03  0.46622629385E+02  0.18298321288E+04  0.18589587203E+04  0.25500000920E-02 0. -1.
</event>
<event>
 5   0  0.4577279E-05  0.1997610E+04  0.7818609E-02  0.8607739E-01
        2   -1    0    0  501    0  0.00000000000E+00  0.00000000000E+00  0.11948688284E+04  0.11948688284E+04  0.25500000920E-02 0.  1.
       -2   -1    0    0    0  501  0.00000000000E+00  0.00000000000E+00 -0.83491253586E+03  0.83491253586E+03  0.25500000920E-02 0. -1.
    10030    2    1    2    0    0  0.00000000000E+00  0.00000000000E+00  0.35995629253E+03  0.20297813643E+04  0.19976095350E+04 0.  0.
        1    1    3    3  502    0  0.86523533122E+03  0.38753208647E+03  0.49936129881E+03  0.10715292825E+04  0.50400001928E-02 0.  1.
       -1    1    3    3    0  502 -0.86523533122E+03 -0.38753208647E+03 -0.13940500627E+03  0.95825208178E+03  0.50400001928E-02 0. -1.
</event>
<event>
 5   0  0.2256868E-05  0.2014451E+04  0.7818609E-02  0.8599894E-01
        1   -1    0    0  501    0  0.00000000000E+00  0.00000000000E+00  0.85424519571E+03  0.85424519572E+03  0.50400001928E-02 0.  1.
       -1   -1    0    0    0  501  0.00000000000E+00  0.00000000000E+00 -0.11876021882E+04  0.11876021882E+04  0.50400001928E-02 0. -1.
    10030    2    1    2    0    0  0.00000000000E+00  0.00000000000E+00 -0.33335699249E+03  0.20418473839E+04  0.20144512540E+04 0.  0.
        5    1    3    3  502    0 -0.80691693822E+03 -0.52931804916E+03  0.12566876319E+03  0.97319436414E+03  0.46999998093E+01 0.  1.
       -5    1    3    3    0  502  0.80691693822E+03  0.52931804916E+03 -0.45902575568E+03  0.10686530198E+04  0.46999998093E+01 0. -1.
</event>
<event>
 5   0  0.2093980E-05  0.2000328E+04  0.7818609E-02  0.8606467E-01
        1   -1    0    0  501    0  0.00000000000E+00  0.00000000000E+00  0.12757542188E+04  0.12757542188E+04  0.50400001928E-02 0.  1.
       -1   -1    0    0    0  501  0.00000000000E+00  0.00000000000E+00 -0.78410719763E+03  0.78410719765E+03  0.50400001928E-02 0. -1.
    10030    2    1    2    0    0  0.00000000000E+00  0.00000000000E+00  0.49164702113E+03  0.20598614164E+04  0.20003280385E+04 0.  0.
        2    1    3    3  502    0 -0.57248299852E+03  0.72539074398E+03 -0.14818595176E+03  0.93588866397E+03  0.25500000920E-02 0. -1.
       -2    1    3    3    0  502  0.57248299852E+03 -0.72539074398E+03  0.63983297289E+03  0.11239727524E+04  0.25500000920E-02 0.  1.
</event>
<event>
 5   0  0.2142551E-05  0.2012014E+04  0.7818609E-02  0.8601024E-01
        1   -1    0    0  501    0  0.00000000000E+00  0.00000000000E+00  0.13438496961E+04  0.13438496961E+04  0.50400001928E-02 0. -1.
       -1   -1    0    0    0  501  0.00000000000E+00  0.00000000000E+00 -0.75309740832E+03  0.75309740834E+03  0.50400001928E-02 0.  1.
    10030    2    1    2    0    0  0.00000000000E+00  0.00000000000E+00  0.59075228774E+03  0.20969471044E+04  0.20120136414E+04 0.  0.
        3    1    3    3  502    0 -0.32220730846E+03 -0.11977960191E+03 -0.68998942287E+03  0.77087620052E+03  0.10100000352E+00 0.  1.
       -3    1    3    3    0  502  0.32220730846E+03  0.11977960191E+03  0.12807417106E+04  0.13260709039E+04  0.10100000352E+00 0. -1.
</event>
<event>
 5   0  0.4473361E-05  0.2015068E+04  0.7818609E-02  0.8599608E-01
       -2   -1    0    0    0  501  0.00000000000E+00  0.00000000000E+00  0.89408560026E+03  0.89408560027E+03  0.25500000920E-02 0. -1.
        2   -1    0    0  501    0  0.00000000000E+00  0.00000000000E+00 -0.11353770657E+04  0.11353770657E+04  0.25500000920E-02 0.  1.
    10030    2    1    2    0    0  0.00000000000E+00  0.00000000000E+00 -0.24129146546E+03  0.20294626660E+04  0.20150675277E+04 0.  0.
        2    1    3    3  502    0 -0.88888287004E+03 -0.41232976435E+03 -0.35683263260E+03  0.10428126001E+04  0.25500000920E-02 0.  1.
       -2    1    3    3    0  502  0.88888287004E+03  0.41232976435E+03  0.11554116714E+03  0.98665006590E+03  0.25500000920E-02 0. -1.
</event>
<event>
 5   0  0.4577279E-05  0.2005703E+04  0.7818609E-02  0.8603959E-01
       -2   -1    0    0    0  501  0.00000000000E+00  0.00000000000E+00  0.75764696673E+03  0.75764696673E+03  0.25500000920E-02 0.  1.
        2   -1    0    0  501    0  0.00000000000E+00  0.00000000000E+00 -0.13274145779E+04  0.13274145779E+04  0.25500000920E-02 0. -1.
    10030    2    1    2    0    0  0.00000000000E+00  0.00000000000E+00 -0.56976761113E+03  0.20850615446E+04  0.20057034961E+04 0.  0.
        1    1    3    3  502    0 -0.27235438300E+03 -0.88200303188E+02  0.71426609159E+03  0.76950130152E+03  0.50400001928E-02 0.  1.
       -1    1    3    3    0  502  0.27235438300E+03  0.88200303188E+02 -0.12840337027E+04  0.13155602431E+04  0.50400001928E-02 0. -1.
</event>
<event>
 5   0  0.2007644E-05  0.2006118E+04  0.7818609E-02  0.8603766E-01
        1   -1    0    0  501    0  0.00000000000E+00  0.00000000000E+00  0.14238080236E+04  0.14238080236E+04  0.50400001928E-02 0. -1.
       -1   -1    0    0    0  501  0.00000000000E+00  0.00000000000E+00 -0.70664542221E+03  0.70664542223E+03  0.50400001928E-02 0.  1.
    10030    2    1    2    0    0  0.00000000000E+00  0.00000000000E+00  0.71716260142E+03  0.21304534459E+04  0.20061180643E+04 0.  0.
        1    1    3    3  502    0  0.59883170476E+03  0.54897025499E+03 -0.26623707620E+03  0.85489761507E+03  0.50400001928E-02 0.  1.
       -1    1    3    3    0  502 -0.59883170476E+03 -0.54897025499E+03  0.98339967762E+03  0.12755558308E+04  0.50400001928E-02 0. -1.
</event>
<event>
 5   0  0.4473361E-05  0.1996261E+04  0.7818609E-02  0.8608371E-01
       -2   -1    0    0    0  501  0.00000000000E+00  0.00000000000E+00  0.50158222323E+03  0.50158222324E+03  0.25500000920E-02 0.  1.
        2   -1    0    0  501    0  0.00000000000E+00  0.00000000000E+00 -0.19862435436E+04  0.19862435436E+04  0.25500000920E-02 0. -1.
    10030    2    1    2    0    0  0.00000000000E+00  0.00000000000E+00 -0.14846613204E+04  0.24878257668E+04  0.19962609574E+04 0.  0.
        2    1    3    3  502    0 -0.91285748510E+03  0.57658492222E+02 -0.12402528569E+04  0.15410582205E+04  0.25500000920E-02 0. -1.
       -2    1    3    3    0  502  0.91285748510E+03 -0.57658492222E+02 -0.24440846346E+03  0.94676754636E+03  0.25500000920E-02 0.  1.
</event>
<event>
 5   0  0.2110896E-05  0.1996990E+04  0.7818609E-02  0.8608029E-01
        1   -1    0    0  501    0  0.00000000000E+00  0.00000000000E+00  0.79605325926E+03  0.79605325927E+03  0.50400001928E-02 0.  1.
       -1   -1    0    0    0  501  0.00000000000E+00  0.00000000000E+00 -0.12524193729E+04  0.12524193729E+04  0.50400001928E-02 0. -1.
    10030    2    1    2    0    0  0.00000000000E+00  0.00000000000E+00 -0.45636611359E+03  0.20484726321E+04  0.19969902591E+04 0.  0.
        4    1    3    3  502    0  0.59725340610E+03 -0.31372509136E+03  0.52690239284E+03  0.85601565904E+03  0.12699999809E+01 0.  1.
       -4    1    3    3    0  502 -0.59725340610E+03  0.31372509136E+03 -0.98326850643E+03  0.11924569731E+04  0.12699999809E+01 0. -1.
</event>
<event>
 5   0  0.2142551E-05  0.2002049E+04  0.7818609E-02  0.8605663E-01
        1   -1    0    0  501    0  0.00000000000E+00  0.00000000000E+00  0.11807728788E+04  0.11807728788E+04  0.50400001928E-02 0.  1.
       -1   -1    0    0    0  501  0.00000000000E+00  0.00000000000E+00 -0.84863922414E+03  0.84863922416E+03  0.50400001928E-02 0. -1.
    10030    2    1    2    0    0  0.00000000000E+00  0.00000000000E+00  0.33213365461E+03  0.20294121029E+04  0.20020491300E+04 0.  0.
        3    1    3    3  502    0  0.10670605476E+03 -0.99500224259E+03  0.14053277372E+03  0.10105271474E+04  0.10100000352E+00 0. -1.
       -3    1    3    3    0  502 -0.10670605476E+03  0.99500224259E+03  0.19160088089E+03  0.10188849555E+04  0.10100000352E+00 0.  1.
</event>
<event>
 5   0  0.4447313E-05  0.1998112E+04  0.7818609E-02  0.8607504E-01
        2   -1    0    0  501    0  0.00000000000E+00  0.00000000000E+00  0.73374112178E+03  0.73374112179E+03  0.25500000920E-02 0. -1.
       -2   -1    0    0    0  501  0.00000000000E+00  0.00000000000E+00 -0.13603059481E+04  0.13603059481E+04  0.25500000920E-02 0.  1.
    10030    2    1    2    0    0  0.00000000000E+00  0.00000000000E+00 -0.62656482633E+03  0.20940470699E+04  0.19981115208E+04 0.  0.
        5    1    3    3  502    0 -0.47194958139E+03 -0.40487521996E+03 -0.11327656558E+04  0.12922230737E+04  0.46999998093E+01 0.  1.
       -5    1    3    3    0  502  0.47194958139E+03  0.40487521996E+03  0.50620082951E+03  0.80182399622E+03  0.46999998093E+01 0. -1.
</event>
<event>
 5   0  0.4473361E-05  0.2005834E+04  0.7818609E-02  0.8603898E-01
        2   -1    0    0  501    0  0.00000000000E+00  0.00000000000E+00  0.25416769346E+04  0.25416769346E+04  0.25500000920E-02 0. -1.
       -2   -1    0    0    0  501  0.00000000000E+00  0.00000000000E+00 -0.39573952136E+03  0.39573952137E+03  0.25500000920E-02 0.  1.
    10030    2    1    2    0    0  0.00000000000E+00  0.00000000000E+00  0.21459374132E+04  0.29374164560E+04  0.20058335061E+04 0.  0.
        2    1    3    3  502    0 -0.95696657084E+03  0.18845984202E+03  0.14149699981E+04  0.17185581821E+04  0.25500000920E-02 0.  1.
       -2    1    3    3    0  502  0.95696657084E+03 -0.18845984202E+03  0.73096741515E+03  0.12188582739E+04  0.25500000920E-02 0. -1.
</event>
<event>
 5   0  0.1601500E-05  0.1967594E+04  0.7818609E-02  0.8621923E-01
       -3   -1    0    0    0  501  0.00000000000E+00  0.00000000000E+00  0.60538978398E+03  0.60538979241E+03  0.10100000352E+00 0.  1.
        3   -1    0    0  501    0  0.00000000000E+00  0.00000000000E+00 -0.15987326775E+04  0.15987326806E+04  0.10100000352E+00 0. -1.
    10030    2    1    2    0    0  0.00000000000E+00  0.00000000000E+00 -0.99334289347E+03  0.22041224731E+04  0.19675939043E+04 0.  0.
        4    1    3    3  502    0  0.36839091717E+02  0.10148119102E+03 -0.15920757942E+04  0.15957325898E+04  0.12699999809E+01 0. -1.
       -4    1    3    3    0  502 -0.36839091717E+02 -0.10148119102E+03  0.59873290069E+03  0.60838988328E+03  0.12699999809E+01 0.  1.
</event>
<event>
 5   0  0.2256868E-05  0.1995674E+04  0.7818609E-02  0.8608646E-01
        1   -1    0    0  501    0  0.00000000000E+00  0.00000000000E+00  0.11813174437E+04  0.11813174437E+04  0.50400001928E-02 0. -1.
       -1   -1    0    0    0  501  0.00000000000E+00  0.00000000000E+00 -0.84285435411E+03  0.84285435412E+03  0.50400001928E-02 0.  1.
    10030    2    1    2    0    0  0.00000000000E+00  0.00000000000E+00  0.33846308959E+03  0.20241717978E+04  0.19956738722E+04 0.  0.
        5    1    3    3  502    0  0.25819003564E+03  0.18750591290E+03  0.11281610792E+04  0.11724291332E+04  0.46999998093E+01 0. -1.
       -5    1    3    3    0  502 -0.25819003564E+03 -0.18750591290E+03 -0.78969798961E+03  0.85174266458E+03  0.46999998093E+01 0.  1.
</event>
<event>
 5   0  0.2093980E-05  0.2005450E+04  0.7818609E-02  0.8604077E-01
        1   -1    0    0  501    0  0.00000000000E+00  0.00000000000E+00  0.18215274331E+04  0.18215274331E+04  0.50400001928E-02 0. -1.
       -1   -1    0    0    0  501  0.00000000000E+00  0.00000000000E+00 -0.55198582280E+03  0.55198582282E+03  0.50400001928E-02 0.  1.
    10030    2    1    2    0    0  0.00000000000E+00  0.00000000000E+00  0.12695416103E+04  0.23735132559E+04  0.20054498936E+04 0.  0.
        2    1    3    3  502    0 -0.77020797503E+03  0.42365475459E+03  0.12057602626E+04  0.14921667088E+04  0.25500000920E-02 0. -1.
       -2    1    3    3    0  502  0.77020797503E+03 -0.42365475459E+03  0.63781347702E+02  0.88134654717E+03  0.25500000920E-02 0.  1.
</event>
<event>
 5   0  0.2007644E-05  0.1966780E+04  0.7818609E-02  0.8622311E-01
       -1   -1    0    0    0  501  0.00000000000E+00  0.00000000000E+00  0.38830747549E+03  0.38830747553E+03  0.50400001928E-02 0.  1.
        1   -1    0    0  501    0  0.00000000000E+00  0.00000000000E+00 -0.24904392760E+04  0.24904392760E+04  0.50400001928E-02 0. -1.
    10030    2    1    2    0    0  0.00000000000E+00  0.00000000000E+00 -0.21021318005E+04  0.28787467516E+04  0.19667803011E+04 0.  0.
        1    1    3    3  502    0 -0.28416533784E+03  0.33469741791E+03  0.23688029945E+03  0.49888333013E+03  0.50400001928E-02 0.  1.
       -1    1    3    3    0  502  0.28416533784E+03 -0.33469741791E+03 -0.23390121000E+04  0.23798634214E+04  0.50400001928E-02 0. -1.
</event>
<event>
 5   0  0.4473361E-05  0.2006364E+04  0.7818609E-02  0.8603651E-01
       -2   -1    0    0    0  501  0.00000000000E+00  0.00000000000E+00  0.68273793800E+03  0.68273793800E+03  0.25500000920E-02 0. -1.
        2   -1    0    0  501    0  0.00000000000E+00  0.00000000000E+00 -0.14740276704E+04  0.14740276704E+04  0.25500000920E-02 0.  1.
    10030    2    1    2    0    0  0.00000000000E+00  0.00000000000E+00 -0.79128973242E+03  0.21567656084E+04  0.20063644856E+04 0.  0.
        2    1    3    3  502    0  0.15056654294E+03  0.84914569169E+03  0.15527282275E+03  0.87625814635E+03  0.25500000920E-02 0. -1.
       -2    1    3    3    0  502 -0.15056654294E+03 -0.84914569169E+03 -0.94656255517E+03  0.12805074621E+04  0.25500000920E-02 0.  1.
</event>
<event>
 5   0  0.2007644E-05  0.2002351E+04  0.7818609E-02  0.8605522E-01
       -1   -1    0    0    0  501  0.00000000000E+00  0.00000000000E+00  0.63983072047E+03  0.63983072049E+03  0.50400001928E-02 0.  1.
        1   -1    0    0  501    0  0.00000000000E+00  0.00000000000E+00 -0.15665903478E+04  0.15665903478E+04  0.50400001928E-02 0. -1.
    10030    2    1    2    0    0  0.00000000000E+00  0.00000000000E+00 -0.92675962730E+03  0.22064210683E+04  0.20023512488E+04 0.  0.
        1    1    3    3  502    0  0.28002660118E+02 -0.85634984197E+03 -0.10340754928E+04  0.13429189572E+04  0.50400001928E-02 0.  1.
       -1    1    3    3    0  502 -0.28002660118E+02  0.85634984197E+03  0.10731586547E+03  0.86350211107E+03  0.50400001928E-02 0. -1.
</event>
<event>
 5   0  0.4447313E-05  0.2000021E+04  0.7818609E-02  0.8606611E-01
       -2   -1    0    0    0  501  0.00000000000E+00  0.00000000000E+00  0.11409312349E+04  0.11409312349E+04  0.25500000920E-02 0.  1.
        2   -1    0    0  501    0  0.00000000000E+00  0.00000000000E+00 -0.87649531605E+03  0.87649531606E+03  0.25500000920E-02 0. -1.
    10030    2    1    2    0    0  0.00000000000E+00  0.00000000000E+00  0.26443591882E+03  0.20174265509E+04  0.20000208832E+04 0.  0.
        5    1    3    3  502    0  0.11917754064E+03 -0.93577594676E+03 -0.20251162913E+03  0.96483830700E+03  0.46999998093E+01 0.  1.
       -5    1    3    3    0  502 -0.11917754064E+03  0.93577594676E+03  0.46694754794E+03  0.10525882439E+04  0.46999998093E+01 0. -1.
</event>
<event>
 5   0  0.2142551E-05  0.1998854E+04  0.7818609E-02  0.8607157E-01
       -1   -1    0    0    0  501  0.00000000000E+00  0.00000000000E+00  0.39406791039E+03  0.39406791042E+03  0.50400001928E-02 0.  1.
        1   -1    0    0  501    0  0.00000000000E+00  0.00000000000E+00 -0.25347264192E+04  0.25347264192E+04  0.50400001928E-02 0. -1.
    10030    2    1    2    0    0  0.00000000000E+00  0.00000000000E+00 -0.21406585088E+04  0.29287943296E+04  0.19988540151E+04 0.  0.
        3    1    3    3  502    0 -0.10130319428E+03 -0.88047755785E+03 -0.17471215567E+04  0.19590652902E+04  0.10100000352E+00 0. -1.
       -3    1    3    3    0  502  0.10130319428E+03  0.88047755785E+03 -0.39353695207E+03  0.96972903942E+03  0.10100000352E+00 0.  1.
</event>
<event>
 5   0  0.1601500E-05  0.2014925E+04  0.7818609E-02  0.8599674E-01
        3   -1    0    0  501    0  0.00000000000E+00  0.00000000000E+00  0.15473433818E+04  0.15473433851E+04  0.10100000352E+00 0. -1.
       -3   -1    0    0    0  501  0.00000000000E+00  0.00000000000E+00 -0.65595062658E+03  0.65595063436E+03  0.10100000352E+00 0.  1.
    10030    2    1    2    0    0  0.00000000000E+00  0.00000000000E+00  0.89139275519E+03  0.22032940194E+04  0.20149251827E+04 0.  0.
        2    1    3    3  502    0  0.10901783052E+03 -0.13337064884E+03  0.15311208064E+04  0.15407801729E+04  0.25500000920E-02 0. -1.
       -2    1    3    3    0  502 -0.10901783052E+03  0.13337064884E+03 -0.63972805121E+03  0.66251384654E+03  0.25500000920E-02 0.  1.
</event>
<event>
 5   0  0.2256868E-05  0.1980737E+04  0.7818609E-02  0.8615680E-01
       -1   -1    0    0    0  501  0.00000000000E+00  0.00000000000E+00  0.75989867691E+03  0.75989867693E+03  0.50400001928E-02 0. -1.
        1   -1    0    0  501    0  0.00000000000E+00  0.00000000000E+00 -0.12907369467E+04  0.12907369467E+04  0.50400001928E-02 0.  1.
    10030    2    1    2    0    0  0.00000000000E+00  0.00000000000E+00 -0.53083826975E+03  0.20506356236E+04  0.19807365277E+04 0.  0.
        5    1    3    3  502    0  0.17246118340E+03 -0.21405346198E+03  0.71960067685E+03  0.77033042812E+03  0.46999998093E+01 0. -1.
       -5    1    3    3    0  502 -0.17246118340E+03  0.21405346198E+03 -0.12504389466E+04  0.12803051955E+04  0.46999998093E+01 0.  1.
</event>
<event>
 5   0  0.4473361E-05  0.2003891E+04  0.7818609E-02  0.8604804E-01
       -2   -1    0    0    0  501  0.00000000000E+00  0.00000000000E+00  0.98772172418E+03  0.98772172418E+03  0.25500000920E-02 0. -1.
        2   -1    0    0  501    0  0.00000000000E+00  0.00000000000E+00 -0.10163738765E+04  0.10163738765E+04  0.25500000920E-02 0.  1.
    10030    2    1    2    0    0  0.00000000000E+00  0.00000000000E+00 -0.28652152348E+02  0.20040956007E+04  0.20038907732E+04 0.  0.
        2    1    3    3  502    0  0.18420182682E+03  0.29770861641E+03 -0.95321584849E+03  0.10154709189E+04  0.25500000920E-02 0.  1.
       -2    1    3    3    0  502 -0.18420182682E+03 -0.29770861641E+03  0.92456369614E+03  0.98862468183E+03  0.25500000920E-02 0. -1.
</event>
<event>
 5   0  0.1601500E-05  0.1995669E+04  0.7818609E-02  0.8608648E-01
       -3   -1    0    0    0  501  0.00000000000E+00  0.00000000000E+00  0.64675404192E+03  0.64675404980E+03  0.10100000352E+00 0. -1.
        3   -1    0    0  501    0  0.00000000000E+00  0.00000000000E+00 -0.15394942356E+04  0.15394942389E+04  0.10100000352E+00 0.  1.
    10030    2    1    2    0    0  0.00000000000E+00  0.00000000000E+00 -0.89274019370E+03  0.21862482887E+04  0.19956694432E+04 0.  0.
        4    1    3    3  502    0 -0.13806996219E+03  0.93877475773E+02  0.63134219569E+03  0.65304737644E+03  0.12699999809E+01 0. -1.
       -4    1    3    3    0  502  0.13806996219E+03 -0.93877475773E+02 -0.15240823894E+04  0.15332009123E+04  0.12699999809E+01 0.  1.
</event>
<event>
 5   0  0.2007644E-05  0.2010482E+04  0.7818609E-02  0.8601736E-01
        1   -1    0    0  501    0  0.00000000000E+00  0.00000000000E+00  0.11101471595E+04  0.11101471595E+04  0.50400001928E-02 0. -1.
       -1   -1    0    0    0  501  0.00000000000E+00  0.00000000000E+00 -0.91024837400E+03  0.91024837401E+03  0.50400001928E-02 0.  1.
    10030    2    1    2    0    0  0.00000000000E+00  0.00000000000E+00  0.19989878549E+03  0.20203955335E+04  0.20104821778E+04 0.  0.
        1    1    3    3  502    0 -0.56395035273E+03 -0.52414475847E+03  0.74946591148E+03  0.10744612048E+04  0.50400001928E-02 0. -1.
       -1    1    3    3    0  502  0.56395035273E+03  0.52414475847E+03 -0.54956712600E+03  0.94593432868E+03  0.50400001928E-02 0.  1.
</event>
<event>
 5   0  0.4473361E-05  0.2001917E+04  0.7818609E-02  0.8605725E-01
        2   -1    0    0  501    0  0.00000000000E+00  0.00000000000E+00  0.16366319749E+04  0.16366319750E+04  0.25500000920E-02 0. -1.
       -2   -1    0    0    0  501  0.00000000000E+00  0.00000000000E+00 -0.61218283737E+03  0.61218283738E+03  0.25500000920E-02 0.  1.
    10030    2    1    2    0    0  0.00000000000E+00  0.00000000000E+00  0.10244491376E+04  0.22488148123E+04  0.20019170874E+04 0.  0.
        2    1    3    3  502    0 -0.46829704548E+03  0.85179730456E+03  0.24389843769E+03  0.10021712522E+04  0.25500000920E-02 0. -1.
       -2    1    3    3    0  502  0.46829704548E+03 -0.85179730456E+03  0.78055069989E+03  0.12466435601E+04  0.25500000920E-02 0.  1.
</event>
<event>
 5   0  0.2093980E-05  0.1987701E+04  0.7818609E-02  0.8612392E-01
        1   -1    0    0  501    0  0.00000000000E+00  0.00000000000E+00  0.85978180048E+03  0.85978180049E+03  0.50400001928E-02 0.  1.
       -1   -1    0    0    0  501  0.00000000000E+00  0.00000000000E+00 -0.11488252261E+04  0.11488252261E+04  0.50400001928E-02 0. -1.
    10030    2    1    2    0    0  0.00000000000E+00  0.00000000000E+00 -0.28904342562E+03  0.20086070266E+04  0.19877012063E+04 0.  0.
        2    1    3    3  502    0 -0.15139332224E+03 -0.74550554149E+03 -0.79081116687E+03  0.10973061342E+04  0.25500000920E-02 0. -1.
       -2    1    3    3    0  502  0.15139332224E+03  0.74550554149E+03  0.50176774124E+03  0.91130089245E+03  0.25500000920E-02 0.  1.
</event>
<event>
 5   0  0.2093980E-05  0.2028138E+04  0.7818609E-02  0.8593577E-01
        1   -1    0    0  501    0  0.00000000000E+00  0.00000000000E+00  0.17103854029E+04  0.17103854029E+04  0.50400001928E-02 0. -1.
       -1   -1    0    0    0  501  0.00000000000E+00  0.00000000000E+00 -0.60123058153E+03  0.60123058155E+03  0.50400001928E-02 0.  1.
    10030    2    1    2    0    0  0.00000000000E+00  0.00000000000E+00  0.11091548214E+04  0.23116159845E+04  0.20281380727E+04 0.  0.
        2    1    3    3  502    0  0.50402037023E+03  0.38801560048E+03  0.14547403788E+04  0.15877223339E+04  0.25500000920E-02 0. -1.
       -2    1    3    3    0  502 -0.50402037023E+03 -0.38801560048E+03 -0.34558555744E+03  0.72389365057E+03  0.25500000920E-02 0.  1.
</event>
<event>
 5   0  0.2110896E-05  0.2001830E+04  0.7818609E-02  0.8605765E-01
        1   -1    0    0  501    0  0.00000000000E+00  0.00000000000E+00  0.97175767705E+03  0.97175767706E+03  0.50400001928E-02 0. -1.
       -1   -1    0    0    0  501  0.00000000000E+00  0.00000000000E+00 -0.10309473752E+04  0.10309473752E+04  0.50400001928E-02 0.  1.
    10030    2    1    2    0    0  0.00000000000E+00  0.00000000000E+00 -0.59189698106E+02  0.20027050522E+04  0.20018301891E+04 0.  0.
        4    1    3    3  502    0  0.39238692022E+03 -0.90672744401E+03 -0.18999975969E+03  0.10060932732E+04  0.12699999809E+01 0. -1.
       -4    1    3    3    0  502 -0.39238692022E+03  0.90672744401E+03  0.13081006159E+03  0.99661177898E+03  0.12699999809E+01 0.  1.
</event>
<event>
 5   0  0.2110896E-05  0.1996574E+04  0.7818609E-02  0.8608224E-01
        1   -1    0    0  501    0  0.00000000000E+00  0.00000000000E+00  0.12893333162E+04  0.12893333162E+04  0.50400001928E-02 0. -1.
       -1   -1    0    0    0  501  0.00000000000E+00  0.00000000000E+00 -0.77293998846E+03  0.77293998848E+03  0.50400001928E-02 0.  1.
    10030    2    1    2    0    0  0.00000000000E+00  0.00000000000E+00  0.51639332771E+03  0.20622733047E+04  0.19965743448E+04 0.  0.
        4    1    3    3  502    0 -0.65889747353E+03 -0.56925019807E+03  0.76250864087E+03  0.11574163939E+04  0.12699999809E+01 0. -1.
       -4    1    3    3    0  502  0.65889747353E+03  0.56925019807E+03 -0.24611531316E+03  0.90485691073E+03  0.12699999809E+01 0.  1.
</event>
<event>
 5   0  0.2256868E-05  0.1998139E+04  0.7818609E-02  0.8607491E-01
       -1   -1    0    0    0  501  0.00000000000E+00  0.00000000000E+00  0.53122155648E+03  0.53122155650E+03  0.50400001928E-02 0.  1.
        1   -1    0    0  501    0  0.00000000000E+00  0.00000000000E+00 -0.18789521123E+04  0.18789521123E+04  0.50400001928E-02 0. -1.
    10030    2    1    2    0    0  0.00000000000E+00  0.00000000000E+00 -0.13477305558E+04  0.24101736688E+04  0.19981389999E+04 0.  0.
        5    1    3    3  502    0  0.70636289648E+03 -0.31166761620E+03  0.90944160879E+02  0.77741763223E+03  0.46999998093E+01 0.  1.
       -5    1    3    3    0  502 -0.70636289648E+03  0.31166761620E+03 -0.14386747167E+04  0.16327560366E+04  0.46999998093E+01 0. -1.
</event>
<event>
 5   0  0.2142551E-05  0.1999529E+04  0.7818609E-02  0.8606841E-01
        1   -1    0    0  501    0  0.00000000000E+00  0.00000000000E+00  0.13955109360E+04  0.13955109360E+04  0.50400001928E-02 0.  1.
       -1   -1    0    0    0  501  0.00000000000E+00  0.00000000000E+00 -0.71624586735E+03  0.71624586737E+03  0.50400001928E-02 0. -1.
    10030    2    1    2    0    0  0.00000000000E+00  0.00000000000E+00  0.67926506860E+03  0.21117568033E+04  0.19995288853E+04 0.  0.
        3    1    3    3  502    0 -0.38826398213E+02 -0.49464990599E+03  0.12563015939E+04  0.13507330320E+04  0.10100000352E+00 0.  1.
       -3    1    3    3    0  502  0.38826398213E+02  0.49464990599E+03 -0.57703652534E+03  0.76102377129E+03  0.10100000352E+00 0. -1.
</event>
<event>
 5   0  0.4447313E-05  0.1997568E+04  0.7818609E-02  0.8607759E-01
        2   -1    0    0  501    0  0.00000000000E+00  0.00000000000E+00  0.84469419138E+03  0.84469419138E+03  0.25500000920E-02 0.  1.
       -2   -1    0    0    0  501  0.00000000000E+00  0.00000000000E+00 -0.11809829581E+04  0.11809829581E+04  0.25500000920E-02 0. -1.
    10030    2    1    2    0    0  0.00000000000E+00  0.00000000000E+00 -0.33628876670E+03  0.20256771495E+04  0.19975679661E+04 0.  0.
        5    1    3    3  502    0 -0.43951121592E+03 -0.58960689203E+03  0.51719177189E+03  0.89906385477E+03  0.46999998093E+01 0.  1.
       -5    1    3    3    0  502  0.43951121592E+03  0.58960689203E+03 -0.85348053858E+03  0.11266132947E+04  0.46999998093E+01 0. -1.
</event>
<event>
 5   0  0.2256868E-05  0.2000157E+04  0.7818609E-02  0.8606547E-01
        1   -1    0    0  501    0  0.00000000000E+00  0.00000000000E+00  0.70173731563E+03  0.70173731565E+03  0.50400001928E-02 0. -1.
       -1   -1    0    0    0  501  0.00000000000E+00  0.00000000000E+00 -0.14252587569E+04  0.14252587569E+04  0.50400001928E-02 0.  1.
    10030    2    1    2    0    0  0.00000000000E+00  0.00000000000E+00 -0.72352144127E+03  0.21269960726E+04  0.20001572480E+04 0.  0.
        5    1    3    3  502    0 -0.11288346484E+03 -0.61969030888E+03  0.46427097238E+03  0.78251414131E+03  0.46999998093E+01 0. -1.
       -5    1    3    3    0  502  0.11288346484E+03  0.61969030888E+03 -0.11877924136E+04  0.13444819313E+04  0.46999998093E+01 0.  1.
</event>
<event>
 5   0  0.4577279E-05  0.2003056E+04  0.7818609E-02  0.8605193E-01
        2   -1    0    0  501    0  0.00000000000E+00  0.00000000000E+00  0.19633378156E+04  0.19633378156E+04  0.25500000920E-02 0. -1.
       -2   -1    0    0    0  501  0.00000000000E+00  0.00000000000E+00 -0.51089460635E+03  0.51089460635E+03  0.25500000920E-02 0.  1.
    10030    2    1    2    0    0  0.00000000000E+00  0.00000000000E+00  0.14524432093E+04  0.24742324220E+04  0.20030563651E+04 0.  0.
        1    1    3    3  502    0  0.22595456999E+03  0.22247654153E+03 -0.44725034846E+03  0.54825555488E+03  0.50400001928E-02 0.  1.
       -1    1    3    3    0  502 -0.22595456999E+03 -0.22247654153E+03  0.18996935577E+04  0.19259768671E+04  0.50400001928E-02 0. -1.
</event>
<event>
 5   0  0.2142551E-05  0.1993138E+04  0.7818609E-02  0.8609836E-01
       -1   -1    0    0    0  501  0.00000000000E+00  0.00000000000E+00  0.76889485932E+03  0.76889485933E+03  0.50400001928E-02 0. -1.
        1   -1    0    0  501    0  0.00000000000E+00  0.00000000000E+00 -0.12916589365E+04  0.12916589365E+04  0.50400001928E-02 0.  1.
    10030    2    1    2    0    0  0.00000000000E+00  0.00000000000E+00 -0.52276407721E+03  0.20605537959E+04  0.19931381451E+04 0.  0.
        3    1    3    3  502    0 -0.61715773266E+03 -0.34847022002E+03  0.46291082367E+03  0.84652324368E+03  0.10100000352E+00 0. -1.
       -3    1    3    3    0  502  0.61715773266E+03  0.34847022002E+03 -0.98567490088E+03  0.12140305522E+04  0.10100000352E+00 0.  1.
</event>
<event>
 5   0  0.2110896E-05  0.2003097E+04  0.7818609E-02  0.8605174E-01
       -1   -1    0    0    0  501  0.00000000000E+00  0.00000000000E+00  0.77021705162E+03  0.77021705164E+03  0.50400001928E-02 0. -1.
        1   -1    0    0  501    0  0.00000000000E+00  0.00000000000E+00 -0.13023589029E+04  0.13023589029E+04  0.50400001928E-02 0.  1.
    10030    2    1    2    0    0  0.00000000000E+00  0.00000000000E+00 -0.53214185124E+03  0.20725759545E+04  0.20030966371E+04 0.  0.
        4    1    3    3  502    0 -0.70816975056E+03 -0.41610114632E+03 -0.85905779745E+03  0.11885396383E+04  0.12699999809E+01 0.  1.
       -4    1    3    3    0  502  0.70816975056E+03  0.41610114632E+03  0.32691594621E+03  0.88403631620E+03  0.12699999809E+01 0. -1.
</event>
<event>
 5   0  0.4577279E-05  0.1998134E+04  0.7818609E-02  0.8607494E-01
        2   -1    0    0  501    0  0.00000000000E+00  0.00000000000E+00  0.21094712372E+04  0.21094712372E+04  0.25500000920E-02 0. -1.
       -2   -1    0    0    0  501  0.00000000000E+00  0.00000000000E+00 -0.47316816616E+03  0.47316816616E+03  0.25500000920E-02 0.  1.
    10030    2    1    2    0    0  0.00000000000E+00  0.00000000000E+00  0.16363030710E+04  0.25826394034E+04  0.19981337662E+04 0.  0.
        1    1    3    3  502    0  0.15217432425E+03  0.26733035841E+02 -0.45763292770E+03  0.48301094885E+03  0.50400001928E-02 0.  1.
       -1    1    3    3    0  502 -0.15217432425E+03 -0.26733035841E+02  0.20939359987E+04  0.20996284545E+04  0.50400001928E-02 0. -1.
</event>
<event>
 5   0  0.4514680E-05  0.2000582E+04  0.7818609E-02  0.8606348E-01
        2   -1    0    0  501    0  0.00000000000E+00  0.00000000000E+00  0.17303919865E+04  0.17303919865E+04  0.25500000920E-02 0.  1.
       -2   -1    0    0    0  501  0.00000000000E+00  0.00000000000E+00 -0.57824029301E+03  0.57824029301E+03  0.25500000920E-02 0. -1.
    10030    2    1    2    0    0  0.00000000000E+00  0.00000000000E+00  0.11521516935E+04  0.23086322795E+04  0.20005822845E+04 0.  0.
        3    1    3    3  502    0  0.69283245693E+03  0.43446175252E+03 -0.88649316077E+02  0.82257676798E+03  0.10100000352E+00 0. -1.
       -3    1    3    3    0  502 -0.69283245693E+03 -0.43446175252E+03  0.12408010095E+04  0.14860555115E+04  0.10100000352E+00 0.  1.
</event>
<event>
 5   0  0.4577279E-05  0.2001891E+04  0.7818609E-02  0.8605737E-01
        2   -1    0    0  501    0  0.00000000000E+00  0.00000000000E+00  0.13403627088E+04  0.13403627088E+04  0.25500000920E-02 0. -1.
       -2   -1    0    0    0  501  0.00000000000E+00  0.00000000000E+00 -0.74747835076E+03  0.74747835077E+03  0.25500000920E-02 0.  1.
    10030    2    1    2    0    0  0.00000000000E+00  0.00000000000E+00  0.59288435800E+03  0.20878410595E+04  0.20018912128E+04 0.  0.
        1    1    3    3  502    0 -0.56096735769E+03  0.10913064592E+03 -0.56060507444E+03  0.80054476689E+03  0.50400001928E-02 0.  1.
       -1    1    3    3    0  502  0.56096735769E+03 -0.10913064592E+03  0.11534894324E+04  0.12872962926E+04  0.50400001928E-02 0. -1.
</event>
<event>
 5   0  0.4514680E-05  0.2003476E+04  0.7818609E-02  0.8604997E-01
       -2   -1    0    0    0  501  0.00000000000E+00  0.00000000000E+00  0.76968393952E+03  0.76968393952E+03  0.25500000920E-02 0.  1.
        2   -1    0    0  501    0  0.00000000000E+00  0.00000000000E+00 -0.13037552353E+04  0.13037552353E+04  0.25500000920E-02 0. -1.
    10030    2    1    2    0    0  0.00000000000E+00  0.00000000000E+00 -0.53407129581E+03  0.20734391749E+04  0.20034764443E+04 0.  0.
        3    1    3    3  502    0 -0.16071919949E+03  0.40955334593E+03 -0.11984152887E+04  0.12766220344E+04  0.10100000352E+00 0. -1.
       -3    1    3    3    0  502  0.16071919949E+03 -0.40955334593E+03  0.66434399291E+03  0.79681714047E+03  0.10100000352E+00 0.  1.
</event>
<event>
 5   0  0.4473361E-05  0.2006300E+04  0.7818609E-02  0.8603681E-01
       -2   -1    0    0    0  501  0.00000000000E+00  0.00000000000E+00  0.61298868864E+03  0.61298868865E+03  0.25500000920E-02 0. -1.
        2   -1    0    0  501    0  0.00000000000E+00  0.00000000000E+00 -0.16416455761E+04  0.16416455761E+04  0.25500000920E-02 0.  1.
    10030    2    1    2    0    0  0.00000000000E+00  0.00000000000E+00 -0.10286568875E+04  0.22546342648E+04  0.20063002456E+04 0.  0.
        2    1    3    3  502    0  0.26181678317E+03 -0.51534005510E+03 -0.14356795387E+04  0.15476753982E+04  0.25500000920E-02 0.  1.
       -2    1    3    3    0  502 -0.26181678317E+03  0.51534005510E+03  0.40702265125E+03  0.70695886654E+03  0.25500000920E-02 0. -1.
</event>
<event>
 5   0  0.4577279E-05  0.2001354E+04  0.7818609E-02  0.8605988E-01
        2   -1    0    0  501    0  0.00000000000E+00  0.00000000000E+00  0.17198444658E+04  0.17198444658E+04  0.25500000920E-02 0.  1.
       -2   -1    0    0    0  501  0.00000000000E+00  0.00000000000E+00 -0.58223543719E+03  0.58223543720E+03  0.25500000920E-02 0. -1.
    10030    2    1    2    0    0  0.00000000000E+00  0.00000000000E+00  0.11376090286E+04  0.23020799030E+04  0.20013539362E+04 0.  0.
        1    1    3    3  502    0 -0.90116706909E+03 -0.38784224801E+03  0.34213970658E+03  0.10390299681E+04  0.50400001928E-02 0. -1.
       -1    1    3    3    0  502  0.90116706909E+03  0.38784224801E+03  0.79546932201E+03  0.12630499349E+04  0.50400001928E-02 0.  1.
</event>
<event>
 5   0  0.2256868E-05  0.2135409E+04  0.7818609E-02  0.8545804E-01
        1   -1    0    0  501    0  0.00000000000E+00  0.00000000000E+00  0.88408079672E+03  0.88408079674E+03  0.50400001928E-02 0.  1.
       -1   -1    0    0    0  501  0.00000000000E+00  0.00000000000E+00 -0.12894668309E+04  0.12894668309E+04  0.50400001928E-02 0. -1.
    10030    2    1    2    0    0  0.00000000000E+00  0.00000000000E+00 -0.40538603415E+03  0.21735476276E+04  0.21354089662E+04 0.  0.
        5    1    3    3  502    0  0.56641775240E+03 -0.47432973368E+03  0.58188701107E+03  0.94044263522E+03  0.46999998093E+01 0.  1.
       -5    1    3    3    0  502 -0.56641775240E+03  0.47432973368E+03 -0.98727304522E+03  0.12331049924E+04  0.46999998093E+01 0. -1.
</event>
<event>
 5   0  0.2256868E-05  0.1997969E+04  0.7818609E-02  0.8607571E-01
        1   -1    0    0  501    0  0.00000000000E+00  0.00000000000E+00  0.17399774228E+04  0.17399774228E+04  0.50400001928E-02 0.  1.
       -1   -1    0    0    0  501  0.00000000000E+00  0.00000000000E+00 -0.57355333526E+03  0.57355333528E+03  0.50400001928E-02 0. -1.
    10030    2    1    2    0    0  0.00000000000E+00  0.00000000000E+00  0.11664240875E+04  0.23135307581E+04  0.19979688227E+04 0.  0.
        5    1    3    3  502    0 -0.48190392078E+03  0.56197382221E+03  0.13598979694E+04  0.15483509108E+04  0.46999998093E+01 0.  1.
       -5    1    3    3    0  502  0.48190392078E+03 -0.56197382221E+03 -0.19347388189E+03  0.76517984728E+03  0.46999998093E+01 0. -1.
</event>
<event>
 5   0  0.4473361E-05  0.1999065E+04  0.7818609E-02  0.8607058E-01
       -2   -1    0    0    0  501  0.00000000000E+00  0.00000000000E+00  0.13197490540E+04  0.13197490540E+04  0.25500000920E-02 0. -1.
        2   -1    0    0  501    0  0.00000000000E+00  0.00000000000E+00 -0.75701165159E+03  0.75701165159E+03  0.25500000920E-02 0.  1.
    10030    2    1    2    0    0  0.00000000000E+00  0.00000000000E+00  0.56273740245E+03  0.20767607056E+04  0.19990651926E+04 0.  0.
        2    1    3    3  502    0  0.53647650490E+03 -0.25833404469E+03  0.11153922962E+04  0.12643747441E+04  0.25500000920E-02 0. -1.
       -2    1    3    3    0  502 -0.53647650490E+03  0.25833404469E+03 -0.55265489377E+03  0.81238596158E+03  0.25500000920E-02 0.  1.
</event>
<event>
 5   0  0.2142551E-05  0.1994783E+04  0.7818609E-02  0.8609064E-01
       -1   -1    0    0    0  501  0.00000000000E+00  0.00000000000E+00  0.97469951012E+03  0.97469951013E+03  0.50400001928E-02 0. -1.
        1   -1    0    0  501    0  0.00000000000E+00  0.00000000000E+00 -0.10206117000E+04  0.10206117000E+04  0.50400001928E-02 0.  1.
    10030    2    1    2    0    0  0.00000000000E+00  0.00000000000E+00 -0.45912189877E+02  0.19953112101E+04  0.19947829195E+04 0.  0.
        3    1    3    3  502    0 -0.66873763858E+03 -0.57980084060E+03  0.43695983543E+03  0.98707292131E+03  0.10100000352E+00 0. -1.
       -3    1    3    3    0  502  0.66873763858E+03  0.57980084060E+03 -0.48287202531E+03  0.10082382888E+04  0.10100000352E+00 0.  1.
</event>
<event>
 5   0  0.2256868E-05  0.2001313E+04  0.7818609E-02  0.8606007E-01
       -1   -1    0    0    0  501  0.00000000000E+00  0.00000000000E+00  0.40257351475E+03  0.40257351478E+03  0.50400001928E-02 0.  1.
        1   -1    0    0  501    0  0.00000000000E+00  0.00000000000E+00 -0.24872800503E+04  0.24872800503E+04  0.50400001928E-02 0. -1.
    10030    2    1    2    0    0  0.00000000000E+00  0.00000000000E+00 -0.20847065356E+04  0.28898535651E+04  0.20013126413E+04 0.  0.
        5    1    3    3  502    0 -0.64167578109E+02  0.60488553370E+03  0.10493966782E+03  0.61728308809E+03  0.46999998093E+01 0.  1.
       -5    1    3    3    0  502  0.64167578109E+02 -0.60488553370E+03 -0.21896462034E+04  0.22725704770E+04  0.46999998093E+01 0. -1.
</event>
<event>
 5   0  0.4447313E-05  0.2006536E+04  0.7818609E-02  0.8603571E-01
       -2   -1    0    0    0  501  0.00000000000E+00  0.00000000000E+00  0.11412309666E+04  0.11412309666E+04  0.25500000920E-02 0. -1.
        2   -1    0    0  501    0  0.00000000000E+00  0.00000000000E+00 -0.88198339107E+03  0.88198339107E+03  0.25500000920E-02 0.  1.
    10030    2    1    2    0    0  0.00000000000E+00  0.00000000000E+00  0.25924757549E+03  0.20232143576E+04  0.20065360778E+04 0.  0.
        5    1    3    3  502    0 -0.28346414768E+03 -0.82380634084E+03 -0.37202115644E+03  0.94732815912E+03  0.46999998093E+01 0.  1.
       -5    1    3    3    0  502  0.28346414768E+03  0.82380634084E+03  0.63126873193E+03  0.10758861985E+04  0.46999998093E+01 0. -1.
</event>
<event>
 5   0  0.4514680E-05  0.2003957E+04  0.7818609E-02  0.8604773E-01
       -2   -1    0    0    0  501  0.00000000000E+00  0.00000000000E+00  0.19228486135E+04  0.19228486135E+04  0.25500000920E-02 0. -1.
        2   -1    0    0  501    0  0.00000000000E+00  0.00000000000E+00 -0.52212140909E+03  0.52212140909E+03  0.25500000920E-02 0.  1.
    10030    2    1    2    0    0  0.00000000000E+00  0.00000000000E+00  0.14007272044E+04  0.24449700226E+04  0.20039565140E+04 0.  0.
        3    1    3    3  502    0  0.81502421015E+03  0.47487072056E+03  0.28807016797E+03  0.98628144880E+03  0.10100000352E+00 0.  1.
       -3    1    3    3    0  502 -0.81502421015E+03 -0.47487072056E+03  0.11126570364E+04  0.14586885738E+04  0.10100000352E+00 0. -1.
</event>
<event>
 5   0  0.2256868E-05  0.2003672E+04  0.7818609E-02  0.8604906E-01
        1   -1    0    0  501    0  0.00000000000E+00  0.00000000000E+00  0.25951808812E+04  0.25951808812E+04  0.50400001928E-02 0. -1.
       -1   -1    0    0    0  501  0.00000000000E+00  0.00000000000E+00 -0.38674569415E+03  0.38674569418E+03  0.50400001928E-02 0.  1.
    10030    2    1    2    0    0  0.00000000000E+00  0.00000000000E+00  0.22084351870E+04  0.29819265754E+04  0.20036716611E+04 0.  0.
        5    1    3    3  502    0  0.74005998705E+03  0.22800236763E+03  0.20501276140E+04  0.21915107090E+04  0.46999998093E+01 0.  1.
       -5    1    3    3    0  502 -0.74005998705E+03 -0.22800236763E+03  0.15830757303E+03  0.79041586633E+03  0.46999998093E+01 0. -1.
</event>
<event>
 5   0  0.4473361E-05  0.1985037E+04  0.7818609E-02  0.8613648E-01
       -2   -1    0    0    0  501  0.00000000000E+00  0.00000000000E+00  0.67615952993E+03  0.67615952994E+03  0.25500000920E-02 0. -1.
        2   -1    0    0  501    0  0.00000000000E+00  0.00000000000E+00 -0.14568948083E+04  0.14568948083E+04  0.25500000920E-02 0.  1.
    10030    2    1    2    0    0  0.00000000000E+00  0.00000000000E+00 -0.78073527836E+03  0.21330543382E+04  0.19850373384E+04 0.  0.
        2    1    3    3  502    0 -0.25688189688E+03  0.93847025539E+03 -0.17985523695E+03  0.98947593980E+03  0.25500000920E-02 0.  1.
       -2    1    3    3    0  502  0.25688189688E+03 -0.93847025539E+03 -0.60088004141E+03  0.11435783984E+04  0.25500000920E-02 0. -1.
</event>
<event>
 5   0  0.2007644E-05  0.2021869E+04  0.7818609E-02  0.8596464E-01
       -1   -1    0    0    0  501  0.00000000000E+00  0.00000000000E+00  0.83804253169E+03  0.83804253170E+03  0.50400001928E-02 0. -1.
        1   -1    0    0  501    0  0.00000000000E+00  0.00000000000E+00 -0.12194945022E+04  0.12194945022E+04  0.50400001928E-02 0.  1.
    10030    2    1    2    0    0  0.00000000000E+00  0.00000000000E+00 -0.38145197051E+03  0.20575370339E+04  0.20218687000E+04 0.  0.
        1    1    3    3  502    0 -0.32375370715E+03  0.30468133936E+03  0.73322340422E+03  0.85747521362E+03  0.50400001928E-02 0. -1.
       -1    1    3    3    0  502  0.32375370715E+03 -0.30468133936E+03 -0.11146753747E+04  0.12000618203E+04  0.50400001928E-02 0.  1.
</event>
<event>
 5   0  0.1601500E-05  0.1999659E+04  0.7818609E-02  0.8606780E-01
       -3   -1    0    0    0  501  0.00000000000E+00  0.00000000000E+00  0.11265447471E+04  0.11265447516E+04  0.10100000352E+00 0.  1.
        3   -1    0    0  501    0  0.00000000000E+00  0.00000000000E+00 -0.88736736803E+03  0.88736737377E+03  0.10100000352E+00 0. -1.
    10030    2    1    2    0    0  0.00000000000E+00  0.00000000000E+00  0.23917737903E+03  0.20139121254E+04  0.19996590284E+04 0.  0.
        5    1    3    3  502    0  0.36839092825E+03 -0.84168530477E+03 -0.27754534864E+03  0.95979140382E+03  0.46999998093E+01 0. -1.
       -5    1    3    3    0  502 -0.36839092825E+03  0.84168530477E+03  0.51672272767E+03  0.10541207215E+04  0.46999998093E+01 0.  1.
</event>
<event>
 5   0  0.4514680E-05  0.1998922E+04  0.7818609E-02  0.8607125E-01
        2   -1    0    0  501    0  0.00000000000E+00  0.00000000000E+00  0.13762539473E+04  0.13762539473E+04  0.25500000920E-02 0. -1.
       -2   -1    0    0    0  501  0.00000000000E+00  0.00000000000E+00 -0.72582681233E+03  0.72582681233E+03  0.25500000920E-02 0.  1.
    10030    2    1    2    0    0  0.00000000000E+00  0.00000000000E+00  0.65042713496E+03  0.21020807596E+04  0.19989217249E+04 0.  0.
        3    1    3    3  502    0  0.17000688173E+03 -0.96208553905E+03  0.54682863339E+03  0.11196126512E+04  0.10100000352E+00 0.  1.
       -3    1    3    3    0  502 -0.17000688173E+03  0.96208553905E+03  0.10359850157E+03  0.98246810840E+03  0.10100000352E+00 0. -1.
</event>
<event>
 5   0  0.2093980E-05  0.2005310E+04  0.7818609E-02  0.8604142E-01
       -1   -1    0    0    0  501  0.00000000000E+00  0.00000000000E+00  0.60169234339E+03  0.60169234341E+03  0.50400001928E-02 0.  1.
        1   -1    0    0  501    0  0.00000000000E+00  0.00000000000E+00 -0.16708156297E+04  0.16708156297E+04  0.50400001928E-02 0. -1.
    10030    2    1    2    0    0  0.00000000000E+00  0.00000000000E+00 -0.10691232863E+04  0.22725079731E+04  0.20053099228E+04 0.  0.
        2    1    3    3  502    0  0.86884667604E+03 -0.46445783217E+03 -0.32345734243E+03  0.10369379329E+04  0.25500000920E-02 0.  1.
       -2    1    3    3    0  502 -0.86884667604E+03  0.46445783217E+03 -0.74566594385E+03  0.12355700402E+04  0.25500000920E-02 0. -1.
</event>
<event>
 5   0  0.2142551E-05  0.2000261E+04  0.7818609E-02  0.8606499E-01
        1   -1    0    0  501    0  0.00000000000E+00  0.00000000000E+00  0.10151912914E+04  0.10151912915E+04  0.50400001928E-02 0.  1.
       -1   -1    0    0    0  501  0.00000000000E+00  0.00000000000E+00 -0.98529317661E+03  0.98529317662E+03  0.50400001928E-02 0. -1.
    10030    2    1    2    0    0  0.00000000000E+00  0.00000000000E+00  0.29898114836E+02  0.20004844681E+04  0.20002610354E+04 0.  0.
        3    1    3    3  502    0  0.66054920788E+02  0.78198373255E+03  0.63501769284E+03  0.10095094308E+04  0.10100000352E+00 0.  1.
       -3    1    3    3    0  502 -0.66054920788E+02 -0.78198373255E+03 -0.60511957801E+03  0.99097503723E+03  0.10100000352E+00 0. -1.
</event>
<event>
 5   0  0.2256868E-05  0.1994931E+04  0.7818609E-02  0.8608994E-01
       -1   -1    0    0    0  501  0.00000000000E+00  0.00000000000E+00  0.10023384607E+04  0.10023384607E+04  0.50400001928E-02 0.  1.
        1   -1    0    0  501    0  0.00000000000E+00  0.00000000000E+00 -0.99261589317E+03  0.99261589318E+03  0.50400001928E-02 0. -1.
    10030    2    1    2    0    0  0.00000000000E+00  0.00000000000E+00  0.97225674915E+01  0.19949543539E+04  0.19949306619E+04 0.  0.
        5    1    3    3  502    0  0.18362742631E+03  0.84368927292E+03 -0.49452864301E+03  0.99504336071E+03  0.46999998093E+01 0. -1.
       -5    1    3    3    0  502 -0.18362742631E+03 -0.84368927292E+03  0.50425121050E+03  0.99991099315E+03  0.46999998093E+01 0.  1.
</event>
<event>
 5   0  0.2093980E-05  0.1994929E+04  0.7818609E-02  0.8608995E-01
        1   -1    0    0  501    0  0.00000000000E+00  0.00000000000E+00  0.20247747227E+04  0.20247747227E+04  0.50400001928E-02 0. -1.
       -1   -1    0    0    0  501  0.00000000000E+00  0.00000000000E+00 -0.49138067045E+03  0.49138067047E+03  0.50400001928E-02 0.  1.
    10030    2    1    2    0    0  0.00000000000E+00  0.00000000000E+00  0.15333940522E+04  0.25161553931E+04  0.19949287313E+04 0.  0.
        2    1    3    3  502    0  0.28812800381E+03 -0.57080089300E+02  0.19689908226E+04  0.19907789286E+04  0.25500000920E-02 0. -1.
       -2    1    3    3    0  502 -0.28812800381E+03  0.57080089300E+02 -0.43559677034E+03  0.52537646456E+03  0.25500000920E-02 0.  1.
</event>
<event>
 5   0  0.4412054E-05  0.1956458E+04  0.7818609E-02  0.8627253E-01
        2   -1    0    0  501    0  0.00000000000E+00  0.00000000000E+00  0.18382638123E+04  0.18382638123E+04  0.25500000920E-02 0.  1.
       -2   -1    0    0    0  501  0.00000000000E+00  0.00000000000E+00 -0.52056280673E+03  0.52056280674E+03  0.25500000920E-02 0. -1.
    10030    2    1    2    0    0  0.00000000000E+00  0.00000000000E+00  0.13177010055E+04  0.23588266190E+04  0.19564577886E+04 0.  0.
        4    1    3    3  502    0  0.22679741916E+03  0.34959339997E+01  0.18061192855E+04  0.18203070558E+04  0.12699999809E+01 0.  1.
       -4    1    3    3    0  502 -0.22679741916E+03 -0.34959339997E+01 -0.48841827997E+03  0.53851956325E+03  0.12699999809E+01 0. -1.
</event>
<event>
 5   0  0.2110896E-05  0.2020003E+04  0.7818609E-02  0.8597325E-01
       -1   -1    0    0    0  501  0.00000000000E+00  0.00000000000E+00  0.40878788793E+03  0.40878788797E+03  0.50400001928E-02 0.  1.
        1   -1    0    0  501    0  0.00000000000E+00  0.00000000000E+00 -0.24954333825E+04  0.24954333825E+04  0.50400001928E-02 0. -1.
    10030    2    1    2    0    0  0.00000000000E+00  0.00000000000E+00 -0.20866454946E+04  0.29042212705E+04  0.20200029128E+04 0.  0.
        4    1    3    3  502    0 -0.34085638260E+02  0.80534670810E+02 -0.24899787872E+04  0.24915143262E+04  0.12699999809E+01 0. -1.
       -4    1    3    3    0  502  0.34085638260E+02 -0.80534670810E+02  0.40333329269E+03  0.41270694424E+03  0.12699999809E+01 0.  1.
</event>
<event>
 5   0  0.2142551E-05  0.1993238E+04  0.7818609E-02  0.8609789E-01
        1   -1    0    0  501    0  0.00000000000E+00  0.00000000000E+00  0.11113910843E+04  0.11113910843E+04  0.50400001928E-02 0. -1.
       -1   -1    0    0    0  501  0.00000000000E+00  0.00000000000E+00 -0.89369945585E+03  0.89369945586E+03  0.50400001928E-02 0.  1.
    10030    2    1    2    0    0  0.00000000000E+00  0.00000000000E+00  0.21769162842E+03  0.20050905401E+04  0.19932381767E+04 0.  0.
        3    1    3    3  502    0 -0.77504552780E+02 -0.23221713898E+03  0.10806741896E+04  0.11080561671E+04  0.10100000352E+00 0. -1.
       -3    1    3    3    0  502  0.77504552780E+02  0.23221713898E+03 -0.86298256114E+03  0.89703437301E+03  0.10100000352E+00 0.  1.
</event>
<event>
 5   0  0.1601500E-05  0.2002403E+04  0.7818609E-02  0.8605498E-01
        4   -1    0    0  501    0  0.00000000000E+00  0.00000000000E+00  0.11609232723E+04  0.11609239670E+04  0.12699999809E+01 0. -1.
       -4   -1    0    0    0  501  0.00000000000E+00  0.00000000000E+00 -0.86345301956E+03  0.86345395354E+03  0.12699999809E+01 0.  1.
    10030    2    1    2    0    0  0.00000000000E+00  0.00000000000E+00  0.29747025275E+03  0.20243779205E+04  0.20024029100E+04 0.  0.
        5    1    3    3  502    0  0.67441378276E+03 -0.43735820359E+03 -0.45469554800E+03  0.92351842428E+03  0.46999998093E+01 0.  1.
       -5    1    3    3    0  502 -0.67441378276E+03  0.43735820359E+03  0.75216580075E+03  0.11008594962E+04  0.46999998093E+01 0. -1.
</event>
<event>
 5   0  0.4577279E-05  0.1988503E+04  0.7818609E-02  0.8612015E-01
       -2   -1    0    0    0  501  0.00000000000E+00  0.00000000000E+00  0.74993517080E+03  0.74993517080E+03  0.25500000920E-02 0.  1.
        2   -1    0    0  501    0  0.00000000000E+00  0.00000000000E+00 -0.13181623730E+04  0.13181623730E+04  0.25500000920E-02 0. -1.
    10030    2    1    2    0    0  0.00000000000E+00  0.00000000000E+00 -0.56822720222E+03  0.20680975438E+04  0.19885032807E+04 0.  0.
        1    1    3    3  502    0 -0.95748706866E+03 -0.11942729414E+03 -0.34741272355E+02  0.96553162624E+03  0.50400001928E-02 0.  1.
       -1    1    3    3    0  502  0.95748706866E+03  0.11942729414E+03 -0.53348592987E+03  0.11025659176E+04  0.50400001928E-02 0. -1.
</event>
<event>
 5   0  0.4514680E-05  0.2000008E+04  0.7818609E-02  0.8606617E-01
        2   -1    0    0  501    0  0.00000000000E+00  0.00000000000E+00  0.15972090439E+04  0.15972090439E+04  0.25500000920E-02 0.  1.
       -2   -1    0    0    0  501  0.00000000000E+00  0.00000000000E+00 -0.62609688634E+03  0.62609688635E+03  0.25500000920E-02 0. -1.
    10030    2    1    2    0    0  0.00000000000E+00  0.00000000000E+00  0.97111215754E+03  0.22233059302E+04  0.20000076092E+04 0.  0.
        3    1    3    3  502    0 -0.24273051702E+03  0.35183696101E+02  0.15632544378E+04  0.15823780976E+04  0.10100000352E+00 0.  1.
       -3    1    3    3    0  502  0.24273051702E+03 -0.35183696101E+02 -0.59214228024E+03  0.64092783261E+03  0.10100000352E+00 0. -1.
</event>
<event>
 5   0  0.4514680E-05  0.2003030E+04  0.7818609E-02  0.8605205E-01
       -2   -1    0    0    0  501  0.00000000000E+00  0.00000000000E+00  0.69980165757E+03  0.69980165758E+03  0.25500000920E-02 0. -1.
        2   -1    0    0  501    0  0.00000000000E+00  0.00000000000E+00 -0.14333096418E+04  0.14333096418E+04  0.25500000920E-02 0.  1.
    10030    2    1    2    0    0  0.00000000000E+00  0.00000000000E+00 -0.73350798422E+03  0.21331112994E+04  0.20030301677E+04 0.  0.
        3    1    3    3  502    0 -0.18351520451E+03  0.73247254145E+03 -0.10673844565E+04  0.13074798058E+04  0.10100000352E+00 0.  1.
       -3    1    3    3    0  502  0.18351520451E+03 -0.73247254145E+03  0.33387647230E+03  0.82563149360E+03  0.10100000352E+00 0. -1.
</event>
<event>
 5   0  0.2110896E-05  0.2012888E+04  0.7818609E-02  0.8600619E-01
       -1   -1    0    0    0  501  0.00000000000E+00  0.00000000000E+00  0.72779689044E+03  0.72779689046E+03  0.50400001928E-02 0. -1.
        1   -1    0    0  501    0  0.00000000000E+00  0.00000000000E+00 -0.13917747884E+04  0.13917747885E+04  0.50400001928E-02 0.  1.
    10030    2    1    2    0    0  0.00000000000E+00  0.00000000000E+00 -0.66397789800E+03  0.21195716789E+04  0.20128878392E+04 0.  0.
        4    1    3    3  502    0  0.44391841470E+03 -0.29986284993E+03 -0.12291715207E+04  0.13408376218E+04  0.12699999809E+01 0.  1.
       -4    1    3    3    0  502 -0.44391841470E+03  0.29986284993E+03  0.56519362273E+03  0.77873405714E+03  0.12699999809E+01 0. -1.
</event>
<event>
 5   0  0.4577279E-05  0.2000708E+04  0.7818609E-02  0.8606290E-01
       -2   -1    0    0    0  501  0.00000000000E+00  0.00000000000E+00  0.62619904958E+03  0.62619904959E+03  0.25500000920E-02 0. -1.
        2   -1    0    0  501    0  0.00000000000E+00  0.00000000000E+00 -0.15980678342E+04  0.15980678342E+04  0.25500000920E-02 0.  1.
    10030    2    1    2    0    0  0.00000000000E+00  0.00000000000E+00 -0.97186878458E+03  0.22242668838E+04  0.20007084335E+04 0.  0.
        1    1    3    3  502    0 -0.76838263955E+03  0.60933601069E+03 -0.70550312481E+03  0.12080715682E+04  0.50400001928E-02 0.  1.
       -1    1    3    3    0  502  0.76838263955E+03 -0.60933601069E+03 -0.26636565977E+03  0.10161953156E+04  0.50400001928E-02 0. -1.
</event>
<event>
 5   0  0.2093980E-05  0.2000491E+04  0.7818609E-02  0.8606391E-01
       -1   -1    0    0    0  501  0.00000000000E+00  0.00000000000E+00  0.76423872348E+03  0.76423872350E+03  0.50400001928E-02 0. -1.
        1   -1    0    0  501    0  0.00000000000E+00  0.00000000000E+00 -0.13091343037E+04  0.13091343037E+04  0.50400001928E-02 0.  1.
    10030    2    1    2    0    0  0.00000000000E+00  0.00000000000E+00 -0.54489558019E+03  0.20733730272E+04  0.20004910689E+04 0.  0.
        2    1    3    3  502    0 -0.26889767593E+03  0.70944218051E+03 -0.94802099966E+03  0.12142314373E+04  0.25500000920E-02 0.  1.
       -2    1    3    3    0  502  0.26889767593E+03 -0.70944218051E+03  0.40312541947E+03  0.85914158986E+03  0.25500000920E-02 0. -1.
</event>
<event>
 5   0  0.2007644E-05  0.2001354E+04  0.7818609E-02  0.8605988E-01
        1   -1    0    0  501    0  0.00000000000E+00  0.00000000000E+00  0.86769923447E+03  0.86769923448E+03  0.50400001928E-02 0. -1.
       -1   -1    0    0    0  501  0.00000000000E+00  0.00000000000E+00 -0.11540344623E+04  0.11540344624E+04  0.50400001928E-02 0.  1.
    10030    2    1    2    0    0  0.00000000000E+00  0.00000000000E+00 -0.28633522787E+03  0.20217336968E+04  0.20013543610E+04 0.  0.
        1    1    3    3  502    0  0.40641361280E+03  0.86912237346E+03  0.14399644204E+03  0.97019621730E+03  0.50400001928E-02 0. -1.
       -1    1    3    3    0  502 -0.40641361280E+03 -0.86912237346E+03 -0.43033166991E+03  0.10515374795E+04  0.50400001928E-02 0.  1.
</event>
<event>
 5   0  0.2256868E-05  0.1987840E+04  0.7818609E-02  0.8612327E-01
       -1   -1    0    0    0  501  0.00000000000E+00  0.00000000000E+00  0.97231175126E+03  0.97231175127E+03  0.50400001928E-02 0.  1.
        1   -1    0    0  501    0  0.00000000000E+00  0.00000000000E+00 -0.10160080881E+04  0.10160080881E+04  0.50400001928E-02 0. -1.
    10030    2    1    2    0    0  0.00000000000E+00  0.00000000000E+00 -0.43696336826E+02  0.19883198394E+04  0.19878396348E+04 0.  0.
        5    1    3    3  502    0 -0.76564725906E+02  0.21941014950E+02 -0.10127998396E+04  0.10159375820E+04  0.46999998093E+01 0. -1.
       -5    1    3    3    0  502  0.76564725906E+02 -0.21941014950E+02  0.96910350278E+03  0.97238225739E+03  0.46999998093E+01 0.  1.
</event>
<event>
 5   0  0.4473361E-05  0.2003223E+04  0.7818609E-02  0.8605115E-01
       -2   -1    0    0    0  501  0.00000000000E+00  0.00000000000E+00  0.31212713512E+03  0.31212713513E+03  0.25500000920E-02 0.  1.
        2   -1    0    0  501    0  0.00000000000E+00  0.00000000000E+00 -0.32141568329E+04  0.32141568329E+04  0.25500000920E-02 0. -1.
    10030    2    1    2    0    0  0.00000000000E+00  0.00000000000E+00 -0.29020296978E+04  0.35262839680E+04  0.20032229672E+04 0.  0.
        2    1    3    3  502    0 -0.75995510676E+03 -0.36373437308E+03 -0.49753512128E+03  0.97845575033E+03  0.25500000920E-02 0.  1.
       -2    1    3    3    0  502  0.75995510676E+03  0.36373437308E+03 -0.24044945765E+04  0.25478282177E+04  0.25500000920E-02 0. -1.
</event>
<event>
 5   0  0.4577279E-05  0.2002462E+04  0.7818609E-02  0.8605470E-01
        2   -1    0    0  501    0  0.00000000000E+00  0.00000000000E+00  0.13087154803E+04  0.13087154803E+04  0.25500000920E-02 0. -1.
       -2   -1    0    0    0  501  0.00000000000E+00  0.00000000000E+00 -0.76599042220E+03  0.76599042221E+03  0.25500000920E-02 0.  1.
    10030    2    1    2    0    0  0.00000000000E+00  0.00000000000E+00  0.54272505810E+03  0.20747059025E+04  0.20024620079E+04 0.  0.
        1    1    3    3  502    0  0.67657653901E+03  0.56276809682E+02 -0.49108117170E+03  0.83790429625E+03  0.50400001928E-02 0.  1.
       -1    1    3    3    0  502 -0.67657653901E+03 -0.56276809682E+02  0.10338062298E+04  0.12368016063E+04  0.50400001928E-02 0. -1.
</event>
<event>
 5   0  0.4447313E-05  0.1994030E+04  0.7818609E-02  0.8609417E-01
       -2   -1    0    0    0  501  0.00000000000E+00  0.00000000000E+00  0.71772546981E+03  0.71772546981E+03  0.25500000920E-02 0. -1.
        2   -1    0    0  501    0  0.00000000000E+00  0.00000000000E+00 -0.13849849032E+04  0.13849849032E+04  0.25500000920E-02 0.  1.
    10030    2    1    2    0    0  0.00000000000E+00  0.00000000000E+00 -0.66725943335E+03  0.21027103730E+04  0.19940300302E+04 0.  0.
        5    1    3    3  502    0 -0.41675809730E+03  0.38302887311E+03 -0.11991051406E+04  0.13259991167E+04  0.46999998093E+01 0.  1.
       -5    1    3    3    0  502  0.41675809730E+03 -0.38302887311E+03  0.53184570725E+03  0.77671125627E+03  0.46999998093E+01 0. -1.
</event>
<event>
 5   0  0.1601500E-05  0.1997754E+04  0.7818609E-02  0.8607672E-01
       -3   -1    0    0    0  501  0.00000000000E+00  0.00000000000E+00  0.17615729791E+04  0.17615729820E+04  0.10100000352E+00 0.  1.
        3   -1    0    0  501    0  0.00000000000E+00  0.00000000000E+00 -0.56640011208E+03  0.56640012108E+03  0.10100000352E+00 0. -1.
    10030    2    1    2    0    0  0.00000000000E+00  0.00000000000E+00  0.11951728670E+04  0.23279731030E+04  0.19977538854E+04 0.  0.
        1    1    3    3  502    0 -0.27663419145E+03 -0.67501781288E+03  0.13927069440E+04  0.15721985102E+04  0.50400001928E-02 0.  1.
       -1    1    3    3    0  502  0.27663419145E+03  0.67501781288E+03 -0.19753407701E+03  0.75577459284E+03  0.50400001928E-02 0. -1.
</event>
<event>
 5   0  0.1601500E-05  0.1999808E+04  0.7818609E-02  0.8606711E-01
        4   -1    0    0  501    0  0.00000000000E+00  0.00000000000E+00  0.13857091565E+04  0.13857097385E+04  0.12699999809E+01 0.  1.
       -4   -1    0    0    0  501  0.00000000000E+00  0.00000000000E+00 -0.72151220373E+03  0.72151332145E+03  0.12699999809E+01 0. -1.
    10030    2    1    2    0    0  0.00000000000E+00  0.00000000000E+00  0.66419695281E+03  0.21072230600E+04  0.19998078488E+04 0.  0.
        5    1    3    3  502    0 -0.33799474391E+03  0.87865359124E+03  0.68711241256E+03  0.11655119638E+04  0.46999998093E+01 0. -1.
       -5    1    3    3    0  502  0.33799474391E+03 -0.87865359124E+03 -0.22915459748E+02  0.94171109614E+03  0.46999998093E+01 0.  1.
</event>
<event>
 5   0  0.4412054E-05  0.1994591E+04  0.7818609E-02  0.8609154E-01
        2   -1    0    0  501    0  0.00000000000E+00  0.00000000000E+00  0.14129191019E+04  0.14129191019E+04  0.25500000920E-02 0. -1.
       -2   -1    0    0    0  501  0.00000000000E+00  0.00000000000E+00 -0.70393134113E+03  0.70393134113E+03  0.25500000920E-02 0.  1.
    10030    2    1    2    0    0  0.00000000000E+00  0.00000000000E+00  0.70898776078E+03  0.21168504430E+04  0.19945907232E+04 0.  0.
        4    1    3    3  502    0  0.51379793658E+02  0.72892028965E+03  0.10747937189E+04  0.12996721983E+04  0.12699999809E+01 0. -1.
       -4    1    3    3    0  502 -0.51379793658E+02 -0.72892028965E+03 -0.36580595810E+03  0.81717824478E+03  0.12699999809E+01 0.  1.
</event>
<event>
 5   0  0.4577279E-05  0.2008847E+04  0.7818609E-02  0.8602495E-01
       -2   -1    0    0    0  501  0.00000000000E+00  0.00000000000E+00  0.77837166639E+03  0.77837166640E+03  0.25500000920E-02 0. -1.
        2   -1    0    0  501    0  0.00000000000E+00  0.00000000000E+00 -0.12961249765E+04  0.12961249765E+04  0.25500000920E-02 0.  1.
    10030    2    1    2    0    0  0.00000000000E+00  0.00000000000E+00 -0.51775331012E+03  0.20744966429E+04  0.20088473888E+04 0.  0.
        1    1    3    3  502    0  0.57944308276E+03  0.11036408578E+03 -0.10984223246E+04  0.12467823069E+04  0.50400001928E-02 0.  1.
       -1    1    3    3    0  502 -0.57944308276E+03 -0.11036408578E+03  0.58066901450E+03  0.82771433600E+03  0.50400001928E-02 0. -1.
</event>
<event>
 5   0  0.2007644E-05  0.1995906E+04  0.7818609E-02  0.8608537E-01
        1   -1    0    0  501    0  0.00000000000E+00  0.00000000000E+00  0.10322940616E+04  0.10322940616E+04  0.50400001928E-02 0. -1.
       -1   -1    0    0    0  501  0.00000000000E+00  0.00000000000E+00 -0.96475427458E+03  0.96475427459E+03  0.50400001928E-02 0.  1.
    10030    2    1    2    0    0  0.00000000000E+00  0.00000000000E+00  0.67539786973E+02  0.19970483362E+04  0.19959059182E+04 0.  0.
        1    1    3    3  502    0 -0.65358141263E+03  0.25186251814E+03 -0.67748627604E+03  0.97446962253E+03  0.50400001928E-02 0.  1.
       -1    1    3    3    0  502  0.65358141263E+03 -0.25186251814E+03  0.74502606301E+03  0.10225787136E+04  0.50400001928E-02 0. -1.
</event>
<event>
 5   0  0.2256868E-05  0.2022780E+04  0.7818609E-02  0.8596044E-01
        1   -1    0    0  501    0  0.00000000000E+00  0.00000000000E+00  0.80521906233E+03  0.80521906235E+03  0.50400001928E-02 0. -1.
       -1   -1    0    0    0  501  0.00000000000E+00  0.00000000000E+00 -0.12703499799E+04  0.12703499799E+04  0.50400001928E-02 0.  1.
    10030    2    1    2    0    0  0.00000000000E+00  0.00000000000E+00 -0.46513091754E+03  0.20755690422E+04  0.20227802843E+04 0.  0.
        5    1    3    3  502    0  0.51882564491E+03  0.88784146262E+02 -0.11187149963E+04  0.12363688799E+04  0.46999998093E+01 0.  1.
       -5    1    3    3    0  502 -0.51882564491E+03 -0.88784146262E+02  0.65358407871E+03  0.83920016229E+03  0.46999998093E+01 0. -1.
</event>
<event>
 5   0  0.4447313E-05  0.2004205E+04  0.7818609E-02  0.8604657E-01
        2   -1    0    0  501    0  0.00000000000E+00  0.00000000000E+00  0.48622118530E+03  0.48622118531E+03  0.25500000920E-02 0. -1.
       -2   -1    0    0    0  501  0.00000000000E+00  0.00000000000E+00 -0.20653349853E+04  0.20653349853E+04  0.25500000920E-02 0.  1.
    10030    2    1    2    0    0  0.00000000000E+00  0.00000000000E+00 -0.15791138000E+04  0.25515561706E+04  0.20042052037E+04 0.  0.
        5    1    3    3  502    0  0.52073430984E+02  0.27373064489E+03  0.43589642667E+03  0.51736630442E+03  0.46999998093E+01 0. -1.
       -5    1    3    3    0  502 -0.52073430984E+02 -0.27373064489E+03 -0.20150102267E+04  0.20341898662E+04  0.46999998093E+01 0.  1.
</event>
<event>
 5   0  0.4447313E-05  0.2000337E+04  0.7818609E-02  0.8606463E-01
        2   -1    0    0  501    0  0.00000000000E+00  0.00000000000E+00  0.23311117454E+04  0.23311117454E+04  0.25500000920E-02 0. -1.
       -2   -1    0    0    0  501  0.00000000000E+00  0.00000000000E+00 -0.42912433198E+03  0.42912433198E+03  0.25500000920E-02 0.  1.
    10030    2    1    2    0    0  0.00000000000E+00  0.00000000000E+00  0.19019874134E+04  0.27602360774E+04  0.20003367422E+04 0.  0.
        5    1    3    3  502    0  0.19128177202E+03  0.87449384684E+03  0.15665317453E+04  0.18042649482E+04  0.46999998093E+01 0. -1.
       -5    1    3    3    0  502 -0.19128177202E+03 -0.87449384684E+03  0.33545566812E+03  0.95597112913E+03  0.46999998093E+01 0.  1.
</event>
<event>
 5   0  0.4447313E-05  0.1993524E+04  0.7818609E-02  0.8609654E-01
       -2   -1    0    0    0  501  0.00000000000E+00  0.00000000000E+00  0.69402917004E+03  0.69402917004E+03  0.25500000920E-02 0. -1.
        2   -1    0    0  501    0  0.00000000000E+00  0.00000000000E+00 -0.14315460394E+04  0.14315460394E+04  0.25500000920E-02 0.  1.
    10030    2    1    2    0    0  0.00000000000E+00  0.00000000000E+00 -0.73751686933E+03  0.21255752094E+04  0.19935242257E+04 0.  0.
        5    1    3    3  502    0  0.36341591624E+02  0.50220761587E+03 -0.12859599826E+04  0.13810316316E+04  0.46999998093E+01 0.  1.
       -5    1    3    3    0  502 -0.36341591624E+02 -0.50220761587E+03  0.54844311327E+03  0.74454357778E+03  0.46999998093E+01 0. -1.
</event>
<event>
 5   0  0.4412054E-05  0.2000422E+04  0.7818609E-02  0.8606424E-01
       -2   -1    0    0    0  501  0.00000000000E+00  0.00000000000E+00  0.12825000875E+04  0.12825000875E+04  0.25500000920E-02 0.  1.
        2   -1    0    0  501    0  0.00000000000E+00  0.00000000000E+00 -0.78005578640E+03  0.78005578640E+03  0.25500000920E-02 0. -1.
    10030    2    1    2    0    0  0.00000000000E+00  0.00000000000E+00  0.50244430108E+03  0.20625558739E+04  0.20004215699E+04 0.  0.
        4    1    3    3  502    0  0.54890401132E+03 -0.43850584573E+03 -0.48281552968E+03  0.85246433297E+03  0.12699999809E+01 0. -1.
       -4    1    3    3    0  502 -0.54890401132E+03  0.43850584573E+03  0.98525983076E+03  0.12100915409E+04  0.12699999809E+01 0.  1.
</event>
<event>
 5   0  0.4412054E-05  0.2003006E+04  0.7818609E-02  0.8605216E-01
       -2   -1    0    0    0  501  0.00000000000E+00  0.00000000000E+00  0.78410757166E+03  0.78410757166E+03  0.25500000920E-02 0. -1.
        2   -1    0    0  501    0  0.00000000000E+00  0.00000000000E+00 -0.12791721979E+04  0.12791721979E+04  0.25500000920E-02 0.  1.
    10030    2    1    2    0    0  0.00000000000E+00  0.00000000000E+00 -0.49506462625E+03  0.20632797696E+04  0.20030063463E+04 0.  0.
        4    1    3    3  502    0 -0.31389802833E+03  0.28623793542E+03 -0.11817650132E+04  0.12558002577E+04  0.12699999809E+01 0.  1.
       -4    1    3    3    0  502  0.31389802833E+03 -0.28623793542E+03  0.68670038692E+03  0.80747951192E+03  0.12699999809E+01 0. -1.
</event>
<event>
 5   0  0.2256868E-05  0.2002267E+04  0.7818609E-02  0.8605562E-01
        1   -1    0    0  501    0  0.00000000000E+00  0.00000000000E+00  0.23111439502E+04  0.23111439503E+04  0.50400001928E-02 0.  1.
       -1   -1    0    0    0  501  0.00000000000E+00  0.00000000000E+00 -0.43366743660E+03  0.43366743663E+03  0.50400001928E-02 0. -1.
    10030    2    1    2    0    0  0.00000000000E+00  0.00000000000E+00  0.18774765136E+04  0.27448113869E+04  0.20022665882E+04 0.  0.
        5    1    3    3  502    0  0.37694076218E+03 -0.92662181556E+03  0.88505656842E+03  0.13356869194E+04  0.46999998093E+01 0.  1.
       -5    1    3    3    0  502 -0.37694076218E+03  0.92662181556E+03  0.99241994523E+03  0.14091244675E+04  0.46999998093E+01 0. -1.
</event>
<event>
 5   0  0.4514680E-05  0.2008647E+04  0.7818609E-02  0.8602589E-01
       -2   -1    0    0    0  501  0.00000000000E+00  0.00000000000E+00  0.72652571121E+03  0.72652571122E+03  0.25500000920E-02 0.  1.
        2   -1    0    0  501    0  0.00000000000E+00  0.00000000000E+00 -0.13883406725E+04  0.13883406725E+04  0.25500000920E-02 0. -1.
    10030    2    1    2    0    0  0.00000000000E+00  0.00000000000E+00 -0.66181496125E+03  0.21148663837E+04  0.20086465040E+04 0.  0.
        3    1    3    3  502    0  0.19200335523E+03 -0.98456471090E+03 -0.27898189828E+03  0.10411838782E+04  0.10100000352E+00 0. -1.
       -3    1    3    3    0  502 -0.19200335523E+03  0.98456471090E+03 -0.38283306296E+03  0.10736825055E+04  0.10100000352E+00 0.  1.
</event>
<event>
 5   0  0.4473361E-05  0.2034669E+04  0.7818609E-02  0.8590581E-01
       -2   -1    0    0    0  501  0.00000000000E+00  0.00000000000E+00  0.81004276669E+03  0.81004276670E+03  0.25500000920E-02 0.  1.
        2   -1    0    0  501    0  0.00000000000E+00  0.00000000000E+00 -0.12776728096E+04  0.12776728096E+04  0.25500000920E-02 0. -1.
    10030    2    1    2    0    0  0.00000000000E+00  0.00000000000E+00 -0.46763004292E+03  0.20877155763E+04  0.20346691305E+04 0.  0.
        2    1    3    3  502    0 -0.87819949722E+03  0.50585155938E+03 -0.14290799714E+03  0.10234954092E+04  0.25500000920E-02 0. -1.
       -2    1    3    3    0  502  0.87819949722E+03 -0.50585155938E+03 -0.32472204578E+03  0.10642201671E+04  0.25500000920E-02 0.  1.
</event>
<event>
 5   0  0.2007644E-05  0.1993674E+04  0.7818609E-02  0.8609584E-01
       -1   -1    0    0    0  501  0.00000000000E+00  0.00000000000E+00  0.15328475435E+04  0.15328475435E+04  0.50400001928E-02 0. -1.
        1   -1    0    0  501    0  0.00000000000E+00  0.00000000000E+00 -0.64826048303E+03  0.64826048305E+03  0.50400001928E-02 0.  1.
    10030    2    1    2    0    0  0.00000000000E+00  0.00000000000E+00  0.88458706048E+03  0.21811080266E+04  0.19936744860E+04 0.  0.
        1    1    3    3  502    0  0.26886952829E+03  0.42787595853E+03 -0.49774145054E+03  0.70930614740E+03  0.50400001928E-02 0.  1.
       -1    1    3    3    0  502 -0.26886952829E+03 -0.42787595853E+03  0.13823285110E+04  0.14718018792E+04  0.50400001928E-02 0. -1.
</event>
<event>
 5   0  0.4447313E-05  0.2011103E+04  0.7818609E-02  0.8601447E-01
       -2   -1    0    0    0  501  0.00000000000E+00  0.00000000000E+00  0.50200980602E+03  0.50200980603E+03  0.25500000920E-02 0.  1.
        2   -1    0    0  501    0  0.00000000000E+00  0.00000000000E+00 -0.20141705427E+04  0.20141705427E+04  0.25500000920E-02 0. -1.
    10030    2    1    2    0    0  0.00000000000E+00  0.00000000000E+00 -0.15121607367E+04  0.25161803487E+04  0.20111025468E+04 0.  0.
        5    1    3    3  502    0  0.23507120747E+03 -0.50790205587E+03  0.28912229992E+03  0.62994981169E+03  0.46999998093E+01 0.  1.
       -5    1    3    3    0  502 -0.23507120747E+03  0.50790205587E+03 -0.18012830366E+04  0.18862305370E+04  0.46999998093E+01 0. -1.
</event>
<event>
 5   0  0.4473361E-05  0.2028912E+04  0.7818609E-02  0.8593221E-01
       -2   -1    0    0    0  501  0.00000000000E+00  0.00000000000E+00  0.89465222471E+03  0.89465222471E+03  0.25500000920E-02 0.  1.
        2   -1    0    0  501    0  0.00000000000E+00  0.00000000000E+00 -0.11503029083E+04  0.11503029083E+04  0.25500000920E-02 0. -1.
    10030    2    1    2    0    0  0.00000000000E+00  0.00000000000E+00 -0.25565068354E+03  0.20449551330E+04  0.20289120789E+04 0.  0.
        2    1    3    3  502    0 -0.28108756941E+03  0.13367121457E+03 -0.11009872125E+04  0.11441376917E+04  0.25500000920E-02 0. -1.
       -2    1    3    3    0  502  0.28108756941E+03 -0.13367121457E+03  0.84533652901E+03  0.90081744131E+03  0.25500000920E-02 0.  1.
</event>
<event>
 5   0  0.2007644E-05  0.1998162E+04  0.7818609E-02  0.8607481E-01
        1   -1    0    0  501    0  0.00000000000E+00  0.00000000000E+00  0.12210432581E+04  0.12210432581E+04  0.50400001928E-02 0.  1.
       -1   -1    0    0    0  501  0.00000000000E+00  0.00000000000E+00 -0.81746701303E+03  0.81746701305E+03  0.50400001928E-02 0. -1.
    10030    2    1    2    0    0  0.00000000000E+00  0.00000000000E+00  0.40357624502E+03  0.20385102711E+04  0.19981617402E+04 0.  0.
        1    1    3    3  502    0 -0.68548989843E+03  0.17066169886E+03  0.92255328403E+03  0.11619493871E+04  0.50400001928E-02 0.  1.
       -1    1    3    3    0  502  0.68548989843E+03 -0.17066169886E+03 -0.51897703901E+03  0.87656088400E+03  0.50400001928E-02 0. -1.
</event>
<event>
 5   0  0.4447313E-05  0.2007185E+04  0.7818609E-02  0.8603269E-01
       -2   -1    0    0    0  501  0.00000000000E+00  0.00000000000E+00  0.69960038916E+03  0.69960038917E+03  0.25500000920E-02 0. -1.
        2   -1    0    0  501    0  0.00000000000E+00  0.00000000000E+00 -0.14396757968E+04  0.14396757968E+04  0.25500000920E-02 0.  1.
    10030    2    1    2    0    0  0.00000000000E+00  0.00000000000E+00 -0.74007540766E+03  0.21392761860E+04  0.20071848422E+04 0.  0.
        5    1    3    3  502    0 -0.15389723616E+03 -0.52202865634E+03  0.52864706262E+03  0.75874111801E+03  0.46999998093E+01 0. -1.
       -5    1    3    3    0  502  0.15389723616E+03  0.52202865634E+03 -0.12687224703E+04  0.13805350680E+04  0.46999998093E+01 0.  1.
</event>
<event>
 5   0  0.4447313E-05  0.1926027E+04  0.7818609E-02  0.8642009E-01
        2   -1    0    0  501    0  0.00000000000E+00  0.00000000000E+00  0.99948824051E+03  0.99948824051E+03  0.25500000920E-02 0. -1.
       -2   -1    0    0    0  501  0.00000000000E+00  0.00000000000E+00 -0.92786938273E+03  0.92786938273E+03  0.25500000920E-02 0.  1.
    10030    2    1    2    0    0  0.00000000000E+00  0.00000000000E+00  0.71618857775E+02  0.19273576232E+04  0.19260265178E+04 0.  0.
        5    1    3    3  502    0  0.84064423601E+03 -0.34074895922E+03  0.35942102534E+03  0.97570392446E+03  0.46999998093E+01 0.  1.
       -5    1    3    3    0  502 -0.84064423601E+03  0.34074895922E+03 -0.28780216757E+03  0.95165369878E+03  0.46999998093E+01 0. -1.
</event>
<event>
 5   0  0.4514680E-05  0.1996289E+04  0.7818609E-02  0.8608358E-01
       -2   -1    0    0    0  501  0.00000000000E+00  0.00000000000E+00  0.50977158071E+03  0.50977158071E+03  0.25500000920E-02 0.  1.
        2   -1    0    0  501    0  0.00000000000E+00  0.00000000000E+00 -0.19543897575E+04  0.19543897575E+04  0.25500000920E-02 0. -1.
    10030    2    1    2    0    0  0.00000000000E+00  0.00000000000E+00 -0.14446181768E+04  0.24641613382E+04  0.19962889130E+04 0.  0.
        3    1    3    3  502    0  0.22443165444E+03  0.36474864992E+03  0.39059896339E+03  0.57963670134E+03  0.10100000352E+00 0.  1.
       -3    1    3    3    0  502 -0.22443165444E+03 -0.36474864992E+03 -0.18352171402E+04  0.18845246368E+04  0.10100000352E+00 0. -1.
</event>
<event>
 5   0  0.2093980E-05  0.2004232E+04  0.7818609E-02  0.8604644E-01
        1   -1    0    0  501    0  0.00000000000E+00  0.00000000000E+00  0.59853577621E+03  0.59853577623E+03  0.50400001928E-02 0.  1.
       -1   -1    0    0    0  501  0.00000000000E+00  0.00000000000E+00 -0.16778224516E+04  0.16778224516E+04  0.50400001928E-02 0. -1.
    10030    2    1    2    0    0  0.00000000000E+00  0.00000000000E+00 -0.10792866754E+04  0.22763582279E+04  0.20042322854E+04 0.  0.
        2    1    3    3  502    0  0.43370338558E+03 -0.36329873633E+03 -0.14790830321E+04  0.15835943971E+04  0.25500000920E-02 0. -1.
       -2    1    3    3    0  502 -0.43370338558E+03  0.36329873633E+03  0.39979635668E+03  0.69276383083E+03  0.25500000920E-02 0.  1.
</event>
<event>
 5   0  0.2256868E-05  0.1990863E+04  0.7818609E-02  0.8610904E-01
        1   -1    0    0  501    0  0.00000000000E+00  0.00000000000E+00  0.19796906645E+04  0.19796906646E+04  0.50400001928E-02 0. -1.
       -1   -1    0    0    0  501  0.00000000000E+00  0.00000000000E+00 -0.50052471597E+03  0.50052471600E+03  0.50400001928E-02 0.  1.
    10030    2    1    2    0    0  0.00000000000E+00  0.00000000000E+00  0.14791659486E+04  0.24802153806E+04  0.19908632375E+04 0.  0.
        5    1    3    3  502    0  0.22333459520E+03 -0.59094259985E+03 -0.21876809620E+03  0.66856044427E+03  0.46999998093E+01 0.  1.
       -5    1    3    3    0  502 -0.22333459520E+03  0.59094259985E+03  0.16979340448E+04  0.18116549363E+04  0.46999998093E+01 0. -1.
</event>
<event>
 5   0  0.4473361E-05  0.1993892E+04  0.7818609E-02  0.8609482E-01
        2   -1    0    0  501    0  0.00000000000E+00  0.00000000000E+00  0.99134058156E+03  0.99134058156E+03  0.25500000920E-02 0. -1.
       -2   -1    0    0    0  501  0.00000000000E+00  0.00000000000E+00 -0.10025827838E+04  0.10025827838E+04  0.25500000920E-02 0.  1.
    10030    2    1    2    0    0  0.00000000000E+00  0.00000000000E+00 -0.11242202242E+02  0.19939233654E+04  0.19938916720E+04 0.  0.
        2    1    3    3  502    0 -0.46089276141E+02 -0.88026267939E+03 -0.47136919796E+03  0.99958767844E+03  0.25500000920E-02 0.  1.
       -2    1    3    3    0  502  0.46089276141E+02  0.88026267939E+03  0.46012699571E+03  0.99433568692E+03  0.25500000920E-02 0. -1.
</event>
<event>
 5   0  0.4577279E-05  0.2003195E+04  0.7818609E-02  0.8605129E-01
       -2   -1    0    0    0  501  0.00000000000E+00  0.00000000000E+00  0.72870778753E+03  0.72870778753E+03  0.25500000920E-02 0.  1.
        2   -1    0    0  501    0  0.00000000000E+00  0.00000000000E+00 -0.13766797033E+04  0.13766797033E+04  0.25500000920E-02 0. -1.
    10030    2    1    2    0    0  0.00000000000E+00  0.00000000000E+00 -0.64797191578E+03  0.21053874908E+04  0.20031946693E+04 0.  0.
        1    1    3    3  502    0 -0.56484884152E+03  0.31991480806E+03  0.47768253662E+03  0.80596544839E+03  0.50400001928E-02 0.  1.
       -1    1    3    3    0  502  0.56484884152E+03 -0.31991480806E+03 -0.11256544524E+04  0.12994220425E+04  0.50400001928E-02 0. -1.
</event>
<event>
 5   0  0.2093980E-05  0.2002179E+04  0.7818609E-02  0.8605602E-01
        1   -1    0    0  501    0  0.00000000000E+00  0.00000000000E+00  0.15041680061E+04  0.15041680061E+04  0.50400001928E-02 0.  1.
       -1   -1    0    0    0  501  0.00000000000E+00  0.00000000000E+00 -0.66626908494E+03  0.66626908496E+03  0.50400001928E-02 0. -1.
    10030    2    1    2    0    0  0.00000000000E+00  0.00000000000E+00  0.83789892119E+03  0.21704370911E+04  0.20021794536E+04 0.  0.
        2    1    3    3  502    0 -0.16337139619E+03  0.80652477122E+03  0.10369535883E+04  0.13237995180E+04  0.25500000920E-02 0.  1.
       -2    1    3    3    0  502  0.16337139619E+03 -0.80652477122E+03 -0.19905466707E+03  0.84663757309E+03  0.25500000920E-02 0. -1.
</event>
<event>
 5   0  0.2142551E-05  0.2000418E+04  0.7818609E-02  0.8606425E-01
       -1   -1    0    0    0  501  0.00000000000E+00  0.00000000000E+00  0.12090917612E+04  0.12090917612E+04  0.50400001928E-02 0. -1.
        1   -1    0    0  501    0  0.00000000000E+00  0.00000000000E+00 -0.82741291229E+03  0.82741291230E+03  0.50400001928E-02 0.  1.
    10030    2    1    2    0    0  0.00000000000E+00  0.00000000000E+00  0.38167884889E+03  0.20365046735E+04  0.20004180917E+04 0.  0.
        3    1    3    3  502    0 -0.36899476290E+03 -0.25218926529E+03  0.11017780720E+04  0.11889791801E+04  0.10100000352E+00 0. -1.
       -3    1    3    3    0  502  0.36899476290E+03  0.25218926529E+03 -0.72009922313E+03  0.84752549338E+03  0.10100000352E+00 0.  1.
</event>
<event>
 5   0  0.4473361E-05  0.2010538E+04  0.7818609E-02  0.8601710E-01
        2   -1    0    0  501    0  0.00000000000E+00  0.00000000000E+00  0.15455530921E+04  0.15455530921E+04  0.25500000920E-02 0.  1.
       -2   -1    0    0    0  501  0.00000000000E+00  0.00000000000E+00 -0.65385351891E+03  0.65385351891E+03  0.25500000920E-02 0. -1.
    10030    2    1    2    0    0  0.00000000000E+00  0.00000000000E+00  0.89169957322E+03  0.21994066110E+04  0.20105375679E+04 0.  0.
        2    1    3    3  502    0 -0.95571125700E+03 -0.59048605543E+02  0.78069999673E+03  0.12354607357E+04  0.25500000920E-02 0. -1.
       -2    1    3    3    0  502  0.95571125700E+03  0.59048605543E+02  0.11099957648E+03  0.96394587533E+03  0.25500000920E-02 0.  1.
</event>
<event>
 5   0  0.2007644E-05  0.2007776E+04  0.7818609E-02  0.8602994E-01
       -1   -1    0    0    0  501  0.00000000000E+00  0.00000000000E+00  0.70570852532E+03  0.70570852534E+03  0.50400001928E-02 0. -1.
        1   -1    0    0  501    0  0.00000000000E+00  0.00000000000E+00 -0.14280556810E+04  0.14280556810E+04  0.50400001928E-02 0.  1.
    10030    2    1    2    0    0  0.00000000000E+00  0.00000000000E+00 -0.72234715570E+03  0.21337642064E+04  0.20077759524E+04 0.  0.
        1    1    3    3  502    0 -0.30742587659E+03  0.91050945075E+03 -0.52695925115E+02  0.96245259106E+03  0.50400001928E-02 0. -1.
       -1    1    3    3    0  502  0.30742587659E+03 -0.91050945075E+03 -0.66965123059E+03  0.11713116153E+04  0.50400001928E-02 0.  1.
</event>
<event>
 5   0  0.2007644E-05  0.2001445E+04  0.7818609E-02  0.8605945E-01
       -1   -1    0    0    0  501  0.00000000000E+00  0.00000000000E+00  0.88570084664E+03  0.88570084665E+03  0.50400001928E-02 0. -1.
        1   -1    0    0  501    0  0.00000000000E+00  0.00000000000E+00 -0.11306814054E+04  0.11306814054E+04  0.50400001928E-02 0.  1.
    10030    2    1    2    0    0  0.00000000000E+00  0.00000000000E+00 -0.24498055872E+03  0.20163822520E+04  0.20014449561E+04 0.  0.
        1    1    3    3  502    0 -0.23833548637E+02 -0.33081851960E+03  0.82871539685E+03  0.89262429944E+03  0.50400001928E-02 0. -1.
       -1    1    3    3    0  502  0.23833548637E+02  0.33081851960E+03 -0.10736959556E+04  0.11237579526E+04  0.50400001928E-02 0.  1.
</event>
<event>
 5   0  0.2093980E-05  0.1946589E+04  0.7818609E-02  0.8632007E-01
        1   -1    0    0  501    0  0.00000000000E+00  0.00000000000E+00  0.84400525588E+03  0.84400525589E+03  0.50400001928E-02 0. -1.
       -1   -1    0    0    0  501  0.00000000000E+00  0.00000000000E+00 -0.11223888035E+04  0.11223888035E+04  0.50400001928E-02 0.  1.
    10030    2    1    2    0    0  0.00000000000E+00  0.00000000000E+00 -0.27838354762E+03  0.19663940594E+04  0.19465888619E+04 0.  0.
        2    1    3    3  502    0 -0.18511985815E+03  0.73927205268E+03 -0.75075160075E+03  0.10697759091E+04  0.25500000920E-02 0.  1.
       -2    1    3    3    0  502  0.18511985815E+03 -0.73927205268E+03  0.47236805313E+03  0.89661815026E+03  0.25500000920E-02 0. -1.
</event>
<event>
 5   0  0.4412054E-05  0.1995429E+04  0.7818609E-02  0.8608761E-01
       -2   -1    0    0    0  501  0.00000000000E+00  0.00000000000E+00  0.96772414531E+03  0.96772414531E+03  0.25500000920E-02 0.  1.
        2   -1    0    0  501    0  0.00000000000E+00  0.00000000000E+00 -0.10286337957E+04  0.10286337957E+04  0.25500000920E-02 0. -1.
    10030    2    1    2    0    0  0.00000000000E+00  0.00000000000E+00 -0.60909650351E+02  0.19963579410E+04  0.19954285362E+04 0.  0.
        4    1    3    3  502    0 -0.26756507181E+03  0.78776724196E+03  0.52049564363E+03  0.98136925930E+03  0.12699999809E+01 0.  1.
       -4    1    3    3    0  502  0.26756507181E+03 -0.78776724196E+03 -0.58140529398E+03  0.10149886817E+04  0.12699999809E+01 0. -1.
</event>
<event>
 5   0  0.1601500E-05  0.2002018E+04  0.7818609E-02  0.8605678E-01
        4   -1    0    0  501    0  0.00000000000E+00  0.00000000000E+00  0.14972533366E+04  0.14972538752E+04  0.12699999809E+01 0.  1.
       -4   -1    0    0    0  501  0.00000000000E+00  0.00000000000E+00 -0.66923716551E+03  0.66923837053E+03  0.12699999809E+01 0. -1.
    10030    2    1    2    0    0  0.00000000000E+00  0.00000000000E+00  0.82801617105E+03  0.21664922457E+04  0.20020184493E+04 0.  0.
        2    1    3    3  502    0  0.46654767916E+03 -0.45784697749E+03  0.12343984909E+04  0.13967928358E+04  0.25500000920E-02 0.  1.
       -2    1    3    3    0  502 -0.46654767916E+03  0.45784697749E+03 -0.40638231986E+03  0.76969940992E+03  0.25500000920E-02 0. -1.
</event>
<event>
 5   0  0.4412054E-05  0.1994049E+04  0.7818609E-02  0.8609408E-01
       -2   -1    0    0    0  501  0.00000000000E+00  0.00000000000E+00  0.98260931526E+03  0.98260931526E+03  0.25500000920E-02 0. -1.
        2   -1    0    0  501    0  0.00000000000E+00  0.00000000000E+00 -0.10116513152E+04  0.10116513152E+04  0.25500000920E-02 0.  1.
    10030    2    1    2    0    0  0.00000000000E+00  0.00000000000E+00 -0.29041999957E+02  0.19942606305E+04  0.19940491530E+04 0.  0.
        4    1    3    3  502    0 -0.20648686211E+03 -0.88466622223E+03 -0.42539938460E+03  0.10031138511E+04  0.12699999809E+01 0.  1.
       -4    1    3    3    0  502  0.20648686211E+03  0.88466622223E+03  0.39635738465E+03  0.99114677936E+03  0.12699999809E+01 0. -1.
</event>
<event>
 5   0  0.4577279E-05  0.2009443E+04  0.7818609E-02  0.8602218E-01
       -2   -1    0    0    0  501  0.00000000000E+00  0.00000000000E+00  0.70632315347E+03  0.70632315348E+03  0.25500000920E-02 0.  1.
        2   -1    0    0  501    0  0.00000000000E+00  0.00000000000E+00 -0.14291834520E+04  0.14291834520E+04  0.25500000920E-02 0. -1.
    10030    2    1    2    0    0  0.00000000000E+00  0.00000000000E+00 -0.72286029857E+03  0.21355066055E+04  0.20094430698E+04 0.  0.
        1    1    3    3  502    0  0.69087142889E+03  0.16647908434E+03 -0.11162318586E+04  0.13232506108E+04  0.50400001928E-02 0. -1.
       -1    1    3    3    0  502 -0.69087142889E+03 -0.16647908434E+03  0.39337155999E+03  0.81225599476E+03  0.50400001928E-02 0.  1.
</event>
<event>
 5   0  0.4447313E-05  0.1995341E+04  0.7818609E-02  0.8608802E-01
       -2   -1    0    0    0  501  0.00000000000E+00  0.00000000000E+00  0.59552241170E+03  0.59552241171E+03  0.25500000920E-02 0. -1.
        2   -1    0    0  501    0  0.00000000000E+00  0.00000000000E+00 -0.16713841538E+04  0.16713841538E+04  0.25500000920E-02 0.  1.
    10030    2    1    2    0    0  0.00000000000E+00  0.00000000000E+00 -0.10758617421E+04  0.22669065655E+04  0.19953412963E+04 0.  0.
        5    1    3    3  502    0  0.72137944007E+02  0.23982834117E+03  0.55921623124E+03  0.61275313094E+03  0.46999998093E+01 0. -1.
       -5    1    3    3    0  502 -0.72137944007E+02 -0.23982834117E+03 -0.16350779733E+04  0.16541534346E+04  0.46999998093E+01 0.  1.
</event>
<event>
 5   0  0.4514680E-05  0.1998360E+04  0.7818609E-02  0.8607388E-01
       -2   -1    0    0    0  501  0.00000000000E+00  0.00000000000E+00  0.43923758397E+03  0.43923758398E+03  0.25500000920E-02 0.  1.
        2   -1    0    0  501    0  0.00000000000E+00  0.00000000000E+00 -0.22729391923E+04  0.22729391923E+04  0.25500000920E-02 0. -1.
    10030    2    1    2    0    0  0.00000000000E+00  0.00000000000E+00 -0.18337016083E+04  0.27121767763E+04  0.19983596467E+04 0.  0.
        3    1    3    3  502    0 -0.70466474229E+03 -0.67211745192E+03 -0.12205306475E+04  0.15614062059E+04  0.10100000352E+00 0. -1.
       -3    1    3    3    0  502  0.70466474229E+03  0.67211745192E+03 -0.61317096085E+03  0.11507705704E+04  0.10100000352E+00 0.  1.
</event>
<event>
 5   0  0.4412054E-05  0.2005769E+04  0.7818609E-02  0.8603928E-01
       -2   -1    0    0    0  501  0.00000000000E+00  0.00000000000E+00  0.81347979404E+03  0.81347979405E+03  0.25500000920E-02 0.  1.
        2   -1    0    0  501    0  0.00000000000E+00  0.00000000000E+00 -0.12363888694E+04  0.12363888694E+04  0.25500000920E-02 0. -1.
    10030    2    1    2    0    0  0.00000000000E+00  0.00000000000E+00 -0.42290907533E+03  0.20498686634E+04  0.20057690424E+04 0.  0.
        4    1    3    3  502    0 -0.27498523399E+03 -0.42241605239E+03  0.67462802544E+03  0.84212634791E+03  0.12699999809E+01 0.  1.
       -4    1    3    3    0  502  0.27498523399E+03  0.42241605239E+03 -0.10975371008E+04  0.12077423155E+04  0.12699999809E+01 0. -1.
</event>
<event>
 5   0  0.2142551E-05  0.2001222E+04  0.7818609E-02  0.8606049E-01
       -1   -1    0    0    0  501  0.00000000000E+00  0.00000000000E+00  0.11967609603E+04  0.11967609603E+04  0.50400001928E-02 0. -1.
        1   -1    0    0  501    0  0.00000000000E+00  0.00000000000E+00 -0.83661026989E+03  0.83661026990E+03  0.50400001928E-02 0.  1.
    10030    2    1    2    0    0  0.00000000000E+00  0.00000000000E+00  0.36015069039E+03  0.20333712302E+04  0.20012221366E+04 0.  0.
        3    1    3    3  502    0 -0.84290110835E+03  0.34318178423E+03  0.60264893939E+03  0.10915318455E+04  0.10100000352E+00 0. -1.
       -3    1    3    3    0  502  0.84290110835E+03 -0.34318178423E+03 -0.24249824900E+03  0.94183938464E+03  0.10100000352E+00 0.  1.
</event>
<event>
 5   0  0.2093980E-05  0.2002917E+04  0.7818609E-02  0.8605258E-01
        1   -1    0    0  501    0  0.00000000000E+00  0.00000000000E+00  0.17625995151E+04  0.17625995151E+04  0.50400001928E-02 0.  1.
       -1   -1    0    0    0  501  0.00000000000E+00  0.00000000000E+00 -0.56900003065E+03  0.56900003067E+03  0.50400001928E-02 0. -1.
    10030    2    1    2    0    0  0.00000000000E+00  0.00000000000E+00  0.11935994844E+04  0.23315995458E+04  0.20029170508E+04 0.  0.
        2    1    3    3  502    0  0.51455961168E+03  0.12829369085E+03  0.15857303861E+04  0.16720561362E+04  0.25500000920E-02 0.  1.
       -2    1    3    3    0  502 -0.51455961168E+03 -0.12829369085E+03 -0.39213090167E+03  0.65954340959E+03  0.25500000920E-02 0. -1.
</event>
<event>
 5   0  0.2142551E-05  0.1979192E+04  0.7818609E-02  0.8616411E-01
        1   -1    0    0  501    0  0.00000000000E+00  0.00000000000E+00  0.66008420133E+03  0.66008420135E+03  0.50400001928E-02 0. -1.
       -1   -1    0    0    0  501  0.00000000000E+00  0.00000000000E+00 -0.14835989640E+04  0.14835989640E+04  0.50400001928E-02 0.  1.
    10030    2    1    2    0    0  0.00000000000E+00  0.00000000000E+00 -0.82351476269E+03  0.21436831654E+04  0.19791919940E+04 0.  0.
        3    1    3    3  502    0  0.94821881286E+03 -0.14872499125E+03 -0.67274467682E+03  0.11721021502E+04  0.10100000352E+00 0.  1.
       -3    1    3    3    0  502 -0.94821881286E+03  0.14872499125E+03 -0.15077008586E+03  0.97158101519E+03  0.10100000352E+00 0. -1.
</event>
<event>
 5   0  0.4412054E-05  0.1994824E+04  0.7818609E-02  0.8609045E-01
       -2   -1    0    0    0  501  0.00000000000E+00  0.00000000000E+00  0.59845842366E+03  0.59845842367E+03  0.25500000920E-02 0. -1.
        2   -1    0    0  501    0  0.00000000000E+00  0.00000000000E+00 -0.16623214687E+04  0.16623214687E+04  0.25500000920E-02 0.  1.
    10030    2    1    2    0    0  0.00000000000E+00  0.00000000000E+00 -0.10638630451E+04  0.22607798924E+04  0.19948235870E+04 0.  0.
        4    1    3    3  502    0  0.56143029495E+03 -0.30001548779E+03  0.33830678670E+03  0.72087888291E+03  0.12699999809E+01 0. -1.
       -4    1    3    3    0  502 -0.56143029495E+03  0.30001548779E+03 -0.14021698318E+04  0.15399010095E+04  0.12699999809E+01 0.  1.
</event>
<event>
 5   0  0.2007644E-05  0.1997949E+04  0.7818609E-02  0.8607580E-01
       -1   -1    0    0    0  501  0.00000000000E+00  0.00000000000E+00  0.11589629044E+04  0.11589629045E+04  0.50400001928E-02 0. -1.
        1   -1    0    0  501    0  0.00000000000E+00  0.00000000000E+00 -0.86107195382E+03  0.86107195384E+03  0.50400001928E-02 0.  1.
    10030    2    1    2    0    0  0.00000000000E+00  0.00000000000E+00  0.29789095062E+03  0.20200348583E+04  0.19979494013E+04 0.  0.
        1    1    3    3  502    0  0.14357169353E+03  0.35396249940E+03 -0.78432269143E+03  0.87239003117E+03  0.50400001928E-02 0.  1.
       -1    1    3    3    0  502 -0.14357169353E+03 -0.35396249940E+03  0.10822136420E+04  0.11476448271E+04  0.50400001928E-02 0. -1.
</event>
<event>
 5   0  0.2256868E-05  0.1960928E+04  0.7818609E-02  0.8625109E-01
       -1   -1    0    0    0  501  0.00000000000E+00  0.00000000000E+00  0.14950534152E+04  0.14950534152E+04  0.50400001928E-02 0. -1.
        1   -1    0    0  501    0  0.00000000000E+00  0.00000000000E+00 -0.64299357769E+03  0.64299357771E+03  0.50400001928E-02 0.  1.
    10030    2    1    2    0    0  0.00000000000E+00  0.00000000000E+00  0.85205983747E+03  0.21380469929E+04  0.19609280908E+04 0.  0.
        5    1    3    3  502    0 -0.42249997386E+03 -0.75271690685E+03 -0.80939896168E+02  0.86698461726E+03  0.46999998093E+01 0.  1.
       -5    1    3    3    0  502  0.42249997386E+03  0.75271690685E+03  0.93299973364E+03  0.12710623756E+04  0.46999998093E+01 0. -1.
</event>
<event>
 5   0  0.2007644E-05  0.1999559E+04  0.7818609E-02  0.8606827E-01
        1   -1    0    0  501    0  0.00000000000E+00  0.00000000000E+00  0.68093385583E+03  0.68093385584E+03  0.50400001928E-02 0. -1.
       -1   -1    0    0    0  501  0.00000000000E+00  0.00000000000E+00 -0.14679239016E+04  0.14679239016E+04  0.50400001928E-02 0.  1.
    10030    2    1    2    0    0  0.00000000000E+00  0.00000000000E+00 -0.78699004574E+03  0.21488577574E+04  0.19995590338E+04 0.  0.
        1    1    3    3  502    0 -0.48172831303E+03  0.42035717359E+03  0.43252864454E+03  0.77190889964E+03  0.50400001928E-02 0. -1.
       -1    1    3    3    0  502  0.48172831303E+03 -0.42035717359E+03 -0.12195186903E+04  0.13769488578E+04  0.50400001928E-02 0.  1.
</event>
<event>
 5   0  0.2093980E-05  0.2001556E+04  0.7818609E-02  0.8605893E-01
        1   -1    0    0  501    0  0.00000000000E+00  0.00000000000E+00  0.11307692414E+04  0.11307692414E+04  0.50400001928E-02 0.  1.
       -1   -1    0    0    0  501  0.00000000000E+00  0.00000000000E+00 -0.88573052105E+03  0.88573052107E+03  0.50400001928E-02 0. -1.
    10030    2    1    2    0    0  0.00000000000E+00  0.00000000000E+00  0.24503872033E+03  0.20164997625E+04  0.20015562239E+04 0.  0.
        2    1    3    3  502    0  0.61651201096E+03 -0.69828212077E+03 -0.24609734503E+03  0.96345673649E+03  0.25500000920E-02 0. -1.
       -2    1    3    3    0  502 -0.61651201096E+03  0.69828212077E+03  0.49113606536E+03  0.10530430260E+04  0.25500000920E-02 0.  1.
</event>
<event>
 5   0  0.4447313E-05  0.1990449E+04  0.7818609E-02  0.8611099E-01
        2   -1    0    0  501    0  0.00000000000E+00  0.00000000000E+00  0.95761344759E+03  0.95761344759E+03  0.25500000920E-02 0.  1.
       -2   -1    0    0    0  501  0.00000000000E+00  0.00000000000E+00 -0.10343127149E+04  0.10343127149E+04  0.25500000920E-02 0. -1.
    10030    2    1    2    0    0  0.00000000000E+00  0.00000000000E+00 -0.76699267332E+02  0.19919261625E+04  0.19904489592E+04 0.  0.
        5    1    3    3  502    0  0.41539550903E+03  0.44891438671E+03  0.74732672128E+03  0.96571055387E+03  0.46999998093E+01 0.  1.
       -5    1    3    3    0  502 -0.41539550903E+03 -0.44891438671E+03 -0.82402598861E+03  0.10262156086E+04  0.46999998093E+01 0. -1.
</event>
<event>
 5   0  0.4412054E-05  0.1989306E+04  0.7818609E-02  0.8611637E-01
        2   -1    0    0  501    0  0.00000000000E+00  0.00000000000E+00  0.15265132480E+04  0.15265132480E+04  0.25500000920E-02 0. -1.
       -2   -1    0    0    0  501  0.00000000000E+00  0.00000000000E+00 -0.64810103441E+03  0.64810103441E+03  0.25500000920E-02 0.  1.
    10030    2    1    2    0    0  0.00000000000E+00  0.00000000000E+00  0.87841221363E+03  0.21746142825E+04  0.19893062259E+04 0.  0.
        4    1    3    3  502    0  0.25668834886E+03  0.62437589851E+02  0.14874619369E+04  0.15107388880E+04  0.12699999809E+01 0. -1.
       -4    1    3    3    0  502 -0.25668834886E+03 -0.62437589851E+02 -0.60904972327E+03  0.66387539447E+03  0.12699999809E+01 0.  1.
</event>
<event>
 5   0  0.2142551E-05  0.2006455E+04  0.7818609E-02  0.8603609E-01
        1   -1    0    0  501    0  0.00000000000E+00  0.00000000000E+00  0.16362583785E+04  0.16362583785E+04  0.50400001928E-02 0.  1.
       -1   -1    0    0    0  501  0.00000000000E+00  0.00000000000E+00 -0.61510171809E+03  0.61510171811E+03  0.50400001928E-02 0. -1.
    10030    2    1    2    0    0  0.00000000000E+00  0.00000000000E+00  0.10211566604E+04  0.22513600966E+04  0.20064549234E+04 0.  0.
        3    1    3    3  502    0 -0.14167957968E+03 -0.82469710602E+03 -0.11038448618E+03  0.84402794086E+03  0.10100000352E+00 0. -1.
       -3    1    3    3    0  502  0.14167957968E+03  0.82469710602E+03  0.11315411466E+04  0.14073321557E+04  0.10100000352E+00 0.  1.
</event>
<event>
 5   0  0.2093980E-05  0.1997734E+04  0.7818609E-02  0.8607681E-01
       -1   -1    0    0    0  501  0.00000000000E+00  0.00000000000E+00  0.13397253013E+04  0.13397253013E+04  0.50400001928E-02 0.  1.
        1   -1    0    0  501    0  0.00000000000E+00  0.00000000000E+00 -0.74473107546E+03  0.74473107548E+03  0.50400001928E-02 0. -1.
    10030    2    1    2    0    0  0.00000000000E+00  0.00000000000E+00  0.59499422582E+03  0.20844563768E+04  0.19977337805E+04 0.  0.
        2    1    3    3  502    0 -0.41213871703E+03  0.65405283476E+03  0.95748342920E+03  0.12306168981E+04  0.25500000920E-02 0.  1.
       -2    1    3    3    0  502  0.41213871703E+03 -0.65405283476E+03 -0.36248920337E+03  0.85383947865E+03  0.25500000920E-02 0. -1.
</event>
<event>
 5   0  0.4412054E-05  0.1996507E+04  0.7818609E-02  0.8608256E-01
       -2   -1    0    0    0  501  0.00000000000E+00  0.00000000000E+00  0.46968972313E+03  0.46968972313E+03  0.25500000920E-02 0.  1.
        2   -1    0    0  501    0  0.00000000000E+00  0.00000000000E+00 -0.21216345418E+04  0.21216345418E+04  0.25500000920E-02 0. -1.
    10030    2    1    2    0    0  0.00000000000E+00  0.00000000000E+00 -0.16519448187E+04  0.25913242649E+04  0.19965068901E+04 0.  0.
        4    1    3    3  502    0  0.64387744286E+03  0.64708773043E+03 -0.30162251519E+03  0.96139401229E+03  0.12699999809E+01 0. -1.
       -4    1    3    3    0  502 -0.64387744286E+03 -0.64708773043E+03 -0.13503223035E+04  0.16299302526E+04  0.12699999809E+01 0.  1.
</event>
<event>
 5   0  0.2007644E-05  0.1999914E+04  0.7818609E-02  0.8606661E-01
        1   -1    0    0  501    0  0.00000000000E+00  0.00000000000E+00  0.94678602785E+03  0.94678602786E+03  0.50400001928E-02 0. -1.
       -1   -1    0    0    0  501  0.00000000000E+00  0.00000000000E+00 -0.10561141036E+04  0.10561141036E+04  0.50400001928E-02 0.  1.
    10030    2    1    2    0    0  0.00000000000E+00  0.00000000000E+00 -0.10932807572E+03  0.20029001314E+04  0.19999140753E+04 0.  0.
        1    1    3    3  502    0 -0.54019032035E+03 -0.34575733609E+03  0.71365830420E+03  0.95951127812E+03  0.50400001928E-02 0. -1.
       -1    1    3    3    0  502  0.54019032035E+03  0.34575733609E+03 -0.82298637992E+03  0.10433888533E+04  0.50400001928E-02 0.  1.
</event>
<event>
 5   0  0.4577279E-05  0.1991663E+04  0.7818609E-02  0.8610528E-01
        2   -1    0    0  501    0  0.00000000000E+00  0.00000000000E+00  0.14352711091E+04  0.14352711091E+04  0.25500000920E-02 0. -1.
       -2   -1    0    0    0  501  0.00000000000E+00  0.00000000000E+00 -0.69093586746E+03  0.69093586747E+03  0.25500000920E-02 0.  1.
    10030    2    1    2    0    0  0.00000000000E+00  0.00000000000E+00  0.74433524162E+03  0.21262069766E+04  0.19916629120E+04 0.  0.
        1    1    3    3  502    0 -0.18060896878E+03 -0.32511284043E+03 -0.61401293769E+03  0.71786478274E+03  0.50400001928E-02 0.  1.
       -1    1    3    3    0  502  0.18060896878E+03  0.32511284043E+03  0.13583481793E+04  0.14083421938E+04  0.50400001928E-02 0. -1.
</event>
<event>
 5   0  0.2007644E-05  0.1909034E+04  0.7818609E-02  0.8650373E-01
        1   -1    0    0  501    0  0.00000000000E+00  0.00000000000E+00  0.14987929708E+04  0.14987929708E+04  0.50400001928E-02 0. -1.
       -1   -1    0    0    0  501  0.00000000000E+00  0.00000000000E+00 -0.60789080223E+03  0.60789080225E+03  0.50400001928E-02 0.  1.
    10030    2    1    2    0    0  0.00000000000E+00  0.00000000000E+00  0.89090216860E+03  0.21066837731E+04  0.19090337466E+04 0.  0.
        1    1    3    3  502    0  0.49984859495E+02 -0.78483678130E+03 -0.15151413420E+03  0.80088937585E+03  0.50400001928E-02 0.  1.
       -1    1    3    3    0  502 -0.49984859495E+02  0.78483678130E+03  0.10424163028E+04  0.13057943972E+04  0.50400001928E-02 0. -1.
</event>
<event>
 5   0  0.2007644E-05  0.1983911E+04  0.7818609E-02  0.8614180E-01
       -1   -1    0    0    0  501  0.00000000000E+00  0.00000000000E+00  0.42844024731E+03  0.42844024734E+03  0.50400001928E-02 0.  1.
        1   -1    0    0  501    0  0.00000000000E+00  0.00000000000E+00 -0.22966452417E+04  0.22966452417E+04  0.50400001928E-02 0. -1.
    10030    2    1    2    0    0  0.00000000000E+00  0.00000000000E+00 -0.18682049944E+04  0.27250854890E+04  0.19839105377E+04 0.  0.
        1    1    3    3  502    0  0.40098341563E+03 -0.16526886893E+03  0.29130388848E+03  0.52245521733E+03  0.50400001928E-02 0.  1.
       -1    1    3    3    0  502 -0.40098341563E+03  0.16526886893E+03 -0.21595088828E+04  0.22026302717E+04  0.50400001928E-02 0. -1.
</event>
<event>
 5   0  0.4514680E-05  0.2001721E+04  0.7818609E-02  0.8605816E-01
        2   -1    0    0  501    0  0.00000000000E+00  0.00000000000E+00  0.68178571314E+03  0.68178571314E+03  0.25500000920E-02 0.  1.
       -2   -1    0    0    0  501  0.00000000000E+00  0.00000000000E+00 -0.14692621026E+04  0.14692621026E+04  0.25500000920E-02 0. -1.
    10030    2    1    2    0    0  0.00000000000E+00  0.00000000000E+00 -0.78747638945E+03  0.21510478157E+04  0.20017211698E+04 0.  0.
        3    1    3    3  502    0 -0.76921676168E+03 -0.31898355908E+03 -0.99038458577E+03  0.12939499895E+04  0.10100000352E+00 0. -1.
       -3    1    3    3    0  502  0.76921676168E+03  0.31898355908E+03  0.20290819631E+03  0.85709782624E+03  0.10100000352E+00 0.  1.
</event>
<event>
 5   0  0.2256868E-05  0.2011453E+04  0.7818609E-02  0.8601284E-01
        1   -1    0    0  501    0  0.00000000000E+00  0.00000000000E+00  0.99742816826E+03  0.99742816827E+03  0.50400001928E-02 0.  1.
       -1   -1    0    0    0  501  0.00000000000E+00  0.00000000000E+00 -0.10140943113E+04  0.10140943113E+04  0.50400001928E-02 0. -1.
    10030    2    1    2    0    0  0.00000000000E+00  0.00000000000E+00 -0.16666143014E+02  0.20115224796E+04  0.20114534361E+04 0.  0.
        5    1    3    3  502    0  0.19846367236E+03  0.22817226088E+03 -0.96753945797E+03  0.10137085886E+04  0.46999998093E+01 0. -1.
       -5    1    3    3    0  502 -0.19846367236E+03 -0.22817226088E+03  0.95087331496E+03  0.99781389095E+03  0.46999998093E+01 0.  1.
</event>
<event>
 5   0  0.4514680E-05  0.2004981E+04  0.7818609E-02  0.8604296E-01
        2   -1    0    0  501    0  0.00000000000E+00  0.00000000000E+00  0.12363234795E+04  0.12363234795E+04  0.25500000920E-02 0.  1.
       -2   -1    0    0    0  501  0.00000000000E+00  0.00000000000E+00 -0.81288351817E+03  0.81288351818E+03  0.25500000920E-02 0. -1.
    10030    2    1    2    0    0  0.00000000000E+00  0.00000000000E+00  0.42343996132E+03  0.20492069977E+04  0.20049807776E+04 0.  0.
        3    1    3    3  502    0  0.98819830413E+03  0.85335841030E+02  0.36042461727E+03  0.10553312319E+04  0.10100000352E+00 0.  1.
       -3    1    3    3    0  502 -0.98819830413E+03 -0.85335841030E+02  0.63015344056E+02  0.99387576579E+03  0.10100000352E+00 0. -1.
</event>
<event>
 5   0  0.4412054E-05  0.2011092E+04  0.7818609E-02  0.8601452E-01
       -2   -1    0    0    0  501  0.00000000000E+00  0.00000000000E+00  0.73424134954E+03  0.73424134955E+03  0.25500000920E-02 0.  1.
        2   -1    0    0  501    0  0.00000000000E+00  0.00000000000E+00 -0.13770991521E+04  0.13770991521E+04  0.25500000920E-02 0. -1.
    10030    2    1    2    0    0  0.00000000000E+00  0.00000000000E+00 -0.64285780252E+03  0.21113405016E+04  0.20110923796E+04 0.  0.
        4    1    3    3  502    0  0.41809468631E+03 -0.84859426336E+03 -0.67931167079E+03  0.11646378620E+04  0.12699999809E+01 0.  1.
       -4    1    3    3    0  502 -0.41809468631E+03  0.84859426336E+03  0.36453868271E+02  0.94670263966E+03  0.12699999809E+01 0. -1.
</event>
<event>
 5   0  0.4514680E-05  0.2007657E+04  0.7818609E-02  0.8603049E-01
       -2   -1    0    0    0  501  0.00000000000E+00  0.00000000000E+00  0.19500011274E+04  0.19500011274E+04  0.25500000920E-02 0.  1.
        2   -1    0    0  501    0  0.00000000000E+00  0.00000000000E+00 -0.51675456579E+03  0.51675456580E+03  0.25500000920E-02 0. -1.
    10030    2    1    2    0    0  0.00000000000E+00  0.00000000000E+00  0.14332465616E+04  0.24667556932E+04  0.20076573272E+04 0.  0.
        3    1    3    3  502    0 -0.45322091024E+03  0.13209939358E+03  0.18051009304E+04  0.18658105001E+04  0.10100000352E+00 0.  1.
       -3    1    3    3    0  502  0.45322091024E+03 -0.13209939358E+03 -0.37185436880E+03  0.60094519306E+03  0.10100000352E+00 0. -1.
</event>
<event>
 5   0  0.4577279E-05  0.1990248E+04  0.7818609E-02  0.8611194E-01
        2   -1    0    0  501    0  0.00000000000E+00  0.00000000000E+00  0.10293468194E+04  0.10293468194E+04  0.25500000920E-02 0. -1.
       -2   -1    0    0    0  501  0.00000000000E+00  0.00000000000E+00 -0.96203892819E+03  0.96203892819E+03  0.25500000920E-02 0.  1.
    10030    2    1    2    0    0  0.00000000000E+00  0.00000000000E+00  0.67307891210E+02  0.19913857476E+04  0.19902479352E+04 0.  0.
        1    1    3    3  502    0 -0.54480299433E+03 -0.54841094185E+03 -0.59336757840E+03  0.97449984448E+03  0.50400001928E-02 0.  1.
       -1    1    3    3    0  502  0.54480299433E+03  0.54841094185E+03  0.66067546961E+03  0.10168859031E+04  0.50400001928E-02 0. -1.
</event>
<event>
 5   0  0.2093980E-05  0.2007208E+04  0.7818609E-02  0.8603258E-01
        1   -1    0    0  501    0  0.00000000000E+00  0.00000000000E+00  0.13095883313E+04  0.13095883313E+04  0.50400001928E-02 0. -1.
       -1   -1    0    0    0  501  0.00000000000E+00  0.00000000000E+00 -0.76911282397E+03  0.76911282399E+03  0.50400001928E-02 0.  1.
    10030    2    1    2    0    0  0.00000000000E+00  0.00000000000E+00  0.54047550729E+03  0.20787011553E+04  0.20072081902E+04 0.  0.
        2    1    3    3  502    0 -0.33181484173E+03  0.54234579342E+03 -0.53393896890E+03  0.83025952048E+03  0.25500000920E-02 0.  1.
       -2    1    3    3    0  502  0.33181484173E+03 -0.54234579342E+03  0.10744144762E+04  0.12484416348E+04  0.25500000920E-02 0. -1.
</event>
<event>
 5   0  0.2110896E-05  0.2000099E+04  0.7818609E-02  0.8606575E-01
        1   -1    0    0  501    0  0.00000000000E+00  0.00000000000E+00  0.15354361838E+04  0.15354361838E+04  0.50400001928E-02 0. -1.
       -1   -1    0    0    0  501  0.00000000000E+00  0.00000000000E+00 -0.65134501592E+03  0.65134501594E+03  0.50400001928E-02 0.  1.
    10030    2    1    2    0    0  0.00000000000E+00  0.00000000000E+00  0.88409116786E+03  0.21867811997E+04  0.20000987032E+04 0.  0.
        4    1    3    3  502    0 -0.29850816627E+03  0.65779257268E+03  0.11981879879E+04  0.13990905122E+04  0.12699999809E+01 0. -1.
       -4    1    3    3    0  502  0.29850816627E+03 -0.65779257268E+03 -0.31409682004E+03  0.78769068756E+03  0.12699999809E+01 0.  1.
</event>
<event>
 5   0  0.4447313E-05  0.1996247E+04  0.7818609E-02  0.8608377E-01
       -2   -1    0    0    0  501  0.00000000000E+00  0.00000000000E+00  0.81645426837E+03  0.81645426837E+03  0.25500000920E-02 0. -1.
        2   -1    0    0  501    0  0.00000000000E+00  0.00000000000E+00 -0.12202159570E+04  0.12202159570E+04  0.25500000920E-02 0.  1.
    10030    2    1    2    0    0  0.00000000000E+00  0.00000000000E+00 -0.40376168865E+03  0.20366702254E+04  0.19962470052E+04 0.  0.
        5    1    3    3  502    0  0.52181507902E+03  0.19565370624E+03  0.64293085862E+03  0.85085458712E+03  0.46999998093E+01 0. -1.
       -5    1    3    3    0  502 -0.52181507902E+03 -0.19565370624E+03 -0.10466925473E+04  0.11858156383E+04  0.46999998093E+01 0.  1.
</event>
<event>
 5   0  0.2007644E-05  0.2007459E+04  0.7818609E-02  0.8603141E-01
        1   -1    0    0  501    0  0.00000000000E+00  0.00000000000E+00  0.11904664804E+04  0.11904664805E+04  0.50400001928E-02 0. -1.
       -1   -1    0    0    0  501  0.00000000000E+00  0.00000000000E+00 -0.84628426931E+03  0.84628426933E+03  0.50400001928E-02 0.  1.
    10030    2    1    2    0    0  0.00000000000E+00  0.00000000000E+00  0.34418221113E+03  0.20367507498E+04  0.20074591459E+04 0.  0.
        1    1    3    3  502    0  0.85695091452E+02 -0.97515490217E+03 -0.52961463965E+02  0.98034465807E+03  0.50400001928E-02 0.  1.
       -1    1    3    3    0  502 -0.85695091452E+02  0.97515490217E+03  0.39714367510E+03  0.10564060917E+04  0.50400001928E-02 0. -1.
</event>
<event>
 5   0  0.2110896E-05  0.1993245E+04  0.7818609E-02  0.8609785E-01
        1   -1    0    0  501    0  0.00000000000E+00  0.00000000000E+00  0.13342271207E+04  0.13342271207E+04  0.50400001928E-02 0.  1.
       -1   -1    0    0    0  501  0.00000000000E+00  0.00000000000E+00 -0.74444347317E+03  0.74444347319E+03  0.50400001928E-02 0. -1.
    10030    2    1    2    0    0  0.00000000000E+00  0.00000000000E+00  0.58978364749E+03  0.20786705939E+04  0.19932452651E+04 0.  0.
        4    1    3    3  502    0  0.46251991396E+03 -0.86404730940E+03  0.48362491568E+03  0.10928847586E+04  0.12699999809E+01 0.  1.
       -4    1    3    3    0  502 -0.46251991396E+03  0.86404730940E+03  0.10615873181E+03  0.98578583522E+03  0.12699999809E+01 0. -1.
</event>
<event>
 5   0  0.2256868E-05  0.1994669E+04  0.7818609E-02  0.8609117E-01
       -1   -1    0    0    0  501  0.00000000000E+00  0.00000000000E+00  0.72429950521E+03  0.72429950523E+03  0.50400001928E-02 0. -1.
        1   -1    0    0  501    0  0.00000000000E+00  0.00000000000E+00 -0.13732945770E+04  0.13732945771E+04  0.50400001928E-02 0.  1.
    10030    2    1    2    0    0  0.00000000000E+00  0.00000000000E+00 -0.64899507183E+03  0.20975940823E+04  0.19946694791E+04 0.  0.
        5    1    3    3  502    0  0.93273891245E+03 -0.25078614927E+03 -0.58583420858E+03  0.11296545407E+04  0.46999998093E+01 0.  1.
       -5    1    3    3    0  502 -0.93273891245E+03  0.25078614927E+03 -0.63160863254E+02  0.96793954155E+03  0.46999998093E+01 0. -1.
</event>
<event>
 5   0  0.4412054E-05  0.1999164E+04  0.7818609E-02  0.8607012E-01
        2   -1    0    0  501    0  0.00000000000E+00  0.00000000000E+00  0.57483585159E+03  0.57483585159E+03  0.25500000920E-02 0. -1.
       -2   -1    0    0    0  501  0.00000000000E+00  0.00000000000E+00 -0.17381728575E+04  0.17381728575E+04  0.25500000920E-02 0.  1.
    10030    2    1    2    0    0  0.00000000000E+00  0.00000000000E+00 -0.11633370059E+04  0.23130087091E+04  0.19991639000E+04 0.  0.
        4    1    3    3  502    0  0.99875932296E+02 -0.38843319739E+03  0.47765934768E+03  0.62371116393E+03  0.12699999809E+01 0. -1.
       -4    1    3    3    0  502 -0.99875932296E+02  0.38843319739E+03 -0.16409963536E+04  0.16892975451E+04  0.12699999809E+01 0.  1.
</event>
<event>
 5   0  0.2007644E-05  0.1997697E+04  0.7818609E-02  0.8607698E-01
        1   -1    0    0  501    0  0.00000000000E+00  0.00000000000E+00  0.10926354765E+04  0.10926354766E+04  0.50400001928E-02 0. -1.
       -1   -1    0    0    0  501  0.00000000000E+00  0.00000000000E+00 -0.91311160248E+03  0.91311160250E+03  0.50400001928E-02 0.  1.
    10030    2    1    2    0    0  0.00000000000E+00  0.00000000000E+00  0.17952387406E+03  0.20057470791E+04  0.19976968048E+04 0.  0.
        1    1    3    3  502    0 -0.15844253658E+03 -0.45028493038E+03 -0.79117768930E+03  0.92402526589E+03  0.50400001928E-02 0.  1.
       -1    1    3    3    0  502  0.15844253658E+03  0.45028493038E+03  0.97070156337E+03  0.10817218132E+04  0.50400001928E-02 0. -1.
</event>
<event>
 5   0  0.4473361E-05  0.2007201E+04  0.7818609E-02  0.8603261E-01
       -2   -1    0    0    0  501  0.00000000000E+00  0.00000000000E+00  0.11290430494E+04  0.11290430494E+04  0.25500000920E-02 0.  1.
        2   -1    0    0  501    0  0.00000000000E+00  0.00000000000E+00 -0.89209529570E+03  0.89209529571E+03  0.25500000920E-02 0. -1.
    10030    2    1    2    0    0  0.00000000000E+00  0.00000000000E+00  0.23694775373E+03  0.20211383451E+04  0.20072010293E+04 0.  0.
        2    1    3    3  502    0 -0.78298696809E+03  0.29432770144E+02  0.74994807685E+03  0.10845999254E+04  0.25500000920E-02 0.  1.
       -2    1    3    3    0  502  0.78298696809E+03 -0.29432770144E+02 -0.51300032312E+03  0.93653841976E+03  0.25500000920E-02 0. -1.
</event>
<event>
 5   0  0.4447313E-05  0.1997525E+04  0.7818609E-02  0.8607779E-01
        2   -1    0    0  501    0  0.00000000000E+00  0.00000000000E+00  0.18825761395E+04  0.18825761395E+04  0.25500000920E-02 0.  1.
       -2   -1    0    0    0  501  0.00000000000E+00  0.00000000000E+00 -0.52987313949E+03  0.52987313949E+03  0.25500000920E-02 0. -1.
    10030    2    1    2    0    0  0.00000000000E+00  0.00000000000E+00  0.13527030000E+04  0.24124492790E+04  0.19975249980E+04 0.  0.
        5    1    3    3  502    0  0.17442367147E+03  0.76277706239E+03 -0.73263736415E+02  0.78590211169E+03  0.46999998093E+01 0. -1.
       -5    1    3    3    0  502 -0.17442367147E+03 -0.76277706239E+03  0.14259667364E+04  0.16265471673E+04  0.46999998093E+01 0.  1.
</event>
<event>
 5   0  0.2142551E-05  0.2003385E+04  0.7818609E-02  0.8605040E-01
        1   -1    0    0  501    0  0.00000000000E+00  0.00000000000E+00  0.61241176933E+03  0.61241176935E+03  0.50400001928E-02 0.  1.
       -1   -1    0    0    0  501  0.00000000000E+00  0.00000000000E+00 -0.16384198256E+04  0.16384198256E+04  0.50400001928E-02 0. -1.
    10030    2    1    2    0    0  0.00000000000E+00  0.00000000000E+00 -0.10260080563E+04  0.22508315950E+04  0.20033847203E+04 0.  0.
        3    1    3    3  502    0 -0.44836826189E+03 -0.68366467317E+03  0.13723432968E+03  0.82901432741E+03  0.10100000352E+00 0.  1.
       -3    1    3    3    0  502  0.44836826189E+03  0.68366467317E+03 -0.11632423860E+04  0.14218172676E+04  0.10100000352E+00 0. -1.
</event>
<event>
 5   0  0.2256868E-05  0.1999494E+04  0.7818609E-02  0.8606857E-01
       -1   -1    0    0    0  501  0.00000000000E+00  0.00000000000E+00  0.10466795473E+04  0.10466795473E+04  0.50400001928E-02 0. -1.
        1   -1    0    0  501    0  0.00000000000E+00  0.00000000000E+00 -0.95491916265E+03  0.95491916266E+03  0.50400001928E-02 0.  1.
    10030    2    1    2    0    0  0.00000000000E+00  0.00000000000E+00  0.91760384607E+02  0.20015987099E+04  0.19994942929E+04 0.  0.
        5    1    3    3  502    0 -0.90672117462E+02  0.51029578243E+03 -0.80991666334E+03  0.96156659156E+03  0.46999998093E+01 0.  1.
       -5    1    3    3    0  502  0.90672117462E+02 -0.51029578243E+03  0.90167704794E+03  0.10400321184E+04  0.46999998093E+01 0. -1.
</event>
<event>
 5   0  0.4473361E-05  0.2006744E+04  0.7818609E-02  0.8603474E-01
       -2   -1    0    0    0  501  0.00000000000E+00  0.00000000000E+00  0.51814375392E+03  0.51814375392E+03  0.25500000920E-02 0.  1.
        2   -1    0    0  501    0  0.00000000000E+00  0.00000000000E+00 -0.19430042127E+04  0.19430042127E+04  0.25500000920E-02 0. -1.
    10030    2    1    2    0    0  0.00000000000E+00  0.00000000000E+00 -0.14248604587E+04  0.24611479666E+04  0.20067441258E+04 0.  0.
        2    1    3    3  502    0  0.53490026161E+03  0.80086664585E+03 -0.10576891217E+04  0.14304586511E+04  0.25500000920E-02 0. -1.
       -2    1    3    3    0  502 -0.53490026161E+03 -0.80086664585E+03 -0.36717133702E+03  0.10306893155E+04  0.25500000920E-02 0.  1.
</event>
<event>
 5   0  0.2110896E-05  0.2002768E+04  0.7818609E-02  0.8605328E-01
       -1   -1    0    0    0  501  0.00000000000E+00  0.00000000000E+00  0.11913050185E+04  0.11913050185E+04  0.50400001928E-02 0.  1.
        1   -1    0    0  501    0  0.00000000000E+00  0.00000000000E+00 -0.84174067236E+03  0.84174067237E+03  0.50400001928E-02 0. -1.
    10030    2    1    2    0    0  0.00000000000E+00  0.00000000000E+00  0.34956434614E+03  0.20330456909E+04  0.20027679719E+04 0.  0.
        4    1    3    3  502    0  0.55039248833E+03  0.47001059729E+03  0.87728956780E+03  0.11373128204E+04  0.12699999809E+01 0.  1.
       -4    1    3    3    0  502 -0.55039248833E+03 -0.47001059729E+03 -0.52772522166E+03  0.89573287048E+03  0.12699999809E+01 0. -1.
</event>
<event>
 5   0  0.4514680E-05  0.1991059E+04  0.7818609E-02  0.8610812E-01
       -2   -1    0    0    0  501  0.00000000000E+00  0.00000000000E+00  0.80865408764E+03  0.80865408765E+03  0.25500000920E-02 0.  1.
        2   -1    0    0  501    0  0.00000000000E+00  0.00000000000E+00 -0.12255911278E+04  0.12255911278E+04  0.25500000920E-02 0. -1.
    10030    2    1    2    0    0  0.00000000000E+00  0.00000000000E+00 -0.41693704016E+03  0.20342452155E+04  0.19910592912E+04 0.  0.
        3    1    3    3  502    0 -0.71718893294E+02 -0.83460331569E+03 -0.75807025092E+03  0.11297684762E+04  0.10100000352E+00 0. -1.
       -3    1    3    3    0  502  0.71718893294E+02  0.83460331569E+03  0.34113321076E+03  0.90447673928E+03  0.10100000352E+00 0.  1.
</event>
<event>
 5   0  0.4447313E-05  0.1997690E+04  0.7818609E-02  0.8607701E-01
        2   -1    0    0  501    0  0.00000000000E+00  0.00000000000E+00  0.12050464778E+04  0.12050464778E+04  0.25500000920E-02 0.  1.
       -2   -1    0    0    0  501  0.00000000000E+00  0.00000000000E+00 -0.82792797902E+03  0.82792797902E+03  0.25500000920E-02 0. -1.
    10030    2    1    2    0    0  0.00000000000E+00  0.00000000000E+00  0.37711849879E+03  0.20329744568E+04  0.19976903614E+04 0.  0.
        5    1    3    3  502    0  0.44850809995E+03 -0.83293473035E+03 -0.13761676403E+03  0.95598129923E+03  0.46999998093E+01 0. -1.
       -5    1    3    3    0  502 -0.44850809995E+03  0.83293473035E+03  0.51473526283E+03  0.10769931576E+04  0.46999998093E+01 0.  1.
</event>
<event>
 5   0  0.4412054E-05  0.2002115E+04  0.7818609E-02  0.8605633E-01
        2   -1    0    0  501    0  0.00000000000E+00  0.00000000000E+00  0.10992993700E+04  0.10992993700E+04  0.25500000920E-02 0. -1.
       -2   -1    0    0    0  501  0.00000000000E+00  0.00000000000E+00 -0.91159504261E+03  0.91159504261E+03  0.25500000920E-02 0.  1.
    10030    2    1    2    0    0  0.00000000000E+00  0.00000000000E+00  0.18770432741E+03  0.20108944126E+04  0.20021147380E+04 0.  0.
        4    1    3    3  502    0  0.17585737388E+03  0.91559914722E+03  0.45995935764E+03  0.10396210069E+04  0.12699999809E+01 0.  1.
       -4    1    3    3    0  502 -0.17585737388E+03 -0.91559914722E+03 -0.27225503024E+03  0.97127340576E+03  0.12699999809E+01 0. -1.
</event>
<event>
 5   0  0.2110896E-05  0.2000862E+04  0.7818609E-02  0.8606218E-01
       -1   -1    0    0    0  501  0.00000000000E+00  0.00000000000E+00  0.69918888898E+03  0.69918888900E+03  0.50400001928E-02 0. -1.
        1   -1    0    0  501    0  0.00000000000E+00  0.00000000000E+00 -0.14314614083E+04  0.14314614083E+04  0.50400001928E-02 0.  1.
    10030    2    1    2    0    0  0.00000000000E+00  0.00000000000E+00 -0.73227251927E+03  0.21306502973E+04  0.20008617260E+04 0.  0.
        4    1    3    3  502    0  0.43828788185E+03  0.69709712170E+03  0.23889117620E+03  0.85738630234E+03  0.12699999809E+01 0. -1.
       -4    1    3    3    0  502 -0.43828788185E+03 -0.69709712170E+03 -0.97116369547E+03  0.12732639949E+04  0.12699999809E+01 0.  1.
</event>
<event>
 5   0  0.4577279E-05  0.1998380E+04  0.7818609E-02  0.8607378E-01
        2   -1    0    0  501    0  0.00000000000E+00  0.00000000000E+00  0.18927883154E+04  0.18927883154E+04  0.25500000920E-02 0.  1.
       -2   -1    0    0    0  501  0.00000000000E+00  0.00000000000E+00 -0.52746562127E+03  0.52746562128E+03  0.25500000920E-02 0. -1.
    10030    2    1    2    0    0  0.00000000000E+00  0.00000000000E+00  0.13653226941E+04  0.24202539367E+04  0.19983801087E+04 0.  0.
        1    1    3    3  502    0  0.18751674537E+03 -0.76523385410E+03  0.14269119187E+04  0.16299763817E+04  0.50400001928E-02 0.  1.
       -1    1    3    3    0  502 -0.18751674537E+03  0.76523385410E+03 -0.61589224568E+02  0.79027755495E+03  0.50400001928E-02 0. -1.
</event>
<event>
 5   0  0.2110896E-05  0.1993331E+04  0.7818609E-02  0.8609745E-01
        1   -1    0    0  501    0  0.00000000000E+00  0.00000000000E+00  0.86212534513E+03  0.86212534515E+03  0.50400001928E-02 0.  1.
       -1   -1    0    0    0  501  0.00000000000E+00  0.00000000000E+00 -0.11522019497E+04  0.11522019497E+04  0.50400001928E-02 0. -1.
    10030    2    1    2    0    0  0.00000000000E+00  0.00000000000E+00 -0.29007660453E+03  0.20143272948E+04  0.19933313859E+04 0.  0.
        4    1    3    3  502    0  0.56079568763E+03 -0.76319104731E+03 -0.45877344760E+03  0.10523436069E+04  0.12699999809E+01 0.  1.
       -4    1    3    3    0  502 -0.56079568763E+03  0.76319104731E+03  0.16869684307E+03  0.96198368787E+03  0.12699999809E+01 0. -1.
</event>
<event>
 5   0  0.4412054E-05  0.1987911E+04  0.7818609E-02  0.8612294E-01
        2   -1    0    0  501    0  0.00000000000E+00  0.00000000000E+00  0.18680634794E+04  0.18680634794E+04  0.25500000920E-02 0.  1.
       -2   -1    0    0    0  501  0.00000000000E+00  0.00000000000E+00 -0.52886173361E+03  0.52886173362E+03  0.25500000920E-02 0. -1.
    10030    2    1    2    0    0  0.00000000000E+00  0.00000000000E+00  0.13392017457E+04  0.23969252130E+04  0.19879107527E+04 0.  0.
        4    1    3    3  502    0 -0.39694853728E+03 -0.72229181932E+03  0.13394951439E+04  0.15727436113E+04  0.12699999809E+01 0.  1.
       -4    1    3    3    0  502  0.39694853728E+03  0.72229181932E+03 -0.29339817184E+00  0.82418160165E+03  0.12699999809E+01 0. -1.
</event>
<event>
 5   0  0.2007644E-05  0.2006456E+04  0.7818609E-02  0.8603608E-01
        1   -1    0    0  501    0  0.00000000000E+00  0.00000000000E+00  0.80657506242E+03  0.80657506244E+03  0.50400001928E-02 0. -1.
       -1   -1    0    0    0  501  0.00000000000E+00  0.00000000000E+00 -0.12478270890E+04  0.12478270891E+04  0.50400001928E-02 0.  1.
    10030    2    1    2    0    0  0.00000000000E+00  0.00000000000E+00 -0.44125202663E+03  0.20544021515E+04  0.20064557930E+04 0.  0.
        1    1    3    3  502    0 -0.35261618870E+03 -0.28737691733E+03 -0.11361646025E+04  0.12238438108E+04  0.50400001928E-02 0.  1.
       -1    1    3    3    0  502  0.35261618870E+03  0.28737691733E+03  0.69491257590E+03  0.83055834071E+03  0.50400001928E-02 0. -1.
</event>
<event>
 5   0  0.4447313E-05  0.2002453E+04  0.7818609E-02  0.8605475E-01
        2   -1    0    0  501    0  0.00000000000E+00  0.00000000000E+00  0.93458121719E+03  0.93458121719E+03  0.25500000920E-02 0. -1.
       -2   -1    0    0    0  501  0.00000000000E+00  0.00000000000E+00 -0.10726245610E+04  0.10726245610E+04  0.25500000920E-02 0.  1.
    10030    2    1    2    0    0  0.00000000000E+00  0.00000000000E+00 -0.13804334380E+03  0.20072057782E+04  0.20024532632E+04 0.  0.
        5    1    3    3  502    0 -0.88675577596E+03 -0.46412945507E+03 -0.95174215574E+02  0.10054015012E+04  0.46999998093E+01 0.  1.
       -5    1    3    3    0  502  0.88675577596E+03  0.46412945507E+03 -0.42869128223E+02  0.10018042770E+04  0.46999998093E+01 0. -1.
</event>
<event>
 5   0  0.4447313E-05  0.1997738E+04  0.7818609E-02  0.8607679E-01
       -2   -1    0    0    0  501  0.00000000000E+00  0.00000000000E+00  0.94723520618E+03  0.94723520619E+03  0.25500000920E-02 0. -1.
        2   -1    0    0  501    0  0.00000000000E+00  0.00000000000E+00 -0.10533176369E+04  0.10533176369E+04  0.25500000920E-02 0.  1.
    10030    2    1    2    0    0  0.00000000000E+00  0.00000000000E+00 -0.10608243071E+03  0.20005528431E+04  0.19977382701E+04 0.  0.
        5    1    3    3  502    0 -0.14250314953E+03  0.55144599984E+03  0.76867418806E+03  0.95670368231E+03  0.46999998093E+01 0. -1.
       -5    1    3    3    0  502  0.14250314953E+03 -0.55144599984E+03 -0.87475661876E+03  0.10438491608E+04  0.46999998093E+01 0.  1.
</event>
<event>
 5   0  0.4473361E-05  0.1998649E+04  0.7818609E-02  0.8607252E-01
       -2   -1    0    0    0  501  0.00000000000E+00  0.00000000000E+00  0.17811652695E+04  0.17811652695E+04  0.25500000920E-02 0. -1.
        2   -1    0    0  501    0  0.00000000000E+00  0.00000000000E+00 -0.56067223588E+03  0.56067223588E+03  0.25500000920E-02 0.  1.
    10030    2    1    2    0    0  0.00000000000E+00  0.00000000000E+00  0.12204930337E+04  0.23418375054E+04  0.19986494582E+04 0.  0.
        2    1    3    3  502    0 -0.73197549535E+03 -0.68018820707E+03  0.59343783502E+03  0.11621585894E+04  0.25500000920E-02 0. -1.
       -2    1    3    3    0  502  0.73197549535E+03  0.68018820707E+03  0.62705519864E+03  0.11796789160E+04  0.25500000920E-02 0.  1.
</event>
<event>
 5   0  0.4473361E-05  0.2032141E+04  0.7818609E-02  0.8591739E-01
       -2   -1    0    0    0  501  0.00000000000E+00  0.00000000000E+00  0.72521804536E+03  0.72521804536E+03  0.25500000920E-02 0. -1.
        2   -1    0    0  501    0  0.00000000000E+00  0.00000000000E+00 -0.14235707995E+04  0.14235707995E+04  0.25500000920E-02 0.  1.
    10030    2    1    2    0    0  0.00000000000E+00  0.00000000000E+00 -0.69835275417E+03  0.21487888449E+04  0.20321409721E+04 0.  0.
        2    1    3    3  502    0 -0.47429508982E+03  0.72358393153E+03 -0.91255378036E+03  0.12574911293E+04  0.25500000920E-02 0. -1.
       -2    1    3    3    0  502  0.47429508982E+03 -0.72358393153E+03  0.21420102619E+03  0.89129771559E+03  0.25500000920E-02 0.  1.
</event>
<event>
 5   0  0.4577279E-05  0.1966384E+04  0.7818609E-02  0.8622501E-01
       -2   -1    0    0    0  501  0.00000000000E+00  0.00000000000E+00  0.50808421950E+03  0.50808421951E+03  0.25500000920E-02 0. -1.
        2   -1    0    0  501    0  0.00000000000E+00  0.00000000000E+00 -0.19025709273E+04  0.19025709273E+04  0.25500000920E-02 0.  1.
    10030    2    1    2    0    0  0.00000000000E+00  0.00000000000E+00 -0.13944867078E+04  0.24106551468E+04  0.19663837516E+04 0.  0.
        1    1    3    3  502    0 -0.55727474869E+03 -0.68825185276E+03 -0.17363853025E+03  0.90243897166E+03  0.50400001928E-02 0. -1.
       -1    1    3    3    0  502  0.55727474869E+03  0.68825185276E+03 -0.12208481776E+04  0.15082161752E+04  0.50400001928E-02 0.  1.
</event>
<event>
 5   0  0.2142551E-05  0.2007681E+04  0.7818609E-02  0.8603038E-01
        1   -1    0    0  501    0  0.00000000000E+00  0.00000000000E+00  0.22432206106E+04  0.22432206106E+04  0.50400001928E-02 0. -1.
       -1   -1    0    0    0  501  0.00000000000E+00  0.00000000000E+00 -0.44921811199E+03  0.44921811202E+03  0.50400001928E-02 0.  1.
    10030    2    1    2    0    0  0.00000000000E+00  0.00000000000E+00  0.17940024986E+04  0.26924387226E+04  0.20076805797E+04 0.  0.
        3    1    3    3  502    0  0.77271161447E+03  0.45822812672E+03  0.29629942021E+03  0.94596491048E+03  0.10100000352E+00 0.  1.
       -3    1    3    3    0  502 -0.77271161447E+03 -0.45822812672E+03  0.14977030784E+04  0.17464738122E+04  0.10100000352E+00 0. -1.
</event>
<event>
 5   0  0.2142551E-05  0.1920430E+04  0.7818609E-02  0.8644753E-01
        1   -1    0    0  501    0  0.00000000000E+00  0.00000000000E+00  0.78602478416E+03  0.78602478417E+03  0.50400001928E-02 0.  1.
       -1   -1    0    0    0  501  0.00000000000E+00  0.00000000000E+00 -0.11730072345E+04  0.11730072345E+04  0.50400001928E-02 0. -1.
    10030    2    1    2    0    0  0.00000000000E+00  0.00000000000E+00 -0.38698245031E+03  0.19590320187E+04  0.19204299084E+04 0.  0.
        3    1    3    3  502    0  0.24626106531E+03 -0.72455169290E+03  0.39816113319E+03  0.86264243238E+03  0.10100000352E+00 0.  1.
       -3    1    3    3    0  502 -0.24626106531E+03  0.72455169290E+03 -0.78514358350E+03  0.10963895863E+04  0.10100000352E+00 0. -1.
</event>
<event>
 5   0  0.1601500E-05  0.1866538E+04  0.7818609E-02  0.8671694E-01
        3   -1    0    0  501    0  0.00000000000E+00  0.00000000000E+00  0.50939338950E+03  0.50939339951E+03  0.10100000352E+00 0.  1.
       -3   -1    0    0    0  501  0.00000000000E+00  0.00000000000E+00 -0.17098587825E+04  0.17098587855E+04  0.10100000352E+00 0. -1.
    10030    2    1    2    0    0  0.00000000000E+00  0.00000000000E+00 -0.12004653930E+04  0.22192521850E+04  0.18665377309E+04 0.  0.
        5    1    3    3  502    0 -0.56421105928E+03  0.88756361473E+02 -0.14777814272E+04  0.15843206265E+04  0.46999998093E+01 0. -1.
       -5    1    3    3    0  502  0.56421105928E+03 -0.88756361473E+02  0.27731603418E+03  0.63493155846E+03  0.46999998093E+01 0.  1.
</event>
<event>
 5   0  0.4514680E-05  0.2058168E+04  0.7818609E-02  0.8579898E-01
        2   -1    0    0  501    0  0.00000000000E+00  0.00000000000E+00  0.18604510580E+04  0.18604510580E+04  0.25500000920E-02 0. -1.
       -2   -1    0    0    0  501  0.00000000000E+00  0.00000000000E+00 -0.56922408887E+03  0.56922408888E+03  0.25500000920E-02 0.  1.
    10030    2    1    2    0    0  0.00000000000E+00  0.00000000000E+00  0.12912269691E+04  0.24296751469E+04  0.20581676884E+04 0.  0.
        3    1    3    3  502    0 -0.51955903703E+03  0.62297697960E+03  0.13931360081E+04  0.16121010692E+04  0.10100000352E+00 0. -1.
       -3    1    3    3    0  502  0.51955903703E+03 -0.62297697960E+03 -0.10190903896E+03  0.81757407768E+03  0.10100000352E+00 0.  1.
</event>
<event>
 5   0  0.2007644E-05  0.1985539E+04  0.7818609E-02  0.8613412E-01
        1   -1    0    0  501    0  0.00000000000E+00  0.00000000000E+00  0.11231485082E+04  0.11231485082E+04  0.50400001928E-02 0. -1.
       -1   -1    0    0    0  501  0.00000000000E+00  0.00000000000E+00 -0.87752502426E+03  0.87752502428E+03  0.50400001928E-02 0.  1.
    10030    2    1    2    0    0  0.00000000000E+00  0.00000000000E+00  0.24562348392E+03  0.20006735325E+04  0.19855386392E+04 0.  0.
        1    1    3    3  502    0 -0.62216828356E+03  0.71725153833E+03  0.41493154963E+03  0.10362004310E+04  0.50400001928E-02 0. -1.
       -1    1    3    3    0  502  0.62216828356E+03 -0.71725153833E+03 -0.16930806570E+03  0.96447310147E+03  0.50400001928E-02 0.  1.
</event>
<event>
 5   0  0.4473361E-05  0.2000615E+04  0.7818609E-02  0.8606333E-01
       -2   -1    0    0    0  501  0.00000000000E+00  0.00000000000E+00  0.65777216105E+03  0.65777216106E+03  0.25500000920E-02 0. -1.
        2   -1    0    0  501    0  0.00000000000E+00  0.00000000000E+00 -0.15212181905E+04  0.15212181905E+04  0.25500000920E-02 0.  1.
    10030    2    1    2    0    0  0.00000000000E+00  0.00000000000E+00 -0.86344602948E+03  0.21789903516E+04  0.20006148821E+04 0.  0.
        2    1    3    3  502    0  0.73787642018E+03 -0.66361379409E+03 -0.56849873191E+03  0.11436938783E+04  0.25500000920E-02 0. -1.
       -2    1    3    3    0  502 -0.73787642018E+03  0.66361379409E+03 -0.29494729757E+03  0.10352964732E+04  0.25500000920E-02 0.  1.
</event>
<event>
 5   0  0.2110896E-05  0.1999975E+04  0.7818609E-02  0.8606632E-01
       -1   -1    0    0    0  501  0.00000000000E+00  0.00000000000E+00  0.10474331782E+04  0.10474331782E+04  0.50400001928E-02 0.  1.
        1   -1    0    0  501    0  0.00000000000E+00  0.00000000000E+00 -0.95469143589E+03  0.95469143590E+03  0.50400001928E-02 0. -1.
    10030    2    1    2    0    0  0.00000000000E+00  0.00000000000E+00  0.92741742264E+02  0.20021246141E+04  0.19999754847E+04 0.  0.
        4    1    3    3  502    0  0.32159658335E+03  0.90253418402E+01  0.99420827140E+03  0.10449677120E+04  0.12699999809E+01 0.  1.
       -4    1    3    3    0  502 -0.32159658335E+03 -0.90253418402E+01 -0.90146652913E+03  0.95715690211E+03  0.12699999809E+01 0. -1.
</event>
<event>
 5   0  0.2007644E-05  0.1989390E+04  0.7818609E-02  0.8611597E-01
        1   -1    0    0  501    0  0.00000000000E+00  0.00000000000E+00  0.19190832232E+04  0.19190832232E+04  0.50400001928E-02 0. -1.
       -1   -1    0    0    0  501  0.00000000000E+00  0.00000000000E+00 -0.51556825483E+03  0.51556825485E+03  0.50400001928E-02 0.  1.
    10030    2    1    2    0    0  0.00000000000E+00  0.00000000000E+00  0.14035149684E+04  0.24346514781E+04  0.19893902466E+04 0.  0.
        1    1    3    3  502    0 -0.36833794500E+03 -0.16271844543E+03 -0.41135741403E+03  0.57564316752E+03  0.50400001928E-02 0.  1.
       -1    1    3    3    0  502  0.36833794500E+03  0.16271844543E+03  0.18148723824E+04  0.18590083106E+04  0.50400001928E-02 0. -1.
</event>
<event>
 5   0  0.2093980E-05  0.1982705E+04  0.7818609E-02  0.8614749E-01
       -1   -1    0    0    0  501  0.00000000000E+00  0.00000000000E+00  0.11152963077E+04  0.11152963077E+04  0.50400001928E-02 0. -1.
        1   -1    0    0  501    0  0.00000000000E+00  0.00000000000E+00 -0.88118281119E+03  0.88118281121E+03  0.50400001928E-02 0.  1.
    10030    2    1    2    0    0  0.00000000000E+00  0.00000000000E+00  0.23411349651E+03  0.19964791189E+04  0.19827051579E+04 0.  0.
        2    1    3    3  502    0  0.65596473009E+03  0.73423134548E+03  0.23359554688E+03  0.10119052699E+04  0.25500000920E-02 0.  1.
       -2    1    3    3    0  502 -0.65596473009E+03 -0.73423134548E+03  0.51794963101E+00  0.98457384898E+03  0.25500000920E-02 0. -1.
</event>
<event>
 5   0  0.2142551E-05  0.1986444E+04  0.7818609E-02  0.8612985E-01
       -1   -1    0    0    0  501  0.00000000000E+00  0.00000000000E+00  0.71133194460E+03  0.71133194462E+03  0.50400001928E-02 0.  1.
        1   -1    0    0  501    0  0.00000000000E+00  0.00000000000E+00 -0.13868201983E+04  0.13868201983E+04  0.50400001928E-02 0. -1.
    10030    2    1    2    0    0  0.00000000000E+00  0.00000000000E+00 -0.67548825368E+03  0.20981521429E+04  0.19864435643E+04 0.  0.
        3    1    3    3  502    0  0.58251575604E+03  0.73031759518E+03  0.18570770582E+02  0.93436249903E+03  0.10100000352E+00 0. -1.
       -3    1    3    3    0  502 -0.58251575604E+03 -0.73031759518E+03 -0.69405902427E+03  0.11637896439E+04  0.10100000352E+00 0.  1.
</event>
<event>
 5   0  0.4412054E-05  0.1999685E+04  0.7818609E-02  0.8606768E-01
        2   -1    0    0  501    0  0.00000000000E+00  0.00000000000E+00  0.11290336534E+04  0.11290336534E+04  0.25500000920E-02 0. -1.
       -2   -1    0    0    0  501  0.00000000000E+00  0.00000000000E+00 -0.88543382823E+03  0.88543382824E+03  0.25500000920E-02 0.  1.
    10030    2    1    2    0    0  0.00000000000E+00  0.00000000000E+00  0.24359982516E+03  0.20144674816E+04  0.19996845651E+04 0.  0.
        4    1    3    3  502    0  0.86577882368E+03  0.35138288368E+03  0.48029593840E+03  0.10505849341E+04  0.12699999809E+01 0. -1.
       -4    1    3    3    0  502 -0.86577882368E+03 -0.35138288368E+03 -0.23669611324E+03  0.96388254751E+03  0.12699999809E+01 0.  1.
</event>
<event>
 5   0  0.4412054E-05  0.2009777E+04  0.7818609E-02  0.8602063E-01
       -2   -1    0    0    0  501  0.00000000000E+00  0.00000000000E+00  0.59878133151E+03  0.59878133152E+03  0.25500000920E-02 0.  1.
        2   -1    0    0  501    0  0.00000000000E+00  0.00000000000E+00 -0.16864262651E+04  0.16864262651E+04  0.25500000920E-02 0. -1.
    10030    2    1    2    0    0  0.00000000000E+00  0.00000000000E+00 -0.10876449336E+04  0.22852075966E+04  0.20097766687E+04 0.  0.
        4    1    3    3  502    0  0.93222155506E+03 -0.24176671728E+03 -0.87003918406E+03  0.12978666989E+04  0.12699999809E+01 0.  1.
       -4    1    3    3    0  502 -0.93222155506E+03  0.24176671728E+03 -0.21760574955E+03  0.98734089778E+03  0.12699999809E+01 0. -1.
</event>
<event>
 5   0  0.2093980E-05  0.2002710E+04  0.7818609E-02  0.8605355E-01
        1   -1    0    0  501    0  0.00000000000E+00  0.00000000000E+00  0.64556725318E+03  0.64556725320E+03  0.50400001928E-02 0.  1.
       -1   -1    0    0    0  501  0.00000000000E+00  0.00000000000E+00 -0.15532255469E+04  0.15532255469E+04  0.50400001928E-02 0. -1.
    10030    2    1    2    0    0  0.00000000000E+00  0.00000000000E+00 -0.90765829374E+03  0.21987928001E+04  0.20027097143E+04 0.  0.
        2    1    3    3  502    0  0.58666025911E+03 -0.64182546784E+03  0.91381131660E+02  0.87433443374E+03  0.25500000920E-02 0.  1.
       -2    1    3    3    0  502 -0.58666025911E+03  0.64182546784E+03 -0.99903942540E+03  0.13244583664E+04  0.25500000920E-02 0. -1.
</event>
<event>
 5   0  0.4412054E-05  0.1992416E+04  0.7818609E-02  0.8610175E-01
       -2   -1    0    0    0  501  0.00000000000E+00  0.00000000000E+00  0.16733743099E+04  0.16733743099E+04  0.25500000920E-02 0. -1.
        2   -1    0    0  501    0  0.00000000000E+00  0.00000000000E+00 -0.59307127291E+03  0.59307127292E+03  0.25500000920E-02 0.  1.
    10030    2    1    2    0    0  0.00000000000E+00  0.00000000000E+00  0.10803030370E+04  0.22664455829E+04  0.19924158522E+04 0.  0.
        4    1    3    3  502    0 -0.54955265636E+03 -0.48675643950E+03  0.13061863655E+04  0.14983538927E+04  0.12699999809E+01 0. -1.
       -4    1    3    3    0  502  0.54955265636E+03  0.48675643950E+03 -0.22588332846E+03  0.76809169015E+03  0.12699999809E+01 0.  1.
</event>
<event>
 5   0  0.4577279E-05  0.2001789E+04  0.7818609E-02  0.8605785E-01
       -2   -1    0    0    0  501  0.00000000000E+00  0.00000000000E+00  0.39288215850E+03  0.39288215851E+03  0.25500000920E-02 0. -1.
        2   -1    0    0  501    0  0.00000000000E+00  0.00000000000E+00 -0.25498473383E+04  0.25498473383E+04  0.25500000920E-02 0.  1.
    10030    2    1    2    0    0  0.00000000000E+00  0.00000000000E+00 -0.21569651798E+04  0.29427294968E+04  0.20017887263E+04 0.  0.
        1    1    3    3  502    0  0.60286346281E+03 -0.61356756115E+03 -0.18307691196E+04  0.20227765760E+04  0.50400001928E-02 0.  1.
       -1    1    3    3    0  502 -0.60286346281E+03  0.61356756115E+03 -0.32619606018E+03  0.91995292085E+03  0.50400001928E-02 0. -1.
</event>
<event>
 5   0  0.4412054E-05  0.2003702E+04  0.7818609E-02  0.8604892E-01
        2   -1    0    0  501    0  0.00000000000E+00  0.00000000000E+00  0.17699230415E+04  0.17699230415E+04  0.25500000920E-02 0. -1.
       -2   -1    0    0    0  501  0.00000000000E+00  0.00000000000E+00 -0.56709001587E+03  0.56709001587E+03  0.25500000920E-02 0.  1.
    10030    2    1    2    0    0  0.00000000000E+00  0.00000000000E+00  0.12028330256E+04  0.23370130574E+04  0.20037022590E+04 0.  0.
        4    1    3    3  502    0 -0.11102780986E+03 -0.97911073902E+03  0.39044279639E+03  0.10599208480E+04  0.12699999809E+01 0.  1.
       -4    1    3    3    0  502  0.11102780986E+03  0.97911073902E+03  0.81239022925E+03  0.12770922094E+04  0.12699999809E+01 0. -1.
</event>
<event>
 5   0  0.2142551E-05  0.1993130E+04  0.7818609E-02  0.8609839E-01
       -1   -1    0    0    0  501  0.00000000000E+00  0.00000000000E+00  0.10011377459E+04  0.10011377460E+04  0.50400001928E-02 0. -1.
        1   -1    0    0  501    0  0.00000000000E+00  0.00000000000E+00 -0.99201308035E+03  0.99201308036E+03  0.50400001928E-02 0.  1.
    10030    2    1    2    0    0  0.00000000000E+00  0.00000000000E+00  0.91246655979E+01  0.19931508263E+04  0.19931299398E+04 0.  0.
        3    1    3    3  502    0  0.22507903055E+03  0.37905193510E+03 -0.88920359366E+03  0.99248374328E+03  0.10100000352E+00 0.  1.
       -3    1    3    3    0  502 -0.22507903055E+03 -0.37905193510E+03  0.89832825926E+03  0.10006670830E+04  0.10100000352E+00 0. -1.
</event>
<event>
 5   0  0.4447313E-05  0.1996962E+04  0.7818609E-02  0.8608042E-01
       -2   -1    0    0    0  501  0.00000000000E+00  0.00000000000E+00  0.62144618908E+03  0.62144618908E+03  0.25500000920E-02 0. -1.
        2   -1    0    0  501    0  0.00000000000E+00  0.00000000000E+00 -0.16042647714E+04  0.16042647714E+04  0.25500000920E-02 0.  1.
    10030    2    1    2    0    0  0.00000000000E+00  0.00000000000E+00 -0.98281858227E+03  0.22257109604E+04  0.19969619210E+04 0.  0.
        5    1    3    3  502    0  0.20670273714E+03  0.69737402050E+03  0.27096600834E+03  0.77620951661E+03  0.46999998093E+01 0. -1.
       -5    1    3    3    0  502 -0.20670273714E+03 -0.69737402050E+03 -0.12537845906E+04  0.14495014438E+04  0.46999998093E+01 0.  1.
</event>
<event>
 5   0  0.2142551E-05  0.1998435E+04  0.7818609E-02  0.8607353E-01
        1   -1    0    0  501    0  0.00000000000E+00  0.00000000000E+00  0.10344726032E+04  0.10344726032E+04  0.50400001928E-02 0.  1.
       -1   -1    0    0    0  501  0.00000000000E+00  0.00000000000E+00 -0.96516410665E+03  0.96516410666E+03  0.50400001928E-02 0. -1.
    10030    2    1    2    0    0  0.00000000000E+00  0.00000000000E+00  0.69308496546E+02  0.19996367099E+04  0.19984352138E+04 0.  0.
        3    1    3    3  502    0 -0.68731701793E+03  0.59962507760E+03  0.44292026678E+03  0.10139690773E+04  0.10100000352E+00 0.  1.
       -3    1    3    3    0  502  0.68731701793E+03 -0.59962507760E+03 -0.37361177024E+03  0.98566763256E+03  0.10100000352E+00 0. -1.
</event>
<event>
 5   0  0.2142551E-05  0.2010486E+04  0.7818609E-02  0.8601734E-01
       -1   -1    0    0    0  501  0.00000000000E+00  0.00000000000E+00  0.71526853907E+03  0.71526853909E+03  0.50400001928E-02 0.  1.
        1   -1    0    0  501    0  0.00000000000E+00  0.00000000000E+00 -0.14127754112E+04  0.14127754113E+04  0.50400001928E-02 0. -1.
    10030    2    1    2    0    0  0.00000000000E+00  0.00000000000E+00 -0.69750687218E+03  0.21280439503E+04  0.20104863138E+04 0.  0.
        3    1    3    3  502    0  0.69776460714E+03  0.47815895504E+01 -0.11146774963E+04  0.13150681509E+04  0.10100000352E+00 0.  1.
       -3    1    3    3    0  502 -0.69776460714E+03 -0.47815895504E+01  0.41717062415E+03  0.81297579941E+03  0.10100000352E+00 0. -1.
</event>
<event>
 5   0  0.4514680E-05  0.1999980E+04  0.7818609E-02  0.8606630E-01
       -2   -1    0    0    0  501  0.00000000000E+00  0.00000000000E+00  0.61835447105E+03  0.61835447105E+03  0.25500000920E-02 0.  1.
        2   -1    0    0  501    0  0.00000000000E+00  0.00000000000E+00 -0.16171622385E+04  0.16171622385E+04  0.25500000920E-02 0. -1.
    10030    2    1    2    0    0  0.00000000000E+00  0.00000000000E+00 -0.99880776749E+03  0.22355167096E+04  0.19999795005E+04 0.  0.
        3    1    3    3  502    0 -0.29628657951E+03 -0.42143499417E+03 -0.14574221464E+04  0.15457918730E+04  0.10100000352E+00 0. -1.
       -3    1    3    3    0  502  0.29628657951E+03  0.42143499417E+03  0.45861437891E+03  0.68972483663E+03  0.10100000352E+00 0.  1.
</event>
<event>
 5   0  0.2007644E-05  0.1998607E+04  0.7818609E-02  0.8607272E-01
       -1   -1    0    0    0  501  0.00000000000E+00  0.00000000000E+00  0.89752412811E+03  0.89752412812E+03  0.50400001928E-02 0. -1.
        1   -1    0    0  501    0  0.00000000000E+00  0.00000000000E+00 -0.11126243600E+04  0.11126243600E+04  0.50400001928E-02 0.  1.
    10030    2    1    2    0    0  0.00000000000E+00  0.00000000000E+00 -0.21510023184E+03  0.20101484881E+04  0.19986067233E+04 0.  0.
        1    1    3    3  502    0 -0.43674488015E+03 -0.77640407618E+03 -0.56299829787E+03  0.10538104494E+04  0.50400001928E-02 0.  1.
       -1    1    3    3    0  502  0.43674488015E+03  0.77640407618E+03  0.34789806603E+03  0.95633803868E+03  0.50400001928E-02 0. -1.
</event>
<event>
 5   0  0.2110896E-05  0.1998089E+04  0.7818609E-02  0.8607515E-01
        1   -1    0    0  501    0  0.00000000000E+00  0.00000000000E+00  0.11419363179E+04  0.11419363179E+04  0.50400001928E-02 0. -1.
       -1   -1    0    0    0  501  0.00000000000E+00  0.00000000000E+00 -0.87403283528E+03  0.87403283529E+03  0.50400001928E-02 0.  1.
    10030    2    1    2    0    0  0.00000000000E+00  0.00000000000E+00  0.26790348260E+03  0.20159691532E+04  0.19980889246E+04 0.  0.
        4    1    3    3  502    0  0.40809638671E+03 -0.90938829878E+02  0.10494166815E+04  0.11296413218E+04  0.12699999809E+01 0. -1.
       -4    1    3    3    0  502 -0.40809638671E+03  0.90938829878E+02 -0.78151319893E+03  0.88632783135E+03  0.12699999809E+01 0.  1.
</event>
<event>
 5   0  0.2256868E-05  0.2006757E+04  0.7818609E-02  0.8603468E-01
       -1   -1    0    0    0  501  0.00000000000E+00  0.00000000000E+00  0.49570027540E+03  0.49570027542E+03  0.50400001928E-02 0. -1.
        1   -1    0    0  501    0  0.00000000000E+00  0.00000000000E+00 -0.20310032487E+04  0.20310032487E+04  0.50400001928E-02 0.  1.
    10030    2    1    2    0    0  0.00000000000E+00  0.00000000000E+00 -0.15353029733E+04  0.25267035241E+04  0.20067574539E+04 0.  0.
        5    1    3    3  502    0 -0.75582584932E+03 -0.45251347309E+03 -0.13724190505E+04  0.16308271821E+04  0.46999998093E+01 0.  1.
       -5    1    3    3    0  502  0.75582584932E+03  0.45251347309E+03 -0.16288392281E+03  0.89587634199E+03  0.46999998093E+01 0. -1.
</event>
<event>
 5   0  0.2110896E-05  0.1997631E+04  0.7818609E-02  0.8607729E-01
       -1   -1    0    0    0  501  0.00000000000E+00  0.00000000000E+00  0.77553302096E+03  0.77553302097E+03  0.50400001928E-02 0. -1.
        1   -1    0    0  501    0  0.00000000000E+00  0.00000000000E+00 -0.12863824388E+04  0.12863824388E+04  0.50400001928E-02 0.  1.
    10030    2    1    2    0    0  0.00000000000E+00  0.00000000000E+00 -0.51084941784E+03  0.20619154598E+04  0.19976306554E+04 0.  0.
        4    1    3    3  502    0  0.64223195210E+03 -0.62026975238E+03 -0.71753044312E+03  0.11454466359E+04  0.12699999809E+01 0.  1.
       -4    1    3    3    0  502 -0.64223195210E+03  0.62026975238E+03  0.20668102527E+03  0.91646882387E+03  0.12699999809E+01 0. -1.
</event>
<event>
 5   0  0.2007644E-05  0.1998579E+04  0.7818609E-02  0.8607285E-01
       -1   -1    0    0    0  501  0.00000000000E+00  0.00000000000E+00  0.71357447026E+03  0.71357447028E+03  0.50400001928E-02 0. -1.
        1   -1    0    0  501    0  0.00000000000E+00  0.00000000000E+00 -0.13994053260E+04  0.13994053260E+04  0.50400001928E-02 0.  1.
    10030    2    1    2    0    0  0.00000000000E+00  0.00000000000E+00 -0.68583085577E+03  0.21129797963E+04  0.19985794097E+04 0.  0.
        1    1    3    3  502    0 -0.97282436757E+03  0.22005744482E+03 -0.27802301239E+03  0.10354271218E+04  0.50400001928E-02 0.  1.
       -1    1    3    3    0  502  0.97282436757E+03 -0.22005744482E+03 -0.40780784338E+03  0.10775526745E+04  0.50400001928E-02 0. -1.
</event>
<event>
 5   0  0.4412054E-05  0.1964298E+04  0.7818609E-02  0.8623497E-01
        2   -1    0    0  501    0  0.00000000000E+00  0.00000000000E+00  0.86427895941E+03  0.86427895942E+03  0.25500000920E-02 0.  1.
       -2   -1    0    0    0  501  0.00000000000E+00  0.00000000000E+00 -0.11160943220E+04  0.11160943220E+04  0.25500000920E-02 0. -1.
    10030    2    1    2    0    0  0.00000000000E+00  0.00000000000E+00 -0.25181536257E+03  0.19803732814E+04  0.19642981843E+04 0.  0.
        4    1    3    3  502    0  0.32442388282E+03  0.90360409390E+03  0.82822885466E+02  0.96364540030E+03  0.12699999809E+01 0.  1.
       -4    1    3    3    0  502 -0.32442388282E+03 -0.90360409390E+03 -0.33463824804E+03  0.10167278811E+04  0.12699999809E+01 0. -1.
</event>
<event>
 5   0  0.2110896E-05  0.1977507E+04  0.7818609E-02  0.8617210E-01
       -1   -1    0    0    0  501  0.00000000000E+00  0.00000000000E+00  0.11509887471E+04  0.11509887471E+04  0.50400001928E-02 0.  1.
        1   -1    0    0  501    0  0.00000000000E+00  0.00000000000E+00 -0.84938602701E+03  0.84938602702E+03  0.50400001928E-02 0. -1.
    10030    2    1    2    0    0  0.00000000000E+00  0.00000000000E+00  0.30160272012E+03  0.20003747742E+04  0.19775072785E+04 0.  0.
        4    1    3    3  502    0 -0.24175359044E+03  0.57233421375E+03 -0.62726211904E+03  0.88287633879E+03  0.12699999809E+01 0. -1.
       -4    1    3    3    0  502  0.24175359044E+03 -0.57233421375E+03  0.92886483917E+03  0.11174984354E+04  0.12699999809E+01 0.  1.
</event>
<event>
 5   0  0.2007644E-05  0.2002486E+04  0.7818609E-02  0.8605459E-01
        1   -1    0    0  501    0  0.00000000000E+00  0.00000000000E+00  0.62837772163E+03  0.62837772165E+03  0.50400001928E-02 0. -1.
       -1   -1    0    0    0  501  0.00000000000E+00  0.00000000000E+00 -0.15953583819E+04  0.15953583819E+04  0.50400001928E-02 0.  1.
    10030    2    1    2    0    0  0.00000000000E+00  0.00000000000E+00 -0.96698066026E+03  0.22237361035E+04  0.20024861200E+04 0.  0.
        1    1    3    3  502    0 -0.48371504332E+03 -0.81697539463E+03 -0.13046942135E+03  0.95835865337E+03  0.50400001928E-02 0.  1.
       -1    1    3    3    0  502  0.48371504332E+03  0.81697539463E+03 -0.83651123891E+03  0.12653774502E+04  0.50400001928E-02 0. -1.
</event>
<event>
 5   0  0.2142551E-05  0.1976829E+04  0.7818609E-02  0.8617531E-01
       -1   -1    0    0    0  501  0.00000000000E+00  0.00000000000E+00  0.67638599359E+03  0.67638599361E+03  0.50400001928E-02 0. -1.
        1   -1    0    0  501    0  0.00000000000E+00  0.00000000000E+00 -0.14443864548E+04  0.14443864548E+04  0.50400001928E-02 0.  1.
    10030    2    1    2    0    0  0.00000000000E+00  0.00000000000E+00 -0.76800046121E+03  0.21207724484E+04  0.19768285382E+04 0.  0.
        3    1    3    3  502    0  0.44320369402E+03  0.71811050011E+03  0.16810964089E+03  0.86044933977E+03  0.10100000352E+00 0. -1.
       -3    1    3    3    0  502 -0.44320369402E+03 -0.71811050011E+03 -0.93611010210E+03  0.12603231087E+04  0.10100000352E+00 0.  1.
</event>
<event>
 5   0  0.2142551E-05  0.1993722E+04  0.7818609E-02  0.8609562E-01
       -1   -1    0    0    0  501  0.00000000000E+00  0.00000000000E+00  0.77884840928E+03  0.77884840929E+03  0.50400001928E-02 0. -1.
        1   -1    0    0  501    0  0.00000000000E+00  0.00000000000E+00 -0.12758985546E+04  0.12758985546E+04  0.50400001928E-02 0.  1.
    10030    2    1    2    0    0  0.00000000000E+00  0.00000000000E+00 -0.49705014531E+03  0.20547469639E+04  0.19937217054E+04 0.  0.
        3    1    3    3  502    0 -0.27461532488E+03  0.95307514287E+03 -0.14564087088E+03  0.10024854503E+04  0.10100000352E+00 0. -1.
       -3    1    3    3    0  502  0.27461532488E+03 -0.95307514287E+03 -0.35140927443E+03  0.10522615136E+04  0.10100000352E+00 0.  1.
</event>
<event>
 5   0  0.4412054E-05  0.2000457E+04  0.7818609E-02  0.8606407E-01
       -2   -1    0    0    0  501  0.00000000000E+00  0.00000000000E+00  0.47477530227E+03  0.47477530228E+03  0.25500000920E-02 0.  1.
        2   -1    0    0  501    0  0.00000000000E+00  0.00000000000E+00 -0.21072214454E+04  0.21072214454E+04  0.25500000920E-02 0. -1.
    10030    2    1    2    0    0  0.00000000000E+00  0.00000000000E+00 -0.16324461431E+04  0.25819967477E+04  0.20004566466E+04 0.  0.
        4    1    3    3  502    0  0.71417662873E+03 -0.69949592012E+03 -0.77317686523E+03  0.12637827650E+04  0.12699999809E+01 0. -1.
       -4    1    3    3    0  502 -0.71417662873E+03  0.69949592012E+03 -0.85926927791E+03  0.13182139827E+04  0.12699999809E+01 0.  1.
</event>
<event>
 5   0  0.2093980E-05  0.2007663E+04  0.7818609E-02  0.8603046E-01
        1   -1    0    0  501    0  0.00000000000E+00  0.00000000000E+00  0.94482543167E+03  0.94482543168E+03  0.50400001928E-02 0.  1.
       -1   -1    0    0    0  501  0.00000000000E+00  0.00000000000E+00 -0.10665230311E+04  0.10665230311E+04  0.50400001928E-02 0. -1.
    10030    2    1    2    0    0  0.00000000000E+00  0.00000000000E+00 -0.12169759938E+03  0.20113484627E+04  0.20076634013E+04 0.  0.
        2    1    3    3  502    0 -0.25798230047E+03  0.40372761828E+03  0.82288552070E+03  0.95220346424E+03  0.25500000920E-02 0.  1.
       -2    1    3    3    0  502  0.25798230047E+03 -0.40372761828E+03 -0.94458312008E+03  0.10591449985E+04  0.25500000920E-02 0. -1.
</event>
<event>
 5   0  0.2110896E-05  0.2003088E+04  0.7818609E-02  0.8605178E-01
       -1   -1    0    0    0  501  0.00000000000E+00  0.00000000000E+00  0.84623737213E+03  0.84623737214E+03  0.50400001928E-02 0. -1.
        1   -1    0    0  501    0  0.00000000000E+00  0.00000000000E+00 -0.11853529116E+04  0.11853529116E+04  0.50400001928E-02 0.  1.
    10030    2    1    2    0    0  0.00000000000E+00  0.00000000000E+00 -0.33911553948E+03  0.20315902838E+04  0.20030875497E+04 0.  0.
        4    1    3    3  502    0  0.37639487554E+02 -0.95846826283E+03 -0.46177234130E+03  0.10645719562E+04  0.12699999809E+01 0. -1.
       -4    1    3    3    0  502 -0.37639487554E+02  0.95846826283E+03  0.12265680182E+03  0.96701832754E+03  0.12699999809E+01 0.  1.
</event>
<event>
 5   0  0.4412054E-05  0.1998248E+04  0.7818609E-02  0.8607440E-01
       -2   -1    0    0    0  501  0.00000000000E+00  0.00000000000E+00  0.40623946885E+03  0.40623946885E+03  0.25500000920E-02 0. -1.
        2   -1    0    0  501    0  0.00000000000E+00  0.00000000000E+00 -0.24572925069E+04  0.24572925069E+04  0.25500000920E-02 0.  1.
    10030    2    1    2    0    0  0.00000000000E+00  0.00000000000E+00 -0.20510530380E+04  0.28635319757E+04  0.19982484358E+04 0.  0.
        4    1    3    3  502    0 -0.59475664047E+03  0.10277809704E+03 -0.21665107556E+04  0.22490151769E+04  0.12699999809E+01 0.  1.
       -4    1    3    3    0  502  0.59475664047E+03 -0.10277809704E+03  0.11545771761E+03  0.61451679885E+03  0.12699999809E+01 0. -1.
</event>
<event>
 5   0  0.4447313E-05  0.2003040E+04  0.7818609E-02  0.8605201E-01
        2   -1    0    0  501    0  0.00000000000E+00  0.00000000000E+00  0.88932405009E+03  0.88932405010E+03  0.25500000920E-02 0.  1.
       -2   -1    0    0    0  501  0.00000000000E+00  0.00000000000E+00 -0.11278706477E+04  0.11278706477E+04  0.25500000920E-02 0. -1.
    10030    2    1    2    0    0  0.00000000000E+00  0.00000000000E+00 -0.23854659759E+03  0.20171946978E+04  0.20030401817E+04 0.  0.
        5    1    3    3  502    0  0.11569079124E+03  0.45473001582E+03  0.77177096891E+03  0.90322547844E+03  0.46999998093E+01 0.  1.
       -5    1    3    3    0  502 -0.11569079124E+03 -0.45473001582E+03 -0.10103175665E+04  0.11139692193E+04  0.46999998093E+01 0. -1.
</event>
<event>
 5   0  0.2110896E-05  0.2002756E+04  0.7818609E-02  0.8605333E-01
       -1   -1    0    0    0  501  0.00000000000E+00  0.00000000000E+00  0.59590838747E+03  0.59590838749E+03  0.50400001928E-02 0.  1.
        1   -1    0    0  501    0  0.00000000000E+00  0.00000000000E+00 -0.16827378885E+04  0.16827378885E+04  0.50400001928E-02 0. -1.
    10030    2    1    2    0    0  0.00000000000E+00  0.00000000000E+00 -0.10868295010E+04  0.22786462760E+04  0.20027557232E+04 0.  0.
        4    1    3    3  502    0 -0.20522279858E+02  0.30947827961E+03  0.53988024867E+03  0.62263172528E+03  0.12699999809E+01 0.  1.
       -4    1    3    3    0  502  0.20522279858E+02 -0.30947827961E+03 -0.16267097497E+04  0.16560145507E+04  0.12699999809E+01 0. -1.
</event>
<event>
 5   0  0.4412054E-05  0.1984674E+04  0.7818609E-02  0.8613820E-01
        2   -1    0    0  501    0  0.00000000000E+00  0.00000000000E+00  0.94985143332E+03  0.94985143332E+03  0.25500000920E-02 0.  1.
       -2   -1    0    0    0  501  0.00000000000E+00  0.00000000000E+00 -0.10367230253E+04  0.10367230253E+04  0.25500000920E-02 0. -1.
    10030    2    1    2    0    0  0.00000000000E+00  0.00000000000E+00 -0.86871591933E+02  0.19865744586E+04  0.19846741309E+04 0.  0.
        4    1    3    3  502    0 -0.57918648699E+03  0.23642160388E+03  0.72761280389E+03  0.95956978213E+03  0.12699999809E+01 0.  1.
       -4    1    3    3    0  502  0.57918648699E+03 -0.23642160388E+03 -0.81448439582E+03  0.10270046764E+04  0.12699999809E+01 0. -1.
</event>
<event>
 5   0  0.4514680E-05  0.1909503E+04  0.7818609E-02  0.8650141E-01
       -2   -1    0    0    0  501  0.00000000000E+00  0.00000000000E+00  0.11011195169E+04  0.11011195169E+04  0.25500000920E-02 0.  1.
        2   -1    0    0  501    0  0.00000000000E+00  0.00000000000E+00 -0.82783947577E+03  0.82783947577E+03  0.25500000920E-02 0. -1.
    10030    2    1    2    0    0  0.00000000000E+00  0.00000000000E+00  0.27328004117E+03  0.19289589927E+04  0.19095027663E+04 0.  0.
        3    1    3    3  502    0 -0.75419896858E+03 -0.55255851863E+03  0.33203575965E+03  0.99216165850E+03  0.10100000352E+00 0.  1.
       -3    1    3    3    0  502  0.75419896858E+03  0.55255851863E+03 -0.58755718478E+02  0.93679733420E+03  0.10100000352E+00 0. -1.
</event>
<event>
 5   0  0.2256868E-05  0.2003635E+04  0.7818609E-02  0.8604923E-01
       -1   -1    0    0    0  501  0.00000000000E+00  0.00000000000E+00  0.67549826751E+03  0.67549826753E+03  0.50400001928E-02 0.  1.
        1   -1    0    0  501    0  0.00000000000E+00  0.00000000000E+00 -0.14857745222E+04  0.14857745223E+04  0.50400001928E-02 0. -1.
    10030    2    1    2    0    0  0.00000000000E+00  0.00000000000E+00 -0.81027625474E+03  0.21612727898E+04  0.20036348128E+04 0.  0.
        5    1    3    3  502    0  0.20060790548E+03 -0.59160688180E+03 -0.12499375814E+04  0.13973576070E+04  0.46999998093E+01 0. -1.
       -5    1    3    3    0  502 -0.20060790548E+03  0.59160688180E+03  0.43966132669E+03  0.76391518280E+03  0.46999998093E+01 0.  1.
</event>
<event>
 5   0  0.4473361E-05  0.1998747E+04  0.7818609E-02  0.8607207E-01
       -2   -1    0    0    0  501  0.00000000000E+00  0.00000000000E+00  0.88347460461E+03  0.88347460461E+03  0.25500000920E-02 0. -1.
        2   -1    0    0  501    0  0.00000000000E+00  0.00000000000E+00 -0.11304765996E+04  0.11304765996E+04  0.25500000920E-02 0.  1.
    10030    2    1    2    0    0  0.00000000000E+00  0.00000000000E+00 -0.24700199498E+03  0.20139512042E+04  0.19987469743E+04 0.  0.
        2    1    3    3  502    0 -0.80827546532E+03  0.23781815267E+03 -0.66506571457E+03  0.10733960622E+04  0.25500000920E-02 0.  1.
       -2    1    3    3    0  502  0.80827546532E+03 -0.23781815267E+03  0.41806371959E+03  0.94055514204E+03  0.25500000920E-02 0. -1.
</event>
<event>
 5   0  0.2256868E-05  0.2003560E+04  0.7818609E-02  0.8604958E-01
       -1   -1    0    0    0  501  0.00000000000E+00  0.00000000000E+00  0.95256033519E+03  0.95256033520E+03  0.50400001928E-02 0. -1.
        1   -1    0    0  501    0  0.00000000000E+00  0.00000000000E+00 -0.10535427778E+04  0.10535427778E+04  0.50400001928E-02 0.  1.
    10030    2    1    2    0    0  0.00000000000E+00  0.00000000000E+00 -0.10098244259E+03  0.20061031130E+04  0.20035598934E+04 0.  0.
        5    1    3    3  502    0 -0.89674677610E+03 -0.32460479845E+02  0.39541945905E+03  0.98060547714E+03  0.46999998093E+01 0. -1.
       -5    1    3    3    0  502  0.89674677610E+03  0.32460479845E+02 -0.49640190165E+03  0.10254976359E+04  0.46999998093E+01 0.  1.
</event>
<event>
 5   0  0.4473361E-05  0.2010797E+04  0.7818609E-02  0.8601589E-01
        2   -1    0    0  501    0  0.00000000000E+00  0.00000000000E+00  0.15565972900E+04  0.15565972900E+04  0.25500000920E-02 0. -1.
       -2   -1    0    0    0  501  0.00000000000E+00  0.00000000000E+00 -0.64938185814E+03  0.64938185814E+03  0.25500000920E-02 0.  1.
    10030    2    1    2    0    0  0.00000000000E+00  0.00000000000E+00  0.90721543190E+03  0.22059791482E+04  0.20107968973E+04 0.  0.
        2    1    3    3  502    0  0.17713425379E+03  0.56743287246E+03 -0.43594354461E+03  0.73715899418E+03  0.25500000920E-02 0.  1.
       -2    1    3    3    0  502 -0.17713425379E+03 -0.56743287246E+03  0.13431589765E+04  0.14688201540E+04  0.25500000920E-02 0. -1.
</event>
<event>
 5   0  0.2142551E-05  0.1998419E+04  0.7818609E-02  0.8607360E-01
        1   -1    0    0  501    0  0.00000000000E+00  0.00000000000E+00  0.19027623943E+04  0.19027623943E+04  0.50400001928E-02 0.  1.
       -1   -1    0    0    0  501  0.00000000000E+00  0.00000000000E+00 -0.52472133178E+03  0.52472133180E+03  0.50400001928E-02 0. -1.
    10030    2    1    2    0    0  0.00000000000E+00  0.00000000000E+00  0.13780410625E+04  0.24274837261E+04  0.19984193930E+04 0.  0.
        3    1    3    3  502    0 -0.30177018732E+03  0.23248549207E+03 -0.43305450992E+03  0.57675902138E+03  0.10100000352E+00 0. -1.
       -3    1    3    3    0  502  0.30177018732E+03 -0.23248549207E+03  0.18110955724E+04  0.18507247047E+04  0.10100000352E+00 0.  1.
</event>
<event>
 5   0  0.4514680E-05  0.1990911E+04  0.7818609E-02  0.8610882E-01
        2   -1    0    0  501    0  0.00000000000E+00  0.00000000000E+00  0.89230142271E+03  0.89230142272E+03  0.25500000920E-02 0. -1.
       -2   -1    0    0    0  501  0.00000000000E+00  0.00000000000E+00 -0.11105346791E+04  0.11105346791E+04  0.25500000920E-02 0.  1.
    10030    2    1    2    0    0  0.00000000000E+00  0.00000000000E+00 -0.21823325641E+03  0.20028361018E+04  0.19909110218E+04 0.  0.
        3    1    3    3  502    0  0.85209404894E+03 -0.50447831638E+03 -0.21155496076E+03  0.10125799482E+04  0.10100000352E+00 0. -1.
       -3    1    3    3    0  502 -0.85209404894E+03  0.50447831638E+03 -0.66782956534E+01  0.99025615361E+03  0.10100000352E+00 0.  1.
</event>
<event>
 5   0  0.2110896E-05  0.1992241E+04  0.7818609E-02  0.8610257E-01
       -1   -1    0    0    0  501  0.00000000000E+00  0.00000000000E+00  0.99128189060E+03  0.99128189061E+03  0.50400001928E-02 0.  1.
        1   -1    0    0  501    0  0.00000000000E+00  0.00000000000E+00 -0.10009822565E+04  0.10009822565E+04  0.50400001928E-02 0. -1.
    10030    2    1    2    0    0  0.00000000000E+00  0.00000000000E+00 -0.97003658836E+01  0.19922641471E+04  0.19922405314E+04 0.  0.
        4    1    3    3  502    0 -0.18146671695E+03 -0.27108621084E+01 -0.98430880689E+03  0.10009010732E+04  0.12699999809E+01 0. -1.
       -4    1    3    3    0  502  0.18146671695E+03  0.27108621084E+01  0.97460844100E+03  0.99136307391E+03  0.12699999809E+01 0.  1.
</event>
<event>
 5   0  0.2007644E-05  0.2000592E+04  0.7818609E-02  0.8606344E-01
        1   -1    0    0  501    0  0.00000000000E+00  0.00000000000E+00  0.16270676057E+04  0.16270676057E+04  0.50400001928E-02 0.  1.
       -1   -1    0    0    0  501  0.00000000000E+00  0.00000000000E+00 -0.61496670904E+03  0.61496670906E+03  0.50400001928E-02 0. -1.
    10030    2    1    2    0    0  0.00000000000E+00  0.00000000000E+00  0.10121008966E+04  0.22420343148E+04  0.20005923232E+04 0.  0.
        1    1    3    3  502    0 -0.61330550621E+03 -0.76646123932E+03  0.29052331056E+03  0.10237237271E+04  0.50400001928E-02 0. -1.
       -1    1    3    3    0  502  0.61330550621E+03  0.76646123932E+03  0.72157758608E+03  0.12183105877E+04  0.50400001928E-02 0.  1.
</event>
<event>
 5   0  0.4473361E-05  0.2008592E+04  0.7818609E-02  0.8602614E-01
       -2   -1    0    0    0  501  0.00000000000E+00  0.00000000000E+00  0.10375368945E+04  0.10375368945E+04  0.25500000920E-02 0.  1.
        2   -1    0    0  501    0  0.00000000000E+00  0.00000000000E+00 -0.97212047221E+03  0.97212047222E+03  0.25500000920E-02 0. -1.
    10030    2    1    2    0    0  0.00000000000E+00  0.00000000000E+00  0.65416422298E+02  0.20096573667E+04  0.20085923985E+04 0.  0.
        2    1    3    3  502    0  0.20882153107E+03 -0.69461819280E+03  0.72770589854E+03  0.10274515757E+04  0.25500000920E-02 0.  1.
       -2    1    3    3    0  502 -0.20882153107E+03  0.69461819280E+03 -0.66228947625E+03  0.98220579104E+03  0.25500000920E-02 0. -1.
</event>
<event>
 5   0  0.2142551E-05  0.2014594E+04  0.7818609E-02  0.8599828E-01
       -1   -1    0    0    0  501  0.00000000000E+00  0.00000000000E+00  0.15401271133E+04  0.15401271133E+04  0.50400001928E-02 0.  1.
        1   -1    0    0  501    0  0.00000000000E+00  0.00000000000E+00 -0.65880727979E+03  0.65880727981E+03  0.50400001928E-02 0. -1.
    10030    2    1    2    0    0  0.00000000000E+00  0.00000000000E+00  0.88131983353E+03  0.21989343931E+04  0.20145937100E+04 0.  0.
        3    1    3    3  502    0 -0.66056264025E+03 -0.55399443277E+03 -0.12796385000E+03  0.87156617095E+03  0.10100000352E+00 0. -1.
       -3    1    3    3    0  502  0.66056264025E+03  0.55399443277E+03  0.10092836835E+04  0.13273682222E+04  0.10100000352E+00 0.  1.
</event>
<event>
 5   0  0.4412054E-05  0.2004445E+04  0.7818609E-02  0.8604545E-01
        2   -1    0    0  501    0  0.00000000000E+00  0.00000000000E+00  0.83772259714E+03  0.83772259714E+03  0.25500000920E-02 0. -1.
       -2   -1    0    0    0  501  0.00000000000E+00  0.00000000000E+00 -0.11990246765E+04  0.11990246765E+04  0.25500000920E-02 0.  1.
    10030    2    1    2    0    0  0.00000000000E+00  0.00000000000E+00 -0.36130207939E+03  0.20367472737E+04  0.20044451263E+04 0.  0.
        4    1    3    3  502    0 -0.10597130222E+03  0.36531346966E+03 -0.11228285928E+04  0.11855081230E+04  0.12699999809E+01 0.  1.
       -4    1    3    3    0  502  0.10597130222E+03 -0.36531346966E+03  0.76152651344E+03  0.85123915064E+03  0.12699999809E+01 0. -1.
</event>
<event>
 5   0  0.4514680E-05  0.1991857E+04  0.7818609E-02  0.8610437E-01
        2   -1    0    0  501    0  0.00000000000E+00  0.00000000000E+00  0.15387516567E+04  0.15387516567E+04  0.25500000920E-02 0.  1.
       -2   -1    0    0    0  501  0.00000000000E+00  0.00000000000E+00 -0.64459636477E+03  0.64459636477E+03  0.25500000920E-02 0. -1.
    10030    2    1    2    0    0  0.00000000000E+00  0.00000000000E+00  0.89415529197E+03  0.21833480215E+04  0.19918571477E+04 0.  0.
        3    1    3    3  502    0 -0.32675539351E+02 -0.84777732325E+03 -0.12468107205E+03  0.85751936458E+03  0.10100000352E+00 0.  1.
       -3    1    3    3    0  502  0.32675539351E+02  0.84777732325E+03  0.10188363640E+04  0.13258286569E+04  0.10100000352E+00 0. -1.
</event>
<event>
 5   0  0.4447313E-05  0.2001604E+04  0.7818609E-02  0.8605871E-01
       -2   -1    0    0    0  501  0.00000000000E+00  0.00000000000E+00  0.95697505564E+03  0.95697505564E+03  0.25500000920E-02 0.  1.
        2   -1    0    0  501    0  0.00000000000E+00  0.00000000000E+00 -0.10466359757E+04  0.10466359757E+04  0.25500000920E-02 0. -1.
    10030    2    1    2    0    0  0.00000000000E+00  0.00000000000E+00 -0.89660920049E+02  0.20036110313E+04  0.20016038780E+04 0.  0.
        5    1    3    3  502    0  0.59419303209E+03 -0.24012632360E+03 -0.81427311786E+03  0.10362378159E+04  0.46999998093E+01 0. -1.
       -5    1    3    3    0  502 -0.59419303209E+03  0.24012632360E+03  0.72461219781E+03  0.96737321541E+03  0.46999998093E+01 0.  1.
</event>
<event>
 5   0  0.2110896E-05  0.2046506E+04  0.7818609E-02  0.8585181E-01
       -1   -1    0    0    0  501  0.00000000000E+00  0.00000000000E+00  0.74140000779E+03  0.74140000781E+03  0.50400001928E-02 0. -1.
        1   -1    0    0  501    0  0.00000000000E+00  0.00000000000E+00 -0.14122559705E+04  0.14122559705E+04  0.50400001928E-02 0.  1.
    10030    2    1    2    0    0  0.00000000000E+00  0.00000000000E+00 -0.67085596273E+03  0.21536559783E+04  0.20465058882E+04 0.  0.
        4    1    3    3  502    0 -0.71259651170E+03  0.72300419289E+03 -0.47067178920E+03  0.11189559408E+04  0.12699999809E+01 0.  1.
       -4    1    3    3    0  502  0.71259651170E+03 -0.72300419289E+03 -0.20018417354E+03  0.10347000375E+04  0.12699999809E+01 0. -1.
</event>
<event>
 5   0  0.2142551E-05  0.2002674E+04  0.7818609E-02  0.8605371E-01
       -1   -1    0    0    0  501  0.00000000000E+00  0.00000000000E+00  0.11041209305E+04  0.11041209305E+04  0.50400001928E-02 0. -1.
        1   -1    0    0  501    0  0.00000000000E+00  0.00000000000E+00 -0.90812173060E+03  0.90812173062E+03  0.50400001928E-02 0.  1.
    10030    2    1    2    0    0  0.00000000000E+00  0.00000000000E+00  0.19599919990E+03  0.20122426611E+04  0.20026744221E+04 0.  0.
        3    1    3    3  502    0 -0.32885480145E+03  0.40160361099E+03  0.95838817120E+03  0.10899260698E+04  0.10100000352E+00 0. -1.
       -3    1    3    3    0  502  0.32885480145E+03 -0.40160361099E+03 -0.76238897131E+03  0.92231659129E+03  0.10100000352E+00 0.  1.
</event>
<event>
 5   0  0.2256868E-05  0.1998833E+04  0.7818609E-02  0.8607166E-01
       -1   -1    0    0    0  501  0.00000000000E+00  0.00000000000E+00  0.11193929224E+04  0.11193929224E+04  0.50400001928E-02 0.  1.
        1   -1    0    0  501    0  0.00000000000E+00  0.00000000000E+00 -0.89229909521E+03  0.89229909523E+03  0.50400001928E-02 0. -1.
    10030    2    1    2    0    0  0.00000000000E+00  0.00000000000E+00  0.22709382715E+03  0.20116920176E+04  0.19988329513E+04 0.  0.
        5    1    3    3  502    0  0.27283965874E+03 -0.72761053458E+03  0.74604249915E+03  0.10772465224E+04  0.46999998093E+01 0.  1.
       -5    1    3    3    0  502 -0.27283965874E+03  0.72761053458E+03 -0.51894867200E+03  0.93444549524E+03  0.46999998093E+01 0. -1.
</event>
<event>
 5   0  0.4412054E-05  0.1993962E+04  0.7818609E-02  0.8609449E-01
       -2   -1    0    0    0  501  0.00000000000E+00  0.00000000000E+00  0.10354612229E+04  0.10354612229E+04  0.25500000920E-02 0. -1.
        2   -1    0    0  501    0  0.00000000000E+00  0.00000000000E+00 -0.95993107841E+03  0.95993107841E+03  0.25500000920E-02 0.  1.
    10030    2    1    2    0    0  0.00000000000E+00  0.00000000000E+00  0.75530144532E+02  0.19953923014E+04  0.19939622949E+04 0.  0.
        4    1    3    3  502    0  0.54280456413E+03 -0.51042344727E+03  0.70066062887E+03  0.10227882577E+04  0.12699999809E+01 0. -1.
       -4    1    3    3    0  502 -0.54280456413E+03  0.51042344727E+03 -0.62513048433E+03  0.97260404364E+03  0.12699999809E+01 0.  1.
</event>
<event>
 5   0  0.4577279E-05  0.2043322E+04  0.7818609E-02  0.8586630E-01
        2   -1    0    0  501    0  0.00000000000E+00  0.00000000000E+00  0.11551782435E+04  0.11551782435E+04  0.25500000920E-02 0.  1.
       -2   -1    0    0    0  501  0.00000000000E+00  0.00000000000E+00 -0.90357577594E+03  0.90357577594E+03  0.25500000920E-02 0. -1.
    10030    2    1    2    0    0  0.00000000000E+00  0.00000000000E+00  0.25160246752E+03  0.20587540194E+04  0.20433218813E+04 0.  0.
        1    1    3    3  502    0  0.97168885637E+02 -0.10167527789E+04  0.14970958539E+03  0.10322988742E+04  0.50400001928E-02 0. -1.
       -1    1    3    3    0  502 -0.97168885637E+02  0.10167527789E+04  0.10189288212E+03  0.10264551452E+04  0.50400001928E-02 0.  1.
</event>
<event>
 5   0  0.4447313E-05  0.1999633E+04  0.7818609E-02  0.8606792E-01
        2   -1    0    0  501    0  0.00000000000E+00  0.00000000000E+00  0.15262100561E+04  0.15262100561E+04  0.25500000920E-02 0. -1.
       -2   -1    0    0    0  501  0.00000000000E+00  0.00000000000E+00 -0.65497724196E+03  0.65497724196E+03  0.25500000920E-02 0.  1.
    10030    2    1    2    0    0  0.00000000000E+00  0.00000000000E+00  0.87123281413E+03  0.21811872981E+04  0.19996328195E+04 0.  0.
        5    1    3    3  502    0 -0.74535158792E+03 -0.66009963311E+03  0.33605943764E+03  0.10508275552E+04  0.46999998093E+01 0. -1.
       -5    1    3    3    0  502  0.74535158792E+03  0.66009963311E+03  0.53517337650E+03  0.11303597428E+04  0.46999998093E+01 0.  1.
</event>
<event>
 5   0  0.4412054E-05  0.1986192E+04  0.7818609E-02  0.8613104E-01
        2   -1    0    0  501    0  0.00000000000E+00  0.00000000000E+00  0.12218487182E+04  0.12218487182E+04  0.25500000920E-02 0. -1.
       -2   -1    0    0    0  501  0.00000000000E+00  0.00000000000E+00 -0.80717027404E+03  0.80717027404E+03  0.25500000920E-02 0.  1.
    10030    2    1    2    0    0  0.00000000000E+00  0.00000000000E+00  0.41467844416E+03  0.20290189922E+04  0.19861923016E+04 0.  0.
        4    1    3    3  502    0  0.25019927871E+02 -0.66490791952E+03 -0.54578829021E+03  0.86058991910E+03  0.12699999809E+01 0.  1.
       -4    1    3    3    0  502 -0.25019927871E+02  0.66490791952E+03  0.96046673437E+03  0.11684290731E+04  0.12699999809E+01 0. -1.
</event>
<event>
 5   0  0.4473361E-05  0.2005250E+04  0.7818609E-02  0.8604170E-01
        2   -1    0    0  501    0  0.00000000000E+00  0.00000000000E+00  0.20564998206E+04  0.20564998206E+04  0.25500000920E-02 0.  1.
       -2   -1    0    0    0  501  0.00000000000E+00  0.00000000000E+00 -0.48881939410E+03  0.48881939410E+03  0.25500000920E-02 0. -1.
    10030    2    1    2    0    0  0.00000000000E+00  0.00000000000E+00  0.15676804265E+04  0.25453192147E+04  0.20052501054E+04 0.  0.
        2    1    3    3  502    0  0.19270520378E+02 -0.68173735366E+03 -0.14902471744E+03  0.69810138142E+03  0.25500000920E-02 0. -1.
       -2    1    3    3    0  502 -0.19270520378E+02  0.68173735366E+03  0.17167051439E+04  0.18472178333E+04  0.25500000920E-02 0.  1.
</event>
<event>
 5   0  0.4447313E-05  0.2006681E+04  0.7818609E-02  0.8603503E-01
       -2   -1    0    0    0  501  0.00000000000E+00  0.00000000000E+00  0.71257818038E+03  0.71257818038E+03  0.25500000920E-02 0.  1.
        2   -1    0    0  501    0  0.00000000000E+00  0.00000000000E+00 -0.14127467086E+04  0.14127467086E+04  0.25500000920E-02 0. -1.
    10030    2    1    2    0    0  0.00000000000E+00  0.00000000000E+00 -0.70016852824E+03  0.21253248890E+04  0.20066813190E+04 0.  0.
        5    1    3    3  502    0  0.53723063083E+03 -0.81846524768E+03 -0.11763537526E+03  0.98608431885E+03  0.46999998093E+01 0. -1.
       -5    1    3    3    0  502 -0.53723063083E+03  0.81846524768E+03 -0.58253315298E+03  0.11392405702E+04  0.46999998093E+01 0.  1.
</event>
<event>
 5   0  0.4447313E-05  0.1998792E+04  0.7818609E-02  0.8607185E-01
       -2   -1    0    0    0  501  0.00000000000E+00  0.00000000000E+00  0.55944409954E+03  0.55944409954E+03  0.25500000920E-02 0.  1.
        2   -1    0    0  501    0  0.00000000000E+00  0.00000000000E+00 -0.17853306652E+04  0.17853306652E+04  0.25500000920E-02 0. -1.
    10030    2    1    2    0    0  0.00000000000E+00  0.00000000000E+00 -0.12258865657E+04  0.23447747648E+04  0.19987923418E+04 0.  0.
        5    1    3    3  502    0 -0.48702915056E+03 -0.26552010241E+03 -0.15881466606E+04  0.16822396452E+04  0.46999998093E+01 0. -1.
       -5    1    3    3    0  502  0.48702915056E+03  0.26552010241E+03  0.36226009493E+03  0.66253511956E+03  0.46999998093E+01 0.  1.
</event>
<event>
 5   0  0.2093980E-05  0.2016534E+04  0.7818609E-02  0.8598929E-01
       -1   -1    0    0    0  501  0.00000000000E+00  0.00000000000E+00  0.18810878865E+04  0.18810878865E+04  0.50400001928E-02 0.  1.
        1   -1    0    0  501    0  0.00000000000E+00  0.00000000000E+00 -0.54043295074E+03  0.54043295076E+03  0.50400001928E-02 0. -1.
    10030    2    1    2    0    0  0.00000000000E+00  0.00000000000E+00  0.13406549357E+04  0.24215208372E+04  0.20165335376E+04 0.  0.
        2    1    3    3  502    0  0.57157719008E+03 -0.77063353330E+03  0.10424412120E+04  0.14167781080E+04  0.25500000920E-02 0.  1.
       -2    1    3    3    0  502 -0.57157719008E+03  0.77063353330E+03  0.29821372371E+03  0.10047427292E+04  0.25500000920E-02 0. -1.
</event>
<event>
 5   0  0.2093980E-05  0.2002599E+04  0.7818609E-02  0.8605406E-01
       -1   -1    0    0    0  501  0.00000000000E+00  0.00000000000E+00  0.79779052765E+03  0.79779052767E+03  0.50400001928E-02 0. -1.
        1   -1    0    0  501    0  0.00000000000E+00  0.00000000000E+00 -0.12567219889E+04  0.12567219889E+04  0.50400001928E-02 0.  1.
    10030    2    1    2    0    0  0.00000000000E+00  0.00000000000E+00 -0.45893146122E+03  0.20545125166E+04  0.20025992097E+04 0.  0.
        2    1    3    3  502    0  0.49043541367E+03 -0.79032409575E+03 -0.60983533722E+03  0.11122221945E+04  0.25500000920E-02 0.  1.
       -2    1    3    3    0  502 -0.49043541367E+03  0.79032409575E+03  0.15090387600E+03  0.94229032209E+03  0.25500000920E-02 0. -1.
</event>
<event>
 5   0  0.1601500E-05  0.1999865E+04  0.7818609E-02  0.8606684E-01
        4   -1    0    0  501    0  0.00000000000E+00  0.00000000000E+00  0.85474979520E+03  0.85475073869E+03  0.12699999809E+01 0. -1.
       -4   -1    0    0    0  501  0.00000000000E+00  0.00000000000E+00 -0.11697729722E+04  0.11697736616E+04  0.12699999809E+01 0.  1.
    10030    2    1    2    0    0  0.00000000000E+00  0.00000000000E+00 -0.31502317701E+03  0.20245244003E+04  0.19998648568E+04 0.  0.
        5    1    3    3  502    0 -0.38125876132E+02 -0.73554035881E+03  0.52711852817E+03  0.90573132584E+03  0.46999998093E+01 0. -1.
       -5    1    3    3    0  502  0.38125876132E+02  0.73554035881E+03 -0.84214170518E+03  0.11187930745E+04  0.46999998093E+01 0.  1.
</event>
<event>
 5   0  0.2256868E-05  0.1991595E+04  0.7818609E-02  0.8610560E-01
       -1   -1    0    0    0  501  0.00000000000E+00  0.00000000000E+00  0.59069068836E+03  0.59069068838E+03  0.50400001928E-02 0.  1.
        1   -1    0    0  501    0  0.00000000000E+00  0.00000000000E+00 -0.16787349982E+04  0.16787349982E+04  0.50400001928E-02 0. -1.
    10030    2    1    2    0    0  0.00000000000E+00  0.00000000000E+00 -0.10880443098E+04  0.22694256866E+04  0.19915954727E+04 0.  0.
        5    1    3    3  502    0 -0.98773688053E+03  0.83933580410E+02 -0.65165558406E+03  0.11863161810E+04  0.46999998093E+01 0. -1.
       -5    1    3    3    0  502  0.98773688053E+03 -0.83933580410E+02 -0.43638872577E+03  0.10831095056E+04  0.46999998093E+01 0.  1.
</event>
<event>
 5   0  0.4514680E-05  0.2016024E+04  0.7818609E-02  0.8599165E-01
        2   -1    0    0  501    0  0.00000000000E+00  0.00000000000E+00  0.93593048490E+03  0.93593048490E+03  0.25500000920E-02 0. -1.
       -2   -1    0    0    0  501  0.00000000000E+00  0.00000000000E+00 -0.10856452217E+04  0.10856452217E+04  0.25500000920E-02 0.  1.
    10030    2    1    2    0    0  0.00000000000E+00  0.00000000000E+00 -0.14971473677E+03  0.20215757066E+04  0.20160242645E+04 0.  0.
        3    1    3    3  502    0  0.86843630151E+03  0.13987943615E+03  0.41877920445E+03  0.97422990034E+03  0.10100000352E+00 0. -1.
       -3    1    3    3    0  502 -0.86843630151E+03 -0.13987943615E+03 -0.56849394122E+03  0.10473458062E+04  0.10100000352E+00 0.  1.
</event>
<event>
 5   0  0.2007644E-05  0.2128922E+04  0.7818609E-02  0.8548609E-01
       -1   -1    0    0    0  501  0.00000000000E+00  0.00000000000E+00  0.88959672805E+03  0.88959672806E+03  0.50400001928E-02 0. -1.
        1   -1    0    0  501    0  0.00000000000E+00  0.00000000000E+00 -0.12736980306E+04  0.12736980306E+04  0.50400001928E-02 0.  1.
    10030    2    1    2    0    0  0.00000000000E+00  0.00000000000E+00 -0.38410130257E+03  0.21632947587E+04  0.21289223570E+04 0.  0.
        1    1    3    3  502    0  0.81933999597E+03 -0.33775527319E+03 -0.79121549255E+03  0.11880314008E+04  0.50400001928E-02 0.  1.
       -1    1    3    3    0  502 -0.81933999597E+03  0.33775527319E+03  0.40711418998E+03  0.97526335790E+03  0.50400001928E-02 0. -1.
</event>
<event>
 5   0  0.2093980E-05  0.2022765E+04  0.7818609E-02  0.8596051E-01
        1   -1    0    0  501    0  0.00000000000E+00  0.00000000000E+00  0.11941650631E+04  0.11941650631E+04  0.50400001928E-02 0.  1.
       -1   -1    0    0    0  501  0.00000000000E+00  0.00000000000E+00 -0.85657712039E+03  0.85657712041E+03  0.50400001928E-02 0. -1.
    10030    2    1    2    0    0  0.00000000000E+00  0.00000000000E+00  0.33758794269E+03  0.20507421835E+04  0.20227649107E+04 0.  0.
        2    1    3    3  502    0  0.52217533859E+03 -0.73299733690E+03 -0.29904523550E+03  0.94835659592E+03  0.25500000920E-02 0. -1.
       -2    1    3    3    0  502 -0.52217533859E+03  0.73299733690E+03  0.63663317819E+03  0.11023855876E+04  0.25500000920E-02 0.  1.
</event>
<event>
 5   0  0.2256868E-05  0.1996335E+04  0.7818609E-02  0.8608336E-01
        1   -1    0    0  501    0  0.00000000000E+00  0.00000000000E+00  0.10914750104E+04  0.10914750104E+04  0.50400001928E-02 0. -1.
       -1   -1    0    0    0  501  0.00000000000E+00  0.00000000000E+00 -0.91283622609E+03  0.91283622610E+03  0.50400001928E-02 0.  1.
    10030    2    1    2    0    0  0.00000000000E+00  0.00000000000E+00  0.17863878430E+03  0.20043112365E+04  0.19963345705E+04 0.  0.
        5    1    3    3  502    0 -0.10317169221E+02  0.42613609571E+03  0.99548730745E+03  0.10829198887E+04  0.46999998093E+01 0. -1.
       -5    1    3    3    0  502  0.10317169221E+02 -0.42613609571E+03 -0.81684852315E+03  0.92139134781E+03  0.46999998093E+01 0.  1.
</event>
<event>
 5   0  0.4473361E-05  0.2003073E+04  0.7818609E-02  0.8605185E-01
       -2   -1    0    0    0  501  0.00000000000E+00  0.00000000000E+00  0.87196140237E+03  0.87196140238E+03  0.25500000920E-02 0. -1.
        2   -1    0    0  501    0  0.00000000000E+00  0.00000000000E+00 -0.11503668058E+04  0.11503668058E+04  0.25500000920E-02 0.  1.
    10030    2    1    2    0    0  0.00000000000E+00  0.00000000000E+00 -0.27840540342E+03  0.20223282082E+04  0.20030730923E+04 0.  0.
        2    1    3    3  502    0  0.53484023407E+02 -0.68486500182E+03 -0.87502609564E+03  0.11124618104E+04  0.25500000920E-02 0.  1.
       -2    1    3    3    0  502 -0.53484023407E+02  0.68486500182E+03  0.59662069221E+03  0.90986639781E+03  0.25500000920E-02 0. -1.
</event>
<event>
 5   0  0.4412054E-05  0.2001121E+04  0.7818609E-02  0.8606097E-01
        2   -1    0    0  501    0  0.00000000000E+00  0.00000000000E+00  0.10481554156E+04  0.10481554156E+04  0.25500000920E-02 0.  1.
       -2   -1    0    0    0  501  0.00000000000E+00  0.00000000000E+00 -0.95512657334E+03  0.95512657334E+03  0.25500000920E-02 0. -1.
    10030    2    1    2    0    0  0.00000000000E+00  0.00000000000E+00  0.93028842219E+02  0.20032819889E+04  0.20011207764E+04 0.  0.
        4    1    3    3  502    0  0.36249854522E+03 -0.34088148938E+03  0.91550381307E+03  0.10419953118E+04  0.12699999809E+01 0.  1.
       -4    1    3    3    0  502 -0.36249854522E+03  0.34088148938E+03 -0.82247497085E+03  0.96128667715E+03  0.12699999809E+01 0. -1.
</event>
<event>
 5   0  0.2142551E-05  0.2011034E+04  0.7818609E-02  0.8601479E-01
        1   -1    0    0  501    0  0.00000000000E+00  0.00000000000E+00  0.10972702972E+04  0.10972702972E+04  0.50400001928E-02 0. -1.
       -1   -1    0    0    0  501  0.00000000000E+00  0.00000000000E+00 -0.92143574719E+03  0.92143574720E+03  0.50400001928E-02 0.  1.
    10030    2    1    2    0    0  0.00000000000E+00  0.00000000000E+00  0.17583455003E+03  0.20187060444E+04  0.20110336409E+04 0.  0.
        3    1    3    3  502    0  0.88010175212E+03  0.74707017889E+02  0.57027509011E+03  0.10513676432E+04  0.10100000352E+00 0. -1.
       -3    1    3    3    0  502 -0.88010175212E+03 -0.74707017889E+02 -0.39444054008E+03  0.96733840121E+03  0.10100000352E+00 0.  1.
</event>
<event>
 5   0  0.4473361E-05  0.2065309E+04  0.7818609E-02  0.8576681E-01
       -2   -1    0    0    0  501  0.00000000000E+00  0.00000000000E+00  0.10625860277E+04  0.10625860277E+04  0.25500000920E-02 0. -1.
        2   -1    0    0  501    0  0.00000000000E+00  0.00000000000E+00 -0.10035661013E+04  0.10035661013E+04  0.25500000920E-02 0.  1.
    10030    2    1    2    0    0  0.00000000000E+00  0.00000000000E+00  0.59019926417E+02  0.20661521290E+04  0.20653090007E+04 0.  0.
        2    1    3    3  502    0 -0.30376670063E+03  0.45516794642E+03  0.90560901271E+03  0.10581019572E+04  0.25500000920E-02 0. -1.
       -2    1    3    3    0  502  0.30376670063E+03 -0.45516794642E+03 -0.84658908629E+03  0.10080501718E+04  0.25500000920E-02 0.  1.
</event>
<event>
 5   0  0.2256868E-05  0.2001102E+04  0.7818609E-02  0.8606105E-01
       -1   -1    0    0    0  501  0.00000000000E+00  0.00000000000E+00  0.55662119747E+03  0.55662119750E+03  0.50400001928E-02 0. -1.
        1   -1    0    0  501    0  0.00000000000E+00  0.00000000000E+00 -0.17985350143E+04  0.17985350143E+04  0.50400001928E-02 0.  1.
    10030    2    1    2    0    0  0.00000000000E+00  0.00000000000E+00 -0.12419138168E+04  0.23551562118E+04  0.20011024096E+04 0.  0.
        5    1    3    3  502    0 -0.12087824412E+03  0.63951640973E+03  0.27342256501E+03  0.70595663979E+03  0.46999998093E+01 0. -1.
       -5    1    3    3    0  502  0.12087824412E+03 -0.63951640973E+03 -0.15153363818E+04  0.16491995720E+04  0.46999998093E+01 0.  1.
</event>
<event>
 5   0  0.1601500E-05  0.2008540E+04  0.7818609E-02  0.8602638E-01
        3   -1    0    0  501    0  0.00000000000E+00  0.00000000000E+00  0.12063909939E+04  0.12063909982E+04  0.10100000352E+00 0. -1.
       -3   -1    0    0    0  501  0.00000000000E+00  0.00000000000E+00 -0.83601295754E+03  0.83601296364E+03  0.10100000352E+00 0.  1.
    10030    2    1    2    0    0  0.00000000000E+00  0.00000000000E+00  0.37037803640E+03  0.20424039618E+04  0.20085402793E+04 0.  0.
        5    1    3    3  502    0  0.60903893855E+02  0.96132689906E+03  0.47401611825E+03  0.10735790895E+04  0.46999998093E+01 0. -1.
       -5    1    3    3    0  502 -0.60903893855E+02 -0.96132689906E+03 -0.10363808184E+03  0.96882487228E+03  0.46999998093E+01 0.  1.
</event>
<event>
 5   0  0.2110896E-05  0.1994712E+04  0.7818609E-02  0.8609097E-01
        1   -1    0    0  501    0  0.00000000000E+00  0.00000000000E+00  0.12488745025E+04  0.12488745025E+04  0.50400001928E-02 0.  1.
       -1   -1    0    0    0  501  0.00000000000E+00  0.00000000000E+00 -0.79649207590E+03  0.79649207592E+03  0.50400001928E-02 0. -1.
    10030    2    1    2    0    0  0.00000000000E+00  0.00000000000E+00  0.45238242663E+03  0.20453665785E+04  0.19947116534E+04 0.  0.
        4    1    3    3  502    0 -0.87812728499E+02 -0.94663568273E+03 -0.82939057870E+02  0.95431163219E+03  0.12699999809E+01 0. -1.
       -4    1    3    3    0  502  0.87812728499E+02  0.94663568273E+03  0.53532148450E+03  0.10910549463E+04  0.12699999809E+01 0.  1.
</event>
<event>
 5   0  0.2093980E-05  0.2027368E+04  0.7818609E-02  0.8593931E-01
       -1   -1    0    0    0  501  0.00000000000E+00  0.00000000000E+00  0.44941535469E+03  0.44941535471E+03  0.50400001928E-02 0. -1.
        1   -1    0    0  501    0  0.00000000000E+00  0.00000000000E+00 -0.22864264535E+04  0.22864264535E+04  0.50400001928E-02 0.  1.
    10030    2    1    2    0    0  0.00000000000E+00  0.00000000000E+00 -0.18370110988E+04  0.27358418083E+04  0.20273679051E+04 0.  0.
        2    1    3    3  502    0  0.26490142498E+02 -0.79590655956E+03 -0.17648905580E+04  0.19362354353E+04  0.25500000920E-02 0.  1.
       -2    1    3    3    0  502 -0.26490142498E+02  0.79590655956E+03 -0.72120540807E+02  0.79960637292E+03  0.25500000920E-02 0. -1.
</event>
<event>
 5   0  0.2256868E-05  0.1992026E+04  0.7818609E-02  0.8610358E-01
        1   -1    0    0  501    0  0.00000000000E+00  0.00000000000E+00  0.11613223112E+04  0.11613223112E+04  0.50400001928E-02 0. -1.
       -1   -1    0    0    0  501  0.00000000000E+00  0.00000000000E+00 -0.85423447144E+03  0.85423447145E+03  0.50400001928E-02 0.  1.
    10030    2    1    2    0    0  0.00000000000E+00  0.00000000000E+00  0.30708783976E+03  0.20155567827E+04  0.19920256532E+04 0.  0.
        5    1    3    3  502    0  0.88853023734E+03 -0.44997878546E+03  0.14620770748E+03  0.10066606547E+04  0.46999998093E+01 0.  1.
       -5    1    3    3    0  502 -0.88853023734E+03  0.44997878546E+03  0.16088013229E+03  0.10088961280E+04  0.46999998093E+01 0. -1.
</event>
<event>
 5   0  0.2007644E-05  0.2002715E+04  0.7818609E-02  0.8605352E-01
       -1   -1    0    0    0  501  0.00000000000E+00  0.00000000000E+00  0.72059942520E+03  0.72059942522E+03  0.50400001928E-02 0.  1.
        1   -1    0    0  501    0  0.00000000000E+00  0.00000000000E+00 -0.13915037073E+04  0.13915037073E+04  0.50400001928E-02 0. -1.
    10030    2    1    2    0    0  0.00000000000E+00  0.00000000000E+00 -0.67090428207E+03  0.21121031325E+04  0.20027149289E+04 0.  0.
        1    1    3    3  502    0  0.28637978947E+03 -0.89833934819E+03 -0.69104803945E+03  0.11690057148E+04  0.50400001928E-02 0.  1.
       -1    1    3    3    0  502 -0.28637978947E+03  0.89833934819E+03  0.20143757381E+02  0.94309741772E+03  0.50400001928E-02 0. -1.
</event>
<event>
 5   0  0.4514680E-05  0.1980683E+04  0.7818609E-02  0.8615706E-01
       -2   -1    0    0    0  501  0.00000000000E+00  0.00000000000E+00  0.13614901152E+04  0.13614901152E+04  0.25500000920E-02 0.  1.
        2   -1    0    0  501    0  0.00000000000E+00  0.00000000000E+00 -0.72036938807E+03  0.72036938807E+03  0.25500000920E-02 0. -1.
    10030    2    1    2    0    0  0.00000000000E+00  0.00000000000E+00  0.64112072709E+03  0.20818595032E+04  0.19806825098E+04 0.  0.
        3    1    3    3  502    0 -0.44860795328E+03  0.81041400378E+02 -0.60353071203E+03  0.75635053705E+03  0.10100000352E+00 0. -1.
       -3    1    3    3    0  502  0.44860795328E+03 -0.81041400378E+02  0.12446514391E+04  0.13255089662E+04  0.10100000352E+00 0.  1.
</event>
<event>
 5   0  0.4514680E-05  0.2015630E+04  0.7818609E-02  0.8599348E-01
        2   -1    0    0  501    0  0.00000000000E+00  0.00000000000E+00  0.80590795416E+03  0.80590795416E+03  0.25500000920E-02 0.  1.
       -2   -1    0    0    0  501  0.00000000000E+00  0.00000000000E+00 -0.12603062939E+04  0.12603062939E+04  0.25500000920E-02 0. -1.
    10030    2    1    2    0    0  0.00000000000E+00  0.00000000000E+00 -0.45439833975E+03  0.20662142481E+04  0.20156297943E+04 0.  0.
        3    1    3    3  502    0 -0.54454505844E+03  0.48254540865E+03 -0.94206055241E+03  0.11903182292E+04  0.10100000352E+00 0. -1.
       -3    1    3    3    0  502  0.54454505844E+03 -0.48254540865E+03  0.48766221267E+03  0.87589601891E+03  0.10100000352E+00 0.  1.
</event>
<event>
 5   0  0.2256868E-05  0.1954386E+04  0.7818609E-02  0.8628249E-01
        1   -1    0    0  501    0  0.00000000000E+00  0.00000000000E+00  0.22450476046E+04  0.22450476046E+04  0.50400001928E-02 0.  1.
       -1   -1    0    0    0  501  0.00000000000E+00  0.00000000000E+00 -0.42533893044E+03  0.42533893047E+03  0.50400001928E-02 0. -1.
    10030    2    1    2    0    0  0.00000000000E+00  0.00000000000E+00  0.18197086742E+04  0.26703865351E+04  0.19543859874E+04 0.  0.
        5    1    3    3  502    0  0.16700132923E+03  0.45309287702E+02 -0.40422311908E+03  0.43972809270E+03  0.46999998093E+01 0. -1.
       -5    1    3    3    0  502 -0.16700132923E+03 -0.45309287702E+02  0.22239317933E+04  0.22306584424E+04  0.46999998093E+01 0.  1.
</event>
<event>
 5   0  0.2142551E-05  0.1997390E+04  0.7818609E-02  0.8607842E-01
       -1   -1    0    0    0  501  0.00000000000E+00  0.00000000000E+00  0.58723866807E+03  0.58723866809E+03  0.50400001928E-02 0.  1.
        1   -1    0    0  501    0  0.00000000000E+00  0.00000000000E+00 -0.16984442457E+04  0.16984442457E+04  0.50400001928E-02 0. -1.
    10030    2    1    2    0    0  0.00000000000E+00  0.00000000000E+00 -0.11112055776E+04  0.22856829138E+04  0.19973904342E+04 0.  0.
        3    1    3    3  502    0 -0.87604808569E+03 -0.37765466622E+03 -0.89373154205E+03  0.13072258316E+04  0.10100000352E+00 0. -1.
       -3    1    3    3    0  502  0.87604808569E+03  0.37765466622E+03 -0.21747403559E+03  0.97845708221E+03  0.10100000352E+00 0.  1.
</event>
<event>
 5   0  0.2142551E-05  0.2006543E+04  0.7818609E-02  0.8603568E-01
        1   -1    0    0  501    0  0.00000000000E+00  0.00000000000E+00  0.64428954513E+03  0.64428954515E+03  0.50400001928E-02 0.  1.
       -1   -1    0    0    0  501  0.00000000000E+00  0.00000000000E+00 -0.15622690902E+04  0.15622690902E+04  0.50400001928E-02 0. -1.
    10030    2    1    2    0    0  0.00000000000E+00  0.00000000000E+00 -0.91797954508E+03  0.22065586354E+04  0.20065429390E+04 0.  0.
        3    1    3    3  502    0 -0.59668841700E+03  0.73688543469E+02 -0.13422242478E+04  0.14707253347E+04  0.10100000352E+00 0. -1.
       -3    1    3    3    0  502  0.59668841700E+03 -0.73688543469E+02  0.42424470273E+03  0.73583330070E+03  0.10100000352E+00 0.  1.
</event>
<event>
 5   0  0.4473361E-05  0.1980155E+04  0.7818609E-02  0.8615955E-01
        2   -1    0    0  501    0  0.00000000000E+00  0.00000000000E+00  0.26576934440E+04  0.26576934440E+04  0.25500000920E-02 0. -1.
       -2   -1    0    0    0  501  0.00000000000E+00  0.00000000000E+00 -0.36883623994E+03  0.36883623994E+03  0.25500000920E-02 0.  1.
    10030    2    1    2    0    0  0.00000000000E+00  0.00000000000E+00  0.22888572041E+04  0.30265296840E+04  0.19801552028E+04 0.  0.
        2    1    3    3  502    0  0.97373448204E+03 -0.43032875973E+02  0.14102304813E+04  0.17142813889E+04  0.25500000920E-02 0. -1.
       -2    1    3    3    0  502 -0.97373448204E+03  0.43032875973E+02  0.87862672280E+03  0.13122482951E+04  0.25500000920E-02 0.  1.
</event>
<event>
 5   0  0.4473361E-05  0.1985081E+04  0.7818609E-02  0.8613628E-01
        2   -1    0    0  501    0  0.00000000000E+00  0.00000000000E+00  0.14443778262E+04  0.14443778262E+04  0.25500000920E-02 0.  1.
       -2   -1    0    0    0  501  0.00000000000E+00  0.00000000000E+00 -0.68204934313E+03  0.68204934313E+03  0.25500000920E-02 0. -1.
    10030    2    1    2    0    0  0.00000000000E+00  0.00000000000E+00  0.76232848303E+03  0.21264271693E+04  0.19850813057E+04 0.  0.
        2    1    3    3  502    0 -0.62239786304E+03  0.20645380670E+03 -0.41696163232E+03  0.77708382885E+03  0.25500000920E-02 0. -1.
       -2    1    3    3    0  502  0.62239786304E+03 -0.20645380670E+03  0.11792901154E+04  0.13493433404E+04  0.25500000920E-02 0.  1.
</event>
<event>
 5   0  0.2110896E-05  0.1939730E+04  0.7818609E-02  0.8635329E-01
        1   -1    0    0  501    0  0.00000000000E+00  0.00000000000E+00  0.92374751721E+03  0.92374751722E+03  0.50400001928E-02 0. -1.
       -1   -1    0    0    0  501  0.00000000000E+00  0.00000000000E+00 -0.10182851811E+04  0.10182851811E+04  0.50400001928E-02 0.  1.
    10030    2    1    2    0    0  0.00000000000E+00  0.00000000000E+00 -0.94537663883E+02  0.19420326983E+04  0.19397302986E+04 0.  0.
        4    1    3    3  502    0  0.35480041261E+03 -0.32527884534E+03  0.79572056912E+03  0.92997983689E+03  0.12699999809E+01 0. -1.
       -4    1    3    3    0  502 -0.35480041261E+03  0.32527884534E+03 -0.89025823300E+03  0.10120528614E+04  0.12699999809E+01 0.  1.
</event>
<event>
 5   0  0.4577279E-05  0.1980313E+04  0.7818609E-02  0.8615881E-01
        2   -1    0    0  501    0  0.00000000000E+00  0.00000000000E+00  0.85525845309E+03  0.85525845309E+03  0.25500000920E-02 0. -1.
       -2   -1    0    0    0  501  0.00000000000E+00  0.00000000000E+00 -0.11463313666E+04  0.11463313666E+04  0.25500000920E-02 0.  1.
    10030    2    1    2    0    0  0.00000000000E+00  0.00000000000E+00 -0.29107291353E+03  0.20015898197E+04  0.19803126938E+04 0.  0.
        1    1    3    3  502    0  0.15423892479E+03 -0.75281865952E+03 -0.77665221622E+03  0.10925723065E+04  0.50400001928E-02 0.  1.
       -1    1    3    3    0  502 -0.15423892479E+03  0.75281865952E+03  0.48557930269E+03  0.90901751318E+03  0.50400001928E-02 0. -1.
</event>
<event>
 5   0  0.1601500E-05  0.2002271E+04  0.7818609E-02  0.8605560E-01
       -3   -1    0    0    0  501  0.00000000000E+00  0.00000000000E+00  0.25095837246E+04  0.25095837267E+04  0.10100000352E+00 0. -1.
        3   -1    0    0  501    0  0.00000000000E+00  0.00000000000E+00 -0.39937781898E+03  0.39937783175E+03  0.10100000352E+00 0.  1.
    10030    2    1    2    0    0  0.00000000000E+00  0.00000000000E+00  0.21102059057E+04  0.29089615584E+04  0.20022708069E+04 0.  0.
        3    1    3    3  502    0  0.21483952428E+03  0.10599315459E+03  0.24673277837E+04  0.24789306107E+04  0.10100000352E+00 0. -1.
       -3    1    3    3    0  502 -0.21483952428E+03 -0.10599315459E+03 -0.35712187807E+03  0.43003094773E+03  0.10100000352E+00 0.  1.
</event>
<event>
 5   0  0.4447313E-05  0.2003170E+04  0.7818609E-02  0.8605140E-01
       -2   -1    0    0    0  501  0.00000000000E+00  0.00000000000E+00  0.99829107288E+03  0.99829107288E+03  0.25500000920E-02 0. -1.
        2   -1    0    0  501    0  0.00000000000E+00  0.00000000000E+00 -0.10048894934E+04  0.10048894934E+04  0.25500000920E-02 0.  1.
    10030    2    1    2    0    0  0.00000000000E+00  0.00000000000E+00 -0.65984204815E+01  0.20031805662E+04  0.20031696987E+04 0.  0.
        5    1    3    3  502    0 -0.99764025389E+03  0.81914282120E+01  0.85001578986E+02  0.10012994228E+04  0.46999998093E+01 0. -1.
       -5    1    3    3    0  502  0.99764025389E+03 -0.81914282120E+01 -0.91599999467E+02  0.10018811434E+04  0.46999998093E+01 0.  1.
</event>
<event>
 5   0  0.4447313E-05  0.1995243E+04  0.7818609E-02  0.8608848E-01
       -2   -1    0    0    0  501  0.00000000000E+00  0.00000000000E+00  0.73853031374E+03  0.73853031375E+03  0.25500000920E-02 0.  1.
        2   -1    0    0  501    0  0.00000000000E+00  0.00000000000E+00 -0.13476073815E+04  0.13476073815E+04  0.25500000920E-02 0. -1.
    10030    2    1    2    0    0  0.00000000000E+00  0.00000000000E+00 -0.60907706776E+03  0.20861376953E+04  0.19952432456E+04 0.  0.
        5    1    3    3  502    0 -0.85320029720E+02  0.75777197677E+03 -0.97705832508E+03  0.12394204036E+04  0.46999998093E+01 0. -1.
       -5    1    3    3    0  502  0.85320029720E+02 -0.75777197677E+03  0.36798125732E+03  0.84671729165E+03  0.46999998093E+01 0.  1.
</event>
<event>
 5   0  0.4473361E-05  0.1975898E+04  0.7818609E-02  0.8617973E-01
        2   -1    0    0  501    0  0.00000000000E+00  0.00000000000E+00  0.12083619515E+04  0.12083619515E+04  0.25500000920E-02 0.  1.
       -2   -1    0    0    0  501  0.00000000000E+00  0.00000000000E+00 -0.80774116436E+03  0.80774116437E+03  0.25500000920E-02 0. -1.
    10030    2    1    2    0    0  0.00000000000E+00  0.00000000000E+00  0.40062078717E+03  0.20161031159E+04  0.19758984688E+04 0.  0.
        2    1    3    3  502    0 -0.28583567817E+03  0.93993245078E+03  0.93936324306E+02  0.98691391721E+03  0.25500000920E-02 0.  1.
       -2    1    3    3    0  502  0.28583567817E+03 -0.93993245078E+03  0.30668446286E+03  0.10291891987E+04  0.25500000920E-02 0. -1.
</event>
<event>
 5   0  0.2256868E-05  0.2001420E+04  0.7818609E-02  0.8605957E-01
        1   -1    0    0  501    0  0.00000000000E+00  0.00000000000E+00  0.13917297619E+04  0.13917297619E+04  0.50400001928E-02 0.  1.
       -1   -1    0    0    0  501  0.00000000000E+00  0.00000000000E+00 -0.71955094783E+03  0.71955094785E+03  0.50400001928E-02 0. -1.
    10030    2    1    2    0    0  0.00000000000E+00  0.00000000000E+00  0.67217881404E+03  0.21112807097E+04  0.20014199652E+04 0.  0.
        5    1    3    3  502    0 -0.77886854988E+03 -0.24142305224E+03  0.94799650286E+03  0.12504562238E+04  0.46999998093E+01 0.  1.
       -5    1    3    3    0  502  0.77886854988E+03  0.24142305224E+03 -0.27581768883E+03  0.86082448595E+03  0.46999998093E+01 0. -1.
</event>
<event>
 5   0  0.4514680E-05  0.1997892E+04  0.7818609E-02  0.8607607E-01
        2   -1    0    0  501    0  0.00000000000E+00  0.00000000000E+00  0.10315688591E+04  0.10315688591E+04  0.25500000920E-02 0. -1.
       -2   -1    0    0    0  501  0.00000000000E+00  0.00000000000E+00 -0.96735525040E+03  0.96735525041E+03  0.25500000920E-02 0.  1.
    10030    2    1    2    0    0  0.00000000000E+00  0.00000000000E+00  0.64213608741E+02  0.19989241096E+04  0.19978924416E+04 0.  0.
        3    1    3    3  502    0 -0.26026582035E+03 -0.80321852669E+03  0.56623192980E+03  0.10166203359E+04  0.10100000352E+00 0. -1.
       -3    1    3    3    0  502  0.26026582035E+03  0.80321852669E+03 -0.50201832106E+03  0.98230377365E+03  0.10100000352E+00 0.  1.
</event>
<event>
 5   0  0.2142551E-05  0.2002018E+04  0.7818609E-02  0.8605678E-01
        1   -1    0    0  501    0  0.00000000000E+00  0.00000000000E+00  0.15545135299E+04  0.15545135299E+04  0.50400001928E-02 0.  1.
       -1   -1    0    0    0  501  0.00000000000E+00  0.00000000000E+00 -0.64458691559E+03  0.64458691561E+03  0.50400001928E-02 0. -1.
    10030    2    1    2    0    0  0.00000000000E+00  0.00000000000E+00  0.90992661430E+03  0.21991004455E+04  0.20020180634E+04 0.  0.
        3    1    3    3  502    0 -0.16869846825E+03  0.95573053959E+03  0.18558954108E+03  0.98809084879E+03  0.10100000352E+00 0.  1.
       -3    1    3    3    0  502  0.16869846825E+03 -0.95573053959E+03  0.72433707321E+03  0.12110095967E+04  0.10100000352E+00 0. -1.
</event>
<event>
 5   0  0.4412054E-05  0.2041233E+04  0.7818609E-02  0.8587582E-01
       -2   -1    0    0    0  501  0.00000000000E+00  0.00000000000E+00  0.14763828257E+04  0.14763828257E+04  0.25500000920E-02 0.  1.
        2   -1    0    0  501    0  0.00000000000E+00  0.00000000000E+00 -0.70554718071E+03  0.70554718071E+03  0.25500000920E-02 0. -1.
    10030    2    1    2    0    0  0.00000000000E+00  0.00000000000E+00  0.77083564502E+03  0.21819300064E+04  0.20412327063E+04 0.  0.
        4    1    3    3  502    0 -0.16875272410E+03 -0.75900890594E+03 -0.32127521680E+03  0.84130338109E+03  0.12699999809E+01 0. -1.
       -4    1    3    3    0  502  0.16875272410E+03  0.75900890594E+03  0.10921108618E+04  0.13406266254E+04  0.12699999809E+01 0.  1.
</event>
<event>
 5   0  0.2093980E-05  0.1997511E+04  0.7818609E-02  0.8607785E-01
       -1   -1    0    0    0  501  0.00000000000E+00  0.00000000000E+00  0.76030015319E+03  0.76030015321E+03  0.50400001928E-02 0.  1.
        1   -1    0    0  501    0  0.00000000000E+00  0.00000000000E+00 -0.13119983009E+04  0.13119983009E+04  0.50400001928E-02 0. -1.
    10030    2    1    2    0    0  0.00000000000E+00  0.00000000000E+00 -0.55169814774E+03  0.20722984542E+04  0.19975109604E+04 0.  0.
        2    1    3    3  502    0  0.42747796136E+03 -0.17373671989E+03 -0.11947838713E+04  0.12807928616E+04  0.25500000920E-02 0. -1.
       -2    1    3    3    0  502 -0.42747796136E+03  0.17373671989E+03  0.64308572351E+03  0.79150559257E+03  0.25500000920E-02 0.  1.
</event>
<event>
 5   0  0.2007644E-05  0.2001293E+04  0.7818609E-02  0.8606016E-01
       -1   -1    0    0    0  501  0.00000000000E+00  0.00000000000E+00  0.62248713569E+03  0.62248713571E+03  0.50400001928E-02 0.  1.
        1   -1    0    0  501    0  0.00000000000E+00  0.00000000000E+00 -0.16085368498E+04  0.16085368498E+04  0.50400001928E-02 0. -1.
    10030    2    1    2    0    0  0.00000000000E+00  0.00000000000E+00 -0.98604971408E+03  0.22310239855E+04  0.20012930783E+04 0.  0.
        1    1    3    3  502    0 -0.25869203323E+03 -0.54657288473E+03  0.39575815023E+03  0.72269495631E+03  0.50400001928E-02 0.  1.
       -1    1    3    3    0  502  0.25869203323E+03  0.54657288473E+03 -0.13818078643E+04  0.15083290292E+04  0.50400001928E-02 0. -1.
</event>
<event>
 5   0  0.4447313E-05  0.2036967E+04  0.7818609E-02  0.8589530E-01
       -2   -1    0    0    0  501  0.00000000000E+00  0.00000000000E+00  0.45988111388E+03  0.45988111389E+03  0.25500000920E-02 0. -1.
        2   -1    0    0  501    0  0.00000000000E+00  0.00000000000E+00 -0.22556011548E+04  0.22556011548E+04  0.25500000920E-02 0.  1.
    10030    2    1    2    0    0  0.00000000000E+00  0.00000000000E+00 -0.17957200410E+04  0.27154822687E+04  0.20369667367E+04 0.  0.
        5    1    3    3  502    0 -0.79838316413E+03 -0.42804018302E+03 -0.27735601044E+03  0.94740831829E+03  0.46999998093E+01 0. -1.
       -5    1    3    3    0  502  0.79838316413E+03  0.42804018302E+03 -0.15183640305E+04  0.17680739504E+04  0.46999998093E+01 0.  1.
</event>
<event>
 5   0  0.2256868E-05  0.1994868E+04  0.7818609E-02  0.8609024E-01
       -1   -1    0    0    0  501  0.00000000000E+00  0.00000000000E+00  0.10992563114E+04  0.10992563114E+04  0.50400001928E-02 0. -1.
        1   -1    0    0  501    0  0.00000000000E+00  0.00000000000E+00 -0.90504324653E+03  0.90504324655E+03  0.50400001928E-02 0.  1.
    10030    2    1    2    0    0  0.00000000000E+00  0.00000000000E+00  0.19421306486E+03  0.20042995580E+04  0.19948679163E+04 0.  0.
        5    1    3    3  502    0 -0.52523688534E+03  0.81417195500E+03  0.33508638102E+03  0.10252096033E+04  0.46999998093E+01 0. -1.
       -5    1    3    3    0  502  0.52523688534E+03 -0.81417195500E+03 -0.14087331616E+03  0.97908995462E+03  0.46999998093E+01 0.  1.
</event>
<event>
 5   0  0.4514680E-05  0.2017320E+04  0.7818609E-02  0.8598566E-01
        2   -1    0    0  501    0  0.00000000000E+00  0.00000000000E+00  0.64348009685E+03  0.64348009685E+03  0.25500000920E-02 0. -1.
       -2   -1    0    0    0  501  0.00000000000E+00  0.00000000000E+00 -0.15810819018E+04  0.15810819018E+04  0.25500000920E-02 0.  1.
    10030    2    1    2    0    0  0.00000000000E+00  0.00000000000E+00 -0.93760180496E+03  0.22245619987E+04  0.20173197419E+04 0.  0.
        3    1    3    3  502    0  0.36999661877E+03  0.22563939348E+03  0.53558355373E+03  0.68895601240E+03  0.10100000352E+00 0. -1.
       -3    1    3    3    0  502 -0.36999661877E+03 -0.22563939348E+03 -0.14731853587E+04  0.15356059863E+04  0.10100000352E+00 0.  1.
</event>
<event>
 5   0  0.4577279E-05  0.2000629E+04  0.7818609E-02  0.8606327E-01
        2   -1    0    0  501    0  0.00000000000E+00  0.00000000000E+00  0.10783498089E+04  0.10783498089E+04  0.25500000920E-02 0.  1.
       -2   -1    0    0    0  501  0.00000000000E+00  0.00000000000E+00 -0.92792641076E+03  0.92792641076E+03  0.25500000920E-02 0. -1.
    10030    2    1    2    0    0  0.00000000000E+00  0.00000000000E+00  0.15042339814E+03  0.20062762197E+04  0.20006291688E+04 0.  0.
        1    1    3    3  502    0 -0.33035388134E+03 -0.92895552831E+03  0.24461811851E+03  0.10158395958E+04  0.50400001928E-02 0.  1.
       -1    1    3    3    0  502  0.33035388134E+03  0.92895552831E+03 -0.94194720368E+02  0.99043662385E+03  0.50400001928E-02 0. -1.
</event>
<event>
 5   0  0.2093980E-05  0.2003979E+04  0.7818609E-02  0.8604762E-01
       -1   -1    0    0    0  501  0.00000000000E+00  0.00000000000E+00  0.92561647266E+03  0.92561647267E+03  0.50400001928E-02 0. -1.
        1   -1    0    0  501    0  0.00000000000E+00  0.00000000000E+00 -0.10846644161E+04  0.10846644161E+04  0.50400001928E-02 0.  1.
    10030    2    1    2    0    0  0.00000000000E+00  0.00000000000E+00 -0.15904794347E+03  0.20102808888E+04  0.20039792922E+04 0.  0.
        2    1    3    3  502    0  0.53747005664E+03  0.73329032035E+03  0.34298271235E+03  0.97171286740E+03  0.25500000920E-02 0.  1.
       -2    1    3    3    0  502 -0.53747005664E+03 -0.73329032035E+03 -0.50203065582E+03  0.10385680214E+04  0.25500000920E-02 0. -1.
</event>
<event>
 5   0  0.2093980E-05  0.2004033E+04  0.7818609E-02  0.8604738E-01
       -1   -1    0    0    0  501  0.00000000000E+00  0.00000000000E+00  0.10095129763E+04  0.10095129763E+04  0.50400001928E-02 0. -1.
        1   -1    0    0  501    0  0.00000000000E+00  0.00000000000E+00 -0.99457545019E+03  0.99457545021E+03  0.50400001928E-02 0.  1.
    10030    2    1    2    0    0  0.00000000000E+00  0.00000000000E+00  0.14937526085E+02  0.20040884265E+04  0.20040327571E+04 0.  0.
        2    1    3    3  502    0 -0.45096140965E+03 -0.46244020740E+03 -0.75859408495E+03  0.99633434355E+03  0.25500000920E-02 0.  1.
       -2    1    3    3    0  502  0.45096140965E+03  0.46244020740E+03  0.77353161103E+03  0.10077540829E+04  0.25500000920E-02 0. -1.
</event>
<event>
 5   0  0.4514680E-05  0.1996452E+04  0.7818609E-02  0.8608281E-01
        2   -1    0    0  501    0  0.00000000000E+00  0.00000000000E+00  0.74372937591E+03  0.74372937592E+03  0.25500000920E-02 0. -1.
       -2   -1    0    0    0  501  0.00000000000E+00  0.00000000000E+00 -0.13398081451E+04  0.13398081451E+04  0.25500000920E-02 0.  1.
    10030    2    1    2    0    0  0.00000000000E+00  0.00000000000E+00 -0.59607876916E+03  0.20835375210E+04  0.19964515277E+04 0.  0.
        3    1    3    3  502    0 -0.16340442899E+03 -0.27040846975E+03  0.69017209561E+03  0.75905156590E+03  0.10100000352E+00 0. -1.
       -3    1    3    3    0  502  0.16340442899E+03  0.27040846975E+03 -0.12862508648E+04  0.13244859551E+04  0.10100000352E+00 0.  1.
</event>
<event>
 5   0  0.4514680E-05  0.2044930E+04  0.7818609E-02  0.8585898E-01
        2   -1    0    0  501    0  0.00000000000E+00  0.00000000000E+00  0.13070348043E+04  0.13070348043E+04  0.25500000920E-02 0. -1.
       -2   -1    0    0    0  501  0.00000000000E+00  0.00000000000E+00 -0.79985250254E+03  0.79985250255E+03  0.25500000920E-02 0.  1.
    10030    2    1    2    0    0  0.00000000000E+00  0.00000000000E+00  0.50718230180E+03  0.21068873069E+04  0.20449303745E+04 0.  0.
        3    1    3    3  502    0 -0.75408720965E+03 -0.61185036048E+03  0.58332937785E+03  0.11328201784E+04  0.10100000352E+00 0. -1.
       -3    1    3    3    0  502  0.75408720965E+03  0.61185036048E+03 -0.76147076047E+02  0.97406712847E+03  0.10100000352E+00 0.  1.
</event>
<event>
 5   0  0.2110896E-05  0.2001120E+04  0.7818609E-02  0.8606097E-01
       -1   -1    0    0    0  501  0.00000000000E+00  0.00000000000E+00  0.12949304412E+04  0.12949304412E+04  0.50400001928E-02 0.  1.
        1   -1    0    0  501    0  0.00000000000E+00  0.00000000000E+00 -0.77310721269E+03  0.77310721271E+03  0.50400001928E-02 0. -1.
    10030    2    1    2    0    0  0.00000000000E+00  0.00000000000E+00  0.52182322854E+03  0.20680376539E+04  0.20011197506E+04 0.  0.
        4    1    3    3  502    0  0.11590373008E+03  0.92040226488E+03  0.64834068920E+03  0.11317779226E+04  0.12699999809E+01 0.  1.
       -4    1    3    3    0  502 -0.11590373008E+03 -0.92040226488E+03 -0.12651746066E+03  0.93625973138E+03  0.12699999809E+01 0. -1.
</event>
<event>
 5   0  0.2110896E-05  0.2000318E+04  0.7818609E-02  0.8606472E-01
        1   -1    0    0  501    0  0.00000000000E+00  0.00000000000E+00  0.16631530829E+04  0.16631530829E+04  0.50400001928E-02 0.  1.
       -1   -1    0    0    0  501  0.00000000000E+00  0.00000000000E+00 -0.60145863405E+03  0.60145863408E+03  0.50400001928E-02 0. -1.
    10030    2    1    2    0    0  0.00000000000E+00  0.00000000000E+00  0.10616944488E+04  0.22646117169E+04  0.20003177562E+04 0.  0.
        4    1    3    3  502    0 -0.19199778757E+03  0.71331866383E+03 -0.23250252484E+03  0.77443250420E+03  0.12699999809E+01 0. -1.
       -4    1    3    3    0  502  0.19199778757E+03 -0.71331866383E+03  0.12941969736E+04  0.14901792127E+04  0.12699999809E+01 0.  1.
</event>
<event>
 5   0  0.2007644E-05  0.2001952E+04  0.7818609E-02  0.8605709E-01
        1   -1    0    0  501    0  0.00000000000E+00  0.00000000000E+00  0.11978833519E+04  0.11978833519E+04  0.50400001928E-02 0. -1.
       -1   -1    0    0    0  501  0.00000000000E+00  0.00000000000E+00 -0.83643590537E+03  0.83643590539E+03  0.50400001928E-02 0.  1.
    10030    2    1    2    0    0  0.00000000000E+00  0.00000000000E+00  0.36144744653E+03  0.20343192573E+04  0.20019516937E+04 0.  0.
        1    1    3    3  502    0  0.32689690394E+03 -0.67872798760E+01  0.11420879333E+04  0.11879699071E+04  0.50400001928E-02 0. -1.
       -1    1    3    3    0  502 -0.32689690394E+03  0.67872798760E+01 -0.78064048673E+03  0.84634935016E+03  0.50400001928E-02 0.  1.
</event>
<event>
 5   0  0.2007644E-05  0.2003729E+04  0.7818609E-02  0.8604879E-01
       -1   -1    0    0    0  501  0.00000000000E+00  0.00000000000E+00  0.10017069279E+04  0.10017069279E+04  0.50400001928E-02 0.  1.
        1   -1    0    0  501    0  0.00000000000E+00  0.00000000000E+00 -0.10020216712E+04  0.10020216712E+04  0.50400001928E-02 0. -1.
    10030    2    1    2    0    0  0.00000000000E+00  0.00000000000E+00 -0.31474329849E+00  0.20037285992E+04  0.20037285745E+04 0.  0.
        1    1    3    3  502    0  0.25970272883E+03  0.62049911828E+03 -0.74263120988E+03  0.10019809265E+04  0.50400001928E-02 0. -1.
       -1    1    3    3    0  502 -0.25970272883E+03 -0.62049911828E+03  0.74231646658E+03  0.10017476727E+04  0.50400001928E-02 0.  1.
</event>
<event>
 5   0  0.2093980E-05  0.1999630E+04  0.7818609E-02  0.8606794E-01
       -1   -1    0    0    0  501  0.00000000000E+00  0.00000000000E+00  0.12501520538E+04  0.12501520538E+04  0.50400001928E-02 0. -1.
        1   -1    0    0  501    0  0.00000000000E+00  0.00000000000E+00 -0.79960683297E+03  0.79960683299E+03  0.50400001928E-02 0.  1.
    10030    2    1    2    0    0  0.00000000000E+00  0.00000000000E+00  0.45054522080E+03  0.20497588868E+04  0.19996300903E+04 0.  0.
        2    1    3    3  502    0  0.81922537084E+03 -0.55185537968E+03  0.38392851649E+03  0.10597526476E+04  0.25500000920E-02 0.  1.
       -2    1    3    3    0  502 -0.81922537084E+03  0.55185537968E+03  0.66616704310E+02  0.99000623918E+03  0.25500000920E-02 0. -1.
</event>
<event>
 5   0  0.2256868E-05  0.1996191E+04  0.7818609E-02  0.8608403E-01
       -1   -1    0    0    0  501  0.00000000000E+00  0.00000000000E+00  0.69001292519E+03  0.69001292521E+03  0.50400001928E-02 0.  1.
        1   -1    0    0  501    0  0.00000000000E+00  0.00000000000E+00 -0.14437335962E+04  0.14437335962E+04  0.50400001928E-02 0. -1.
    10030    2    1    2    0    0  0.00000000000E+00  0.00000000000E+00 -0.75372067103E+03  0.21337465214E+04  0.19961912152E+04 0.  0.
        5    1    3    3  502    0  0.60160575575E+03  0.74712101430E+03 -0.67164179499E+03  0.11710013177E+04  0.46999998093E+01 0.  1.
       -5    1    3    3    0  502 -0.60160575575E+03 -0.74712101430E+03 -0.82078876039E+02  0.96274520370E+03  0.46999998093E+01 0. -1.
</event>
<event>
 5   0  0.2093980E-05  0.2006437E+04  0.7818609E-02  0.8603617E-01
        1   -1    0    0  501    0  0.00000000000E+00  0.00000000000E+00  0.79853062683E+03  0.79853062685E+03  0.50400001928E-02 0.  1.
       -1   -1    0    0    0  501  0.00000000000E+00  0.00000000000E+00 -0.12603741706E+04  0.12603741706E+04  0.50400001928E-02 0. -1.
    10030    2    1    2    0    0  0.00000000000E+00  0.00000000000E+00 -0.46184354377E+03  0.20589047975E+04  0.20064370177E+04 0.  0.
        2    1    3    3  502    0  0.22756732723E+03 -0.65628552151E+03 -0.97369385795E+03  0.11960674325E+04  0.25500000920E-02 0. -1.
       -2    1    3    3    0  502 -0.22756732723E+03  0.65628552151E+03  0.51185031418E+03  0.86283736492E+03  0.25500000920E-02 0.  1.
</event>
<event>
 5   0  0.4577279E-05  0.1990110E+04  0.7818609E-02  0.8611259E-01
       -2   -1    0    0    0  501  0.00000000000E+00  0.00000000000E+00  0.66962210471E+03  0.66962210471E+03  0.25500000920E-02 0.  1.
        2   -1    0    0  501    0  0.00000000000E+00  0.00000000000E+00 -0.14786464216E+04  0.14786464216E+04  0.25500000920E-02 0. -1.
    10030    2    1    2    0    0  0.00000000000E+00  0.00000000000E+00 -0.80902431685E+03  0.21482685263E+04  0.19901098753E+04 0.  0.
        1    1    3    3  502    0 -0.10130465385E+03  0.90897917916E+03 -0.82761649221E+03  0.12334726747E+04  0.50400001928E-02 0. -1.
       -1    1    3    3    0  502  0.10130465385E+03 -0.90897917916E+03  0.18592175362E+02  0.91479585157E+03  0.50400001928E-02 0.  1.
</event>
<event>
 5   0  0.4577279E-05  0.1993949E+04  0.7818609E-02  0.8609455E-01
       -2   -1    0    0    0  501  0.00000000000E+00  0.00000000000E+00  0.77797576254E+03  0.77797576254E+03  0.25500000920E-02 0. -1.
        2   -1    0    0  501    0  0.00000000000E+00  0.00000000000E+00 -0.12776214817E+04  0.12776214817E+04  0.25500000920E-02 0.  1.
    10030    2    1    2    0    0  0.00000000000E+00  0.00000000000E+00 -0.49964571918E+03  0.20555972443E+04  0.19939493940E+04 0.  0.
        1    1    3    3  502    0 -0.86406016689E+03  0.25877677237E+03  0.18803578057E+03  0.92137009107E+03  0.50400001928E-02 0. -1.
       -1    1    3    3    0  502  0.86406016689E+03 -0.25877677237E+03 -0.68768149975E+03  0.11342271532E+04  0.50400001928E-02 0.  1.
</event>
<event>
 5   0  0.4473361E-05  0.2000421E+04  0.7818609E-02  0.8606424E-01
       -2   -1    0    0    0  501  0.00000000000E+00  0.00000000000E+00  0.77906326011E+03  0.77906326012E+03  0.25500000920E-02 0.  1.
        2   -1    0    0  501    0  0.00000000000E+00  0.00000000000E+00 -0.12841338390E+04  0.12841338390E+04  0.25500000920E-02 0. -1.
    10030    2    1    2    0    0  0.00000000000E+00  0.00000000000E+00 -0.50507057887E+03  0.20631970991E+04  0.20004214506E+04 0.  0.
        2    1    3    3  502    0  0.29523682547E+03  0.92934896407E+03 -0.48215886448E+03  0.10878103928E+04  0.25500000920E-02 0.  1.
       -2    1    3    3    0  502 -0.29523682547E+03 -0.92934896407E+03 -0.22911714383E+02  0.97538670628E+03  0.25500000920E-02 0. -1.
</event>
<event>
 5   0  0.2110896E-05  0.1995225E+04  0.7818609E-02  0.8608856E-01
       -1   -1    0    0    0  501  0.00000000000E+00  0.00000000000E+00  0.94633486210E+03  0.94633486211E+03  0.50400001928E-02 0. -1.
        1   -1    0    0  501    0  0.00000000000E+00  0.00000000000E+00 -0.10516684820E+04  0.10516684820E+04  0.50400001928E-02 0.  1.
    10030    2    1    2    0    0  0.00000000000E+00  0.00000000000E+00 -0.10533361986E+03  0.19980033441E+04  0.19952248474E+04 0.  0.
        4    1    3    3  502    0 -0.56456505088E+03  0.19543149465E+03  0.74738367033E+03  0.95682345777E+03  0.12699999809E+01 0. -1.
       -4    1    3    3    0  502  0.56456505088E+03 -0.19543149465E+03 -0.85271729019E+03  0.10411798863E+04  0.12699999809E+01 0.  1.
</event>
<event>
 5   0  0.2110896E-05  0.1998920E+04  0.7818609E-02  0.8607126E-01
       -1   -1    0    0    0  501  0.00000000000E+00  0.00000000000E+00  0.24005694089E+04  0.24005694089E+04  0.50400001928E-02 0. -1.
        1   -1    0    0  501    0  0.00000000000E+00  0.00000000000E+00 -0.41611792287E+03  0.41611792290E+03  0.50400001928E-02 0.  1.
    10030    2    1    2    0    0  0.00000000000E+00  0.00000000000E+00  0.19844514861E+04  0.28166873318E+04  0.19989196644E+04 0.  0.
        4    1    3    3  502    0 -0.71737985797E+03  0.22707660022E+03  0.65295321512E+02  0.75528983503E+03  0.12699999809E+01 0.  1.
       -4    1    3    3    0  502  0.71737985797E+03 -0.22707660022E+03  0.19191561646E+04  0.20613974968E+04  0.12699999809E+01 0. -1.
</event>
<event>
 5   0  0.2007644E-05  0.1988283E+04  0.7818609E-02  0.8612118E-01
        1   -1    0    0  501    0  0.00000000000E+00  0.00000000000E+00  0.10751443556E+04  0.10751443556E+04  0.50400001928E-02 0.  1.
       -1   -1    0    0    0  501  0.00000000000E+00  0.00000000000E+00 -0.91924137911E+03  0.91924137913E+03  0.50400001928E-02 0. -1.
    10030    2    1    2    0    0  0.00000000000E+00  0.00000000000E+00  0.15590297646E+03  0.19943857347E+04  0.19882828573E+04 0.  0.
        1    1    3    3  502    0  0.67269202335E+03  0.24647465509E+03  0.76930784823E+03  0.10512368331E+04  0.50400001928E-02 0.  1.
       -1    1    3    3    0  502 -0.67269202335E+03 -0.24647465509E+03 -0.61340487177E+03  0.94314890161E+03  0.50400001928E-02 0. -1.
</event>
<event>
 5   0  0.2093980E-05  0.2002621E+04  0.7818609E-02  0.8605396E-01
        1   -1    0    0  501    0  0.00000000000E+00  0.00000000000E+00  0.64548069110E+03  0.64548069112E+03  0.50400001928E-02 0. -1.
       -1   -1    0    0    0  501  0.00000000000E+00  0.00000000000E+00 -0.15532959893E+04  0.15532959893E+04  0.50400001928E-02 0.  1.
    10030    2    1    2    0    0  0.00000000000E+00  0.00000000000E+00 -0.90781529820E+03  0.21987766804E+04  0.20026208515E+04 0.  0.
        2    1    3    3  502    0 -0.31836294209E+03  0.94891727198E+03 -0.48541739951E+03  0.11123978621E+04  0.25500000920E-02 0.  1.
       -2    1    3    3    0  502  0.31836294209E+03 -0.94891727198E+03 -0.42239789869E+03  0.10863788183E+04  0.25500000920E-02 0. -1.
</event>
<event>
 5   0  0.2093980E-05  0.2002716E+04  0.7818609E-02  0.8605352E-01
       -1   -1    0    0    0  501  0.00000000000E+00  0.00000000000E+00  0.81355284817E+03  0.81355284819E+03  0.50400001928E-02 0. -1.
        1   -1    0    0  501    0  0.00000000000E+00  0.00000000000E+00 -0.12325175135E+04  0.12325175135E+04  0.50400001928E-02 0.  1.
    10030    2    1    2    0    0  0.00000000000E+00  0.00000000000E+00 -0.41896466530E+03  0.20460703617E+04  0.20027162890E+04 0.  0.
        2    1    3    3  502    0 -0.17355947232E+02 -0.72481008315E+03 -0.91513491524E+03  0.11675285001E+04  0.25500000920E-02 0.  1.
       -2    1    3    3    0  502  0.17355947232E+02  0.72481008315E+03  0.49617024993E+03  0.87854186153E+03  0.25500000920E-02 0. -1.
</event>
<event>
 5   0  0.4514680E-05  0.1995278E+04  0.7818609E-02  0.8608832E-01
       -2   -1    0    0    0  501  0.00000000000E+00  0.00000000000E+00  0.76859590439E+03  0.76859590440E+03  0.25500000920E-02 0. -1.
        2   -1    0    0  501    0  0.00000000000E+00  0.00000000000E+00 -0.12949367551E+04  0.12949367551E+04  0.25500000920E-02 0.  1.
    10030    2    1    2    0    0  0.00000000000E+00  0.00000000000E+00 -0.52634085068E+03  0.20635326595E+04  0.19952775109E+04 0.  0.
        3    1    3    3  502    0 -0.63923546246E+03  0.38465807969E+02  0.52796954418E+03  0.82997195413E+03  0.10100000352E+00 0. -1.
       -3    1    3    3    0  502  0.63923546246E+03 -0.38465807969E+02 -0.10543103949E+04  0.12335607053E+04  0.10100000352E+00 0.  1.
</event>
<event>
 5   0  0.4577279E-05  0.1974164E+04  0.7818609E-02  0.8618796E-01
       -2   -1    0    0    0  501  0.00000000000E+00  0.00000000000E+00  0.55963550080E+03  0.55963550081E+03  0.25500000920E-02 0.  1.
        2   -1    0    0  501    0  0.00000000000E+00  0.00000000000E+00 -0.17410098081E+04  0.17410098081E+04  0.25500000920E-02 0. -1.
    10030    2    1    2    0    0  0.00000000000E+00  0.00000000000E+00 -0.11813743073E+04  0.23006453089E+04  0.19741640214E+04 0.  0.
        1    1    3    3  502    0  0.53435075540E+03  0.53506031556E+03 -0.13300457217E+04  0.15299810106E+04  0.50400001928E-02 0. -1.
       -1    1    3    3    0  502 -0.53435075540E+03 -0.53506031556E+03  0.14867141443E+03  0.77066429824E+03  0.50400001928E-02 0.  1.
</event>
<event>
 5   0  0.4514680E-05  0.2003017E+04  0.7818609E-02  0.8605211E-01
       -2   -1    0    0    0  501  0.00000000000E+00  0.00000000000E+00  0.62034787234E+03  0.62034787235E+03  0.25500000920E-02 0.  1.
        2   -1    0    0  501    0  0.00000000000E+00  0.00000000000E+00 -0.16168662891E+04  0.16168662891E+04  0.25500000920E-02 0. -1.
    10030    2    1    2    0    0  0.00000000000E+00  0.00000000000E+00 -0.99651841678E+03  0.22372141615E+04  0.20030172863E+04 0.  0.
        3    1    3    3  502    0  0.21972217083E+03  0.27483347862E+03 -0.15455535252E+04  0.15851015686E+04  0.10100000352E+00 0. -1.
       -3    1    3    3    0  502 -0.21972217083E+03 -0.27483347862E+03  0.54903510841E+03  0.65211259288E+03  0.10100000352E+00 0.  1.
</event>
<event>
 5   0  0.2007644E-05  0.2007036E+04  0.7818609E-02  0.8603338E-01
       -1   -1    0    0    0  501  0.00000000000E+00  0.00000000000E+00  0.87969400573E+03  0.87969400575E+03  0.50400001928E-02 0.  1.
        1   -1    0    0  501    0  0.00000000000E+00  0.00000000000E+00 -0.11447712700E+04  0.11447712700E+04  0.50400001928E-02 0. -1.
    10030    2    1    2    0    0  0.00000000000E+00  0.00000000000E+00 -0.26507726427E+03  0.20244652758E+04  0.20070360477E+04 0.  0.
        1    1    3    3  502    0  0.27623205461E+03  0.19234115304E+03 -0.10861314728E+04  0.11370931551E+04  0.50400001928E-02 0. -1.
       -1    1    3    3    0  502 -0.27623205461E+03 -0.19234115304E+03  0.82105420853E+03  0.88737212066E+03  0.50400001928E-02 0.  1.
</event>
<event>
 5   0  0.4473361E-05  0.2025468E+04  0.7818609E-02  0.8594805E-01
        2   -1    0    0  501    0  0.00000000000E+00  0.00000000000E+00  0.29291125551E+04  0.29291125551E+04  0.25500000920E-02 0.  1.
       -2   -1    0    0    0  501  0.00000000000E+00  0.00000000000E+00 -0.35015061630E+03  0.35015061631E+03  0.25500000920E-02 0. -1.
    10030    2    1    2    0    0  0.00000000000E+00  0.00000000000E+00  0.25789619388E+04  0.32792631714E+04  0.20254684065E+04 0.  0.
        2    1    3    3  502    0 -0.51981199034E+03  0.86326809631E+03  0.11260145520E+04  0.15110741487E+04  0.25500000920E-02 0.  1.
       -2    1    3    3    0  502  0.51981199034E+03 -0.86326809631E+03  0.14529473867E+04  0.17681890227E+04  0.25500000920E-02 0. -1.
</event>
<event>
 5   0  0.4473361E-05  0.1999003E+04  0.7818609E-02  0.8607087E-01
        2   -1    0    0  501    0  0.00000000000E+00  0.00000000000E+00  0.18746729286E+04  0.18746729286E+04  0.25500000920E-02 0.  1.
       -2   -1    0    0    0  501  0.00000000000E+00  0.00000000000E+00 -0.53289448369E+03  0.53289448369E+03  0.25500000920E-02 0. -1.
    10030    2    1    2    0    0  0.00000000000E+00  0.00000000000E+00  0.13417784449E+04  0.24075674123E+04  0.19990026137E+04 0.  0.
        2    1    3    3  502    0 -0.61517707450E+03  0.78121701318E+03  0.54889509150E+03  0.11357942931E+04  0.25500000920E-02 0. -1.
       -2    1    3    3    0  502  0.61517707450E+03 -0.78121701318E+03  0.79288335339E+03  0.12717731192E+04  0.25500000920E-02 0.  1.
</event>
<event>
 5   0  0.2007644E-05  0.2002387E+04  0.7818609E-02  0.8605506E-01
        1   -1    0    0  501    0  0.00000000000E+00  0.00000000000E+00  0.93836608466E+03  0.93836608467E+03  0.50400001928E-02 0.  1.
       -1   -1    0    0    0  501  0.00000000000E+00  0.00000000000E+00 -0.10682272153E+04  0.10682272153E+04  0.50400001928E-02 0. -1.
    10030    2    1    2    0    0  0.00000000000E+00  0.00000000000E+00 -0.12986113064E+03  0.20065933000E+04  0.20023867654E+04 0.  0.
        1    1    3    3  502    0  0.37444712633E+03  0.92009531274E+03  0.60240422614E+02  0.99519593221E+03  0.50400001928E-02 0.  1.
       -1    1    3    3    0  502 -0.37444712633E+03 -0.92009531274E+03 -0.19010155326E+03  0.10113973678E+04  0.50400001928E-02 0. -1.
</event>
<event>
 5   0  0.2110896E-05  0.1999016E+04  0.7818609E-02  0.8607081E-01
        1   -1    0    0  501    0  0.00000000000E+00  0.00000000000E+00  0.89966864736E+03  0.89966864737E+03  0.50400001928E-02 0.  1.
       -1   -1    0    0    0  501  0.00000000000E+00  0.00000000000E+00 -0.11104270391E+04  0.11104270391E+04  0.50400001928E-02 0. -1.
    10030    2    1    2    0    0  0.00000000000E+00  0.00000000000E+00 -0.21075839175E+03  0.20100956865E+04  0.19990161503E+04 0.  0.
        4    1    3    3  502    0  0.43471826059E+03  0.75222296140E+03 -0.60227942212E+03  0.10571477971E+04  0.12699999809E+01 0. -1.
       -4    1    3    3    0  502 -0.43471826059E+03 -0.75222296140E+03  0.39152103037E+03  0.95294788938E+03  0.12699999809E+01 0.  1.
</event>
<event>
 5   0  0.2256868E-05  0.2006706E+04  0.7818609E-02  0.8603492E-01
       -1   -1    0    0    0  501  0.00000000000E+00  0.00000000000E+00  0.45554918281E+03  0.45554918284E+03  0.50400001928E-02 0.  1.
        1   -1    0    0  501    0  0.00000000000E+00  0.00000000000E+00 -0.22098990867E+04  0.22098990867E+04  0.50400001928E-02 0. -1.
    10030    2    1    2    0    0  0.00000000000E+00  0.00000000000E+00 -0.17543499039E+04  0.26654482695E+04  0.20067064789E+04 0.  0.
        5    1    3    3  502    0 -0.24206035463E+03 -0.86692927507E+03 -0.14660287992E+04  0.17202971003E+04  0.46999998093E+01 0.  1.
       -5    1    3    3    0  502  0.24206035463E+03  0.86692927507E+03 -0.28832110466E+03  0.94515116921E+03  0.46999998093E+01 0. -1.
</event>
<event>
 5   0  0.4412054E-05  0.2014297E+04  0.7818609E-02  0.8599965E-01
       -2   -1    0    0    0  501  0.00000000000E+00  0.00000000000E+00  0.99523185737E+03  0.99523185737E+03  0.25500000920E-02 0.  1.
        2   -1    0    0  501    0  0.00000000000E+00  0.00000000000E+00 -0.10192083016E+04  0.10192083016E+04  0.25500000920E-02 0. -1.
    10030    2    1    2    0    0  0.00000000000E+00  0.00000000000E+00 -0.23976444209E+02  0.20144401590E+04  0.20142974666E+04 0.  0.
        4    1    3    3  502    0 -0.43734902117E+02 -0.92138179506E+03  0.39237914575E+03  0.10024071832E+04  0.12699999809E+01 0.  1.
       -4    1    3    3    0  502  0.43734902117E+02  0.92138179506E+03 -0.41635558995E+03  0.10120329758E+04  0.12699999809E+01 0. -1.
</event>
<event>
 5   0  0.2256868E-05  0.2011559E+04  0.7818609E-02  0.8601235E-01
       -1   -1    0    0    0  501  0.00000000000E+00  0.00000000000E+00  0.10509401568E+04  0.10509401568E+04  0.50400001928E-02 0. -1.
        1   -1    0    0  501    0  0.00000000000E+00  0.00000000000E+00 -0.96255941547E+03  0.96255941548E+03  0.50400001928E-02 0.  1.
    10030    2    1    2    0    0  0.00000000000E+00  0.00000000000E+00  0.88380741301E+02  0.20134995723E+04  0.20115589407E+04 0.  0.
        5    1    3    3  502    0 -0.23534606745E+03 -0.92194551865E+02  0.10186194666E+04  0.10495214693E+04  0.46999998093E+01 0. -1.
       -5    1    3    3    0  502  0.23534606745E+03  0.92194551865E+02 -0.93023872530E+03  0.96397810292E+03  0.46999998093E+01 0.  1.
</event>
<event>
 5   0  0.4577279E-05  0.2011539E+04  0.7818609E-02  0.8601245E-01
       -2   -1    0    0    0  501  0.00000000000E+00  0.00000000000E+00  0.21777904585E+04  0.21777904585E+04  0.25500000920E-02 0.  1.
        2   -1    0    0  501    0  0.00000000000E+00  0.00000000000E+00 -0.46449499983E+03  0.46449499983E+03  0.25500000920E-02 0. -1.
    10030    2    1    2    0    0  0.00000000000E+00  0.00000000000E+00  0.17132954587E+04  0.26422854584E+04  0.20115394887E+04 0.  0.
        1    1    3    3  502    0  0.12339059803E+03 -0.30014927313E+03 -0.39383324178E+03  0.51031308840E+03  0.50400001928E-02 0. -1.
       -1    1    3    3    0  502 -0.12339059803E+03  0.30014927313E+03  0.21071287005E+04  0.21319723700E+04  0.50400001928E-02 0.  1.
</event>
<event>
 5   0  0.2256868E-05  0.1996589E+04  0.7818609E-02  0.8608217E-01
       -1   -1    0    0    0  501  0.00000000000E+00  0.00000000000E+00  0.61118913953E+03  0.61118913955E+03  0.50400001928E-02 0.  1.
        1   -1    0    0  501    0  0.00000000000E+00  0.00000000000E+00 -0.16305785418E+04  0.16305785418E+04  0.50400001928E-02 0. -1.
    10030    2    1    2    0    0  0.00000000000E+00  0.00000000000E+00 -0.10193894022E+04  0.22417676813E+04  0.19965889872E+04 0.  0.
        5    1    3    3  502    0  0.42752678873E+03  0.72746331641E+03 -0.11086715710E+04  0.13932540235E+04  0.46999998093E+01 0.  1.
       -5    1    3    3    0  502 -0.42752678873E+03 -0.72746331641E+03  0.89282168734E+02  0.84851365779E+03  0.46999998093E+01 0. -1.
</event>
<event>
 5   0  0.2142551E-05  0.2036064E+04  0.7818609E-02  0.8589943E-01
       -1   -1    0    0    0  501  0.00000000000E+00  0.00000000000E+00  0.87937954026E+03  0.87937954028E+03  0.50400001928E-02 0.  1.
        1   -1    0    0  501    0  0.00000000000E+00  0.00000000000E+00 -0.11785459420E+04  0.11785459420E+04  0.50400001928E-02 0. -1.
    10030    2    1    2    0    0  0.00000000000E+00  0.00000000000E+00 -0.29916640177E+03  0.20579254823E+04  0.20360640351E+04 0.  0.
        3    1    3    3  502    0  0.72876079019E+03  0.42332447161E+02 -0.86678280755E+03  0.11332240604E+04  0.10100000352E+00 0. -1.
       -3    1    3    3    0  502 -0.72876079019E+03 -0.42332447161E+02  0.56761640578E+03  0.92470142192E+03  0.10100000352E+00 0.  1.
</event>
<event>
 5   0  0.2142551E-05  0.1998178E+04  0.7818609E-02  0.8607473E-01
       -1   -1    0    0    0  501  0.00000000000E+00  0.00000000000E+00  0.10786000298E+04  0.10786000298E+04  0.50400001928E-02 0.  1.
        1   -1    0    0  501    0  0.00000000000E+00  0.00000000000E+00 -0.92543888255E+03  0.92543888256E+03  0.50400001928E-02 0. -1.
    10030    2    1    2    0    0  0.00000000000E+00  0.00000000000E+00  0.15316114724E+03  0.20040389124E+04  0.19981775760E+04 0.  0.
        3    1    3    3  502    0 -0.25097464915E+03  0.20317875916E+03 -0.87166015645E+03  0.92954898808E+03  0.10100000352E+00 0. -1.
       -3    1    3    3    0  502  0.25097464915E+03 -0.20317875916E+03  0.10248213037E+04  0.10744899243E+04  0.10100000352E+00 0.  1.
</event>
<event>
 5   0  0.2256868E-05  0.2000736E+04  0.7818609E-02  0.8606277E-01
       -1   -1    0    0    0  501  0.00000000000E+00  0.00000000000E+00  0.45758588764E+03  0.45758588766E+03  0.50400001928E-02 0.  1.
        1   -1    0    0  501    0  0.00000000000E+00  0.00000000000E+00 -0.21869912041E+04  0.21869912041E+04  0.50400001928E-02 0. -1.
    10030    2    1    2    0    0  0.00000000000E+00  0.00000000000E+00 -0.17294053165E+04  0.26445770918E+04  0.20007361760E+04 0.  0.
        5    1    3    3  502    0 -0.55927812035E+03 -0.82203702078E+03 -0.10105648243E+04  0.14176742339E+04  0.46999998093E+01 0. -1.
       -5    1    3    3    0  502  0.55927812035E+03  0.82203702078E+03 -0.71884049222E+03  0.12269028579E+04  0.46999998093E+01 0.  1.
</event>
<event>
 5   0  0.4412054E-05  0.2002172E+04  0.7818609E-02  0.8605606E-01
        2   -1    0    0  501    0  0.00000000000E+00  0.00000000000E+00  0.19458482954E+04  0.19458482954E+04  0.25500000920E-02 0. -1.
       -2   -1    0    0    0  501  0.00000000000E+00  0.00000000000E+00 -0.51503175956E+03  0.51503175957E+03  0.25500000920E-02 0.  1.
    10030    2    1    2    0    0  0.00000000000E+00  0.00000000000E+00  0.14308165358E+04  0.24608800549E+04  0.20021724915E+04 0.  0.
        4    1    3    3  502    0 -0.13482601566E+03 -0.74197041787E+03 -0.93818861951E+02  0.75993535728E+03  0.12699999809E+01 0.  1.
       -4    1    3    3    0  502  0.13482601566E+03  0.74197041787E+03  0.15246353978E+04  0.17009446977E+04  0.12699999809E+01 0. -1.
</event>
<event>
 5   0  0.4514680E-05  0.1996057E+04  0.7818609E-02  0.8608467E-01
       -2   -1    0    0    0  501  0.00000000000E+00  0.00000000000E+00  0.16138897845E+04  0.16138897845E+04  0.25500000920E-02 0.  1.
        2   -1    0    0  501    0  0.00000000000E+00  0.00000000000E+00 -0.61717995905E+03  0.61717995905E+03  0.25500000920E-02 0. -1.
    10030    2    1    2    0    0  0.00000000000E+00  0.00000000000E+00  0.99670982545E+03  0.22310697435E+04  0.19960565434E+04 0.  0.
        3    1    3    3  502    0 -0.15155359802E+02 -0.78152367816E+02 -0.61362547100E+03  0.61876789379E+03  0.10100000352E+00 0. -1.
       -3    1    3    3    0  502  0.15155359802E+02  0.78152367816E+02  0.16103352965E+04  0.16123018498E+04  0.10100000352E+00 0.  1.
</event>
<event>
 5   0  0.4473361E-05  0.2000290E+04  0.7818609E-02  0.8606485E-01
        2   -1    0    0  501    0  0.00000000000E+00  0.00000000000E+00  0.22797518031E+04  0.22797518031E+04  0.25500000920E-02 0.  1.
       -2   -1    0    0    0  501  0.00000000000E+00  0.00000000000E+00 -0.43877142994E+03  0.43877142994E+03  0.25500000920E-02 0. -1.
    10030    2    1    2    0    0  0.00000000000E+00  0.00000000000E+00  0.18409803731E+04  0.27185232330E+04  0.20002899375E+04 0.  0.
        2    1    3    3  502    0 -0.57350456832E+03  0.33221653322E+03  0.19384419462E+04  0.20486172150E+04  0.25500000920E-02 0.  1.
       -2    1    3    3    0  502  0.57350456832E+03 -0.33221653322E+03 -0.97461573003E+02  0.66990601807E+03  0.25500000920E-02 0. -1.
</event>
<event>
 5   0  0.4577279E-05  0.1984173E+04  0.7818609E-02  0.8614056E-01
        2   -1    0    0  501    0  0.00000000000E+00  0.00000000000E+00  0.24112496841E+04  0.24112496841E+04  0.25500000920E-02 0. -1.
       -2   -1    0    0    0  501  0.00000000000E+00  0.00000000000E+00 -0.40818472149E+03  0.40818472150E+03  0.25500000920E-02 0.  1.
    10030    2    1    2    0    0  0.00000000000E+00  0.00000000000E+00  0.20030649626E+04  0.28194344056E+04  0.19841726546E+04 0.  0.
        1    1    3    3  502    0 -0.97099776251E+03  0.10922278426E+03  0.75760243209E+03  0.12364172906E+04  0.50400001928E-02 0.  1.
       -1    1    3    3    0  502  0.97099776251E+03 -0.10922278426E+03  0.12454625306E+04  0.15830171150E+04  0.50400001928E-02 0. -1.
</event>
<event>
 5   0  0.4447313E-05  0.1989023E+04  0.7818609E-02  0.8611770E-01
        2   -1    0    0  501    0  0.00000000000E+00  0.00000000000E+00  0.10484142470E+04  0.10484142470E+04  0.25500000920E-02 0.  1.
       -2   -1    0    0    0  501  0.00000000000E+00  0.00000000000E+00 -0.94338041034E+03  0.94338041035E+03  0.25500000920E-02 0. -1.
    10030    2    1    2    0    0  0.00000000000E+00  0.00000000000E+00  0.10503383661E+03  0.19917946573E+04  0.19890233407E+04 0.  0.
        5    1    3    3  502    0  0.60840244577E+03 -0.65301069550E+03  0.49182494055E+03  0.10190634753E+04  0.46999998093E+01 0.  1.
       -5    1    3    3    0  502 -0.60840244577E+03  0.65301069550E+03 -0.38679110394E+03  0.97273118205E+03  0.46999998093E+01 0. -1.
</event>
<event>
 5   0  0.4514680E-05  0.1944907E+04  0.7818609E-02  0.8632821E-01
        2   -1    0    0  501    0  0.00000000000E+00  0.00000000000E+00  0.92318594262E+03  0.92318594262E+03  0.25500000920E-02 0. -1.
       -2   -1    0    0    0  501  0.00000000000E+00  0.00000000000E+00 -0.10243498414E+04  0.10243498414E+04  0.25500000920E-02 0.  1.
    10030    2    1    2    0    0  0.00000000000E+00  0.00000000000E+00 -0.10116389877E+03  0.19475357840E+04  0.19449065519E+04 0.  0.
        3    1    3    3  502    0  0.59899452238E+03  0.66064503437E+03 -0.43894521864E+03  0.99394125302E+03  0.10100000352E+00 0.  1.
       -3    1    3    3    0  502 -0.59899452238E+03 -0.66064503437E+03  0.33778131987E+03  0.95359453099E+03  0.10100000352E+00 0. -1.
</event>
<event>
 5   0  0.2007644E-05  0.2001100E+04  0.7818609E-02  0.8606106E-01
       -1   -1    0    0    0  501  0.00000000000E+00  0.00000000000E+00  0.53653414466E+03  0.53653414468E+03  0.50400001928E-02 0. -1.
        1   -1    0    0  501    0  0.00000000000E+00  0.00000000000E+00 -0.18658656558E+04  0.18658656558E+04  0.50400001928E-02 0.  1.
    10030    2    1    2    0    0  0.00000000000E+00  0.00000000000E+00 -0.13293315112E+04  0.24023998005E+04  0.20011003310E+04 0.  0.
        1    1    3    3  502    0 -0.39233895906E+03  0.37318626365E+02  0.43942464982E+03  0.59026821155E+03  0.50400001928E-02 0. -1.
       -1    1    3    3    0  502  0.39233895906E+03 -0.37318626365E+02 -0.17687561610E+04  0.18121315890E+04  0.50400001928E-02 0.  1.
</event>
<event>
 5   0  0.2142551E-05  0.1966590E+04  0.7818609E-02  0.8622402E-01
        1   -1    0    0  501    0  0.00000000000E+00  0.00000000000E+00  0.12217346540E+04  0.12217346540E+04  0.50400001928E-02 0. -1.
       -1   -1    0    0    0  501  0.00000000000E+00  0.00000000000E+00 -0.79139053532E+03  0.79139053534E+03  0.50400001928E-02 0.  1.
    10030    2    1    2    0    0  0.00000000000E+00  0.00000000000E+00  0.43034411865E+03  0.20131251893E+04  0.19665901880E+04 0.  0.
        3    1    3    3  502    0  0.25003856380E+03  0.24436833358E+03 -0.72561473302E+03  0.80545137458E+03  0.10100000352E+00 0.  1.
       -3    1    3    3    0  502 -0.25003856380E+03 -0.24436833358E+03  0.11559588517E+04  0.12076738147E+04  0.10100000352E+00 0. -1.
</event>
<event>
 5   0  0.2256868E-05  0.1997833E+04  0.7818609E-02  0.8607635E-01
       -1   -1    0    0    0  501  0.00000000000E+00  0.00000000000E+00  0.69244359476E+03  0.69244359478E+03  0.50400001928E-02 0. -1.
        1   -1    0    0  501    0  0.00000000000E+00  0.00000000000E+00 -0.14410327982E+04  0.14410327982E+04  0.50400001928E-02 0.  1.
    10030    2    1    2    0    0  0.00000000000E+00  0.00000000000E+00 -0.74858920339E+03  0.21334763929E+04  0.19978327567E+04 0.  0.
        5    1    3    3  502    0 -0.80303984087E+03  0.45544749153E+03  0.33057363549E+02  0.92380749231E+03  0.46999998093E+01 0.  1.
       -5    1    3    3    0  502  0.80303984087E+03 -0.45544749153E+03 -0.78164656694E+03  0.12096689006E+04  0.46999998093E+01 0. -1.
</event>
<event>
 5   0  0.2142551E-05  0.1995899E+04  0.7818609E-02  0.8608540E-01
       -1   -1    0    0    0  501  0.00000000000E+00  0.00000000000E+00  0.12112335292E+04  0.12112335292E+04  0.50400001928E-02 0. -1.
        1   -1    0    0  501    0  0.00000000000E+00  0.00000000000E+00 -0.82222246370E+03  0.82222246372E+03  0.50400001928E-02 0.  1.
    10030    2    1    2    0    0  0.00000000000E+00  0.00000000000E+00  0.38901106552E+03  0.20334559930E+04  0.19958992124E+04 0.  0.
        3    1    3    3  502    0 -0.79307444547E+03 -0.43996514769E+03  0.61871405311E+03  0.10978813674E+04  0.10100000352E+00 0. -1.
       -3    1    3    3    0  502  0.79307444547E+03  0.43996514769E+03 -0.22970298758E+03  0.93557462553E+03  0.10100000352E+00 0.  1.
</event>
<event>
 5   0  0.4473361E-05  0.2005204E+04  0.7818609E-02  0.8604192E-01
       -2   -1    0    0    0  501  0.00000000000E+00  0.00000000000E+00  0.76679449801E+03  0.76679449801E+03  0.25500000920E-02 0. -1.
        2   -1    0    0  501    0  0.00000000000E+00  0.00000000000E+00 -0.13109258036E+04  0.13109258036E+04  0.25500000920E-02 0.  1.
    10030    2    1    2    0    0  0.00000000000E+00  0.00000000000E+00 -0.54413130557E+03  0.20777203016E+04  0.20052039233E+04 0.  0.
        2    1    3    3  502    0  0.71552747717E+03  0.61942362637E+03  0.70880390623E+02  0.94904648425E+03  0.25500000920E-02 0. -1.
       -2    1    3    3    0  502 -0.71552747717E+03 -0.61942362637E+03 -0.61501169619E+03  0.11286738173E+04  0.25500000920E-02 0.  1.
</event>
<event>
 5   0  0.4514680E-05  0.2000604E+04  0.7818609E-02  0.8606338E-01
        2   -1    0    0  501    0  0.00000000000E+00  0.00000000000E+00  0.74264112668E+03  0.74264112669E+03  0.25500000920E-02 0.  1.
       -2   -1    0    0    0  501  0.00000000000E+00  0.00000000000E+00 -0.13473592106E+04  0.13473592106E+04  0.25500000920E-02 0. -1.
    10030    2    1    2    0    0  0.00000000000E+00  0.00000000000E+00 -0.60471808396E+03  0.20900003373E+04  0.20006042710E+04 0.  0.
        3    1    3    3  502    0 -0.62133376359E+03  0.58944053088E+03 -0.84227861683E+03  0.12012198233E+04  0.10100000352E+00 0. -1.
       -3    1    3    3    0  502  0.62133376359E+03 -0.58944053088E+03  0.23756053287E+03  0.88878051407E+03  0.10100000352E+00 0.  1.
</event>
<event>
 5   0  0.2142551E-05  0.1948964E+04  0.7818609E-02  0.8630860E-01
       -1   -1    0    0    0  501  0.00000000000E+00  0.00000000000E+00  0.46000858883E+03  0.46000858886E+03  0.50400001928E-02 0.  1.
        1   -1    0    0  501    0  0.00000000000E+00  0.00000000000E+00 -0.20643429959E+04  0.20643429959E+04  0.50400001928E-02 0. -1.
    10030    2    1    2    0    0  0.00000000000E+00  0.00000000000E+00 -0.16043344071E+04  0.25243515848E+04  0.19489643490E+04 0.  0.
        3    1    3    3  502    0 -0.75748064167E+03 -0.10653279858E+03 -0.15841340888E+04  0.17591495051E+04  0.10100000352E+00 0. -1.
       -3    1    3    3    0  502  0.75748064167E+03  0.10653279858E+03 -0.20200318236E+02  0.76520207967E+03  0.10100000352E+00 0.  1.
</event>
<event>
 5   0  0.2093980E-05  0.1996420E+04  0.7818609E-02  0.8608296E-01
       -1   -1    0    0    0  501  0.00000000000E+00  0.00000000000E+00  0.18195443562E+04  0.18195443562E+04  0.50400001928E-02 0.  1.
        1   -1    0    0  501    0  0.00000000000E+00  0.00000000000E+00 -0.54762231847E+03  0.54762231850E+03  0.50400001928E-02 0. -1.
    10030    2    1    2    0    0  0.00000000000E+00  0.00000000000E+00  0.12719220377E+04  0.23671666747E+04  0.19964198947E+04 0.  0.
        2    1    3    3  502    0 -0.30727415016E+03 -0.27154777506E+03  0.17150624283E+04  0.17634043015E+04  0.25500000920E-02 0.  1.
       -2    1    3    3    0  502  0.30727415016E+03  0.27154777506E+03 -0.44314039060E+03  0.60376237320E+03  0.25500000920E-02 0. -1.
</event>
<event>
 5   0  0.4473361E-05  0.2005726E+04  0.7818609E-02  0.8603948E-01
        2   -1    0    0  501    0  0.00000000000E+00  0.00000000000E+00  0.20765393132E+04  0.20765393132E+04  0.25500000920E-02 0. -1.
       -2   -1    0    0    0  501  0.00000000000E+00  0.00000000000E+00 -0.48433171014E+03  0.48433171014E+03  0.25500000920E-02 0.  1.
    10030    2    1    2    0    0  0.00000000000E+00  0.00000000000E+00  0.15922076031E+04  0.25608710234E+04  0.20057256410E+04 0.  0.
        2    1    3    3  502    0  0.12136106103E+03  0.52169305826E+03  0.18786160165E+04  0.19534815821E+04  0.25500000920E-02 0. -1.
       -2    1    3    3    0  502 -0.12136106103E+03 -0.52169305826E+03 -0.28640841336E+03  0.60738944132E+03  0.25500000920E-02 0.  1.
</event>
<event>
 5   0  0.2110896E-05  0.1996488E+04  0.7818609E-02  0.8608265E-01
       -1   -1    0    0    0  501  0.00000000000E+00  0.00000000000E+00  0.12278513700E+04  0.12278513700E+04  0.50400001928E-02 0.  1.
        1   -1    0    0  501    0  0.00000000000E+00  0.00000000000E+00 -0.81157268675E+03  0.81157268677E+03  0.50400001928E-02 0. -1.
    10030    2    1    2    0    0  0.00000000000E+00  0.00000000000E+00  0.41627868327E+03  0.20394240568E+04  0.19964875510E+04 0.  0.
        4    1    3    3  502    0  0.45596239836E+03  0.88604051684E+03  0.26874070815E+03  0.10320817251E+04  0.12699999809E+01 0. -1.
       -4    1    3    3    0  502 -0.45596239836E+03 -0.88604051684E+03  0.14753797512E+03  0.10073423317E+04  0.12699999809E+01 0.  1.
</event>
<event>
 5   0  0.4577279E-05  0.1992430E+04  0.7818609E-02  0.8610168E-01
       -2   -1    0    0    0  501  0.00000000000E+00  0.00000000000E+00  0.56389024882E+03  0.56389024883E+03  0.25500000920E-02 0.  1.
        2   -1    0    0  501    0  0.00000000000E+00  0.00000000000E+00 -0.17599960858E+04  0.17599960858E+04  0.25500000920E-02 0. -1.
    10030    2    1    2    0    0  0.00000000000E+00  0.00000000000E+00 -0.11961058370E+04  0.23238863346E+04  0.19924303057E+04 0.  0.
        1    1    3    3  502    0  0.54009088398E+03  0.35668031706E+03 -0.14813527639E+04  0.16165781833E+04  0.50400001928E-02 0. -1.
       -1    1    3    3    0  502 -0.54009088398E+03 -0.35668031706E+03  0.28524692696E+03  0.70730815131E+03  0.50400001928E-02 0.  1.
</event>
<event>
 5   0  0.2110896E-05  0.1988921E+04  0.7818609E-02  0.8611818E-01
        1   -1    0    0  501    0  0.00000000000E+00  0.00000000000E+00  0.18335119744E+04  0.18335119745E+04  0.50400001928E-02 0. -1.
       -1   -1    0    0    0  501  0.00000000000E+00  0.00000000000E+00 -0.53937571222E+03  0.53937571225E+03  0.50400001928E-02 0.  1.
    10030    2    1    2    0    0  0.00000000000E+00  0.00000000000E+00  0.12941362622E+04  0.23728876867E+04  0.19889211418E+04 0.  0.
        4    1    3    3  502    0  0.10159086486E+03  0.58942996729E+03 -0.30079087540E+03  0.66949619400E+03  0.12699999809E+01 0.  1.
       -4    1    3    3    0  502 -0.10159086486E+03 -0.58942996729E+03  0.15949271376E+04  0.17033914927E+04  0.12699999809E+01 0. -1.
</event>
<event>
 5   0  0.2007644E-05  0.2000322E+04  0.7818609E-02  0.8606470E-01
       -1   -1    0    0    0  501  0.00000000000E+00  0.00000000000E+00  0.46965578469E+03  0.46965578472E+03  0.50400001928E-02 0. -1.
        1   -1    0    0  501    0  0.00000000000E+00  0.00000000000E+00 -0.21299047458E+04  0.21299047458E+04  0.50400001928E-02 0.  1.
    10030    2    1    2    0    0  0.00000000000E+00  0.00000000000E+00 -0.16602489611E+04  0.25995605305E+04  0.20003220588E+04 0.  0.
        1    1    3    3  502    0 -0.75666378740E+03 -0.52819550738E+03 -0.32883443993E+03  0.97962373904E+03  0.50400001928E-02 0. -1.
       -1    1    3    3    0  502  0.75666378740E+03  0.52819550738E+03 -0.13314145212E+04  0.16199367915E+04  0.50400001928E-02 0.  1.
</event>
<event>
 5   0  0.2093980E-05  0.2003459E+04  0.7818609E-02  0.8605005E-01
        1   -1    0    0  501    0  0.00000000000E+00  0.00000000000E+00  0.14074829151E+04  0.14074829151E+04  0.50400001928E-02 0.  1.
       -1   -1    0    0    0  501  0.00000000000E+00  0.00000000000E+00 -0.71294810148E+03  0.71294810150E+03  0.50400001928E-02 0. -1.
    10030    2    1    2    0    0  0.00000000000E+00  0.00000000000E+00  0.69453481361E+03  0.21204310166E+04  0.20034592806E+04 0.  0.
        2    1    3    3  502    0 -0.24884033107E+03 -0.66277285616E+03 -0.40282281287E+03  0.81452783120E+03  0.25500000920E-02 0. -1.
       -2    1    3    3    0  502  0.24884033107E+03  0.66277285616E+03  0.10973576265E+04  0.13059031854E+04  0.25500000920E-02 0.  1.
</event>
<event>
 5   0  0.4577279E-05  0.1998501E+04  0.7818609E-02  0.8607322E-01
       -2   -1    0    0    0  501  0.00000000000E+00  0.00000000000E+00  0.44280089713E+03  0.44280089714E+03  0.25500000920E-02 0.  1.
        2   -1    0    0  501    0  0.00000000000E+00  0.00000000000E+00 -0.22549681065E+04  0.22549681065E+04  0.25500000920E-02 0. -1.
    10030    2    1    2    0    0  0.00000000000E+00  0.00000000000E+00 -0.18121672094E+04  0.26977690036E+04  0.19985013391E+04 0.  0.
        1    1    3    3  502    0  0.30545919843E+03  0.85227592476E+03 -0.14769193856E+04  0.17323309283E+04  0.50400001928E-02 0. -1.
       -1    1    3    3    0  502 -0.30545919843E+03 -0.85227592476E+03 -0.33524782380E+03  0.96543807529E+03  0.50400001928E-02 0.  1.
</event>
<event>
 5   0  0.4447313E-05  0.1991527E+04  0.7818609E-02  0.8610593E-01
        2   -1    0    0  501    0  0.00000000000E+00  0.00000000000E+00  0.13759769483E+04  0.13759769483E+04  0.25500000920E-02 0. -1.
       -2   -1    0    0    0  501  0.00000000000E+00  0.00000000000E+00 -0.72061131298E+03  0.72061131298E+03  0.25500000920E-02 0.  1.
    10030    2    1    2    0    0  0.00000000000E+00  0.00000000000E+00  0.65536563533E+03  0.20965882613E+04  0.19915266058E+04 0.  0.
        5    1    3    3  502    0 -0.50548551365E+03  0.85701614019E+03  0.28650146475E+03  0.10354213869E+04  0.46999998093E+01 0. -1.
       -5    1    3    3    0  502  0.50548551365E+03 -0.85701614019E+03  0.36886417059E+03  0.10611668744E+04  0.46999998093E+01 0.  1.
</event>
<event>
 5   0  0.2256868E-05  0.2011275E+04  0.7818609E-02  0.8601367E-01
       -1   -1    0    0    0  501  0.00000000000E+00  0.00000000000E+00  0.75140843242E+03  0.75140843244E+03  0.50400001928E-02 0. -1.
        1   -1    0    0  501    0  0.00000000000E+00  0.00000000000E+00 -0.13458812775E+04  0.13458812775E+04  0.50400001928E-02 0.  1.
    10030    2    1    2    0    0  0.00000000000E+00  0.00000000000E+00 -0.59447284507E+03  0.20972897099E+04  0.20112747609E+04 0.  0.
        5    1    3    3  502    0 -0.66523250042E+03 -0.16587873750E+03 -0.10643854248E+04  0.12660918046E+04  0.46999998093E+01 0.  1.
       -5    1    3    3    0  502  0.66523250042E+03  0.16587873750E+03  0.46991257976E+03  0.83119790531E+03  0.46999998093E+01 0. -1.
</event>
<event>
 5   0  0.4412054E-05  0.2002297E+04  0.7818609E-02  0.8605547E-01
       -2   -1    0    0    0  501  0.00000000000E+00  0.00000000000E+00  0.12455600952E+04  0.12455600952E+04  0.25500000920E-02 0. -1.
        2   -1    0    0  501    0  0.00000000000E+00  0.00000000000E+00 -0.80469691024E+03  0.80469691024E+03  0.25500000920E-02 0.  1.
    10030    2    1    2    0    0  0.00000000000E+00  0.00000000000E+00  0.44086318493E+03  0.20502570054E+04  0.20022970410E+04 0.  0.
        4    1    3    3  502    0  0.77408153129E+03  0.11195189318E+02 -0.42957195123E+03  0.88535937536E+03  0.12699999809E+01 0.  1.
       -4    1    3    3    0  502 -0.77408153129E+03 -0.11195189318E+02  0.87043513615E+03  0.11648976301E+04  0.12699999809E+01 0. -1.
</event>
<event>
 5   0  0.2007644E-05  0.1986176E+04  0.7818609E-02  0.8613111E-01
       -1   -1    0    0    0  501  0.00000000000E+00  0.00000000000E+00  0.68599419817E+03  0.68599419819E+03  0.50400001928E-02 0. -1.
        1   -1    0    0  501    0  0.00000000000E+00  0.00000000000E+00 -0.14376568513E+04  0.14376568513E+04  0.50400001928E-02 0.  1.
    10030    2    1    2    0    0  0.00000000000E+00  0.00000000000E+00 -0.75166265316E+03  0.21236510495E+04  0.19861764866E+04 0.  0.
        1    1    3    3  502    0 -0.34598544428E+03  0.57998871617E+03  0.40266594184E+03  0.78627774945E+03  0.50400001928E-02 0. -1.
       -1    1    3    3    0  502  0.34598544428E+03 -0.57998871617E+03 -0.11543285950E+04  0.13373733001E+04  0.50400001928E-02 0.  1.
</event>
<event>
 5   0  0.2256868E-05  0.1959469E+04  0.7818609E-02  0.8625808E-01
        1   -1    0    0  501    0  0.00000000000E+00  0.00000000000E+00  0.87112420902E+03  0.87112420903E+03  0.50400001928E-02 0.  1.
       -1   -1    0    0    0  501  0.00000000000E+00  0.00000000000E+00 -0.11018861002E+04  0.11018861003E+04  0.50400001928E-02 0. -1.
    10030    2    1    2    0    0  0.00000000000E+00  0.00000000000E+00 -0.23076189123E+03  0.19730103093E+04  0.19594689664E+04 0.  0.
        5    1    3    3  502    0  0.95996836487E+01 -0.84935272860E+03 -0.60698169088E+03  0.10440024303E+04  0.46999998093E+01 0. -1.
       -5    1    3    3    0  502 -0.95996836487E+01  0.84935272860E+03  0.37621979965E+03  0.92900787895E+03  0.46999998093E+01 0.  1.
</event>
<event>
 5   0  0.2093980E-05  0.1998921E+04  0.7818609E-02  0.8607125E-01
       -1   -1    0    0    0  501  0.00000000000E+00  0.00000000000E+00  0.72666958761E+03  0.72666958763E+03  0.50400001928E-02 0.  1.
        1   -1    0    0  501    0  0.00000000000E+00  0.00000000000E+00 -0.13746567721E+04  0.13746567721E+04  0.50400001928E-02 0. -1.
    10030    2    1    2    0    0  0.00000000000E+00  0.00000000000E+00 -0.64798718449E+03  0.21013263597E+04  0.19989209786E+04 0.  0.
        2    1    3    3  502    0 -0.69780076608E+03 -0.57555835581E+03  0.12290658951E+03  0.91285232094E+03  0.25500000920E-02 0. -1.
       -2    1    3    3    0  502  0.69780076608E+03  0.57555835581E+03 -0.77089377400E+03  0.11884740388E+04  0.25500000920E-02 0.  1.
</event>
<event>
 5   0  0.2093980E-05  0.2001302E+04  0.7818609E-02  0.8606012E-01
        1   -1    0    0  501    0  0.00000000000E+00  0.00000000000E+00  0.48680581889E+03  0.48680581891E+03  0.50400001928E-02 0.  1.
       -1   -1    0    0    0  501  0.00000000000E+00  0.00000000000E+00 -0.20568832517E+04  0.20568832517E+04  0.50400001928E-02 0. -1.
    10030    2    1    2    0    0  0.00000000000E+00  0.00000000000E+00 -0.15700774328E+04  0.25436890706E+04  0.20013023117E+04 0.  0.
        2    1    3    3  502    0  0.17329769108E+03 -0.57791415266E+03 -0.17996938906E+04  0.18981345994E+04  0.25500000920E-02 0. -1.
       -2    1    3    3    0  502 -0.17329769108E+03  0.57791415266E+03  0.22961645780E+03  0.64555447120E+03  0.25500000920E-02 0.  1.
</event>
<event>
 5   0  0.2256868E-05  0.1998596E+04  0.7818609E-02  0.8607277E-01
        1   -1    0    0  501    0  0.00000000000E+00  0.00000000000E+00  0.12580105420E+04  0.12580105420E+04  0.50400001928E-02 0.  1.
       -1   -1    0    0    0  501  0.00000000000E+00  0.00000000000E+00 -0.79379003642E+03  0.79379003644E+03  0.50400001928E-02 0. -1.
    10030    2    1    2    0    0  0.00000000000E+00  0.00000000000E+00  0.46422050555E+03  0.20518005784E+04  0.19985957410E+04 0.  0.
        5    1    3    3  502    0  0.63503914643E+03 -0.14674886545E+03 -0.54552674094E+03  0.84995968263E+03  0.46999998093E+01 0. -1.
       -5    1    3    3    0  502 -0.63503914643E+03  0.14674886545E+03  0.10097472465E+04  0.12018408958E+04  0.46999998093E+01 0.  1.
</event>
<event>
 5   0  0.2256868E-05  0.1998758E+04  0.7818609E-02  0.8607201E-01
        1   -1    0    0  501    0  0.00000000000E+00  0.00000000000E+00  0.10013445165E+04  0.10013445165E+04  0.50400001928E-02 0. -1.
       -1   -1    0    0    0  501  0.00000000000E+00  0.00000000000E+00 -0.99741772724E+03  0.99741772725E+03  0.50400001928E-02 0.  1.
    10030    2    1    2    0    0  0.00000000000E+00  0.00000000000E+00  0.39267892674E+01  0.19987622438E+04  0.19987583865E+04 0.  0.
        5    1    3    3  502    0  0.86913511412E+03 -0.28511626017E+03  0.40451796102E+03  0.10001719848E+04  0.46999998093E+01 0. -1.
       -5    1    3    3    0  502 -0.86913511412E+03  0.28511626017E+03 -0.40059117175E+03  0.99859025896E+03  0.46999998093E+01 0.  1.
</event>
<event>
 5   0  0.2093980E-05  0.1994480E+04  0.7818609E-02  0.8609206E-01
        1   -1    0    0  501    0  0.00000000000E+00  0.00000000000E+00  0.13457789424E+04  0.13457789424E+04  0.50400001928E-02 0.  1.
       -1   -1    0    0    0  501  0.00000000000E+00  0.00000000000E+00 -0.73896789412E+03  0.73896789414E+03  0.50400001928E-02 0. -1.
    10030    2    1    2    0    0  0.00000000000E+00  0.00000000000E+00  0.60681104830E+03  0.20847468366E+04  0.19944798130E+04 0.  0.
        2    1    3    3  502    0  0.34910517234E+03  0.23424223977E+03 -0.64181305801E+03  0.76724692876E+03  0.25500000920E-02 0. -1.
       -2    1    3    3    0  502 -0.34910517234E+03 -0.23424223977E+03  0.12486241063E+04  0.13174999078E+04  0.25500000920E-02 0.  1.
</event>
<event>
 5   0  0.2093980E-05  0.1997325E+04  0.7818609E-02  0.8607872E-01
       -1   -1    0    0    0  501  0.00000000000E+00  0.00000000000E+00  0.10527450216E+04  0.10527450216E+04  0.50400001928E-02 0. -1.
        1   -1    0    0  501    0  0.00000000000E+00  0.00000000000E+00 -0.94735839670E+03  0.94735839672E+03  0.50400001928E-02 0.  1.
    10030    2    1    2    0    0  0.00000000000E+00  0.00000000000E+00  0.10538662494E+03  0.20001034184E+04  0.19973250470E+04 0.  0.
        2    1    3    3  502    0 -0.30320373939E+03  0.95149699891E+03  0.59615912635E+02  0.10004164651E+04  0.25500000920E-02 0.  1.
       -2    1    3    3    0  502  0.30320373939E+03 -0.95149699891E+03  0.45770712301E+02  0.99968695331E+03  0.25500000920E-02 0. -1.
</event>
<event>
 5   0  0.1601500E-05  0.1999645E+04  0.7818609E-02  0.8606787E-01
        4   -1    0    0  501    0  0.00000000000E+00  0.00000000000E+00  0.71066743109E+03  0.71066856587E+03  0.12699999809E+01 0. -1.
       -4   -1    0    0    0  501  0.00000000000E+00  0.00000000000E+00 -0.14066257223E+04  0.14066262956E+04  0.12699999809E+01 0.  1.
    10030    2    1    2    0    0  0.00000000000E+00  0.00000000000E+00 -0.69595829118E+03  0.21172948615E+04  0.19996448653E+04 0.  0.
        5    1    3    3  502    0  0.52447014499E+03  0.69480586035E+03  0.17268232810E+03  0.88750515097E+03  0.46999998093E+01 0. -1.
       -5    1    3    3    0  502 -0.52447014499E+03 -0.69480586035E+03 -0.86864061928E+03  0.12297897105E+04  0.46999998093E+01 0.  1.
</event>
<event>
 5   0  0.4577279E-05  0.2049948E+04  0.7818609E-02  0.8583618E-01
       -2   -1    0    0    0  501  0.00000000000E+00  0.00000000000E+00  0.97526047883E+03  0.97526047884E+03  0.25500000920E-02 0.  1.
        2   -1    0    0  501    0  0.00000000000E+00  0.00000000000E+00 -0.10772220929E+04  0.10772220929E+04  0.25500000920E-02 0. -1.
    10030    2    1    2    0    0  0.00000000000E+00  0.00000000000E+00 -0.10196161406E+03  0.20524825717E+04  0.20499484229E+04 0.  0.
        1    1    3    3  502    0 -0.19771810572E+03  0.54580711976E+02  0.95450195829E+03  0.97629170428E+03  0.50400001928E-02 0.  1.
       -1    1    3    3    0  502  0.19771810572E+03 -0.54580711976E+02 -0.10564635723E+04  0.10761908674E+04  0.50400001928E-02 0. -1.
</event>
<event>
 5   0  0.2256868E-05  0.2001784E+04  0.7818609E-02  0.8605787E-01
        1   -1    0    0  501    0  0.00000000000E+00  0.00000000000E+00  0.13043039806E+04  0.13043039806E+04  0.50400001928E-02 0. -1.
       -1   -1    0    0    0  501  0.00000000000E+00  0.00000000000E+00 -0.76806050077E+03  0.76806050078E+03  0.50400001928E-02 0.  1.
    10030    2    1    2    0    0  0.00000000000E+00  0.00000000000E+00  0.53624347987E+03  0.20723644814E+04  0.20017835733E+04 0.  0.
        5    1    3    3  502    0 -0.64574914426E+03  0.22526240444E+03 -0.48841617127E+03  0.84042105787E+03  0.46999998093E+01 0.  1.
       -5    1    3    3    0  502  0.64574914426E+03 -0.22526240444E+03  0.10246596511E+04  0.12319434235E+04  0.46999998093E+01 0. -1.
</event>
<event>
 5   0  0.2093980E-05  0.1968308E+04  0.7818609E-02  0.8621583E-01
       -1   -1    0    0    0  501  0.00000000000E+00  0.00000000000E+00  0.59416518641E+03  0.59416518644E+03  0.50400001928E-02 0.  1.
        1   -1    0    0  501    0  0.00000000000E+00  0.00000000000E+00 -0.16301176586E+04  0.16301176586E+04  0.50400001928E-02 0. -1.
    10030    2    1    2    0    0  0.00000000000E+00  0.00000000000E+00 -0.10359524722E+04  0.22242828451E+04  0.19683080679E+04 0.  0.
        2    1    3    3  502    0 -0.59245179672E+03  0.16001078066E+03  0.35146826755E+03  0.70720048393E+03  0.25500000920E-02 0.  1.
       -2    1    3    3    0  502  0.59245179672E+03 -0.16001078066E+03 -0.13874207398E+04  0.15170823611E+04  0.25500000920E-02 0. -1.
</event>
<event>
 5   0  0.2007644E-05  0.2009284E+04  0.7818609E-02  0.8602292E-01
       -1   -1    0    0    0  501  0.00000000000E+00  0.00000000000E+00  0.63403452322E+03  0.63403452324E+03  0.50400001928E-02 0.  1.
        1   -1    0    0  501    0  0.00000000000E+00  0.00000000000E+00 -0.15918774485E+04  0.15918774485E+04  0.50400001928E-02 0. -1.
    10030    2    1    2    0    0  0.00000000000E+00  0.00000000000E+00 -0.95784292524E+03  0.22259119717E+04  0.20092837123E+04 0.  0.
        1    1    3    3  502    0  0.59316418797E+03  0.41598045647E+03 -0.12499643679E+04  0.14447471803E+04  0.50400001928E-02 0. -1.
       -1    1    3    3    0  502 -0.59316418797E+03 -0.41598045647E+03  0.29212144262E+03  0.78116479140E+03  0.50400001928E-02 0.  1.
</event>
<event>
 5   0  0.4447313E-05  0.2003976E+04  0.7818609E-02  0.8604764E-01
       -2   -1    0    0    0  501  0.00000000000E+00  0.00000000000E+00  0.75537181036E+03  0.75537181037E+03  0.25500000920E-02 0.  1.
        2   -1    0    0  501    0  0.00000000000E+00  0.00000000000E+00 -0.13291198681E+04  0.13291198681E+04  0.25500000920E-02 0. -1.
    10030    2    1    2    0    0  0.00000000000E+00  0.00000000000E+00 -0.57374805770E+03  0.20844916784E+04  0.20039757293E+04 0.  0.
        5    1    3    3  502    0 -0.80229683230E+03  0.30642537672E+03  0.24998372093E+03  0.89447787527E+03  0.46999998093E+01 0.  1.
       -5    1    3    3    0  502  0.80229683230E+03 -0.30642537672E+03 -0.82373177863E+03  0.11900138032E+04  0.46999998093E+01 0. -1.
</event>
<event>
 5   0  0.4447313E-05  0.1998098E+04  0.7818609E-02  0.8607511E-01
        2   -1    0    0  501    0  0.00000000000E+00  0.00000000000E+00  0.52747698394E+03  0.52747698395E+03  0.25500000920E-02 0.  1.
       -2   -1    0    0    0  501  0.00000000000E+00  0.00000000000E+00 -0.18922122892E+04  0.18922122892E+04  0.25500000920E-02 0. -1.
    10030    2    1    2    0    0  0.00000000000E+00  0.00000000000E+00 -0.13647353053E+04  0.24196892731E+04  0.19980975264E+04 0.  0.
        5    1    3    3  502    0  0.45938050936E+03  0.32095357670E+02  0.39127201434E+03  0.60429830677E+03  0.46999998093E+01 0.  1.
       -5    1    3    3    0  502 -0.45938050936E+03 -0.32095357670E+02 -0.17560073196E+04  0.18153909664E+04  0.46999998093E+01 0. -1.
</event>
<event>
 5   0  0.4412054E-05  0.1996506E+04  0.7818609E-02  0.8608256E-01
        2   -1    0    0  501    0  0.00000000000E+00  0.00000000000E+00  0.13767730390E+04  0.13767730390E+04  0.25500000920E-02 0.  1.
       -2   -1    0    0    0  501  0.00000000000E+00  0.00000000000E+00 -0.72380021293E+03  0.72380021293E+03  0.25500000920E-02 0. -1.
    10030    2    1    2    0    0  0.00000000000E+00  0.00000000000E+00  0.65297282607E+03  0.21005732519E+04  0.19965055660E+04 0.  0.
        4    1    3    3  502    0  0.74383514464E+03  0.61033205488E+03  0.46710063829E+02  0.96331686510E+03  0.12699999809E+01 0. -1.
       -4    1    3    3    0  502 -0.74383514464E+03 -0.61033205488E+03  0.60626276224E+03  0.11372563868E+04  0.12699999809E+01 0.  1.
</event>
<event>
 5   0  0.2256868E-05  0.1995150E+04  0.7818609E-02  0.8608892E-01
        1   -1    0    0  501    0  0.00000000000E+00  0.00000000000E+00  0.79592901465E+03  0.79592901467E+03  0.50400001928E-02 0. -1.
       -1   -1    0    0    0  501  0.00000000000E+00  0.00000000000E+00 -0.12503068637E+04  0.12503068637E+04  0.50400001928E-02 0.  1.
    10030    2    1    2    0    0  0.00000000000E+00  0.00000000000E+00 -0.45437784903E+03  0.20462358784E+04  0.19951496285E+04 0.  0.
        5    1    3    3  502    0 -0.26985786512E+03 -0.44525969282E+03  0.64551250979E+03  0.82932982083E+03  0.46999998093E+01 0. -1.
       -5    1    3    3    0  502  0.26985786512E+03  0.44525969282E+03 -0.10998903588E+04  0.12169060575E+04  0.46999998093E+01 0.  1.
</event>
<event>
 5   0  0.4473361E-05  0.1998636E+04  0.7818609E-02  0.8607259E-01
        2   -1    0    0  501    0  0.00000000000E+00  0.00000000000E+00  0.19222073046E+04  0.19222073046E+04  0.25500000920E-02 0.  1.
       -2   -1    0    0    0  501  0.00000000000E+00  0.00000000000E+00 -0.51952603856E+03  0.51952603856E+03  0.25500000920E-02 0. -1.
    10030    2    1    2    0    0  0.00000000000E+00  0.00000000000E+00  0.14026812660E+04  0.24417333431E+04  0.19986362813E+04 0.  0.
        2    1    3    3  502    0  0.62895950998E+03 -0.52766942959E+03  0.52808838089E+01  0.82100729586E+03  0.25500000920E-02 0. -1.
       -2    1    3    3    0  502 -0.62895950998E+03  0.52766942959E+03  0.13974003822E+04  0.16207260473E+04  0.25500000920E-02 0.  1.
</event>
<event>
 5   0  0.2093980E-05  0.1982079E+04  0.7818609E-02  0.8615045E-01
       -1   -1    0    0    0  501  0.00000000000E+00  0.00000000000E+00  0.54602091888E+03  0.54602091891E+03  0.50400001928E-02 0.  1.
        1   -1    0    0  501    0  0.00000000000E+00  0.00000000000E+00 -0.17987581359E+04  0.17987581359E+04  0.50400001928E-02 0. -1.
    10030    2    1    2    0    0  0.00000000000E+00  0.00000000000E+00 -0.12527372170E+04  0.23447790548E+04  0.19820792822E+04 0.  0.
        2    1    3    3  502    0  0.80370444888E+03 -0.56638178951E+03 -0.77331856515E+03  0.12508999864E+04  0.25500000920E-02 0. -1.
       -2    1    3    3    0  502 -0.80370444888E+03  0.56638178951E+03 -0.47941865185E+03  0.10938790684E+04  0.25500000920E-02 0.  1.
</event>
<event>
 5   0  0.4473361E-05  0.2003181E+04  0.7818609E-02  0.8605135E-01
       -2   -1    0    0    0  501  0.00000000000E+00  0.00000000000E+00  0.93334796106E+03  0.93334796106E+03  0.25500000920E-02 0.  1.
        2   -1    0    0  501    0  0.00000000000E+00  0.00000000000E+00 -0.10748229635E+04  0.10748229635E+04  0.25500000920E-02 0. -1.
    10030    2    1    2    0    0  0.00000000000E+00  0.00000000000E+00 -0.14147500240E+03  0.20081709245E+04  0.20031812913E+04 0.  0.
        2    1    3    3  502    0 -0.95916025921E+03 -0.27492430362E+03  0.16726857842E+02  0.99792362601E+03  0.25500000920E-02 0. -1.
       -2    1    3    3    0  502  0.95916025921E+03  0.27492430362E+03 -0.15820186024E+03  0.10102472985E+04  0.25500000920E-02 0.  1.
</event>
<event>
 5   0  0.2256868E-05  0.2003703E+04  0.7818609E-02  0.8604891E-01
        1   -1    0    0  501    0  0.00000000000E+00  0.00000000000E+00  0.15960267009E+04  0.15960267009E+04  0.50400001928E-02 0. -1.
       -1   -1    0    0    0  501  0.00000000000E+00  0.00000000000E+00 -0.62887843390E+03  0.62887843392E+03  0.50400001928E-02 0.  1.
    10030    2    1    2    0    0  0.00000000000E+00  0.00000000000E+00  0.96714826698E+03  0.22249051348E+04  0.20037033435E+04 0.  0.
        5    1    3    3  502    0 -0.28375371402E+03 -0.95856751773E+03  0.41061824663E+03  0.10807392335E+04  0.46999998093E+01 0. -1.
       -5    1    3    3    0  502  0.28375371402E+03  0.95856751773E+03  0.55653002034E+03  0.11441659014E+04  0.46999998093E+01 0.  1.
</event>
<event>
 5   0  0.4412054E-05  0.1994649E+04  0.7818609E-02  0.8609127E-01
       -2   -1    0    0    0  501  0.00000000000E+00  0.00000000000E+00  0.42483666925E+03  0.42483666926E+03  0.25500000920E-02 0.  1.
        2   -1    0    0  501    0  0.00000000000E+00  0.00000000000E+00 -0.23412671841E+04  0.23412671841E+04  0.25500000920E-02 0. -1.
    10030    2    1    2    0    0  0.00000000000E+00  0.00000000000E+00 -0.19164305148E+04  0.27661038533E+04  0.19946489940E+04 0.  0.
        4    1    3    3  502    0  0.77625338285E+03  0.53749944448E+03 -0.51276536244E+03  0.10744323604E+04  0.12699999809E+01 0.  1.
       -4    1    3    3    0  502 -0.77625338285E+03 -0.53749944448E+03 -0.14036651524E+04  0.16916714930E+04  0.12699999809E+01 0. -1.
</event>
<event>
 5   0  0.2007644E-05  0.1995885E+04  0.7818609E-02  0.8608547E-01
        1   -1    0    0  501    0  0.00000000000E+00  0.00000000000E+00  0.15538742804E+04  0.15538742804E+04  0.50400001928E-02 0.  1.
       -1   -1    0    0    0  501  0.00000000000E+00  0.00000000000E+00 -0.64090717385E+03  0.64090717387E+03  0.50400001928E-02 0. -1.
    10030    2    1    2    0    0  0.00000000000E+00  0.00000000000E+00  0.91296710658E+03  0.21947814543E+04  0.19958849402E+04 0.  0.
        1    1    3    3  502    0  0.30376962508E+03  0.25473295496E+03 -0.55059975081E+03  0.67847251167E+03  0.50400001928E-02 0. -1.
       -1    1    3    3    0  502 -0.30376962508E+03 -0.25473295496E+03  0.14635668574E+04  0.15163089426E+04  0.50400001928E-02 0.  1.
</event>
<event>
 5   0  0.2256868E-05  0.2004787E+04  0.7818609E-02  0.8604386E-01
        1   -1    0    0  501    0  0.00000000000E+00  0.00000000000E+00  0.11905416250E+04  0.11905416250E+04  0.50400001928E-02 0.  1.
       -1   -1    0    0    0  501  0.00000000000E+00  0.00000000000E+00 -0.84397917310E+03  0.84397917311E+03  0.50400001928E-02 0. -1.
    10030    2    1    2    0    0  0.00000000000E+00  0.00000000000E+00  0.34656245190E+03  0.20345207981E+04  0.20047866083E+04 0.  0.
        5    1    3    3  502    0  0.42287835039E+03  0.71223972098E+03 -0.39958984222E+03  0.91967692771E+03  0.46999998093E+01 0. -1.
       -5    1    3    3    0  502 -0.42287835039E+03 -0.71223972098E+03  0.74615229413E+03  0.11148438704E+04  0.46999998093E+01 0.  1.
</event>
<event>
 5   0  0.2007644E-05  0.2001482E+04  0.7818609E-02  0.8605928E-01
        1   -1    0    0  501    0  0.00000000000E+00  0.00000000000E+00  0.75558442436E+03  0.75558442438E+03  0.50400001928E-02 0.  1.
       -1   -1    0    0    0  501  0.00000000000E+00  0.00000000000E+00 -0.13254403168E+04  0.13254403168E+04  0.50400001928E-02 0. -1.
    10030    2    1    2    0    0  0.00000000000E+00  0.00000000000E+00 -0.56985589241E+03  0.20810247412E+04  0.20014815101E+04 0.  0.
        1    1    3    3  502    0  0.23844419076E+03 -0.73169644783E+03 -0.95007592040E+03  0.12226526810E+04  0.50400001928E-02 0. -1.
       -1    1    3    3    0  502 -0.23844419076E+03  0.73169644783E+03  0.38022002800E+03  0.85837206012E+03  0.50400001928E-02 0.  1.
</event>
<event>
 5   0  0.4473361E-05  0.1999790E+04  0.7818609E-02  0.8606719E-01
       -2   -1    0    0    0  501  0.00000000000E+00  0.00000000000E+00  0.35122401941E+03  0.35122401942E+03  0.25500000920E-02 0.  1.
        2   -1    0    0  501    0  0.00000000000E+00  0.00000000000E+00 -0.28465873207E+04  0.28465873207E+04  0.25500000920E-02 0. -1.
    10030    2    1    2    0    0  0.00000000000E+00  0.00000000000E+00 -0.24953633013E+04  0.31978113401E+04  0.19997898294E+04 0.  0.
        2    1    3    3  502    0  0.52659082981E+03 -0.79602502642E+03 -0.77107158011E+03  0.12269902715E+04  0.25500000920E-02 0. -1.
       -2    1    3    3    0  502 -0.52659082981E+03  0.79602502642E+03 -0.17242917212E+04  0.19708210686E+04  0.25500000920E-02 0.  1.
</event>
<event>
 5   0  0.4514680E-05  0.2005181E+04  0.7818609E-02  0.8604202E-01
        2   -1    0    0  501    0  0.00000000000E+00  0.00000000000E+00  0.17536006275E+04  0.17536006275E+04  0.25500000920E-02 0.  1.
       -2   -1    0    0    0  501  0.00000000000E+00  0.00000000000E+00 -0.57321337176E+03  0.57321337177E+03  0.25500000920E-02 0. -1.
    10030    2    1    2    0    0  0.00000000000E+00  0.00000000000E+00  0.11803872558E+04  0.23268139993E+04  0.20051806187E+04 0.  0.
        3    1    3    3  502    0  0.62052030048E+03 -0.96549198410E+01  0.15039303005E+04  0.16269434593E+04  0.10100000352E+00 0.  1.
       -3    1    3    3    0  502 -0.62052030048E+03  0.96549198410E+01 -0.32354304473E+03  0.69987054001E+03  0.10100000352E+00 0. -1.
</event>
<event>
 5   0  0.2256868E-05  0.1993493E+04  0.7818609E-02  0.8609669E-01
       -1   -1    0    0    0  501  0.00000000000E+00  0.00000000000E+00  0.98560191580E+03  0.98560191581E+03  0.50400001928E-02 0.  1.
        1   -1    0    0  501    0  0.00000000000E+00  0.00000000000E+00 -0.10080172661E+04  0.10080172661E+04  0.50400001928E-02 0. -1.
    10030    2    1    2    0    0  0.00000000000E+00  0.00000000000E+00 -0.22415350290E+02  0.19936191819E+04  0.19934931639E+04 0.  0.
        5    1    3    3  502    0 -0.43861166468E+03 -0.14570297892E+03 -0.89436717943E+03  0.10067394360E+04  0.46999998093E+01 0. -1.
       -5    1    3    3    0  502  0.43861166468E+03  0.14570297892E+03  0.87195182914E+03  0.98687974586E+03  0.46999998093E+01 0.  1.
</event>
<event>
 5   0  0.4447313E-05  0.2001041E+04  0.7818609E-02  0.8606134E-01
       -2   -1    0    0    0  501  0.00000000000E+00  0.00000000000E+00  0.86769109745E+03  0.86769109745E+03  0.25500000920E-02 0. -1.
        2   -1    0    0  501    0  0.00000000000E+00  0.00000000000E+00 -0.11536836117E+04  0.11536836117E+04  0.25500000920E-02 0.  1.
    10030    2    1    2    0    0  0.00000000000E+00  0.00000000000E+00 -0.28599251426E+03  0.20213747092E+04  0.20010407284E+04 0.  0.
        5    1    3    3  502    0  0.33711223111E+03 -0.85778815089E+03  0.25028466929E+03  0.95504433083E+03  0.46999998093E+01 0. -1.
       -5    1    3    3    0  502 -0.33711223111E+03  0.85778815089E+03 -0.53627718355E+03  0.10663303783E+04  0.46999998093E+01 0.  1.
</event>
<event>
 5   0  0.4447313E-05  0.2000350E+04  0.7818609E-02  0.8606457E-01
        2   -1    0    0  501    0  0.00000000000E+00  0.00000000000E+00  0.10358725696E+04  0.10358725696E+04  0.25500000920E-02 0. -1.
       -2   -1    0    0    0  501  0.00000000000E+00  0.00000000000E+00 -0.96570806029E+03  0.96570806029E+03  0.25500000920E-02 0.  1.
    10030    2    1    2    0    0  0.00000000000E+00  0.00000000000E+00  0.70164509307E+02  0.20015806299E+04  0.20003504592E+04 0.  0.
        5    1    3    3  502    0 -0.25850091509E+03  0.49943712961E+03  0.86267506657E+03  0.10298012090E+04  0.46999998093E+01 0. -1.
       -5    1    3    3    0  502  0.25850091509E+03 -0.49943712961E+03 -0.79251055726E+03  0.97177942091E+03  0.46999998093E+01 0.  1.
</event>
<event>
 5   0  0.4447313E-05  0.1965711E+04  0.7818609E-02  0.8622822E-01
       -2   -1    0    0    0  501  0.00000000000E+00  0.00000000000E+00  0.94208081156E+03  0.94208081156E+03  0.25500000920E-02 0. -1.
        2   -1    0    0  501    0  0.00000000000E+00  0.00000000000E+00 -0.10253952640E+04  0.10253952641E+04  0.25500000920E-02 0.  1.
    10030    2    1    2    0    0  0.00000000000E+00  0.00000000000E+00 -0.83314452492E+02  0.19674760756E+04  0.19657112733E+04 0.  0.
        5    1    3    3  502    0 -0.68940761791E+03  0.68232699385E+03  0.11700992825E+03  0.97701914182E+03  0.46999998093E+01 0. -1.
       -5    1    3    3    0  502  0.68940761791E+03 -0.68232699385E+03 -0.20032438074E+03  0.99045693379E+03  0.46999998093E+01 0.  1.
</event>
<event>
 5   0  0.2007644E-05  0.1970771E+04  0.7818609E-02  0.8620409E-01
       -1   -1    0    0    0  501  0.00000000000E+00  0.00000000000E+00  0.15136321366E+04  0.15136321366E+04  0.50400001928E-02 0. -1.
        1   -1    0    0  501    0  0.00000000000E+00  0.00000000000E+00 -0.64149297639E+03  0.64149297641E+03  0.50400001928E-02 0.  1.
    10030    2    1    2    0    0  0.00000000000E+00  0.00000000000E+00  0.87213916022E+03  0.21551251130E+04  0.19707707979E+04 0.  0.
        1    1    3    3  502    0  0.15802077386E+03 -0.22397466245E+03 -0.59896251518E+03  0.65870426521E+03  0.50400001928E-02 0.  1.
       -1    1    3    3    0  502 -0.15802077386E+03  0.22397466245E+03  0.14711016754E+04  0.14964208478E+04  0.50400001928E-02 0. -1.
</event>
<event>
 5   0  0.4412054E-05  0.2000112E+04  0.7818609E-02  0.8606568E-01
       -2   -1    0    0    0  501  0.00000000000E+00  0.00000000000E+00  0.11021640132E+04  0.11021640132E+04  0.25500000920E-02 0. -1.
        2   -1    0    0  501    0  0.00000000000E+00  0.00000000000E+00 -0.90740804612E+03  0.90740804613E+03  0.25500000920E-02 0.  1.
    10030    2    1    2    0    0  0.00000000000E+00  0.00000000000E+00  0.19475596709E+03  0.20095720593E+04  0.20001124906E+04 0.  0.
        4    1    3    3  502    0 -0.17065500012E+02  0.94777071686E+03 -0.22279877625E+03  0.97375637129E+03  0.12699999809E+01 0. -1.
       -4    1    3    3    0  502  0.17065500012E+02 -0.94777071686E+03  0.41755474334E+03  0.10358156881E+04  0.12699999809E+01 0.  1.
</event>
<event>
 5   0  0.2007644E-05  0.2001535E+04  0.7818609E-02  0.8605904E-01
       -1   -1    0    0    0  501  0.00000000000E+00  0.00000000000E+00  0.76852776848E+03  0.76852776850E+03  0.50400001928E-02 0. -1.
        1   -1    0    0  501    0  0.00000000000E+00  0.00000000000E+00 -0.13031866296E+04  0.13031866296E+04  0.50400001928E-02 0.  1.
    10030    2    1    2    0    0  0.00000000000E+00  0.00000000000E+00 -0.53465886107E+03  0.20717143981E+04  0.20015345237E+04 0.  0.
        1    1    3    3  502    0  0.70092577924E+03 -0.48246163622E+03 -0.81255219643E+03  0.11765658717E+04  0.50400001928E-02 0.  1.
       -1    1    3    3    0  502 -0.70092577924E+03  0.48246163622E+03  0.27789333537E+03  0.89514852639E+03  0.50400001928E-02 0. -1.
</event>
<event>
 5   0  0.2007644E-05  0.2002258E+04  0.7818609E-02  0.8605566E-01
        1   -1    0    0  501    0  0.00000000000E+00  0.00000000000E+00  0.16332487695E+04  0.16332487695E+04  0.50400001928E-02 0.  1.
       -1   -1    0    0    0  501  0.00000000000E+00  0.00000000000E+00 -0.61366013561E+03  0.61366013563E+03  0.50400001928E-02 0. -1.
    10030    2    1    2    0    0  0.00000000000E+00  0.00000000000E+00  0.10195886338E+04  0.22469089051E+04  0.20022583863E+04 0.  0.
        1    1    3    3  502    0  0.10203733177E+03  0.91403094196E+03  0.66004385599E+02  0.92207416127E+03  0.50400001928E-02 0. -1.
       -1    1    3    3    0  502 -0.10203733177E+03 -0.91403094196E+03  0.95358424825E+03  0.13248347438E+04  0.50400001928E-02 0.  1.
</event>
<event>
 5   0  0.2093980E-05  0.2011284E+04  0.7818609E-02  0.8601363E-01
        1   -1    0    0  501    0  0.00000000000E+00  0.00000000000E+00  0.22516697884E+04  0.22516697884E+04  0.50400001928E-02 0.  1.
       -1   -1    0    0    0  501  0.00000000000E+00  0.00000000000E+00 -0.44914060083E+03  0.44914060086E+03  0.50400001928E-02 0. -1.
    10030    2    1    2    0    0  0.00000000000E+00  0.00000000000E+00  0.18025291876E+04  0.27008103893E+04  0.20112844868E+04 0.  0.
        2    1    3    3  502    0 -0.73170179243E+03 -0.43735221893E+03  0.16177009121E+04  0.18285570042E+04  0.25500000920E-02 0.  1.
       -2    1    3    3    0  502  0.73170179243E+03  0.43735221893E+03  0.18482827550E+03  0.87225338514E+03  0.25500000920E-02 0. -1.
</event>
<event>
 5   0  0.4412054E-05  0.2001424E+04  0.7818609E-02  0.8605955E-01
        2   -1    0    0  501    0  0.00000000000E+00  0.00000000000E+00  0.55086423168E+03  0.55086423169E+03  0.25500000920E-02 0. -1.
       -2   -1    0    0    0  501  0.00000000000E+00  0.00000000000E+00 -0.18179154825E+04  0.18179154825E+04  0.25500000920E-02 0.  1.
    10030    2    1    2    0    0  0.00000000000E+00  0.00000000000E+00 -0.12670512508E+04  0.23687797142E+04  0.20014241085E+04 0.  0.
        4    1    3    3  502    0  0.72696103069E+03  0.34293961629E+03 -0.13390458710E+04  0.15617699504E+04  0.12699999809E+01 0.  1.
       -4    1    3    3    0  502 -0.72696103069E+03 -0.34293961629E+03  0.71994620171E+02  0.80700976376E+03  0.12699999809E+01 0. -1.
</event>
<event>
 5   0  0.2110896E-05  0.1995930E+04  0.7818609E-02  0.8608526E-01
       -1   -1    0    0    0  501  0.00000000000E+00  0.00000000000E+00  0.84098224097E+03  0.84098224098E+03  0.50400001928E-02 0.  1.
        1   -1    0    0  501    0  0.00000000000E+00  0.00000000000E+00 -0.11842505558E+04  0.11842505558E+04  0.50400001928E-02 0. -1.
    10030    2    1    2    0    0  0.00000000000E+00  0.00000000000E+00 -0.34326831486E+03  0.20252327968E+04  0.19959295442E+04 0.  0.
        4    1    3    3  502    0 -0.71012778150E+03  0.53350227367E+03  0.29004696655E+03  0.93436341847E+03  0.12699999809E+01 0.  1.
       -4    1    3    3    0  502  0.71012778150E+03 -0.53350227367E+03 -0.63331528142E+03  0.10908693784E+04  0.12699999809E+01 0. -1.
</event>
<event>
 5   0  0.2142551E-05  0.2001266E+04  0.7818609E-02  0.8606029E-01
        1   -1    0    0  501    0  0.00000000000E+00  0.00000000000E+00  0.80444330084E+03  0.80444330085E+03  0.50400001928E-02 0. -1.
       -1   -1    0    0    0  501  0.00000000000E+00  0.00000000000E+00 -0.12446704960E+04  0.12446704960E+04  0.50400001928E-02 0.  1.
    10030    2    1    2    0    0  0.00000000000E+00  0.00000000000E+00 -0.44022719520E+03  0.20491137969E+04  0.20012664413E+04 0.  0.
        3    1    3    3  502    0  0.44345291163E+03 -0.81082671596E+03  0.17269431617E+03  0.94016689220E+03  0.10100000352E+00 0. -1.
       -3    1    3    3    0  502 -0.44345291163E+03  0.81082671596E+03 -0.61292151137E+03  0.11089469047E+04  0.10100000352E+00 0.  1.
</event>
<event>
 5   0  0.4577279E-05  0.1993407E+04  0.7818609E-02  0.8609709E-01
       -2   -1    0    0    0  501  0.00000000000E+00  0.00000000000E+00  0.65676135234E+03  0.65676135234E+03  0.25500000920E-02 0. -1.
        2   -1    0    0  501    0  0.00000000000E+00  0.00000000000E+00 -0.15126013249E+04  0.15126013249E+04  0.25500000920E-02 0.  1.
    10030    2    1    2    0    0  0.00000000000E+00  0.00000000000E+00 -0.85583997257E+03  0.21693626772E+04  0.19934072255E+04 0.  0.
        1    1    3    3  502    0 -0.58154605369E+03  0.73502424094E+03 -0.79690830655E+03  0.12302517207E+04  0.50400001928E-02 0.  1.
       -1    1    3    3    0  502  0.58154605369E+03 -0.73502424094E+03 -0.58931666022E+02  0.93911095650E+03  0.50400001928E-02 0. -1.
</event>
<event>
 5   0  0.4447313E-05  0.2066766E+04  0.7818609E-02  0.8576026E-01
        2   -1    0    0  501    0  0.00000000000E+00  0.00000000000E+00  0.18031744943E+04  0.18031744943E+04  0.25500000920E-02 0.  1.
       -2   -1    0    0    0  501  0.00000000000E+00  0.00000000000E+00 -0.59222222089E+03  0.59222222089E+03  0.25500000920E-02 0. -1.
    10030    2    1    2    0    0  0.00000000000E+00  0.00000000000E+00  0.12109522734E+04  0.23953967152E+04  0.20667655926E+04 0.  0.
        5    1    3    3  502    0  0.45302343789E+03 -0.58508727073E+03 -0.23053752631E+03  0.77506579765E+03  0.46999998093E+01 0. -1.
       -5    1    3    3    0  502 -0.45302343789E+03  0.58508727073E+03  0.14414897997E+04  0.16203309175E+04  0.46999998093E+01 0.  1.
</event>
<event>
 5   0  0.2110896E-05  0.1995918E+04  0.7818609E-02  0.8608531E-01
       -1   -1    0    0    0  501  0.00000000000E+00  0.00000000000E+00  0.15416382255E+04  0.15416382255E+04  0.50400001928E-02 0.  1.
        1   -1    0    0  501    0  0.00000000000E+00  0.00000000000E+00 -0.64601571303E+03  0.64601571305E+03  0.50400001928E-02 0. -1.
    10030    2    1    2    0    0  0.00000000000E+00  0.00000000000E+00  0.89562251251E+03  0.21876539386E+04  0.19959183526E+04 0.  0.
        4    1    3    3  502    0  0.28856684193E+03 -0.24991456972E+03  0.14584467812E+04  0.15075797627E+04  0.12699999809E+01 0.  1.
       -4    1    3    3    0  502 -0.28856684193E+03  0.24991456972E+03 -0.56282426868E+03  0.68007417590E+03  0.12699999809E+01 0. -1.
</event>
<event>
 5   0  0.4412054E-05  0.2005297E+04  0.7818609E-02  0.8604148E-01
       -2   -1    0    0    0  501  0.00000000000E+00  0.00000000000E+00  0.72008434499E+03  0.72008434500E+03  0.25500000920E-02 0.  1.
        2   -1    0    0  501    0  0.00000000000E+00  0.00000000000E+00 -0.13960922034E+04  0.13960922034E+04  0.25500000920E-02 0. -1.
    10030    2    1    2    0    0  0.00000000000E+00  0.00000000000E+00 -0.67600785837E+03  0.21161765484E+04  0.20052971249E+04 0.  0.
        4    1    3    3  502    0  0.28050452683E+03 -0.37304050324E+03  0.59845246797E+03  0.75893937567E+03  0.12699999809E+01 0.  1.
       -4    1    3    3    0  502 -0.28050452683E+03  0.37304050324E+03 -0.12744603263E+04  0.13572371727E+04  0.12699999809E+01 0. -1.
</event>
<event>
 5   0  0.4473361E-05  0.1992880E+04  0.7818609E-02  0.8609957E-01
        2   -1    0    0  501    0  0.00000000000E+00  0.00000000000E+00  0.11439487639E+04  0.11439487639E+04  0.25500000920E-02 0. -1.
       -2   -1    0    0    0  501  0.00000000000E+00  0.00000000000E+00 -0.86795181213E+03  0.86795181214E+03  0.25500000920E-02 0.  1.
    10030    2    1    2    0    0  0.00000000000E+00  0.00000000000E+00  0.27599695173E+03  0.20119005760E+04  0.19928797280E+04 0.  0.
        2    1    3    3  502    0  0.72108833726E+03 -0.43753396134E+03  0.67361677124E+03  0.10794275853E+04  0.25500000920E-02 0. -1.
       -2    1    3    3    0  502 -0.72108833726E+03  0.43753396134E+03 -0.39761981951E+03  0.93247299067E+03  0.25500000920E-02 0.  1.
</event>
<event>
 5   0  0.2007644E-05  0.1997788E+04  0.7818609E-02  0.8607656E-01
        1   -1    0    0  501    0  0.00000000000E+00  0.00000000000E+00  0.63491218690E+03  0.63491218692E+03  0.50400001928E-02 0. -1.
       -1   -1    0    0    0  501  0.00000000000E+00  0.00000000000E+00 -0.15715388015E+04  0.15715388015E+04  0.50400001928E-02 0.  1.
    10030    2    1    2    0    0  0.00000000000E+00  0.00000000000E+00 -0.93662661458E+03  0.22064509884E+04  0.19977879139E+04 0.  0.
        1    1    3    3  502    0  0.98579131761E+02 -0.74279195468E+03 -0.11978600778E+04  0.14129141868E+04  0.50400001928E-02 0.  1.
       -1    1    3    3    0  502 -0.98579131761E+02  0.74279195468E+03  0.26123346326E+03  0.79353680161E+03  0.50400001928E-02 0. -1.
</event>
<event>
 5   0  0.4473361E-05  0.2003396E+04  0.7818609E-02  0.8605035E-01
        2   -1    0    0  501    0  0.00000000000E+00  0.00000000000E+00  0.17047018960E+04  0.17047018960E+04  0.25500000920E-02 0.  1.
       -2   -1    0    0    0  501  0.00000000000E+00  0.00000000000E+00 -0.58860657445E+03  0.58860657446E+03  0.25500000920E-02 0. -1.
    10030    2    1    2    0    0  0.00000000000E+00  0.00000000000E+00  0.11160953215E+04  0.22933084704E+04  0.20033958605E+04 0.  0.
        2    1    3    3  502    0 -0.59554422269E+03  0.59505229270E+03  0.11794036913E+04  0.14490525247E+04  0.25500000920E-02 0.  1.
       -2    1    3    3    0  502  0.59554422269E+03 -0.59505229270E+03 -0.63308369792E+02  0.84425594574E+03  0.25500000920E-02 0. -1.
</event>
<event>
 5   0  0.2093980E-05  0.1996849E+04  0.7818609E-02  0.8608095E-01
       -1   -1    0    0    0  501  0.00000000000E+00  0.00000000000E+00  0.12679538555E+04  0.12679538555E+04  0.50400001928E-02 0. -1.
        1   -1    0    0  501    0  0.00000000000E+00  0.00000000000E+00 -0.78618901941E+03  0.78618901943E+03  0.50400001928E-02 0.  1.
    10030    2    1    2    0    0  0.00000000000E+00  0.00000000000E+00  0.48176483612E+03  0.20541428750E+04  0.19968489160E+04 0.  0.
        2    1    3    3  502    0 -0.10511858302E+03  0.72988053338E+03  0.93330451069E+03  0.11894674519E+04  0.25500000920E-02 0. -1.
       -2    1    3    3    0  502  0.10511858302E+03 -0.72988053338E+03 -0.45153967457E+03  0.86467542305E+03  0.25500000920E-02 0.  1.
</event>
<event>
 5   0  0.2110896E-05  0.2020932E+04  0.7818609E-02  0.8596896E-01
       -1   -1    0    0    0  501  0.00000000000E+00  0.00000000000E+00  0.68584791492E+03  0.68584791494E+03  0.50400001928E-02 0. -1.
        1   -1    0    0  501    0  0.00000000000E+00  0.00000000000E+00 -0.14887288073E+04  0.14887288074E+04  0.50400001928E-02 0.  1.
    10030    2    1    2    0    0  0.00000000000E+00  0.00000000000E+00 -0.80288089243E+03  0.21745767223E+04  0.20209320112E+04 0.  0.
        4    1    3    3  502    0 -0.32024722823E+03  0.16262830549E+02 -0.14325284550E+04  0.14679789352E+04  0.12699999809E+01 0.  1.
       -4    1    3    3    0  502  0.32024722823E+03 -0.16262830549E+02  0.62964756255E+03  0.70659778713E+03  0.12699999809E+01 0. -1.
</event>
<event>
 5   0  0.4577279E-05  0.1999157E+04  0.7818609E-02  0.8607015E-01
       -2   -1    0    0    0  501  0.00000000000E+00  0.00000000000E+00  0.73090032646E+03  0.73090032647E+03  0.25500000920E-02 0. -1.
        2   -1    0    0  501    0  0.00000000000E+00  0.00000000000E+00 -0.13670223462E+04  0.13670223462E+04  0.25500000920E-02 0.  1.
    10030    2    1    2    0    0  0.00000000000E+00  0.00000000000E+00 -0.63612201975E+03  0.20979226727E+04  0.19991569014E+04 0.  0.
        1    1    3    3  502    0 -0.60239208435E+03 -0.75923847206E+03 -0.61358332149E+02  0.97112518539E+03  0.50400001928E-02 0. -1.
       -1    1    3    3    0  502  0.60239208435E+03  0.75923847206E+03 -0.57476368760E+03  0.11267974873E+04  0.50400001928E-02 0.  1.
</event>
<event>
 5   0  0.4473361E-05  0.2004473E+04  0.7818609E-02  0.8604532E-01
        2   -1    0    0  501    0  0.00000000000E+00  0.00000000000E+00  0.12438844642E+04  0.12438844642E+04  0.25500000920E-02 0.  1.
       -2   -1    0    0    0  501  0.00000000000E+00  0.00000000000E+00 -0.80753298706E+03  0.80753298706E+03  0.25500000920E-02 0. -1.
    10030    2    1    2    0    0  0.00000000000E+00  0.00000000000E+00  0.43635147716E+03  0.20514174513E+04  0.20044727356E+04 0.  0.
        2    1    3    3  502    0  0.47456267734E+03 -0.20672876771E+03  0.10964890647E+04  0.12125323861E+04  0.25500000920E-02 0.  1.
       -2    1    3    3    0  502 -0.47456267734E+03  0.20672876771E+03 -0.66013758758E+03  0.83888506523E+03  0.25500000920E-02 0. -1.
</event>
<event>
 5   0  0.2007644E-05  0.2010245E+04  0.7818609E-02  0.8601846E-01
        1   -1    0    0  501    0  0.00000000000E+00  0.00000000000E+00  0.13585341134E+04  0.13585341135E+04  0.50400001928E-02 0.  1.
       -1   -1    0    0    0  501  0.00000000000E+00  0.00000000000E+00 -0.74364794667E+03  0.74364794669E+03  0.50400001928E-02 0. -1.
    10030    2    1    2    0    0  0.00000000000E+00  0.00000000000E+00  0.61488616677E+03  0.21021820601E+04  0.20102448647E+04 0.  0.
        1    1    3    3  502    0  0.40024355504E+03 -0.55982546514E+03 -0.45863967983E+03  0.82701258195E+03  0.50400001928E-02 0. -1.
       -1    1    3    3    0  502 -0.40024355504E+03  0.55982546514E+03  0.10735258466E+04  0.12751694782E+04  0.50400001928E-02 0.  1.
</event>
<event>
 5   0  0.2093980E-05  0.2002668E+04  0.7818609E-02  0.8605375E-01
       -1   -1    0    0    0  501  0.00000000000E+00  0.00000000000E+00  0.11587747588E+04  0.11587747589E+04  0.50400001928E-02 0. -1.
        1   -1    0    0  501    0  0.00000000000E+00  0.00000000000E+00 -0.86528402635E+03  0.86528402637E+03  0.50400001928E-02 0.  1.
    10030    2    1    2    0    0  0.00000000000E+00  0.00000000000E+00  0.29349073249E+03  0.20240587852E+04  0.20026675101E+04 0.  0.
        2    1    3    3  502    0 -0.90077342620E+03  0.11039442851E+03  0.57445540649E+03  0.10740478152E+04  0.25500000920E-02 0. -1.
       -2    1    3    3    0  502  0.90077342620E+03 -0.11039442851E+03 -0.28096467399E+03  0.95001097006E+03  0.25500000920E-02 0.  1.
</event>
<event>
 5   0  0.4577279E-05  0.2000321E+04  0.7818609E-02  0.8606471E-01
       -2   -1    0    0    0  501  0.00000000000E+00  0.00000000000E+00  0.90532475250E+03  0.90532475251E+03  0.25500000920E-02 0. -1.
        2   -1    0    0  501    0  0.00000000000E+00  0.00000000000E+00 -0.11049307036E+04  0.11049307036E+04  0.25500000920E-02 0.  1.
    10030    2    1    2    0    0  0.00000000000E+00  0.00000000000E+00 -0.19960595112E+03  0.20102554561E+04  0.20003210900E+04 0.  0.
        1    1    3    3  502    0  0.77822922672E+03  0.62219120704E+03 -0.18717431810E+03  0.10138031628E+04  0.50400001928E-02 0.  1.
       -1    1    3    3    0  502 -0.77822922672E+03 -0.62219120704E+03 -0.12431633025E+02  0.99645229338E+03  0.50400001928E-02 0. -1.
</event>
<event>
 5   0  0.2093980E-05  0.2001017E+04  0.7818609E-02  0.8606146E-01
       -1   -1    0    0    0  501  0.00000000000E+00  0.00000000000E+00  0.16064643418E+04  0.16064643419E+04  0.50400001928E-02 0. -1.
        1   -1    0    0  501    0  0.00000000000E+00  0.00000000000E+00 -0.62311800821E+03  0.62311800823E+03  0.50400001928E-02 0.  1.
    10030    2    1    2    0    0  0.00000000000E+00  0.00000000000E+00  0.98334633363E+03  0.22295823501E+04  0.20010166026E+04 0.  0.
        2    1    3    3  502    0 -0.97562773065E+02 -0.80214904623E+03 -0.16567723860E+03  0.82487001064E+03  0.25500000920E-02 0.  1.
       -2    1    3    3    0  502  0.97562773065E+02  0.80214904623E+03  0.11490235722E+04  0.14047123394E+04  0.25500000920E-02 0. -1.
</event>
<event>
 5   0  0.2142551E-05  0.2003235E+04  0.7818609E-02  0.8605110E-01
       -1   -1    0    0    0  501  0.00000000000E+00  0.00000000000E+00  0.13634914374E+04  0.13634914374E+04  0.50400001928E-02 0. -1.
        1   -1    0    0  501    0  0.00000000000E+00  0.00000000000E+00 -0.73578589127E+03  0.73578589129E+03  0.50400001928E-02 0.  1.
    10030    2    1    2    0    0  0.00000000000E+00  0.00000000000E+00  0.62770554616E+03  0.20992773287E+04  0.20032351460E+04 0.  0.
        3    1    3    3  502    0  0.46045933931E+03 -0.88211126062E+03  0.19393454166E+03  0.10137818779E+04  0.10100000352E+00 0.  1.
       -3    1    3    3    0  502 -0.46045933931E+03  0.88211126062E+03  0.43377100450E+03  0.10854954508E+04  0.10100000352E+00 0. -1.
</event>
<event>
 5   0  0.4412054E-05  0.1994402E+04  0.7818609E-02  0.8609242E-01
       -2   -1    0    0    0  501  0.00000000000E+00  0.00000000000E+00  0.38002152174E+03  0.38002152175E+03  0.25500000920E-02 0.  1.
        2   -1    0    0  501    0  0.00000000000E+00  0.00000000000E+00 -0.26167209917E+04  0.26167209917E+04  0.25500000920E-02 0. -1.
    10030    2    1    2    0    0  0.00000000000E+00  0.00000000000E+00 -0.22366994700E+04  0.29967425135E+04  0.19944024601E+04 0.  0.
        4    1    3    3  502    0  0.96882639638E+03  0.14752360067E+03 -0.13954962408E+04  0.17052270143E+04  0.12699999809E+01 0.  1.
       -4    1    3    3    0  502 -0.96882639638E+03 -0.14752360067E+03 -0.84120322915E+03  0.12915154992E+04  0.12699999809E+01 0. -1.
</event>
<event>
 5   0  0.4412054E-05  0.1990579E+04  0.7818609E-02  0.8611038E-01
       -2   -1    0    0    0  501  0.00000000000E+00  0.00000000000E+00  0.50490048441E+03  0.50490048441E+03  0.25500000920E-02 0.  1.
        2   -1    0    0  501    0  0.00000000000E+00  0.00000000000E+00 -0.19619740805E+04  0.19619740805E+04  0.25500000920E-02 0. -1.
    10030    2    1    2    0    0  0.00000000000E+00  0.00000000000E+00 -0.14570735961E+04  0.24668745649E+04  0.19905794771E+04 0.  0.
        4    1    3    3  502    0 -0.66968713697E+03 -0.58361084338E+03 -0.17221765186E+03  0.90484419125E+03  0.12699999809E+01 0. -1.
       -4    1    3    3    0  502  0.66968713697E+03  0.58361084338E+03 -0.12848559442E+04  0.15620303737E+04  0.12699999809E+01 0.  1.
</event>
<event>
 5   0  0.4412054E-05  0.1999754E+04  0.7818609E-02  0.8606736E-01
        2   -1    0    0  501    0  0.00000000000E+00  0.00000000000E+00  0.64537971261E+03  0.64537971262E+03  0.25500000920E-02 0. -1.
       -2   -1    0    0    0  501  0.00000000000E+00  0.00000000000E+00 -0.15490947414E+04  0.15490947414E+04  0.25500000920E-02 0.  1.
    10030    2    1    2    0    0  0.00000000000E+00  0.00000000000E+00 -0.90371502877E+03  0.21944744540E+04  0.19997543039E+04 0.  0.
        4    1    3    3  502    0 -0.29791449306E+02  0.61192415660E+03 -0.13189994831E+04  0.14543383214E+04  0.12699999809E+01 0.  1.
       -4    1    3    3    0  502  0.29791449306E+02 -0.61192415660E+03  0.41528445430E+03  0.74013613259E+03  0.12699999809E+01 0. -1.
</event>
<event>
 5   0  0.4514680E-05  0.2000848E+04  0.7818609E-02  0.8606224E-01
       -2   -1    0    0    0  501  0.00000000000E+00  0.00000000000E+00  0.58446464525E+03  0.58446464526E+03  0.25500000920E-02 0. -1.
        2   -1    0    0  501    0  0.00000000000E+00  0.00000000000E+00 -0.17124185782E+04  0.17124185782E+04  0.25500000920E-02 0.  1.
    10030    2    1    2    0    0  0.00000000000E+00  0.00000000000E+00 -0.11279539329E+04  0.22968832234E+04  0.20008479371E+04 0.  0.
        3    1    3    3  502    0 -0.51611107000E+03  0.59351853816E+03 -0.12736816661E+04  0.14969635561E+04  0.10100000352E+00 0.  1.
       -3    1    3    3    0  502  0.51611107000E+03 -0.59351853816E+03  0.14572773316E+03  0.79991966729E+03  0.10100000352E+00 0. -1.
</event>
<event>
 5   0  0.2007644E-05  0.1999828E+04  0.7818609E-02  0.8606701E-01
        1   -1    0    0  501    0  0.00000000000E+00  0.00000000000E+00  0.20287520877E+04  0.20287520877E+04  0.50400001928E-02 0. -1.
       -1   -1    0    0    0  501  0.00000000000E+00  0.00000000000E+00 -0.49282921924E+03  0.49282921926E+03  0.50400001928E-02 0.  1.
    10030    2    1    2    0    0  0.00000000000E+00  0.00000000000E+00  0.15359228684E+04  0.25215813069E+04  0.19998283001E+04 0.  0.
        1    1    3    3  502    0  0.90562500644E+03  0.32820595804E+03  0.42973836734E+03  0.10547752688E+04  0.50400001928E-02 0.  1.
       -1    1    3    3    0  502 -0.90562500644E+03 -0.32820595804E+03  0.11061845011E+04  0.14668060382E+04  0.50400001928E-02 0. -1.
</event>
<event>
 5   0  0.4473361E-05  0.2004599E+04  0.7818609E-02  0.8604473E-01
        2   -1    0    0  501    0  0.00000000000E+00  0.00000000000E+00  0.20508272057E+04  0.20508272057E+04  0.25500000920E-02 0.  1.
       -2   -1    0    0    0  501  0.00000000000E+00  0.00000000000E+00 -0.48985324236E+03  0.48985324237E+03  0.25500000920E-02 0. -1.
    10030    2    1    2    0    0  0.00000000000E+00  0.00000000000E+00  0.15609739633E+04  0.25406804480E+04  0.20045990684E+04 0.  0.
        2    1    3    3  502    0  0.98555418827E+02  0.66121183224E+03 -0.16600946579E+03  0.68882029617E+03  0.25500000920E-02 0. -1.
       -2    1    3    3    0  502 -0.98555418827E+02 -0.66121183224E+03  0.17269834291E+04  0.18518601519E+04  0.25500000920E-02 0.  1.
</event>
<event>
 5   0  0.4577279E-05  0.2040652E+04  0.7818609E-02  0.8587847E-01
        2   -1    0    0  501    0  0.00000000000E+00  0.00000000000E+00  0.20368647392E+04  0.20368647392E+04  0.25500000920E-02 0. -1.
       -2   -1    0    0    0  501  0.00000000000E+00  0.00000000000E+00 -0.51111145964E+03  0.51111145964E+03  0.25500000920E-02 0.  1.
    10030    2    1    2    0    0  0.00000000000E+00  0.00000000000E+00  0.15257532796E+04  0.25479761989E+04  0.20406517684E+04 0.  0.
        1    1    3    3  502    0  0.74852971148E+03 -0.46465541226E+03  0.14054719437E+04  0.16587805056E+04  0.50400001928E-02 0.  1.
       -1    1    3    3    0  502 -0.74852971148E+03  0.46465541226E+03  0.12028133584E+03  0.88919569325E+03  0.50400001928E-02 0. -1.
</event>
<event>
 5   0  0.2093980E-05  0.2002846E+04  0.7818609E-02  0.8605291E-01
       -1   -1    0    0    0  501  0.00000000000E+00  0.00000000000E+00  0.11937415042E+04  0.11937415042E+04  0.50400001928E-02 0. -1.
        1   -1    0    0  501    0  0.00000000000E+00  0.00000000000E+00 -0.84008804738E+03  0.84008804740E+03  0.50400001928E-02 0.  1.
    10030    2    1    2    0    0  0.00000000000E+00  0.00000000000E+00  0.35365345678E+03  0.20338295516E+04  0.20028459445E+04 0.  0.
        2    1    3    3  502    0  0.64572771140E+02 -0.95007020598E+03  0.49153215432E+03  0.10716374843E+04  0.25500000920E-02 0. -1.
       -2    1    3    3    0  502 -0.64572771140E+02  0.95007020598E+03 -0.13787869754E+03  0.96219206726E+03  0.25500000920E-02 0.  1.
</event>
<event>
 5   0  0.2093980E-05  0.1988026E+04  0.7818609E-02  0.8612239E-01
       -1   -1    0    0    0  501  0.00000000000E+00  0.00000000000E+00  0.97727576370E+03  0.97727576371E+03  0.50400001928E-02 0. -1.
        1   -1    0    0  501    0  0.00000000000E+00  0.00000000000E+00 -0.10110373623E+04  0.10110373623E+04  0.50400001928E-02 0.  1.
    10030    2    1    2    0    0  0.00000000000E+00  0.00000000000E+00 -0.33761598566E+02  0.19883131260E+04  0.19880264690E+04 0.  0.
        2    1    3    3  502    0  0.20994914659E+03 -0.55037809882E+03 -0.81766322989E+03  0.10077538655E+04  0.25500000920E-02 0.  1.
       -2    1    3    3    0  502 -0.20994914659E+03  0.55037809882E+03  0.78390163132E+03  0.98055926053E+03  0.25500000920E-02 0. -1.
</event>
<event>
 5   0  0.4412054E-05  0.2017044E+04  0.7818609E-02  0.8598693E-01
       -2   -1    0    0    0  501  0.00000000000E+00  0.00000000000E+00  0.12121658711E+04  0.12121658711E+04  0.25500000920E-02 0. -1.
        2   -1    0    0  501    0  0.00000000000E+00  0.00000000000E+00 -0.83909051312E+03  0.83909051312E+03  0.25500000920E-02 0.  1.
    10030    2    1    2    0    0  0.00000000000E+00  0.00000000000E+00  0.37307535799E+03  0.20512563842E+04  0.20170442561E+04 0.  0.
        4    1    3    3  502    0 -0.28571488143E+03 -0.14442433921E+02  0.11700365775E+04  0.12045035421E+04  0.12699999809E+01 0. -1.
       -4    1    3    3    0  502  0.28571488143E+03  0.14442433921E+02 -0.79696121950E+03  0.84675284213E+03  0.12699999809E+01 0.  1.
</event>
<event>
 5   0  0.4412054E-05  0.2001420E+04  0.7818609E-02  0.8605957E-01
        2   -1    0    0  501    0  0.00000000000E+00  0.00000000000E+00  0.11442751530E+04  0.11442751530E+04  0.25500000920E-02 0. -1.
       -2   -1    0    0    0  501  0.00000000000E+00  0.00000000000E+00 -0.87515684479E+03  0.87515684480E+03  0.25500000920E-02 0.  1.
    10030    2    1    2    0    0  0.00000000000E+00  0.00000000000E+00  0.26911830821E+03  0.20194319978E+04  0.20014197286E+04 0.  0.
        4    1    3    3  502    0  0.62850287370E+03 -0.14252163527E+03 -0.63789611313E+03  0.90677524382E+03  0.12699999809E+01 0.  1.
       -4    1    3    3    0  502 -0.62850287370E+03  0.14252163527E+03  0.90701442134E+03  0.11126567540E+04  0.12699999809E+01 0. -1.
</event>
<event>
 5   0  0.4412054E-05  0.1997164E+04  0.7818609E-02  0.8607948E-01
       -2   -1    0    0    0  501  0.00000000000E+00  0.00000000000E+00  0.88536543445E+03  0.88536543446E+03  0.25500000920E-02 0. -1.
        2   -1    0    0  501    0  0.00000000000E+00  0.00000000000E+00 -0.11262764948E+04  0.11262764948E+04  0.25500000920E-02 0.  1.
    10030    2    1    2    0    0  0.00000000000E+00  0.00000000000E+00 -0.24091106035E+03  0.20116419293E+04  0.19971642678E+04 0.  0.
        4    1    3    3  502    0  0.25334233890E+03 -0.88475051593E+03  0.26990886070E+03  0.95907154171E+03  0.12699999809E+01 0.  1.
       -4    1    3    3    0  502 -0.25334233890E+03  0.88475051593E+03 -0.51081992105E+03  0.10525703876E+04  0.12699999809E+01 0. -1.
</event>
<event>
 5   0  0.2142551E-05  0.1977059E+04  0.7818609E-02  0.8617422E-01
       -1   -1    0    0    0  501  0.00000000000E+00  0.00000000000E+00  0.79907452305E+03  0.79907452307E+03  0.50400001928E-02 0. -1.
        1   -1    0    0  501    0  0.00000000000E+00  0.00000000000E+00 -0.12229031483E+04  0.12229031483E+04  0.50400001928E-02 0.  1.
    10030    2    1    2    0    0  0.00000000000E+00  0.00000000000E+00 -0.42382862523E+03  0.20219776714E+04  0.19770591797E+04 0.  0.
        3    1    3    3  502    0 -0.13088798788E+03  0.86623011532E+03 -0.68025352518E+03  0.11091578548E+04  0.10100000352E+00 0.  1.
       -3    1    3    3    0  502  0.13088798788E+03 -0.86623011532E+03  0.25642489995E+03  0.91281981660E+03  0.10100000352E+00 0. -1.
</event>
<event>
 5   0  0.2256868E-05  0.2005313E+04  0.7818609E-02  0.8604141E-01
       -1   -1    0    0    0  501  0.00000000000E+00  0.00000000000E+00  0.13673827833E+04  0.13673827833E+04  0.50400001928E-02 0.  1.
        1   -1    0    0  501    0  0.00000000000E+00  0.00000000000E+00 -0.73521468897E+03  0.73521468899E+03  0.50400001928E-02 0. -1.
    10030    2    1    2    0    0  0.00000000000E+00  0.00000000000E+00  0.63216809429E+03  0.21025974723E+04  0.20053128511E+04 0.  0.
        5    1    3    3  502    0  0.84945174792E+03  0.21054582811E+03 -0.19693805270E+03  0.89705323385E+03  0.46999998093E+01 0. -1.
       -5    1    3    3    0  502 -0.84945174792E+03 -0.21054582811E+03  0.82910614699E+03  0.12055442384E+04  0.46999998093E+01 0.  1.
</event>
<event>
 5   0  0.4473361E-05  0.2011398E+04  0.7818609E-02  0.8601310E-01
        2   -1    0    0  501    0  0.00000000000E+00  0.00000000000E+00  0.10931452228E+04  0.10931452228E+04  0.25500000920E-02 0.  1.
       -2   -1    0    0    0  501  0.00000000000E+00  0.00000000000E+00 -0.92524833313E+03  0.92524833314E+03  0.25500000920E-02 0. -1.
    10030    2    1    2    0    0  0.00000000000E+00  0.00000000000E+00  0.16789688962E+03  0.20183935559E+04  0.20113983148E+04 0.  0.
        2    1    3    3  502    0  0.97386040658E+03 -0.23934686789E+03  0.79236226095E+01  0.10028727728E+04  0.25500000920E-02 0.  1.
       -2    1    3    3    0  502 -0.97386040658E+03  0.23934686789E+03  0.15997326701E+03  0.10155207831E+04  0.25500000920E-02 0. -1.
</event>
<event>
 5   0  0.2093980E-05  0.2002141E+04  0.7818609E-02  0.8605620E-01
        1   -1    0    0  501    0  0.00000000000E+00  0.00000000000E+00  0.12670881726E+04  0.12670881726E+04  0.50400001928E-02 0.  1.
       -1   -1    0    0    0  501  0.00000000000E+00  0.00000000000E+00 -0.79090177981E+03  0.79090177983E+03  0.50400001928E-02 0. -1.
    10030    2    1    2    0    0  0.00000000000E+00  0.00000000000E+00  0.47618639276E+03  0.20579899524E+04  0.20021411448E+04 0.  0.
        2    1    3    3  502    0  0.96012336183E+03 -0.13526586361E+03  0.49405455537E+03  0.10882203947E+04  0.25500000920E-02 0. -1.
       -2    1    3    3    0  502 -0.96012336183E+03  0.13526586361E+03 -0.17868162613E+02  0.96976955769E+03  0.25500000920E-02 0.  1.
</event>
<event>
 5   0  0.2093980E-05  0.1999189E+04  0.7818609E-02  0.8607000E-01
        1   -1    0    0  501    0  0.00000000000E+00  0.00000000000E+00  0.27427330494E+04  0.27427330495E+04  0.50400001928E-02 0.  1.
       -1   -1    0    0    0  501  0.00000000000E+00  0.00000000000E+00 -0.36430407150E+03  0.36430407154E+03  0.50400001928E-02 0. -1.
    10030    2    1    2    0    0  0.00000000000E+00  0.00000000000E+00  0.23784289779E+04  0.31070371210E+04  0.19991886524E+04 0.  0.
        2    1    3    3  502    0  0.38185341271E+03 -0.32423324227E+03  0.25335754997E+04  0.25826234795E+04  0.25500000920E-02 0.  1.
       -2    1    3    3    0  502 -0.38185341271E+03  0.32423324227E+03 -0.15514652173E+03  0.52441364151E+03  0.25500000920E-02 0. -1.
</event>
<event>
 5   0  0.2007644E-05  0.1990582E+04  0.7818609E-02  0.8611037E-01
        1   -1    0    0  501    0  0.00000000000E+00  0.00000000000E+00  0.17858508492E+04  0.17858508492E+04  0.50400001928E-02 0.  1.
       -1   -1    0    0    0  501  0.00000000000E+00  0.00000000000E+00 -0.55469568395E+03  0.55469568397E+03  0.50400001928E-02 0. -1.
    10030    2    1    2    0    0  0.00000000000E+00  0.00000000000E+00  0.12311551653E+04  0.23405465332E+04  0.19905815816E+04 0.  0.
        1    1    3    3  502    0 -0.57267028966E+03  0.79186289529E+03  0.83744665823E+03  0.12869790251E+04  0.50400001928E-02 0.  1.
       -1    1    3    3    0  502  0.57267028966E+03 -0.79186289529E+03  0.39370850704E+03  0.10535675081E+04  0.50400001928E-02 0. -1.
</event>
<event>
 5   0  0.4473361E-05  0.1994136E+04  0.7818609E-02  0.8609367E-01
        2   -1    0    0  501    0  0.00000000000E+00  0.00000000000E+00  0.15250761912E+04  0.15250761912E+04  0.25500000920E-02 0.  1.
       -2   -1    0    0    0  501  0.00000000000E+00  0.00000000000E+00 -0.65186542839E+03  0.65186542839E+03  0.25500000920E-02 0. -1.
    10030    2    1    2    0    0  0.00000000000E+00  0.00000000000E+00  0.87321076280E+03  0.21769416196E+04  0.19941358476E+04 0.  0.
        2    1    3    3  502    0 -0.13083885536E+03 -0.35512949099E+03 -0.57040400704E+03  0.68454108182E+03  0.25500000920E-02 0. -1.
       -2    1    3    3    0  502  0.13083885536E+03  0.35512949099E+03  0.14436147698E+04  0.14924005378E+04  0.25500000920E-02 0.  1.
</event>
<event>
 5   0  0.4412054E-05  0.1996605E+04  0.7818609E-02  0.8608209E-01
        2   -1    0    0  501    0  0.00000000000E+00  0.00000000000E+00  0.97433169279E+03  0.97433169280E+03  0.25500000920E-02 0. -1.
       -2   -1    0    0    0  501  0.00000000000E+00  0.00000000000E+00 -0.10228635473E+04  0.10228635473E+04  0.25500000920E-02 0.  1.
    10030    2    1    2    0    0  0.00000000000E+00  0.00000000000E+00 -0.48531854503E+02  0.19971952401E+04  0.19966054909E+04 0.  0.
        4    1    3    3  502    0 -0.51740900284E+03  0.69131052882E+03  0.47686551916E+03  0.98642012335E+03  0.12699999809E+01 0. -1.
       -4    1    3    3    0  502  0.51740900284E+03 -0.69131052882E+03 -0.52539737367E+03  0.10107751167E+04  0.12699999809E+01 0.  1.
</event>
<event>
 5   0  0.2007644E-05  0.2002828E+04  0.7818609E-02  0.8605300E-01
       -1   -1    0    0    0  501  0.00000000000E+00  0.00000000000E+00  0.66700770112E+03  0.66700770113E+03  0.50400001928E-02 0.  1.
        1   -1    0    0  501    0  0.00000000000E+00  0.00000000000E+00 -0.15034760343E+04  0.15034760343E+04  0.50400001928E-02 0. -1.
    10030    2    1    2    0    0  0.00000000000E+00  0.00000000000E+00 -0.83646833318E+03  0.21704837354E+04  0.20028280938E+04 0.  0.
        1    1    3    3  502    0 -0.92576271608E+03  0.37161471108E+03 -0.32316379245E+03  0.10486033267E+04  0.50400001928E-02 0.  1.
       -1    1    3    3    0  502  0.92576271608E+03 -0.37161471108E+03 -0.51330454073E+03  0.11218804087E+04  0.50400001928E-02 0. -1.
</event>
<event>
 5   0  0.4577279E-05  0.1994303E+04  0.7818609E-02  0.8609289E-01
        2   -1    0    0  501    0  0.00000000000E+00  0.00000000000E+00  0.14296674327E+04  0.14296674327E+04  0.25500000920E-02 0. -1.
       -2   -1    0    0    0  501  0.00000000000E+00  0.00000000000E+00 -0.69548442874E+03  0.69548442874E+03  0.25500000920E-02 0.  1.
    10030    2    1    2    0    0  0.00000000000E+00  0.00000000000E+00  0.73418300398E+03  0.21251518615E+04  0.19943033247E+04 0.  0.
        1    1    3    3  502    0 -0.70609786846E+03 -0.44516792653E+03  0.94837506434E+03  0.12633938204E+04  0.50400001928E-02 0. -1.
       -1    1    3    3    0  502  0.70609786846E+03  0.44516792653E+03 -0.21419206036E+03  0.86175804110E+03  0.50400001928E-02 0.  1.
</event>
<event>
 5   0  0.2093980E-05  0.1999618E+04  0.7818609E-02  0.8606799E-01
       -1   -1    0    0    0  501  0.00000000000E+00  0.00000000000E+00  0.57894992192E+03  0.57894992194E+03  0.50400001928E-02 0.  1.
        1   -1    0    0  501    0  0.00000000000E+00  0.00000000000E+00 -0.17266049635E+04  0.17266049635E+04  0.50400001928E-02 0. -1.
    10030    2    1    2    0    0  0.00000000000E+00  0.00000000000E+00 -0.11476550416E+04  0.23055548855E+04  0.19996177723E+04 0.  0.
        2    1    3    3  502    0  0.58290492583E+03 -0.81195933748E+03 -0.54650145897E+03  0.11391751239E+04  0.25500000920E-02 0.  1.
       -2    1    3    3    0  502 -0.58290492583E+03  0.81195933748E+03 -0.60115358265E+03  0.11663797616E+04  0.25500000920E-02 0. -1.
</event>
<event>
 5   0  0.2007644E-05  0.2002428E+04  0.7818609E-02  0.8605486E-01
        1   -1    0    0  501    0  0.00000000000E+00  0.00000000000E+00  0.17930516646E+04  0.17930516646E+04  0.50400001928E-02 0.  1.
       -1   -1    0    0    0  501  0.00000000000E+00  0.00000000000E+00 -0.55906348347E+03  0.55906348349E+03  0.50400001928E-02 0. -1.
    10030    2    1    2    0    0  0.00000000000E+00  0.00000000000E+00  0.12339881811E+04  0.23521151481E+04  0.20024282356E+04 0.  0.
        1    1    3    3  502    0 -0.98999315372E+03 -0.13281929842E+01  0.79256711627E+03  0.12681683021E+04  0.50400001928E-02 0. -1.
       -1    1    3    3    0  502  0.98999315372E+03  0.13281929842E+01  0.44142106486E+03  0.10839468460E+04  0.50400001928E-02 0.  1.
</event>
<event>
 5   0  0.2007644E-05  0.2000773E+04  0.7818609E-02  0.8606259E-01
        1   -1    0    0  501    0  0.00000000000E+00  0.00000000000E+00  0.11701182159E+04  0.11701182159E+04  0.50400001928E-02 0. -1.
       -1   -1    0    0    0  501  0.00000000000E+00  0.00000000000E+00 -0.85527546654E+03  0.85527546656E+03  0.50400001928E-02 0.  1.
    10030    2    1    2    0    0  0.00000000000E+00  0.00000000000E+00  0.31484274934E+03  0.20253936824E+04  0.20007732535E+04 0.  0.
        1    1    3    3  502    0  0.43715267929E+03  0.88545705718E+03 -0.46636753774E+01  0.98750109621E+03  0.50400001928E-02 0.  1.
       -1    1    3    3    0  502 -0.43715267929E+03 -0.88545705718E+03  0.31950642472E+03  0.10378925862E+04  0.50400001928E-02 0. -1.
</event>
<event>
 5   0  0.2007644E-05  0.1976740E+04  0.7818609E-02  0.8617573E-01
        1   -1    0    0  501    0  0.00000000000E+00  0.00000000000E+00  0.21005192933E+04  0.21005192934E+04  0.50400001928E-02 0. -1.
       -1   -1    0    0    0  501  0.00000000000E+00  0.00000000000E+00 -0.46506355665E+03  0.46506355668E+03  0.50400001928E-02 0.  1.
    10030    2    1    2    0    0  0.00000000000E+00  0.00000000000E+00  0.16354557367E+04  0.25655828500E+04  0.19767397132E+04 0.  0.
        1    1    3    3  502    0  0.28075107824E+03 -0.94763783042E+03  0.80990302412E+03  0.12778034020E+04  0.50400001928E-02 0. -1.
       -1    1    3    3    0  502 -0.28075107824E+03  0.94763783042E+03  0.82555271257E+03  0.12877794481E+04  0.50400001928E-02 0.  1.
</event>
<event>
 5   0  0.2007644E-05  0.2030138E+04  0.7818609E-02  0.8592658E-01
       -1   -1    0    0    0  501  0.00000000000E+00  0.00000000000E+00  0.97193705401E+03  0.97193705402E+03  0.50400001928E-02 0.  1.
        1   -1    0    0  501    0  0.00000000000E+00  0.00000000000E+00 -0.10601154705E+04  0.10601154705E+04  0.50400001928E-02 0. -1.
    10030    2    1    2    0    0  0.00000000000E+00  0.00000000000E+00 -0.88178416497E+02  0.20320525245E+04  0.20301384262E+04 0.  0.
        1    1    3    3  502    0  0.80908466822E+03  0.53923761132E+03 -0.33586070799E+03  0.10286873271E+04  0.50400001928E-02 0. -1.
       -1    1    3    3    0  502 -0.80908466822E+03 -0.53923761132E+03  0.24768229149E+03  0.10033651974E+04  0.50400001928E-02 0.  1.
</event>
<event>
 5   0  0.2093980E-05  0.1921244E+04  0.7818609E-02  0.8644353E-01
        1   -1    0    0  501    0  0.00000000000E+00  0.00000000000E+00  0.77338089360E+03  0.77338089362E+03  0.50400001928E-02 0.  1.
       -1   -1    0    0    0  501  0.00000000000E+00  0.00000000000E+00 -0.11931958992E+04  0.11931958992E+04  0.50400001928E-02 0. -1.
    10030    2    1    2    0    0  0.00000000000E+00  0.00000000000E+00 -0.41981500563E+03  0.19665767929E+04  0.19212442956E+04 0.  0.
        2    1    3    3  502    0  0.59425769576E+02 -0.90623842165E+03 -0.53033604212E+03  0.10516918829E+04  0.25500000920E-02 0. -1.
       -2    1    3    3    0  502 -0.59425769576E+02  0.90623842165E+03  0.11052103649E+03  0.91488490996E+03  0.25500000920E-02 0.  1.
</event>
<event>
 5   0  0.2007644E-05  0.2002404E+04  0.7818609E-02  0.8605498E-01
        1   -1    0    0  501    0  0.00000000000E+00  0.00000000000E+00  0.13922393253E+04  0.13922393253E+04  0.50400001928E-02 0. -1.
       -1   -1    0    0    0  501  0.00000000000E+00  0.00000000000E+00 -0.71999471377E+03  0.71999471379E+03  0.50400001928E-02 0.  1.
    10030    2    1    2    0    0  0.00000000000E+00  0.00000000000E+00  0.67224461153E+03  0.21122340391E+04  0.20024035103E+04 0.  0.
        1    1    3    3  502    0  0.40428980353E+03  0.86690730021E+03  0.24224843191E+02  0.95685179388E+03  0.50400001928E-02 0.  1.
       -1    1    3    3    0  502 -0.40428980353E+03 -0.86690730021E+03  0.64801976834E+03  0.11553822452E+04  0.50400001928E-02 0. -1.
</event>
<event>
 5   0  0.4473361E-05  0.1998160E+04  0.7818609E-02  0.8607481E-01
       -2   -1    0    0    0  501  0.00000000000E+00  0.00000000000E+00  0.11730782608E+04  0.11730782608E+04  0.25500000920E-02 0. -1.
        2   -1    0    0  501    0  0.00000000000E+00  0.00000000000E+00 -0.85089022123E+03  0.85089022123E+03  0.25500000920E-02 0.  1.
    10030    2    1    2    0    0  0.00000000000E+00  0.00000000000E+00  0.32218803958E+03  0.20239684821E+04  0.19981599744E+04 0.  0.
        2    1    3    3  502    0  0.77491166869E+03 -0.30025255886E+03 -0.40061444560E+03  0.92256795273E+03  0.25500000920E-02 0.  1.
       -2    1    3    3    0  502 -0.77491166869E+03  0.30025255886E+03  0.72280248518E+03  0.11014005293E+04  0.25500000920E-02 0. -1.
</event>
<event>
 5   0  0.2093980E-05  0.1983649E+04  0.7818609E-02  0.8614304E-01
       -1   -1    0    0    0  501  0.00000000000E+00  0.00000000000E+00  0.79037112511E+03  0.79037112512E+03  0.50400001928E-02 0. -1.
        1   -1    0    0  501    0  0.00000000000E+00  0.00000000000E+00 -0.12446247314E+04  0.12446247314E+04  0.50400001928E-02 0.  1.
    10030    2    1    2    0    0  0.00000000000E+00  0.00000000000E+00 -0.45425360632E+03  0.20349958566E+04  0.19836486073E+04 0.  0.
        2    1    3    3  502    0 -0.17138864836E+03 -0.23319678236E+03 -0.12003457288E+04  0.12347407326E+04  0.25500000920E-02 0.  1.
       -2    1    3    3    0  502  0.17138864836E+03  0.23319678236E+03  0.74609212251E+03  0.80025512393E+03  0.25500000920E-02 0. -1.
</event>
<event>
 5   0  0.2256868E-05  0.2003531E+04  0.7818609E-02  0.8604972E-01
        1   -1    0    0  501    0  0.00000000000E+00  0.00000000000E+00  0.23022307052E+04  0.23022307052E+04  0.50400001928E-02 0.  1.
       -1   -1    0    0    0  501  0.00000000000E+00  0.00000000000E+00 -0.43589623215E+03  0.43589623217E+03  0.50400001928E-02 0. -1.
    10030    2    1    2    0    0  0.00000000000E+00  0.00000000000E+00  0.18663344731E+04  0.27381269374E+04  0.20035305737E+04 0.  0.
        5    1    3    3  502    0 -0.76242685415E+03  0.72065643828E+02  0.50620254196E+02  0.76751069379E+03  0.46999998093E+01 0. -1.
       -5    1    3    3    0  502  0.76242685415E+03 -0.72065643828E+02  0.18157142189E+04  0.19706162436E+04  0.46999998093E+01 0.  1.
</event>
<event>
 5   0  0.4577279E-05  0.2003727E+04  0.7818609E-02  0.8604880E-01
        2   -1    0    0  501    0  0.00000000000E+00  0.00000000000E+00  0.63570440939E+03  0.63570440940E+03  0.25500000920E-02 0.  1.
       -2   -1    0    0    0  501  0.00000000000E+00  0.00000000000E+00 -0.15789262308E+04  0.15789262308E+04  0.25500000920E-02 0. -1.
    10030    2    1    2    0    0  0.00000000000E+00  0.00000000000E+00 -0.94322182144E+03  0.22146306402E+04  0.20037268946E+04 0.  0.
        1    1    3    3  502    0 -0.69864083863E+03  0.53526100498E+03 -0.10006660205E+04  0.13326424312E+04  0.50400001928E-02 0. -1.
       -1    1    3    3    0  502  0.69864083863E+03 -0.53526100498E+03  0.57444199046E+02  0.88198820904E+03  0.50400001928E-02 0.  1.
</event>
<event>
 5   0  0.4577279E-05  0.1998810E+04  0.7818609E-02  0.8607177E-01
        2   -1    0    0  501    0  0.00000000000E+00  0.00000000000E+00  0.12821771163E+04  0.12821771163E+04  0.25500000920E-02 0.  1.
       -2   -1    0    0    0  501  0.00000000000E+00  0.00000000000E+00 -0.77899548731E+03  0.77899548731E+03  0.25500000920E-02 0. -1.
    10030    2    1    2    0    0  0.00000000000E+00  0.00000000000E+00  0.50318162894E+03  0.20611726036E+04  0.19988098334E+04 0.  0.
        1    1    3    3  502    0  0.50673986699E+03 -0.84475949282E+03  0.42539097473E+03  0.10730150861E+04  0.50400001928E-02 0.  1.
       -1    1    3    3    0  502 -0.50673986699E+03  0.84475949282E+03  0.77790654215E+02  0.98815751751E+03  0.50400001928E-02 0. -1.
</event>
<event>
 5   0  0.4473361E-05  0.2005793E+04  0.7818609E-02  0.8603917E-01
        2   -1    0    0  501    0  0.00000000000E+00  0.00000000000E+00  0.80732684805E+03  0.80732684806E+03  0.25500000920E-02 0. -1.
       -2   -1    0    0    0  501  0.00000000000E+00  0.00000000000E+00 -0.12458416974E+04  0.12458416974E+04  0.25500000920E-02 0.  1.
    10030    2    1    2    0    0  0.00000000000E+00  0.00000000000E+00 -0.43851484939E+03  0.20531685455E+04  0.20057930609E+04 0.  0.
        2    1    3    3  502    0  0.96304113217E+03  0.25663552643E+03 -0.33366232992E+03  0.10510188229E+04  0.25500000920E-02 0.  1.
       -2    1    3    3    0  502 -0.96304113217E+03 -0.25663552643E+03 -0.10485251947E+03  0.10021497226E+04  0.25500000920E-02 0. -1.
</event>
<event>
 5   0  0.4447313E-05  0.2002715E+04  0.7818609E-02  0.8605352E-01
       -2   -1    0    0    0  501  0.00000000000E+00  0.00000000000E+00  0.68460839460E+03  0.68460839460E+03  0.25500000920E-02 0. -1.
        2   -1    0    0  501    0  0.00000000000E+00  0.00000000000E+00 -0.14646578670E+04  0.14646578670E+04  0.25500000920E-02 0.  1.
    10030    2    1    2    0    0  0.00000000000E+00  0.00000000000E+00 -0.78004947238E+03  0.21492662616E+04  0.20027152278E+04 0.  0.
        5    1    3    3  502    0  0.27854175945E+03  0.96168268598E+03 -0.40784982348E+03  0.10811025246E+04  0.46999998093E+01 0. -1.
       -5    1    3    3    0  502 -0.27854175945E+03 -0.96168268598E+03 -0.37219964889E+03  0.10681637369E+04  0.46999998093E+01 0.  1.
</event>
<event>
 5   0  0.2110896E-05  0.1999490E+04  0.7818609E-02  0.8606859E-01
       -1   -1    0    0    0  501  0.00000000000E+00  0.00000000000E+00  0.80998221019E+03  0.80998221020E+03  0.50400001928E-02 0. -1.
        1   -1    0    0  501    0  0.00000000000E+00  0.00000000000E+00 -0.12339659577E+04  0.12339659577E+04  0.50400001928E-02 0.  1.
    10030    2    1    2    0    0  0.00000000000E+00  0.00000000000E+00 -0.42398374747E+03  0.20439481679E+04  0.19994904088E+04 0.  0.
        4    1    3    3  502    0  0.36127061283E+03  0.41405663609E+03 -0.10657440922E+04  0.11990710723E+04  0.12699999809E+01 0.  1.
       -4    1    3    3    0  502 -0.36127061283E+03 -0.41405663609E+03  0.64176034472E+03  0.84487709553E+03  0.12699999809E+01 0. -1.
</event>
<event>
 5   0  0.4577279E-05  0.1996966E+04  0.7818609E-02  0.8608040E-01
       -2   -1    0    0    0  501  0.00000000000E+00  0.00000000000E+00  0.62284394926E+03  0.62284394926E+03  0.25500000920E-02 0.  1.
        2   -1    0    0  501    0  0.00000000000E+00  0.00000000000E+00 -0.16006717280E+04  0.16006717280E+04  0.25500000920E-02 0. -1.
    10030    2    1    2    0    0  0.00000000000E+00  0.00000000000E+00 -0.97782777870E+03  0.22235156772E+04  0.19969663998E+04 0.  0.
        1    1    3    3  502    0 -0.77851093130E+03  0.46184446134E+03 -0.95813508357E+03  0.13181056160E+04  0.50400001928E-02 0. -1.
       -1    1    3    3    0  502  0.77851093130E+03 -0.46184446134E+03 -0.19692695130E+02  0.90541006119E+03  0.50400001928E-02 0.  1.
</event>
<event>
 5   0  0.2007644E-05  0.2003922E+04  0.7818609E-02  0.8604789E-01
       -1   -1    0    0    0  501  0.00000000000E+00  0.00000000000E+00  0.49196337999E+03  0.49196338002E+03  0.50400001928E-02 0. -1.
        1   -1    0    0  501    0  0.00000000000E+00  0.00000000000E+00 -0.20406514174E+04  0.20406514174E+04  0.50400001928E-02 0.  1.
    10030    2    1    2    0    0  0.00000000000E+00  0.00000000000E+00 -0.15486880374E+04  0.25326147974E+04  0.20039219233E+04 0.  0.
        1    1    3    3  502    0 -0.26356757592E+03 -0.48233053574E+03 -0.18331093565E+04  0.19137399315E+04  0.50400001928E-02 0.  1.
       -1    1    3    3    0  502  0.26356757592E+03  0.48233053574E+03  0.28442131910E+03  0.61887486584E+03  0.50400001928E-02 0. -1.
</event>
<event>
 5   0  0.2093980E-05  0.1995341E+04  0.7818609E-02  0.8608802E-01
        1   -1    0    0  501    0  0.00000000000E+00  0.00000000000E+00  0.12947734019E+04  0.12947734019E+04  0.50400001928E-02 0.  1.
       -1   -1    0    0    0  501  0.00000000000E+00  0.00000000000E+00 -0.76874174811E+03  0.76874174813E+03  0.50400001928E-02 0. -1.
    10030    2    1    2    0    0  0.00000000000E+00  0.00000000000E+00  0.52603165374E+03  0.20635151500E+04  0.19953409417E+04 0.  0.
        2    1    3    3  502    0 -0.25404201645E+03  0.32988000244E+03 -0.67459657070E+03  0.79274125371E+03  0.25500000920E-02 0. -1.
       -2    1    3    3    0  502  0.25404201645E+03 -0.32988000244E+03  0.12006282244E+04  0.12707738963E+04  0.25500000920E-02 0.  1.
</event>
<event>
 5   0  0.2007644E-05  0.1995877E+04  0.7818609E-02  0.8608551E-01
        1   -1    0    0  501    0  0.00000000000E+00  0.00000000000E+00  0.14289658328E+04  0.14289658328E+04  0.50400001928E-02 0.  1.
       -1   -1    0    0    0  501  0.00000000000E+00  0.00000000000E+00 -0.69692447272E+03  0.69692447274E+03  0.50400001928E-02 0. -1.
    10030    2    1    2    0    0  0.00000000000E+00  0.00000000000E+00  0.73204136010E+03  0.21258903056E+04  0.19958770098E+04 0.  0.
        1    1    3    3  502    0 -0.25614483185E+03  0.93960680519E+03  0.59794307008E+03  0.11428066496E+04  0.50400001928E-02 0.  1.
       -1    1    3    3    0  502  0.25614483185E+03 -0.93960680519E+03  0.13409829002E+03  0.98308365598E+03  0.50400001928E-02 0. -1.
</event>
<event>
 5   0  0.2256868E-05  0.2020347E+04  0.7818609E-02  0.8597167E-01
       -1   -1    0    0    0  501  0.00000000000E+00  0.00000000000E+00  0.14604803884E+04  0.14604803884E+04  0.50400001928E-02 0. -1.
        1   -1    0    0  501    0  0.00000000000E+00  0.00000000000E+00 -0.69870847769E+03  0.69870847771E+03  0.50400001928E-02 0.  1.
    10030    2    1    2    0    0  0.00000000000E+00  0.00000000000E+00  0.76177191075E+03  0.21591888662E+04  0.20203465336E+04 0.  0.
        5    1    3    3  502    0 -0.17513304166E+03 -0.35281722563E+03 -0.61324176776E+03  0.72886153192E+03  0.46999998093E+01 0.  1.
       -5    1    3    3    0  502  0.17513304166E+03  0.35281722563E+03  0.13750136785E+04  0.14303273342E+04  0.46999998093E+01 0. -1.
</event>
<event>
 5   0  0.2093980E-05  0.1964479E+04  0.7818609E-02  0.8623410E-01
       -1   -1    0    0    0  501  0.00000000000E+00  0.00000000000E+00  0.62104907600E+03  0.62104907602E+03  0.50400001928E-02 0. -1.
        1   -1    0    0  501    0  0.00000000000E+00  0.00000000000E+00 -0.15534919573E+04  0.15534919573E+04  0.50400001928E-02 0.  1.
    10030    2    1    2    0    0  0.00000000000E+00  0.00000000000E+00 -0.93244288126E+03  0.21745410333E+04  0.19644793149E+04 0.  0.
        2    1    3    3  502    0  0.96191797881E+03 -0.82614736777E+02 -0.26610469006E+03  0.10014604829E+04  0.25500000920E-02 0.  1.
       -2    1    3    3    0  502 -0.96191797881E+03  0.82614736777E+02 -0.66633819120E+03  0.11730805504E+04  0.25500000920E-02 0. -1.
</event>
<event>
 5   0  0.4577279E-05  0.1975930E+04  0.7818609E-02  0.8617957E-01
       -2   -1    0    0    0  501  0.00000000000E+00  0.00000000000E+00  0.41491646801E+03  0.41491646802E+03  0.25500000920E-02 0.  1.
        2   -1    0    0  501    0  0.00000000000E+00  0.00000000000E+00 -0.23524615023E+04  0.23524615023E+04  0.25500000920E-02 0. -1.
    10030    2    1    2    0    0  0.00000000000E+00  0.00000000000E+00 -0.19375450343E+04  0.27673779703E+04  0.19759301786E+04 0.  0.
        1    1    3    3  502    0  0.58587064590E+03 -0.76726964824E+03 -0.12629798346E+04  0.15896745545E+04  0.50400001928E-02 0. -1.
       -1    1    3    3    0  502 -0.58587064590E+03  0.76726964824E+03 -0.67456519975E+03  0.11777034158E+04  0.50400001928E-02 0.  1.
</event>
<event>
 5   0  0.4514680E-05  0.2038717E+04  0.7818609E-02  0.8588730E-01
        2   -1    0    0  501    0  0.00000000000E+00  0.00000000000E+00  0.11537443387E+04  0.11537443387E+04  0.25500000920E-02 0. -1.
       -2   -1    0    0    0  501  0.00000000000E+00  0.00000000000E+00 -0.90062551480E+03  0.90062551481E+03  0.25500000920E-02 0.  1.
    10030    2    1    2    0    0  0.00000000000E+00  0.00000000000E+00  0.25311882393E+03  0.20543698535E+04  0.20387168406E+04 0.  0.
        3    1    3    3  502    0  0.35496267460E+03  0.45953031995E+03  0.97080163195E+03  0.11312039755E+04  0.10100000352E+00 0. -1.
       -3    1    3    3    0  502 -0.35496267460E+03 -0.45953031995E+03 -0.71768280802E+03  0.92316587808E+03  0.10100000352E+00 0.  1.
</event>
<event>
 5   0  0.2007644E-05  0.2001570E+04  0.7818609E-02  0.8605887E-01
        1   -1    0    0  501    0  0.00000000000E+00  0.00000000000E+00  0.11986853033E+04  0.11986853033E+04  0.50400001928E-02 0.  1.
       -1   -1    0    0    0  501  0.00000000000E+00  0.00000000000E+00 -0.83555723344E+03  0.83555723345E+03  0.50400001928E-02 0. -1.
    10030    2    1    2    0    0  0.00000000000E+00  0.00000000000E+00  0.36312806984E+03  0.20342425367E+04  0.20015695599E+04 0.  0.
        1    1    3    3  502    0  0.87064405506E+03  0.41065314867E+03 -0.96606367345E+02  0.96746569415E+03  0.50400001928E-02 0.  1.
       -1    1    3    3    0  502 -0.87064405506E+03 -0.41065314867E+03  0.45973443719E+03  0.10667768426E+04  0.50400001928E-02 0. -1.
</event>
<event>
 5   0  0.2093980E-05  0.1997724E+04  0.7818609E-02  0.8607685E-01
        1   -1    0    0  501    0  0.00000000000E+00  0.00000000000E+00  0.15655278835E+04  0.15655278835E+04  0.50400001928E-02 0. -1.
       -1   -1    0    0    0  501  0.00000000000E+00  0.00000000000E+00 -0.63730936785E+03  0.63730936787E+03  0.50400001928E-02 0.  1.
    10030    2    1    2    0    0  0.00000000000E+00  0.00000000000E+00  0.92821851568E+03  0.22028372514E+04  0.19977242911E+04 0.  0.
        2    1    3    3  502    0 -0.55603668919E+02  0.33339809505E+03 -0.57233298851E+03  0.66468872980E+03  0.25500000920E-02 0.  1.
       -2    1    3    3    0  502  0.55603668919E+02 -0.33339809505E+03  0.15005515042E+04  0.15381485216E+04  0.25500000920E-02 0. -1.
</event>
<event>
 5   0  0.2007644E-05  0.1997123E+04  0.7818609E-02  0.8607967E-01
        1   -1    0    0  501    0  0.00000000000E+00  0.00000000000E+00  0.19778947240E+04  0.19778947240E+04  0.50400001928E-02 0. -1.
       -1   -1    0    0    0  501  0.00000000000E+00  0.00000000000E+00 -0.50413439905E+03  0.50413439908E+03  0.50400001928E-02 0.  1.
    10030    2    1    2    0    0  0.00000000000E+00  0.00000000000E+00  0.14737603249E+04  0.24820291231E+04  0.19971226984E+04 0.  0.
        1    1    3    3  502    0  0.23414617351E+03  0.72301800060E+03 -0.68111828944E+02  0.76303255568E+03  0.50400001928E-02 0.  1.
       -1    1    3    3    0  502 -0.23414617351E+03 -0.72301800060E+03  0.15418721539E+04  0.17189965674E+04  0.50400001928E-02 0. -1.
</event>
<event>
 5   0  0.2093980E-05  0.2001587E+04  0.7818609E-02  0.8605879E-01
        1   -1    0    0  501    0  0.00000000000E+00  0.00000000000E+00  0.72145040686E+03  0.72145040688E+03  0.50400001928E-02 0.  1.
       -1   -1    0    0    0  501  0.00000000000E+00  0.00000000000E+00 -0.13882965964E+04  0.13882965964E+04  0.50400001928E-02 0. -1.
    10030    2    1    2    0    0  0.00000000000E+00  0.00000000000E+00 -0.66684618955E+03  0.21097470033E+04  0.20015865151E+04 0.  0.
        2    1    3    3  502    0 -0.67757463152E+03 -0.26545076625E+03  0.39073637293E+03  0.82598208438E+03  0.25500000920E-02 0.  1.
       -2    1    3    3    0  502  0.67757463152E+03  0.26545076625E+03 -0.10575825625E+04  0.12837649189E+04  0.25500000920E-02 0. -1.
</event>
<event>
 5   0  0.2142551E-05  0.1991882E+04  0.7818609E-02  0.8610426E-01
        1   -1    0    0  501    0  0.00000000000E+00  0.00000000000E+00  0.19421156979E+04  0.19421156979E+04  0.50400001928E-02 0.  1.
       -1   -1    0    0    0  501  0.00000000000E+00  0.00000000000E+00 -0.51073078229E+03  0.51073078231E+03  0.50400001928E-02 0. -1.
    10030    2    1    2    0    0  0.00000000000E+00  0.00000000000E+00  0.14313849157E+04  0.24528464803E+04  0.19918817934E+04 0.  0.
        3    1    3    3  502    0  0.76666995478E+03 -0.30331885413E+02  0.14976165573E+04  0.16827234489E+04  0.10100000352E+00 0.  1.
       -3    1    3    3    0  502 -0.76666995478E+03  0.30331885413E+02 -0.66231641596E+02  0.77012303133E+03  0.10100000352E+00 0. -1.
</event>
<event>
 5   0  0.4577279E-05  0.1988495E+04  0.7818609E-02  0.8612019E-01
       -2   -1    0    0    0  501  0.00000000000E+00  0.00000000000E+00  0.13122900045E+04  0.13122900045E+04  0.25500000920E-02 0. -1.
        2   -1    0    0  501    0  0.00000000000E+00  0.00000000000E+00 -0.75328461190E+03  0.75328461190E+03  0.25500000920E-02 0.  1.
    10030    2    1    2    0    0  0.00000000000E+00  0.00000000000E+00  0.55900539256E+03  0.20655746164E+04  0.19884947742E+04 0.  0.
        1    1    3    3  502    0  0.85134639691E+03  0.12581905910E+02  0.81280288063E+03  0.11771140619E+04  0.50400001928E-02 0.  1.
       -1    1    3    3    0  502 -0.85134639691E+03 -0.12581905910E+02 -0.25379748808E+03  0.88846055448E+03  0.50400001928E-02 0. -1.
</event>
<event>
 5   0  0.2256868E-05  0.2004545E+04  0.7818609E-02  0.8604499E-01
        1   -1    0    0  501    0  0.00000000000E+00  0.00000000000E+00  0.14350842971E+04  0.14350842971E+04  0.50400001928E-02 0. -1.
       -1   -1    0    0    0  501  0.00000000000E+00  0.00000000000E+00 -0.69999391218E+03  0.69999391219E+03  0.50400001928E-02 0.  1.
    10030    2    1    2    0    0  0.00000000000E+00  0.00000000000E+00  0.73509038492E+03  0.21350782093E+04  0.20045451070E+04 0.  0.
        5    1    3    3  502    0  0.99400613049E+03  0.12181164769E+03  0.32438598226E+03  0.10526797331E+04  0.46999998093E+01 0.  1.
       -5    1    3    3    0  502 -0.99400613049E+03 -0.12181164769E+03  0.41070440266E+03  0.10823984762E+04  0.46999998093E+01 0. -1.
</event>
<event>
 5   0  0.4473361E-05  0.1998342E+04  0.7818609E-02  0.8607396E-01
       -2   -1    0    0    0  501  0.00000000000E+00  0.00000000000E+00  0.19742106511E+04  0.19742106511E+04  0.25500000920E-02 0.  1.
        2   -1    0    0  501    0  0.00000000000E+00  0.00000000000E+00 -0.50569224193E+03  0.50569224194E+03  0.25500000920E-02 0. -1.
    10030    2    1    2    0    0  0.00000000000E+00  0.00000000000E+00  0.14685184091E+04  0.24799028930E+04  0.19983423232E+04 0.  0.
        2    1    3    3  502    0  0.13303009076E+03  0.36073076274E+03 -0.41021729901E+03  0.56222941994E+03  0.25500000920E-02 0. -1.
       -2    1    3    3    0  502 -0.13303009076E+03 -0.36073076274E+03  0.18787357081E+04  0.19176734731E+04  0.25500000920E-02 0.  1.
</event>
<event>
 5   0  0.2093980E-05  0.2012087E+04  0.7818609E-02  0.8600990E-01
        1   -1    0    0  501    0  0.00000000000E+00  0.00000000000E+00  0.85075163831E+03  0.85075163832E+03  0.50400001928E-02 0. -1.
       -1   -1    0    0    0  501  0.00000000000E+00  0.00000000000E+00 -0.11896816998E+04  0.11896816998E+04  0.50400001928E-02 0.  1.
    10030    2    1    2    0    0  0.00000000000E+00  0.00000000000E+00 -0.33893006151E+03  0.20404333381E+04  0.20120871305E+04 0.  0.
        2    1    3    3  502    0 -0.29113707324E+03 -0.73460175196E+03 -0.80091141408E+03  0.11251042719E+04  0.25500000920E-02 0.  1.
       -2    1    3    3    0  502  0.29113707324E+03  0.73460175196E+03  0.46198135258E+03  0.91532906626E+03  0.25500000920E-02 0. -1.
</event>
<event>
 5   0  0.4514680E-05  0.2002644E+04  0.7818609E-02  0.8605385E-01
        2   -1    0    0  501    0  0.00000000000E+00  0.00000000000E+00  0.14746433225E+04  0.14746433225E+04  0.25500000920E-02 0. -1.
       -2   -1    0    0    0  501  0.00000000000E+00  0.00000000000E+00 -0.67992439729E+03  0.67992439729E+03  0.25500000920E-02 0.  1.
    10030    2    1    2    0    0  0.00000000000E+00  0.00000000000E+00  0.79471892522E+03  0.21545677198E+04  0.20026442243E+04 0.  0.
        3    1    3    3  502    0 -0.10976275214E+03  0.82009390207E+03  0.10040958100E+04  0.13010804264E+04  0.10100000352E+00 0. -1.
       -3    1    3    3    0  502  0.10976275214E+03 -0.82009390207E+03 -0.20937688480E+03  0.85348729344E+03  0.10100000352E+00 0.  1.
</event>
<event>
 5   0  0.2007644E-05  0.2000474E+04  0.7818609E-02  0.8606399E-01
       -1   -1    0    0    0  501  0.00000000000E+00  0.00000000000E+00  0.95057162003E+03  0.95057162005E+03  0.50400001928E-02 0. -1.
        1   -1    0    0  501    0  0.00000000000E+00  0.00000000000E+00 -0.10524971399E+04  0.10524971399E+04  0.50400001928E-02 0.  1.
    10030    2    1    2    0    0  0.00000000000E+00  0.00000000000E+00 -0.10192551987E+03  0.20030687600E+04  0.20004738552E+04 0.  0.
        1    1    3    3  502    0 -0.45090893504E+03  0.49389893755E+03  0.69378889279E+03  0.96363792785E+03  0.50400001928E-02 0. -1.
       -1    1    3    3    0  502  0.45090893504E+03 -0.49389893755E+03 -0.79571441266E+03  0.10394308321E+04  0.50400001928E-02 0.  1.
</event>
<event>
 5   0  0.4514680E-05  0.1956006E+04  0.7818609E-02  0.8627470E-01
       -2   -1    0    0    0  501  0.00000000000E+00  0.00000000000E+00  0.55338610968E+03  0.55338610968E+03  0.25500000920E-02 0.  1.
        2   -1    0    0  501    0  0.00000000000E+00  0.00000000000E+00 -0.17284317627E+04  0.17284317627E+04  0.25500000920E-02 0. -1.
    10030    2    1    2    0    0  0.00000000000E+00  0.00000000000E+00 -0.11750456530E+04  0.22818178724E+04  0.19560062669E+04 0.  0.
        3    1    3    3  502    0  0.23141533930E+03  0.46031519212E+03  0.38223774654E+03  0.64152072488E+03  0.10100000352E+00 0.  1.
       -3    1    3    3    0  502 -0.23141533930E+03 -0.46031519212E+03 -0.15572833995E+04  0.16402971475E+04  0.10100000352E+00 0. -1.
</event>
<event>
 5   0  0.2142551E-05  0.1993020E+04  0.7818609E-02  0.8609891E-01
        1   -1    0    0  501    0  0.00000000000E+00  0.00000000000E+00  0.10285690278E+04  0.10285690278E+04  0.50400001928E-02 0.  1.
       -1   -1    0    0    0  501  0.00000000000E+00  0.00000000000E+00 -0.96545039352E+03  0.96545039354E+03  0.50400001928E-02 0. -1.
    10030    2    1    2    0    0  0.00000000000E+00  0.00000000000E+00  0.63118634306E+02  0.19940194214E+04  0.19930201933E+04 0.  0.
        3    1    3    3  502    0 -0.13377778269E+03 -0.28965381715E+03  0.97608587845E+03  0.10269077277E+04  0.10100000352E+00 0.  1.
       -3    1    3    3    0  502  0.13377778269E+03  0.28965381715E+03 -0.91296724414E+03  0.96711169366E+03  0.10100000352E+00 0. -1.
</event>
<event>
 5   0  0.2256868E-05  0.1883924E+04  0.7818609E-02  0.8662900E-01
        1   -1    0    0  501    0  0.00000000000E+00  0.00000000000E+00  0.23659679265E+04  0.23659679265E+04  0.50400001928E-02 0. -1.
       -1   -1    0    0    0  501  0.00000000000E+00  0.00000000000E+00 -0.37502302012E+03  0.37502302016E+03  0.50400001928E-02 0.  1.
    10030    2    1    2    0    0  0.00000000000E+00  0.00000000000E+00  0.19909449063E+04  0.27409909466E+04  0.18839240296E+04 0.  0.
        5    1    3    3  502    0  0.16466309702E+03  0.89175257963E+03  0.13662209961E+04  0.16397922122E+04  0.46999998093E+01 0. -1.
       -5    1    3    3    0  502 -0.16466309702E+03 -0.89175257963E+03  0.62472391020E+03  0.11011987345E+04  0.46999998093E+01 0.  1.
</event>
<event>
 5   0  0.2142551E-05  0.2018428E+04  0.7818609E-02  0.8598053E-01
       -1   -1    0    0    0  501  0.00000000000E+00  0.00000000000E+00  0.90875559786E+03  0.90875559787E+03  0.50400001928E-02 0. -1.
        1   -1    0    0  501    0  0.00000000000E+00  0.00000000000E+00 -0.11207772958E+04  0.11207772959E+04  0.50400001928E-02 0.  1.
    10030    2    1    2    0    0  0.00000000000E+00  0.00000000000E+00 -0.21202169799E+03  0.20295328937E+04  0.20184277461E+04 0.  0.
        3    1    3    3  502    0 -0.46236352920E+03 -0.21716975870E+03 -0.98118451397E+03  0.11061942858E+04  0.10100000352E+00 0.  1.
       -3    1    3    3    0  502  0.46236352920E+03  0.21716975870E+03  0.76916281599E+03  0.92333860795E+03  0.10100000352E+00 0. -1.
</event>
<event>
 5   0  0.4447313E-05  0.1996710E+04  0.7818609E-02  0.8608160E-01
        2   -1    0    0  501    0  0.00000000000E+00  0.00000000000E+00  0.87335868472E+03  0.87335868473E+03  0.25500000920E-02 0.  1.
       -2   -1    0    0    0  501  0.00000000000E+00  0.00000000000E+00 -0.11412412722E+04  0.11412412722E+04  0.25500000920E-02 0. -1.
    10030    2    1    2    0    0  0.00000000000E+00  0.00000000000E+00 -0.26788258745E+03  0.20145999569E+04  0.19967102708E+04 0.  0.
        5    1    3    3  502    0 -0.74114944650E+03 -0.62108154104E+03  0.11656958185E+03  0.97398939423E+03  0.46999998093E+01 0. -1.
       -5    1    3    3    0  502  0.74114944650E+03  0.62108154104E+03 -0.38445216930E+03  0.10406105627E+04  0.46999998093E+01 0.  1.
</event>
<event>
 5   0  0.4577279E-05  0.2003130E+04  0.7818609E-02  0.8605158E-01
       -2   -1    0    0    0  501  0.00000000000E+00  0.00000000000E+00  0.69561788520E+03  0.69561788521E+03  0.25500000920E-02 0. -1.
        2   -1    0    0  501    0  0.00000000000E+00  0.00000000000E+00 -0.14420746338E+04  0.14420746338E+04  0.25500000920E-02 0.  1.
    10030    2    1    2    0    0  0.00000000000E+00  0.00000000000E+00 -0.74645674858E+03  0.21376925190E+04  0.20031304571E+04 0.  0.
        1    1    3    3  502    0 -0.12915671997E+03  0.81955840342E+03 -0.97196585415E+03  0.12779182511E+04  0.50400001928E-02 0.  1.
       -1    1    3    3    0  502  0.12915671997E+03 -0.81955840342E+03  0.22550910558E+03  0.85977426785E+03  0.50400001928E-02 0. -1.
</event>
<event>
 5   0  0.4577279E-05  0.2018192E+04  0.7818609E-02  0.8598162E-01
       -2   -1    0    0    0  501  0.00000000000E+00  0.00000000000E+00  0.37591871758E+03  0.37591871759E+03  0.25500000920E-02 0.  1.
        2   -1    0    0  501    0  0.00000000000E+00  0.00000000000E+00 -0.27087633582E+04  0.27087633582E+04  0.25500000920E-02 0. -1.
    10030    2    1    2    0    0  0.00000000000E+00  0.00000000000E+00 -0.23328446407E+04  0.30846820758E+04  0.20181921097E+04 0.  0.
        1    1    3    3  502    0  0.86657801896E+03 -0.31001808346E+03 -0.17988452614E+04  0.20206219215E+04  0.50400001928E-02 0.  1.
       -1    1    3    3    0  502 -0.86657801896E+03  0.31001808346E+03 -0.53399937924E+03  0.10640601543E+04  0.50400001928E-02 0. -1.
</event>
<event>
 5   0  0.2093980E-05  0.1999930E+04  0.7818609E-02  0.8606654E-01
        1   -1    0    0  501    0  0.00000000000E+00  0.00000000000E+00  0.14788056606E+04  0.14788056606E+04  0.50400001928E-02 0.  1.
       -1   -1    0    0    0  501  0.00000000000E+00  0.00000000000E+00 -0.67617380073E+03  0.67617380075E+03  0.50400001928E-02 0. -1.
    10030    2    1    2    0    0  0.00000000000E+00  0.00000000000E+00  0.80263185990E+03  0.21549794614E+04  0.19999296429E+04 0.  0.
        2    1    3    3  502    0 -0.21607551960E+02  0.84317891172E+03  0.98009180359E+03  0.12930574260E+04  0.25500000920E-02 0. -1.
       -2    1    3    3    0  502  0.21607551960E+02 -0.84317891172E+03 -0.17745994369E+03  0.86192203539E+03  0.25500000920E-02 0.  1.
</event>
<event>
 5   0  0.1601500E-05  0.1955211E+04  0.7818609E-02  0.8627852E-01
        4   -1    0    0  501    0  0.00000000000E+00  0.00000000000E+00  0.11043424824E+04  0.11043432127E+04  0.12699999809E+01 0.  1.
       -4   -1    0    0    0  501  0.00000000000E+00  0.00000000000E+00 -0.86541162829E+03  0.86541256016E+03  0.12699999809E+01 0. -1.
    10030    2    1    2    0    0  0.00000000000E+00  0.00000000000E+00  0.23893085412E+03  0.19697557728E+04  0.19552109481E+04 0.  0.
        1    1    3    3  502    0 -0.34919747597E+03  0.48280790966E+03  0.90025997409E+03  0.10795880584E+04  0.50400001928E-02 0.  1.
       -1    1    3    3    0  502  0.34919747597E+03 -0.48280790966E+03 -0.66132911997E+03  0.89016771443E+03  0.50400001928E-02 0. -1.
</event>
<event>
 5   0  0.4473361E-05  0.2004458E+04  0.7818609E-02  0.8604539E-01
       -2   -1    0    0    0  501  0.00000000000E+00  0.00000000000E+00  0.59699359497E+03  0.59699359497E+03  0.25500000920E-02 0.  1.
        2   -1    0    0  501    0  0.00000000000E+00  0.00000000000E+00 -0.16825356647E+04  0.16825356647E+04  0.25500000920E-02 0. -1.
    10030    2    1    2    0    0  0.00000000000E+00  0.00000000000E+00 -0.10855420697E+04  0.22795292597E+04  0.20044580466E+04 0.  0.
        2    1    3    3  502    0  0.51557015914E+03  0.24526767350E+03 -0.14795157858E+04  0.15858549055E+04  0.25500000920E-02 0. -1.
       -2    1    3    3    0  502 -0.51557015914E+03 -0.24526767350E+03  0.39397371612E+03  0.69367435419E+03  0.25500000920E-02 0.  1.
</event>
<event>
 5   0  0.2256868E-05  0.1989806E+04  0.7818609E-02  0.8611401E-01
       -1   -1    0    0    0  501  0.00000000000E+00  0.00000000000E+00  0.62139473766E+03  0.62139473768E+03  0.50400001928E-02 0. -1.
        1   -1    0    0  501    0  0.00000000000E+00  0.00000000000E+00 -0.15929205076E+04  0.15929205076E+04  0.50400001928E-02 0.  1.
    10030    2    1    2    0    0  0.00000000000E+00  0.00000000000E+00 -0.97152576997E+03  0.22143152453E+04  0.19898064438E+04 0.  0.
        5    1    3    3  502    0 -0.89392408097E+03  0.42683135082E+03 -0.38301390897E+03  0.10620767435E+04  0.46999998093E+01 0.  1.
       -5    1    3    3    0  502  0.89392408097E+03 -0.42683135082E+03 -0.58851186100E+03  0.11522385018E+04  0.46999998093E+01 0. -1.
</event>
<event>
 5   0  0.2110896E-05  0.2000794E+04  0.7818609E-02  0.8606249E-01
       -1   -1    0    0    0  501  0.00000000000E+00  0.00000000000E+00  0.11592453509E+04  0.11592453510E+04  0.50400001928E-02 0. -1.
        1   -1    0    0  501    0  0.00000000000E+00  0.00000000000E+00 -0.86331546332E+03  0.86331546334E+03  0.50400001928E-02 0.  1.
    10030    2    1    2    0    0  0.00000000000E+00  0.00000000000E+00  0.29592988762E+03  0.20225608143E+04  0.20007942796E+04 0.  0.
        4    1    3    3  502    0  0.87404034612E+03  0.13698309758E+03 -0.32410787101E+03  0.94220932951E+03  0.12699999809E+01 0.  1.
       -4    1    3    3    0  502 -0.87404034612E+03 -0.13698309758E+03  0.62003775863E+03  0.10803514848E+04  0.12699999809E+01 0. -1.
</event>
<event>
 5   0  0.2142551E-05  0.1866015E+04  0.7818609E-02  0.8671960E-01
       -1   -1    0    0    0  501  0.00000000000E+00  0.00000000000E+00  0.11145571897E+04  0.11145571897E+04  0.50400001928E-02 0. -1.
        1   -1    0    0  501    0  0.00000000000E+00  0.00000000000E+00 -0.78103018296E+03  0.78103018298E+03  0.50400001928E-02 0.  1.
    10030    2    1    2    0    0  0.00000000000E+00  0.00000000000E+00  0.33352700673E+03  0.18955873727E+04  0.18660147972E+04 0.  0.
        3    1    3    3  502    0  0.75704879802E+03 -0.39935673806E+03  0.54398946984E+03  0.10141662784E+04  0.10100000352E+00 0. -1.
       -3    1    3    3    0  502 -0.75704879802E+03  0.39935673806E+03 -0.21046246311E+03  0.88142109425E+03  0.10100000352E+00 0.  1.
</event>
<event>
 5   0  0.2256868E-05  0.1996433E+04  0.7818609E-02  0.8608290E-01
        1   -1    0    0  501    0  0.00000000000E+00  0.00000000000E+00  0.15026143847E+04  0.15026143847E+04  0.50400001928E-02 0.  1.
       -1   -1    0    0    0  501  0.00000000000E+00  0.00000000000E+00 -0.66313501002E+03  0.66313501004E+03  0.50400001928E-02 0. -1.
    10030    2    1    2    0    0  0.00000000000E+00  0.00000000000E+00  0.83947937471E+03  0.21657493948E+04  0.19964330243E+04 0.  0.
        5    1    3    3  502    0  0.93870803743E+03 -0.29046918093E+03  0.61033607713E+03  0.11567529303E+04  0.46999998093E+01 0. -1.
       -5    1    3    3    0  502 -0.93870803743E+03  0.29046918093E+03  0.22914329758E+03  0.10089964645E+04  0.46999998093E+01 0.  1.
</event>
<event>
 5   0  0.4473361E-05  0.1980128E+04  0.7818609E-02  0.8615968E-01
        2   -1    0    0  501    0  0.00000000000E+00  0.00000000000E+00  0.97849530904E+03  0.97849530904E+03  0.25500000920E-02 0.  1.
       -2   -1    0    0    0  501  0.00000000000E+00  0.00000000000E+00 -0.10017692932E+04  0.10017692932E+04  0.25500000920E-02 0. -1.
    10030    2    1    2    0    0  0.00000000000E+00  0.00000000000E+00 -0.23273984192E+02  0.19802646023E+04  0.19801278284E+04 0.  0.
        2    1    3    3  502    0  0.70186989755E+03  0.63323856732E+03 -0.30596008633E+03  0.99359147070E+03  0.25500000920E-02 0.  1.
       -2    1    3    3    0  502 -0.70186989755E+03 -0.63323856732E+03  0.28268610214E+03  0.98667313157E+03  0.25500000920E-02 0. -1.
</event>
<event>
 5   0  0.4473361E-05  0.2003479E+04  0.7818609E-02  0.8604996E-01
       -2   -1    0    0    0  501  0.00000000000E+00  0.00000000000E+00  0.49128182864E+03  0.49128182865E+03  0.25500000920E-02 0.  1.
        2   -1    0    0  501    0  0.00000000000E+00  0.00000000000E+00 -0.20425796094E+04  0.20425796094E+04  0.25500000920E-02 0. -1.
    10030    2    1    2    0    0  0.00000000000E+00  0.00000000000E+00 -0.15512977808E+04  0.25338614381E+04  0.20034792194E+04 0.  0.
        2    1    3    3  502    0 -0.57866716355E+03  0.77296842302E+03 -0.11129939957E+04  0.14734624202E+04  0.25500000920E-02 0.  1.
       -2    1    3    3    0  502  0.57866716355E+03 -0.77296842302E+03 -0.43830378506E+03  0.10603990179E+04  0.25500000920E-02 0. -1.
</event>
<event>
 5   0  0.2110896E-05  0.2003468E+04  0.7818609E-02  0.8605001E-01
       -1   -1    0    0    0  501  0.00000000000E+00  0.00000000000E+00  0.68699929878E+03  0.68699929880E+03  0.50400001928E-02 0.  1.
        1   -1    0    0  501    0  0.00000000000E+00  0.00000000000E+00 -0.14606576431E+04  0.14606576431E+04  0.50400001928E-02 0. -1.
    10030    2    1    2    0    0  0.00000000000E+00  0.00000000000E+00 -0.77365834429E+03  0.21476569419E+04  0.20034677702E+04 0.  0.
        4    1    3    3  502    0 -0.74715628679E+02  0.90383615688E+03  0.69189022861E+02  0.90955536249E+03  0.12699999809E+01 0. -1.
       -4    1    3    3    0  502  0.74715628679E+02 -0.90383615688E+03 -0.84284736715E+03  0.12381015794E+04  0.12699999809E+01 0.  1.
</event>
<event>
 5   0  0.2007644E-05  0.2007206E+04  0.7818609E-02  0.8603259E-01
        1   -1    0    0  501    0  0.00000000000E+00  0.00000000000E+00  0.86190963873E+03  0.86190963874E+03  0.50400001928E-02 0.  1.
       -1   -1    0    0    0  501  0.00000000000E+00  0.00000000000E+00 -0.11685899816E+04  0.11685899816E+04  0.50400001928E-02 0. -1.
    10030    2    1    2    0    0  0.00000000000E+00  0.00000000000E+00 -0.30668034283E+03  0.20304996203E+04  0.20072059873E+04 0.  0.
        1    1    3    3  502    0  0.82937189227E+03 -0.39458033114E+03 -0.56259359370E+03  0.10770621733E+04  0.50400001928E-02 0. -1.
       -1    1    3    3    0  502 -0.82937189227E+03  0.39458033114E+03  0.25591325087E+03  0.95343744703E+03  0.50400001928E-02 0.  1.
</event>
<event>
 5   0  0.2007644E-05  0.1964687E+04  0.7818609E-02  0.8623311E-01
        1   -1    0    0  501    0  0.00000000000E+00  0.00000000000E+00  0.10425715364E+04  0.10425715364E+04  0.50400001928E-02 0. -1.
       -1   -1    0    0    0  501  0.00000000000E+00  0.00000000000E+00 -0.92559489397E+03  0.92559489398E+03  0.50400001928E-02 0.  1.
    10030    2    1    2    0    0  0.00000000000E+00  0.00000000000E+00  0.11697664240E+03  0.19681664304E+04  0.19646871412E+04 0.  0.
        1    1    3    3  502    0  0.87706318943E+03 -0.41141150641E+03  0.22156365639E+03  0.99377548758E+03  0.50400001928E-02 0. -1.
       -1    1    3    3    0  502 -0.87706318943E+03  0.41141150641E+03 -0.10458701399E+03  0.97439094278E+03  0.50400001928E-02 0.  1.
</event>
<event>
 5   0  0.2256868E-05  0.1991166E+04  0.7818609E-02  0.8610762E-01
        1   -1    0    0  501    0  0.00000000000E+00  0.00000000000E+00  0.64614638679E+03  0.64614638681E+03  0.50400001928E-02 0. -1.
       -1   -1    0    0    0  501  0.00000000000E+00  0.00000000000E+00 -0.15339960014E+04  0.15339960014E+04  0.50400001928E-02 0.  1.
    10030    2    1    2    0    0  0.00000000000E+00  0.00000000000E+00 -0.88784961463E+03  0.21801423882E+04  0.19911664659E+04 0.  0.
        5    1    3    3  502    0  0.70216184510E+03 -0.39617372986E+03  0.19561625966E+03  0.82962201754E+03  0.46999998093E+01 0. -1.
       -5    1    3    3    0  502 -0.70216184510E+03  0.39617372986E+03 -0.10834658743E+04  0.13505203707E+04  0.46999998093E+01 0.  1.
</event>
<event>
 5   0  0.4412054E-05  0.1991072E+04  0.7818609E-02  0.8610806E-01
       -2   -1    0    0    0  501  0.00000000000E+00  0.00000000000E+00  0.10377419851E+04  0.10377419851E+04  0.25500000920E-02 0.  1.
        2   -1    0    0  501    0  0.00000000000E+00  0.00000000000E+00 -0.95504676918E+03  0.95504676918E+03  0.25500000920E-02 0. -1.
    10030    2    1    2    0    0  0.00000000000E+00  0.00000000000E+00  0.82695215937E+02  0.19927887543E+04  0.19910722037E+04 0.  0.
        4    1    3    3  502    0 -0.27633102570E+03 -0.25860815392E+03  0.96293105160E+03  0.10346375385E+04  0.12699999809E+01 0.  1.
       -4    1    3    3    0  502  0.27633102570E+03  0.25860815392E+03 -0.88023583567E+03  0.95815121579E+03  0.12699999809E+01 0. -1.
</event>
<event>
 5   0  0.4514680E-05  0.2023807E+04  0.7818609E-02  0.8595570E-01
        2   -1    0    0  501    0  0.00000000000E+00  0.00000000000E+00  0.64239226020E+03  0.64239226021E+03  0.25500000920E-02 0.  1.
       -2   -1    0    0    0  501  0.00000000000E+00  0.00000000000E+00 -0.15939623317E+04  0.15939623317E+04  0.25500000920E-02 0. -1.
    10030    2    1    2    0    0  0.00000000000E+00  0.00000000000E+00 -0.95157007147E+03  0.22363545919E+04  0.20238073672E+04 0.  0.
        3    1    3    3  502    0 -0.78686478613E+03 -0.48528655502E+03 -0.21124857405E+02  0.92471914760E+03  0.10100000352E+00 0.  1.
       -3    1    3    3    0  502  0.78686478613E+03  0.48528655502E+03 -0.93044521407E+03  0.13116354443E+04  0.10100000352E+00 0. -1.
</event>
<event>
 5   0  0.4577279E-05  0.1993146E+04  0.7818609E-02  0.8609832E-01
        2   -1    0    0  501    0  0.00000000000E+00  0.00000000000E+00  0.67758628932E+03  0.67758628932E+03  0.25500000920E-02 0. -1.
       -2   -1    0    0    0  501  0.00000000000E+00  0.00000000000E+00 -0.14657288116E+04  0.14657288116E+04  0.25500000920E-02 0.  1.
    10030    2    1    2    0    0  0.00000000000E+00  0.00000000000E+00 -0.78814252229E+03  0.21433151009E+04  0.19931460023E+04 0.  0.
        1    1    3    3  502    0  0.82002153034E+03 -0.50978168722E+03 -0.12881869115E+03  0.97411854210E+03  0.50400001928E-02 0.  1.
       -1    1    3    3    0  502 -0.82002153034E+03  0.50978168722E+03 -0.65932383114E+03  0.11691965588E+04  0.50400001928E-02 0. -1.
</event>
<event>
 5   0  0.4514680E-05  0.1984030E+04  0.7818609E-02  0.8614124E-01
       -2   -1    0    0    0  501  0.00000000000E+00  0.00000000000E+00  0.58919134995E+03  0.58919134996E+03  0.25500000920E-02 0. -1.
        2   -1    0    0  501    0  0.00000000000E+00  0.00000000000E+00 -0.16702453122E+04  0.16702453122E+04  0.25500000920E-02 0.  1.
    10030    2    1    2    0    0  0.00000000000E+00  0.00000000000E+00 -0.10810539622E+04  0.22594366621E+04  0.19840303327E+04 0.  0.
        3    1    3    3  502    0  0.10958829611E+03 -0.81737348785E+03  0.87354954777E+02  0.82930085711E+03  0.10100000352E+00 0. -1.
       -3    1    3    3    0  502 -0.10958829611E+03  0.81737348785E+03 -0.11684089170E+04  0.14301358050E+04  0.10100000352E+00 0.  1.
</event>
<event>
 5   0  0.4447313E-05  0.1995185E+04  0.7818609E-02  0.8608875E-01
       -2   -1    0    0    0  501  0.00000000000E+00  0.00000000000E+00  0.88909721998E+03  0.88909721999E+03  0.25500000920E-02 0.  1.
        2   -1    0    0  501    0  0.00000000000E+00  0.00000000000E+00 -0.11193277819E+04  0.11193277819E+04  0.25500000920E-02 0. -1.
    10030    2    1    2    0    0  0.00000000000E+00  0.00000000000E+00 -0.23023056191E+03  0.20084250019E+04  0.19951854241E+04 0.  0.
        5    1    3    3  502    0 -0.11802698990E+03  0.90386042210E+03  0.29288289426E+03  0.95744269423E+03  0.46999998093E+01 0.  1.
       -5    1    3    3    0  502  0.11802698990E+03 -0.90386042210E+03 -0.52311345617E+03  0.10509823077E+04  0.46999998093E+01 0. -1.
</event>
<event>
 5   0  0.1601500E-05  0.2012941E+04  0.7818609E-02  0.8600594E-01
       -4   -1    0    0    0  501  0.00000000000E+00  0.00000000000E+00  0.75831007010E+03  0.75831113359E+03  0.12699999809E+01 0. -1.
        4   -1    0    0  501    0  0.00000000000E+00  0.00000000000E+00 -0.13358401299E+04  0.13358407336E+04  0.12699999809E+01 0.  1.
    10030    2    1    2    0    0  0.00000000000E+00  0.00000000000E+00 -0.57753005981E+03  0.20941518672E+04  0.20129409015E+04 0.  0.
        4    1    3    3  502    0  0.14957743883E+03  0.47031083116E+03 -0.12013169960E+04  0.12987416317E+04  0.12699999809E+01 0.  1.
       -4    1    3    3    0  502 -0.14957743883E+03 -0.47031083116E+03  0.62378693618E+03  0.79541023552E+03  0.12699999809E+01 0. -1.
</event>
<event>
 5   0  0.2007644E-05  0.2000701E+04  0.7818609E-02  0.8606293E-01
        1   -1    0    0  501    0  0.00000000000E+00  0.00000000000E+00  0.12221250796E+04  0.12221250796E+04  0.50400001928E-02 0. -1.
       -1   -1    0    0    0  501  0.00000000000E+00  0.00000000000E+00 -0.81882038878E+03  0.81882038880E+03  0.50400001928E-02 0.  1.
    10030    2    1    2    0    0  0.00000000000E+00  0.00000000000E+00  0.40330469078E+03  0.20409454684E+04  0.20007008100E+04 0.  0.
        1    1    3    3  502    0  0.80443235084E+03 -0.45728008138E+03 -0.18610480218E+03  0.94384928740E+03  0.50400001928E-02 0.  1.
       -1    1    3    3    0  502 -0.80443235084E+03  0.45728008138E+03  0.58940949296E+03  0.10970961810E+04  0.50400001928E-02 0. -1.
</event>
<event>
 5   0  0.4577279E-05  0.1997968E+04  0.7818609E-02  0.8607571E-01
       -2   -1    0    0    0  501  0.00000000000E+00  0.00000000000E+00  0.76949094316E+03  0.76949094316E+03  0.25500000920E-02 0. -1.
        2   -1    0    0  501    0  0.00000000000E+00  0.00000000000E+00 -0.12969207435E+04  0.12969207435E+04  0.25500000920E-02 0.  1.
    10030    2    1    2    0    0  0.00000000000E+00  0.00000000000E+00 -0.52742980033E+03  0.20664116867E+04  0.19979677336E+04 0.  0.
        1    1    3    3  502    0  0.66373678953E+03 -0.16690910597E+03  0.48892534672E+03  0.84110235413E+03  0.50400001928E-02 0. -1.
       -1    1    3    3    0  502 -0.66373678953E+03  0.16690910597E+03 -0.10163551470E+04  0.12253093325E+04  0.50400001928E-02 0.  1.
</event>
<event>
 5   0  0.2142551E-05  0.1997294E+04  0.7818609E-02  0.8607887E-01
        1   -1    0    0  501    0  0.00000000000E+00  0.00000000000E+00  0.13848048926E+04  0.13848048926E+04  0.50400001928E-02 0.  1.
       -1   -1    0    0    0  501  0.00000000000E+00  0.00000000000E+00 -0.72017067445E+03  0.72017067447E+03  0.50400001928E-02 0. -1.
    10030    2    1    2    0    0  0.00000000000E+00  0.00000000000E+00  0.66463421811E+03  0.21049755670E+04  0.19972940429E+04 0.  0.
        3    1    3    3  502    0  0.42367202143E+03  0.88139965634E+02 -0.61622233954E+03  0.75299177766E+03  0.10100000352E+00 0. -1.
       -3    1    3    3    0  502 -0.42367202143E+03 -0.88139965634E+02  0.12808565576E+04  0.13519837894E+04  0.10100000352E+00 0.  1.
</event>
<event>
 5   0  0.2093980E-05  0.2002125E+04  0.7818609E-02  0.8605628E-01
       -1   -1    0    0    0  501  0.00000000000E+00  0.00000000000E+00  0.54905019148E+03  0.54905019151E+03  0.50400001928E-02 0. -1.
        1   -1    0    0  501    0  0.00000000000E+00  0.00000000000E+00 -0.18252003775E+04  0.18252003775E+04  0.50400001928E-02 0.  1.
    10030    2    1    2    0    0  0.00000000000E+00  0.00000000000E+00 -0.12761501860E+04  0.23742505690E+04  0.20021254874E+04 0.  0.
        2    1    3    3  502    0  0.17004265513E+03 -0.74936693924E+03  0.12278582762E+03  0.77816558242E+03  0.25500000920E-02 0. -1.
       -2    1    3    3    0  502 -0.17004265513E+03  0.74936693924E+03 -0.13989360137E+04  0.15960849866E+04  0.25500000920E-02 0.  1.
</event>
<event>
 5   0  0.2110896E-05  0.2005052E+04  0.7818609E-02  0.8604262E-01
       -1   -1    0    0    0  501  0.00000000000E+00  0.00000000000E+00  0.17411799111E+04  0.17411799111E+04  0.50400001928E-02 0. -1.
        1   -1    0    0  501    0  0.00000000000E+00  0.00000000000E+00 -0.57722835733E+03  0.57722835736E+03  0.50400001928E-02 0.  1.
    10030    2    1    2    0    0  0.00000000000E+00  0.00000000000E+00  0.11639515538E+04  0.23184082685E+04  0.20050520392E+04 0.  0.
        4    1    3    3  502    0 -0.10768545681E+03 -0.47814158975E+03 -0.42925417610E+03  0.65151845566E+03  0.12699999809E+01 0.  1.
       -4    1    3    3    0  502  0.10768545681E+03  0.47814158975E+03  0.15932057299E+04  0.16668898128E+04  0.12699999809E+01 0. -1.
</event>
<event>
 5   0  0.4412054E-05  0.2000998E+04  0.7818609E-02  0.8606154E-01
       -2   -1    0    0    0  501  0.00000000000E+00  0.00000000000E+00  0.65162777473E+03  0.65162777474E+03  0.25500000920E-02 0. -1.
        2   -1    0    0  501    0  0.00000000000E+00  0.00000000000E+00 -0.15361507965E+04  0.15361507965E+04  0.25500000920E-02 0.  1.
    10030    2    1    2    0    0  0.00000000000E+00  0.00000000000E+00 -0.88452302177E+03  0.21877785712E+04  0.20009982760E+04 0.  0.
        4    1    3    3  502    0  0.29368836506E+03  0.20114508501E+03  0.58004962538E+03  0.68056695615E+03  0.12699999809E+01 0. -1.
       -4    1    3    3    0  502 -0.29368836506E+03 -0.20114508501E+03 -0.14645726471E+04  0.15072116151E+04  0.12699999809E+01 0.  1.
</event>
<event>
 5   0  0.2256868E-05  0.2003109E+04  0.7818609E-02  0.8605168E-01
        1   -1    0    0  501    0  0.00000000000E+00  0.00000000000E+00  0.13009416218E+04  0.13009416218E+04  0.50400001928E-02 0.  1.
       -1   -1    0    0    0  501  0.00000000000E+00  0.00000000000E+00 -0.77106595496E+03  0.77106595497E+03  0.50400001928E-02 0. -1.
    10030    2    1    2    0    0  0.00000000000E+00  0.00000000000E+00  0.52987566685E+03  0.20720075768E+04  0.20031093769E+04 0.  0.
        5    1    3    3  502    0 -0.32673397845E+03  0.93451281781E+03  0.42188126786E+03  0.10761390215E+04  0.46999998093E+01 0.  1.
       -5    1    3    3    0  502  0.32673397845E+03 -0.93451281781E+03  0.10799439899E+03  0.99586855535E+03  0.46999998093E+01 0. -1.
</event>
<event>
 5   0  0.2256868E-05  0.2142657E+04  0.7818609E-02  0.8542682E-01
       -1   -1    0    0    0  501  0.00000000000E+00  0.00000000000E+00  0.54870557442E+03  0.54870557444E+03  0.50400001928E-02 0.  1.
        1   -1    0    0  501    0  0.00000000000E+00  0.00000000000E+00 -0.20917323052E+04  0.20917323052E+04  0.50400001928E-02 0. -1.
    10030    2    1    2    0    0  0.00000000000E+00  0.00000000000E+00 -0.15430267307E+04  0.26404378796E+04  0.21426573931E+04 0.  0.
        5    1    3    3  502    0  0.38881375060E+03 -0.17610869617E+03 -0.19824089895E+04  0.20278456295E+04  0.46999998093E+01 0. -1.
       -5    1    3    3    0  502 -0.38881375060E+03  0.17610869617E+03  0.43938225878E+03  0.61259225007E+03  0.46999998093E+01 0.  1.
</event>
<event>
 5   0  0.2256868E-05  0.2002548E+04  0.7818609E-02  0.8605430E-01
        1   -1    0    0  501    0  0.00000000000E+00  0.00000000000E+00  0.69141390674E+03  0.69141390676E+03  0.50400001928E-02 0. -1.
       -1   -1    0    0    0  501  0.00000000000E+00  0.00000000000E+00 -0.14499995719E+04  0.14499995719E+04  0.50400001928E-02 0.  1.
    10030    2    1    2    0    0  0.00000000000E+00  0.00000000000E+00 -0.75858566520E+03  0.21414134787E+04  0.20025482454E+04 0.  0.
        5    1    3    3  502    0 -0.39770890372E+03  0.44438683506E+03 -0.12393513052E+04  0.13753784130E+04  0.46999998093E+01 0.  1.
       -5    1    3    3    0  502  0.39770890372E+03 -0.44438683506E+03  0.48076564000E+03  0.76603506569E+03  0.46999998093E+01 0. -1.
</event>
<event>
 5   0  0.4447313E-05  0.2000518E+04  0.7818609E-02  0.8606378E-01
       -2   -1    0    0    0  501  0.00000000000E+00  0.00000000000E+00  0.88957674079E+03  0.88957674080E+03  0.25500000920E-02 0.  1.
        2   -1    0    0  501    0  0.00000000000E+00  0.00000000000E+00 -0.11247129968E+04  0.11247129968E+04  0.25500000920E-02 0. -1.
    10030    2    1    2    0    0  0.00000000000E+00  0.00000000000E+00 -0.23513625605E+03  0.20142897376E+04  0.20005184549E+04 0.  0.
        5    1    3    3  502    0  0.51281492249E+03  0.27012567731E+03 -0.93837883894E+03  0.11029614507E+04  0.46999998093E+01 0. -1.
       -5    1    3    3    0  502 -0.51281492249E+03 -0.27012567731E+03  0.70324258289E+03  0.91132828699E+03  0.46999998093E+01 0.  1.
</event>
<event>
 5   0  0.4577279E-05  0.1998886E+04  0.7818609E-02  0.8607142E-01
       -2   -1    0    0    0  501  0.00000000000E+00  0.00000000000E+00  0.36662698866E+03  0.36662698867E+03  0.25500000920E-02 0.  1.
        2   -1    0    0  501    0  0.00000000000E+00  0.00000000000E+00 -0.27245298546E+04  0.27245298546E+04  0.25500000920E-02 0. -1.
    10030    2    1    2    0    0  0.00000000000E+00  0.00000000000E+00 -0.23579028659E+04  0.30911568432E+04  0.19988858658E+04 0.  0.
        1    1    3    3  502    0  0.21140226142E+03  0.62349413038E+03 -0.23418190456E+04  0.24326019586E+04  0.50400001928E-02 0. -1.
       -1    1    3    3    0  502 -0.21140226142E+03 -0.62349413038E+03 -0.16083820310E+02  0.65855488462E+03  0.50400001928E-02 0.  1.
</event>
<event>
 5   0  0.2093980E-05  0.1988360E+04  0.7818609E-02  0.8612082E-01
       -1   -1    0    0    0  501  0.00000000000E+00  0.00000000000E+00  0.72759741210E+03  0.72759741211E+03  0.50400001928E-02 0. -1.
        1   -1    0    0  501    0  0.00000000000E+00  0.00000000000E+00 -0.13584353570E+04  0.13584353571E+04  0.50400001928E-02 0.  1.
    10030    2    1    2    0    0  0.00000000000E+00  0.00000000000E+00 -0.63083794495E+03  0.20860327692E+04  0.19883601790E+04 0.  0.
        2    1    3    3  502    0 -0.68711530058E+02  0.96723840973E+03 -0.85274383824E+02  0.97341827400E+03  0.25500000920E-02 0. -1.
       -2    1    3    3    0  502  0.68711530058E+02 -0.96723840973E+03 -0.54556356113E+03  0.11126144952E+04  0.25500000920E-02 0.  1.
</event>
<event>
 5   0  0.1601500E-05  0.1995418E+04  0.7818609E-02  0.8608766E-01
       -4   -1    0    0    0  501  0.00000000000E+00  0.00000000000E+00  0.83492253020E+03  0.83492349609E+03  0.12699999809E+01 0. -1.
        4   -1    0    0  501    0  0.00000000000E+00  0.00000000000E+00 -0.11922326465E+04  0.11922333229E+04  0.12699999809E+01 0.  1.
    10030    2    1    2    0    0  0.00000000000E+00  0.00000000000E+00 -0.35731011628E+03  0.20271568190E+04  0.19954183144E+04 0.  0.
        2    1    3    3  502    0  0.90727261540E+03  0.33426911867E+03  0.71315798408E+02  0.96951812024E+03  0.25500000920E-02 0. -1.
       -2    1    3    3    0  502 -0.90727261540E+03 -0.33426911867E+03 -0.42862591469E+03  0.10576386988E+04  0.25500000920E-02 0.  1.
</event>
<event>
 5   0  0.4577279E-05  0.2005628E+04  0.7818609E-02  0.8603994E-01
       -2   -1    0    0    0  501  0.00000000000E+00  0.00000000000E+00  0.78847040634E+03  0.78847040635E+03  0.25500000920E-02 0. -1.
        2   -1    0    0  501    0  0.00000000000E+00  0.00000000000E+00 -0.12754257318E+04  0.12754257318E+04  0.25500000920E-02 0.  1.
    10030    2    1    2    0    0  0.00000000000E+00  0.00000000000E+00 -0.48695532542E+03  0.20638961381E+04  0.20056275277E+04 0.  0.
        1    1    3    3  502    0 -0.66163104152E+03  0.72859955631E+03 -0.44148004082E+03  0.10786647185E+04  0.50400001928E-02 0. -1.
       -1    1    3    3    0  502  0.66163104152E+03 -0.72859955631E+03 -0.45475284593E+02  0.98523141956E+03  0.50400001928E-02 0.  1.
</event>
<event>
 5   0  0.1601500E-05  0.1993879E+04  0.7818609E-02  0.8609488E-01
        3   -1    0    0  501    0  0.00000000000E+00  0.00000000000E+00  0.73847542273E+03  0.73847542963E+03  0.10100000352E+00 0.  1.
       -3   -1    0    0    0  501  0.00000000000E+00  0.00000000000E+00 -0.13458657775E+04  0.13458657813E+04  0.10100000352E+00 0. -1.
    10030    2    1    2    0    0  0.00000000000E+00  0.00000000000E+00 -0.60739035479E+03  0.20843412109E+04  0.19938794448E+04 0.  0.
        5    1    3    3  502    0 -0.56381107663E+03  0.63542935579E+03  0.24171672144E+03  0.88323409114E+03  0.46999998093E+01 0.  1.
       -5    1    3    3    0  502  0.56381107663E+03 -0.63542935579E+03 -0.84910707623E+03  0.12011071198E+04  0.46999998093E+01 0. -1.
</event>
<event>
 5   0  0.4577279E-05  0.1999542E+04  0.7818609E-02  0.8606835E-01
        2   -1    0    0  501    0  0.00000000000E+00  0.00000000000E+00  0.95838880973E+03  0.95838880973E+03  0.25500000920E-02 0. -1.
       -2   -1    0    0    0  501  0.00000000000E+00  0.00000000000E+00 -0.10429397020E+04  0.10429397020E+04  0.25500000920E-02 0.  1.
    10030    2    1    2    0    0  0.00000000000E+00  0.00000000000E+00 -0.84550892265E+02  0.20013285117E+04  0.19995416871E+04 0.  0.
        1    1    3    3  502    0  0.97355227159E+03 -0.55406700857E+02  0.17852951581E+03  0.99133582406E+03  0.50400001928E-02 0.  1.
       -1    1    3    3    0  502 -0.97355227159E+03  0.55406700857E+02 -0.26308040807E+03  0.10099926877E+04  0.50400001928E-02 0. -1.
</event>
<event>
 5   0  0.4514680E-05  0.2016580E+04  0.7818609E-02  0.8598908E-01
        2   -1    0    0  501    0  0.00000000000E+00  0.00000000000E+00  0.12801848717E+04  0.12801848717E+04  0.25500000920E-02 0.  1.
       -2   -1    0    0    0  501  0.00000000000E+00  0.00000000000E+00 -0.79414196848E+03  0.79414196848E+03  0.25500000920E-02 0. -1.
    10030    2    1    2    0    0  0.00000000000E+00  0.00000000000E+00  0.48604290324E+03  0.20743268402E+04  0.20165798115E+04 0.  0.
        3    1    3    3  502    0 -0.79632586343E+03 -0.10970752027E+02 -0.39306610642E+03  0.88811948092E+03  0.10100000352E+00 0. -1.
       -3    1    3    3    0  502  0.79632586343E+03  0.10970752027E+02  0.87910900966E+03  0.11862073593E+04  0.10100000352E+00 0.  1.
</event>
<event>
 5   0  0.2110896E-05  0.2001115E+04  0.7818609E-02  0.8606099E-01
        1   -1    0    0  501    0  0.00000000000E+00  0.00000000000E+00  0.89184476656E+03  0.89184476658E+03  0.50400001928E-02 0.  1.
       -1   -1    0    0    0  501  0.00000000000E+00  0.00000000000E+00 -0.11225222332E+04  0.11225222332E+04  0.50400001928E-02 0. -1.
    10030    2    1    2    0    0  0.00000000000E+00  0.00000000000E+00 -0.23067746659E+03  0.20143669997E+04  0.20011152681E+04 0.  0.
        4    1    3    3  502    0  0.12206948601E+03  0.55659873187E+03  0.71254962918E+03  0.91237694769E+03  0.12699999809E+01 0.  1.
       -4    1    3    3    0  502 -0.12206948601E+03 -0.55659873187E+03 -0.94322709577E+03  0.11019900521E+04  0.12699999809E+01 0. -1.
</event>
<event>
 5   0  0.2110896E-05  0.1997260E+04  0.7818609E-02  0.8607903E-01
       -1   -1    0    0    0  501  0.00000000000E+00  0.00000000000E+00  0.57534666702E+03  0.57534666704E+03  0.50400001928E-02 0. -1.
        1   -1    0    0  501    0  0.00000000000E+00  0.00000000000E+00 -0.17333229128E+04  0.17333229128E+04  0.50400001928E-02 0.  1.
    10030    2    1    2    0    0  0.00000000000E+00  0.00000000000E+00 -0.11579762458E+04  0.23086695798E+04  0.19972596834E+04 0.  0.
        4    1    3    3  502    0  0.93845707135E+03 -0.30785495751E+03 -0.40838300528E+03  0.10687631363E+04  0.12699999809E+01 0.  1.
       -4    1    3    3    0  502 -0.93845707135E+03  0.30785495751E+03 -0.74959324050E+03  0.12399064435E+04  0.12699999809E+01 0. -1.
</event>
<event>
 5   0  0.2007644E-05  0.2002555E+04  0.7818609E-02  0.8605427E-01
       -1   -1    0    0    0  501  0.00000000000E+00  0.00000000000E+00  0.11908077445E+04  0.11908077445E+04  0.50400001928E-02 0. -1.
        1   -1    0    0  501    0  0.00000000000E+00  0.00000000000E+00 -0.84191307840E+03  0.84191307842E+03  0.50400001928E-02 0.  1.
    10030    2    1    2    0    0  0.00000000000E+00  0.00000000000E+00  0.34889466605E+03  0.20327208229E+04  0.20025549820E+04 0.  0.
        1    1    3    3  502    0 -0.24053528327E+03 -0.48655889616E+03  0.10285254526E+04  0.11629537345E+04  0.50400001928E-02 0. -1.
       -1    1    3    3    0  502  0.24053528327E+03  0.48655889616E+03 -0.67963078656E+03  0.86976708837E+03  0.50400001928E-02 0.  1.
</event>
<event>
 5   0  0.4447313E-05  0.2023463E+04  0.7818609E-02  0.8595729E-01
       -2   -1    0    0    0  501  0.00000000000E+00  0.00000000000E+00  0.54759546624E+03  0.54759546625E+03  0.25500000920E-02 0.  1.
        2   -1    0    0  501    0  0.00000000000E+00  0.00000000000E+00 -0.18692647727E+04  0.18692647727E+04  0.25500000920E-02 0. -1.
    10030    2    1    2    0    0  0.00000000000E+00  0.00000000000E+00 -0.13216693065E+04  0.24168602390E+04  0.20234632834E+04 0.  0.
        5    1    3    3  502    0  0.92701471183E+03 -0.33861119517E+03 -0.92675024096E+03  0.13538470802E+04  0.46999998093E+01 0. -1.
       -5    1    3    3    0  502 -0.92701471183E+03  0.33861119517E+03 -0.39491906553E+03  0.10630131588E+04  0.46999998093E+01 0.  1.
</event>
<event>
 5   0  0.2007644E-05  0.2028684E+04  0.7818609E-02  0.8593326E-01
       -1   -1    0    0    0  501  0.00000000000E+00  0.00000000000E+00  0.12767950624E+04  0.12767950624E+04  0.50400001928E-02 0.  1.
        1   -1    0    0  501    0  0.00000000000E+00  0.00000000000E+00 -0.80583798053E+03  0.80583798054E+03  0.50400001928E-02 0. -1.
    10030    2    1    2    0    0  0.00000000000E+00  0.00000000000E+00  0.47095708189E+03  0.20826330430E+04  0.20286842580E+04 0.  0.
        1    1    3    3  502    0 -0.84763125855E+03  0.24073230682E+03  0.75129341625E+03  0.11579605310E+04  0.50400001928E-02 0.  1.
       -1    1    3    3    0  502  0.84763125855E+03 -0.24073230682E+03 -0.28033633436E+03  0.92467251198E+03  0.50400001928E-02 0. -1.
</event>
<event>
 5   0  0.4447313E-05  0.1990665E+04  0.7818609E-02  0.8610998E-01
       -2   -1    0    0    0  501  0.00000000000E+00  0.00000000000E+00  0.51368512759E+03  0.51368512760E+03  0.25500000920E-02 0. -1.
        2   -1    0    0  501    0  0.00000000000E+00  0.00000000000E+00 -0.19285872148E+04  0.19285872148E+04  0.25500000920E-02 0.  1.
    10030    2    1    2    0    0  0.00000000000E+00  0.00000000000E+00 -0.14149020872E+04  0.24422723424E+04  0.19906647829E+04 0.  0.
        5    1    3    3  502    0  0.57688790268E+03  0.54041492232E+03 -0.14494915724E+04  0.16510287244E+04  0.46999998093E+01 0.  1.
       -5    1    3    3    0  502 -0.57688790268E+03 -0.54041492232E+03  0.34589485141E+02  0.79124361799E+03  0.46999998093E+01 0. -1.
</event>
<event>
 5   0  0.4577279E-05  0.2001662E+04  0.7818609E-02  0.8605844E-01
        2   -1    0    0  501    0  0.00000000000E+00  0.00000000000E+00  0.19691318776E+04  0.19691318776E+04  0.25500000920E-02 0. -1.
       -2   -1    0    0    0  501  0.00000000000E+00  0.00000000000E+00 -0.50868238119E+03  0.50868238120E+03  0.25500000920E-02 0.  1.
    10030    2    1    2    0    0  0.00000000000E+00  0.00000000000E+00  0.14604494964E+04  0.24778142587E+04  0.20016620018E+04 0.  0.
        1    1    3    3  502    0 -0.35954518292E+03  0.92386348825E+03  0.56019679696E+03  0.11386908864E+04  0.50400001928E-02 0.  1.
       -1    1    3    3    0  502  0.35954518292E+03 -0.92386348825E+03  0.90025269940E+03  0.13391233723E+04  0.50400001928E-02 0. -1.
</event>
<event>
 5   0  0.4412054E-05  0.1972997E+04  0.7818609E-02  0.8619350E-01
       -2   -1    0    0    0  501  0.00000000000E+00  0.00000000000E+00  0.13544834298E+04  0.13544834298E+04  0.25500000920E-02 0. -1.
        2   -1    0    0  501    0  0.00000000000E+00  0.00000000000E+00 -0.71848752237E+03  0.71848752238E+03  0.25500000920E-02 0.  1.
    10030    2    1    2    0    0  0.00000000000E+00  0.00000000000E+00  0.63599590744E+03  0.20729709522E+04  0.19729971552E+04 0.  0.
        4    1    3    3  502    0  0.71739129606E+03  0.54377259361E+03 -0.10598253530E+03  0.90640654008E+03  0.12699999809E+01 0.  1.
       -4    1    3    3    0  502 -0.71739129606E+03 -0.54377259361E+03  0.74197844274E+03  0.11665644121E+04  0.12699999809E+01 0. -1.
</event>
<event>
 5   0  0.4447313E-05  0.1999914E+04  0.7818609E-02  0.8606661E-01
        2   -1    0    0  501    0  0.00000000000E+00  0.00000000000E+00  0.10791021919E+04  0.10791021919E+04  0.25500000920E-02 0.  1.
       -2   -1    0    0    0  501  0.00000000000E+00  0.00000000000E+00 -0.92661665651E+03  0.92661665651E+03  0.25500000920E-02 0. -1.
    10030    2    1    2    0    0  0.00000000000E+00  0.00000000000E+00  0.15248553535E+03  0.20057188484E+04  0.19999140632E+04 0.  0.
        5    1    3    3  502    0 -0.15429046947E+02  0.62277828191E+03  0.86069022421E+03  0.10624973393E+04  0.46999998093E+01 0.  1.
       -5    1    3    3    0  502  0.15429046947E+02 -0.62277828191E+03 -0.70820468886E+03  0.94322150910E+03  0.46999998093E+01 0. -1.
</event>
<event>
 5   0  0.2110896E-05  0.2008051E+04  0.7818609E-02  0.8602866E-01
        1   -1    0    0  501    0  0.00000000000E+00  0.00000000000E+00  0.19779259526E+04  0.19779259526E+04  0.50400001928E-02 0.  1.
       -1   -1    0    0    0  501  0.00000000000E+00  0.00000000000E+00 -0.50965882623E+03  0.50965882625E+03  0.50400001928E-02 0. -1.
    10030    2    1    2    0    0  0.00000000000E+00  0.00000000000E+00  0.14682671264E+04  0.24875847789E+04  0.20080512139E+04 0.  0.
        4    1    3    3  502    0 -0.61648910329E+03 -0.39181377550E+03  0.15874618862E+04  0.17474592133E+04  0.12699999809E+01 0. -1.
       -4    1    3    3    0  502  0.61648910329E+03  0.39181377550E+03 -0.11919475980E+03  0.74012556557E+03  0.12699999809E+01 0.  1.
</event>
<event>
 5   0  0.4577279E-05  0.2000625E+04  0.7818609E-02  0.8606328E-01
       -2   -1    0    0    0  501  0.00000000000E+00  0.00000000000E+00  0.57556605649E+03  0.57556605650E+03  0.25500000920E-02 0.  1.
        2   -1    0    0  501    0  0.00000000000E+00  0.00000000000E+00 -0.17385063790E+04  0.17385063790E+04  0.25500000920E-02 0. -1.
    10030    2    1    2    0    0  0.00000000000E+00  0.00000000000E+00 -0.11629403225E+04  0.23140724355E+04  0.20006251631E+04 0.  0.
        1    1    3    3  502    0 -0.91751861032E+03 -0.34707668125E+03 -0.35503757888E+03  0.10432422084E+04  0.50400001928E-02 0.  1.
       -1    1    3    3    0  502  0.91751861032E+03  0.34707668125E+03 -0.80790274365E+03  0.12708302271E+04  0.50400001928E-02 0. -1.
</event>
<event>
 5   0  0.2110896E-05  0.2000786E+04  0.7818609E-02  0.8606253E-01
       -1   -1    0    0    0  501  0.00000000000E+00  0.00000000000E+00  0.58103469134E+03  0.58103469136E+03  0.50400001928E-02 0. -1.
        1   -1    0    0  501    0  0.00000000000E+00  0.00000000000E+00 -0.17224203943E+04  0.17224203943E+04  0.50400001928E-02 0.  1.
    10030    2    1    2    0    0  0.00000000000E+00  0.00000000000E+00 -0.11413857029E+04  0.23034550856E+04  0.20007858478E+04 0.  0.
        4    1    3    3  502    0  0.36942197412E+03  0.13702645288E+03 -0.16293249951E+04  0.16762906658E+04  0.12699999809E+01 0.  1.
       -4    1    3    3    0  502 -0.36942197412E+03 -0.13702645288E+03  0.48793929216E+03  0.62716441982E+03  0.12699999809E+01 0. -1.
</event>
<event>
 5   0  0.2093980E-05  0.1996374E+04  0.7818609E-02  0.8608318E-01
        1   -1    0    0  501    0  0.00000000000E+00  0.00000000000E+00  0.20874873611E+04  0.20874873611E+04  0.50400001928E-02 0.  1.
       -1   -1    0    0    0  501  0.00000000000E+00  0.00000000000E+00 -0.47730960307E+03  0.47730960310E+03  0.50400001928E-02 0. -1.
    10030    2    1    2    0    0  0.00000000000E+00  0.00000000000E+00  0.16101777580E+04  0.25647969642E+04  0.19963744777E+04 0.  0.
        2    1    3    3  502    0 -0.87490088198E+03  0.48043581850E+03  0.79176019281E+03  0.12740307421E+04  0.25500000920E-02 0. -1.
       -2    1    3    3    0  502  0.87490088198E+03 -0.48043581850E+03  0.81841756523E+03  0.12907662221E+04  0.25500000920E-02 0.  1.
</event>
<event>
 5   0  0.2093980E-05  0.2017499E+04  0.7818609E-02  0.8598483E-01
       -1   -1    0    0    0  501  0.00000000000E+00  0.00000000000E+00  0.73131801963E+03  0.73131801964E+03  0.50400001928E-02 0. -1.
        1   -1    0    0  501    0  0.00000000000E+00  0.00000000000E+00 -0.13914265584E+04  0.13914265584E+04  0.50400001928E-02 0.  1.
    10030    2    1    2    0    0  0.00000000000E+00  0.00000000000E+00 -0.66010853876E+03  0.21227445780E+04  0.20174987635E+04 0.  0.
        2    1    3    3  502    0 -0.86928613454E+03  0.36909080362E+03  0.42966439669E+02  0.94537427507E+03  0.25500000920E-02 0. -1.
       -2    1    3    3    0  502  0.86928613454E+03 -0.36909080362E+03 -0.70307497842E+03  0.11773703030E+04  0.25500000920E-02 0.  1.
</event>
<event>
 5   0  0.2007644E-05  0.2002034E+04  0.7818609E-02  0.8605670E-01
        1   -1    0    0  501    0  0.00000000000E+00  0.00000000000E+00  0.11968484435E+04  0.11968484435E+04  0.50400001928E-02 0. -1.
       -1   -1    0    0    0  501  0.00000000000E+00  0.00000000000E+00 -0.83722785152E+03  0.83722785153E+03  0.50400001928E-02 0.  1.
    10030    2    1    2    0    0  0.00000000000E+00  0.00000000000E+00  0.35962059198E+03  0.20340762950E+04  0.20020338169E+04 0.  0.
        1    1    3    3  502    0 -0.17324297703E+03  0.55771289530E+03 -0.64620739313E+03  0.87099988383E+03  0.50400001928E-02 0.  1.
       -1    1    3    3    0  502  0.17324297703E+03 -0.55771289530E+03  0.10058279851E+04  0.11630764112E+04  0.50400001928E-02 0. -1.
</event>
<event>
 5   0  0.2110896E-05  0.2012722E+04  0.7818609E-02  0.8600696E-01
        1   -1    0    0  501    0  0.00000000000E+00  0.00000000000E+00  0.10336246495E+04  0.10336246496E+04  0.50400001928E-02 0.  1.
       -1   -1    0    0    0  501  0.00000000000E+00  0.00000000000E+00 -0.97981600238E+03  0.97981600239E+03  0.50400001928E-02 0. -1.
    10030    2    1    2    0    0  0.00000000000E+00  0.00000000000E+00  0.53808647168E+02  0.20134406519E+04  0.20127215129E+04 0.  0.
        4    1    3    3  502    0  0.97717890516E+03 -0.22542730419E+03 -0.57174960657E+02  0.10044733302E+04  0.12699999809E+01 0. -1.
       -4    1    3    3    0  502 -0.97717890516E+03  0.22542730419E+03  0.11098360783E+03  0.10089673217E+04  0.12699999809E+01 0.  1.
</event>
<event>
 5   0  0.4412054E-05  0.1995017E+04  0.7818609E-02  0.8608954E-01
        2   -1    0    0  501    0  0.00000000000E+00  0.00000000000E+00  0.18262214291E+04  0.18262214291E+04  0.25500000920E-02 0.  1.
       -2   -1    0    0    0  501  0.00000000000E+00  0.00000000000E+00 -0.54485335410E+03  0.54485335411E+03  0.25500000920E-02 0. -1.
    10030    2    1    2    0    0  0.00000000000E+00  0.00000000000E+00  0.12813680750E+04  0.23710747832E+04  0.19950166626E+04 0.  0.
        4    1    3    3  502    0  0.69670354080E+03  0.57567216011E+03  0.13893624440E+03  0.91438457588E+03  0.12699999809E+01 0. -1.
       -4    1    3    3    0  502 -0.69670354080E+03 -0.57567216011E+03  0.11424318306E+04  0.14566902073E+04  0.12699999809E+01 0.  1.
</event>
<event>
 5   0  0.4412054E-05  0.2109422E+04  0.7818609E-02  0.8557104E-01
       -2   -1    0    0    0  501  0.00000000000E+00  0.00000000000E+00  0.18241694432E+04  0.18241694432E+04  0.25500000920E-02 0. -1.
        2   -1    0    0  501    0  0.00000000000E+00  0.00000000000E+00 -0.60982018288E+03  0.60982018289E+03  0.25500000920E-02 0.  1.
    10030    2    1    2    0    0  0.00000000000E+00  0.00000000000E+00  0.12143492604E+04  0.24339896261E+04  0.21094220474E+04 0.  0.
        4    1    3    3  502    0 -0.36086497383E+03 -0.78896286489E+03 -0.84882969791E+02  0.87171822453E+03  0.12699999809E+01 0.  1.
       -4    1    3    3    0  502  0.36086497383E+03  0.78896286489E+03  0.12992322301E+04  0.15622714016E+04  0.12699999809E+01 0. -1.
</event>
<event>
 5   0  0.2256868E-05  0.1994143E+04  0.7818609E-02  0.8609364E-01
        1   -1    0    0  501    0  0.00000000000E+00  0.00000000000E+00  0.65096490486E+03  0.65096490488E+03  0.50400001928E-02 0.  1.
       -1   -1    0    0    0  501  0.00000000000E+00  0.00000000000E+00 -0.15271963507E+04  0.15271963507E+04  0.50400001928E-02 0. -1.
    10030    2    1    2    0    0  0.00000000000E+00  0.00000000000E+00 -0.87623144587E+03  0.21781612556E+04  0.19941426501E+04 0.  0.
        5    1    3    3  502    0 -0.25058076693E+03  0.77354937445E+03 -0.10683901636E+04  0.13426276427E+04  0.46999998093E+01 0. -1.
       -5    1    3    3    0  502  0.25058076693E+03 -0.77354937445E+03  0.19215871768E+03  0.83553361288E+03  0.46999998093E+01 0.  1.
</event>
<event>
 5   0  0.4473361E-05  0.2002558E+04  0.7818609E-02  0.8605426E-01
       -2   -1    0    0    0  501  0.00000000000E+00  0.00000000000E+00  0.47508565852E+03  0.47508565852E+03  0.25500000920E-02 0. -1.
        2   -1    0    0  501    0  0.00000000000E+00  0.00000000000E+00 -0.21102711709E+04  0.21102711709E+04  0.25500000920E-02 0.  1.
    10030    2    1    2    0    0  0.00000000000E+00  0.00000000000E+00 -0.16351855123E+04  0.25853568294E+04  0.20025579331E+04 0.  0.
        2    1    3    3  502    0 -0.34796786903E+03  0.44783011344E+03 -0.18829258071E+04  0.19664798610E+04  0.25500000920E-02 0. -1.
       -2    1    3    3    0  502  0.34796786903E+03 -0.44783011344E+03  0.24774029479E+03  0.61887696843E+03  0.25500000920E-02 0.  1.
</event>
<event>
 5   0  0.2256868E-05  0.2002526E+04  0.7818609E-02  0.8605441E-01
        1   -1    0    0  501    0  0.00000000000E+00  0.00000000000E+00  0.75153218295E+03  0.75153218297E+03  0.50400001928E-02 0. -1.
       -1   -1    0    0    0  501  0.00000000000E+00  0.00000000000E+00 -0.13339784466E+04  0.13339784466E+04  0.50400001928E-02 0.  1.
    10030    2    1    2    0    0  0.00000000000E+00  0.00000000000E+00 -0.58244626364E+03  0.20855106296E+04  0.20025261387E+04 0.  0.
        5    1    3    3  502    0  0.44100791025E+03  0.84704015538E+03  0.22145845021E+02  0.95523689741E+03  0.46999998093E+01 0. -1.
       -5    1    3    3    0  502 -0.44100791025E+03 -0.84704015538E+03 -0.60459210866E+03  0.11302737321E+04  0.46999998093E+01 0.  1.
</event>
<event>
 5   0  0.4577279E-05  0.1996548E+04  0.7818609E-02  0.8608236E-01
        2   -1    0    0  501    0  0.00000000000E+00  0.00000000000E+00  0.15470200682E+04  0.15470200682E+04  0.25500000920E-02 0. -1.
       -2   -1    0    0    0  501  0.00000000000E+00  0.00000000000E+00 -0.64417436472E+03  0.64417436473E+03  0.25500000920E-02 0.  1.
    10030    2    1    2    0    0  0.00000000000E+00  0.00000000000E+00  0.90284570352E+03  0.21911944330E+04  0.19965476901E+04 0.  0.
        1    1    3    3  502    0  0.76147472145E+03 -0.63827908799E+02 -0.25356748174E+03  0.80511752010E+03  0.50400001928E-02 0.  1.
       -1    1    3    3    0  502 -0.76147472145E+03  0.63827908799E+02  0.11564131853E+04  0.13860769129E+04  0.50400001928E-02 0. -1.
</event>
<event>
 5   0  0.4412054E-05  0.1980208E+04  0.7818609E-02  0.8615930E-01
       -2   -1    0    0    0  501  0.00000000000E+00  0.00000000000E+00  0.35323343866E+03  0.35323343867E+03  0.25500000920E-02 0.  1.
        2   -1    0    0  501    0  0.00000000000E+00  0.00000000000E+00 -0.27752364216E+04  0.27752364216E+04  0.25500000920E-02 0. -1.
    10030    2    1    2    0    0  0.00000000000E+00  0.00000000000E+00 -0.24220029829E+04  0.31284698603E+04  0.19802083772E+04 0.  0.
        4    1    3    3  502    0  0.61869978508E+03  0.53249137755E+03 -0.32575561271E+03  0.87889409108E+03  0.12699999809E+01 0.  1.
       -4    1    3    3    0  502 -0.61869978508E+03 -0.53249137755E+03 -0.20962473702E+04  0.22495757692E+04  0.12699999809E+01 0. -1.
</event>
<event>
 5   0  0.2142551E-05  0.1991857E+04  0.7818609E-02  0.8610437E-01
       -1   -1    0    0    0  501  0.00000000000E+00  0.00000000000E+00  0.94306266293E+03  0.94306266294E+03  0.50400001928E-02 0.  1.
        1   -1    0    0  501    0  0.00000000000E+00  0.00000000000E+00 -0.10517583589E+04  0.10517583589E+04  0.50400001928E-02 0. -1.
    10030    2    1    2    0    0  0.00000000000E+00  0.00000000000E+00 -0.10869569596E+03  0.19948210218E+04  0.19918574635E+04 0.  0.
        3    1    3    3  502    0 -0.38728784678E+03 -0.25248190283E+03  0.82908423149E+03  0.94927322760E+03  0.10100000352E+00 0.  1.
       -3    1    3    3    0  502  0.38728784678E+03  0.25248190283E+03 -0.93777992745E+03  0.10455477942E+04  0.10100000352E+00 0. -1.
</event>
<event>
 5   0  0.4412054E-05  0.2006395E+04  0.7818609E-02  0.8603637E-01
       -2   -1    0    0    0  501  0.00000000000E+00  0.00000000000E+00  0.16484918568E+04  0.16484918568E+04  0.25500000920E-02 0. -1.
        2   -1    0    0  501    0  0.00000000000E+00  0.00000000000E+00 -0.61050027322E+03  0.61050027323E+03  0.25500000920E-02 0.  1.
    10030    2    1    2    0    0  0.00000000000E+00  0.00000000000E+00  0.10379915836E+04  0.22589921300E+04  0.20063945065E+04 0.  0.
        4    1    3    3  502    0  0.46741211699E+02  0.67057120121E+03  0.13574315191E+04  0.15147516030E+04  0.12699999809E+01 0. -1.
       -4    1    3    3    0  502 -0.46741211699E+02 -0.67057120121E+03 -0.31943993555E+03  0.74424052704E+03  0.12699999809E+01 0.  1.
</event>
<event>
 5   0  0.4447313E-05  0.1995133E+04  0.7818609E-02  0.8608900E-01
        2   -1    0    0  501    0  0.00000000000E+00  0.00000000000E+00  0.16215801769E+04  0.16215801770E+04  0.25500000920E-02 0.  1.
       -2   -1    0    0    0  501  0.00000000000E+00  0.00000000000E+00 -0.61368439882E+03  0.61368439883E+03  0.25500000920E-02 0. -1.
    10030    2    1    2    0    0  0.00000000000E+00  0.00000000000E+00  0.10078957781E+04  0.22352645758E+04  0.19951325330E+04 0.  0.
        5    1    3    3  502    0 -0.59368347614E+03 -0.75820535725E+03  0.21226499885E+03  0.98611051781E+03  0.46999998093E+01 0. -1.
       -5    1    3    3    0  502  0.59368347614E+03  0.75820535725E+03  0.79563077927E+03  0.12491540580E+04  0.46999998093E+01 0.  1.
</event>
<event>
 5   0  0.4577279E-05  0.2000078E+04  0.7818609E-02  0.8606584E-01
       -2   -1    0    0    0  501  0.00000000000E+00  0.00000000000E+00  0.12714337883E+04  0.12714337883E+04  0.25500000920E-02 0. -1.
        2   -1    0    0  501    0  0.00000000000E+00  0.00000000000E+00 -0.78657460728E+03  0.78657460729E+03  0.25500000920E-02 0.  1.
    10030    2    1    2    0    0  0.00000000000E+00  0.00000000000E+00  0.48485918099E+03  0.20580083956E+04  0.20000775312E+04 0.  0.
        1    1    3    3  502    0 -0.96414224660E+02 -0.15986860724E+03 -0.76848469850E+03  0.79083652302E+03  0.50400001928E-02 0.  1.
       -1    1    3    3    0  502  0.96414224660E+02  0.15986860724E+03  0.12533438795E+04  0.12671718725E+04  0.50400001928E-02 0. -1.
</event>
<event>
 5   0  0.2110896E-05  0.1998352E+04  0.7818609E-02  0.8607392E-01
       -1   -1    0    0    0  501  0.00000000000E+00  0.00000000000E+00  0.40935686102E+03  0.40935686105E+03  0.50400001928E-02 0.  1.
        1   -1    0    0  501    0  0.00000000000E+00  0.00000000000E+00 -0.24388322401E+04  0.24388322401E+04  0.50400001928E-02 0. -1.
    10030    2    1    2    0    0  0.00000000000E+00  0.00000000000E+00 -0.20294753790E+04  0.28481891011E+04  0.19983520314E+04 0.  0.
        4    1    3    3  502    0  0.77595934795E+03  0.15060949174E+03 -0.14362551649E+03  0.80338411147E+03  0.12699999809E+01 0.  1.
       -4    1    3    3    0  502 -0.77595934795E+03 -0.15060949174E+03 -0.18858498626E+04  0.20448049896E+04  0.12699999809E+01 0. -1.
</event>
<event>
 5   0  0.4577279E-05  0.2038742E+04  0.7818609E-02  0.8588719E-01
        2   -1    0    0  501    0  0.00000000000E+00  0.00000000000E+00  0.14286264094E+04  0.14286264094E+04  0.25500000920E-02 0. -1.
       -2   -1    0    0    0  501  0.00000000000E+00  0.00000000000E+00 -0.72735409533E+03  0.72735409533E+03  0.25500000920E-02 0.  1.
    10030    2    1    2    0    0  0.00000000000E+00  0.00000000000E+00  0.70127231410E+03  0.21559805048E+04  0.20387420333E+04 0.  0.
        1    1    3    3  502    0 -0.41222838221E+03  0.91592697577E+03  0.16667033473E+03  0.10181519850E+04  0.50400001928E-02 0.  1.
       -1    1    3    3    0  502  0.41222838221E+03 -0.91592697577E+03  0.53460197936E+03  0.11378285198E+04  0.50400001928E-02 0. -1.
</event>
<event>
 5   0  0.2093980E-05  0.2001306E+04  0.7818609E-02  0.8606010E-01
        1   -1    0    0  501    0  0.00000000000E+00  0.00000000000E+00  0.78648666223E+03  0.78648666224E+03  0.50400001928E-02 0. -1.
       -1   -1    0    0    0  501  0.00000000000E+00  0.00000000000E+00 -0.12731382538E+04  0.12731382538E+04  0.50400001928E-02 0.  1.
    10030    2    1    2    0    0  0.00000000000E+00  0.00000000000E+00 -0.48665159155E+03  0.20596249160E+04  0.20013058295E+04 0.  0.
        2    1    3    3  502    0 -0.80297791169E+03 -0.57831130351E+03 -0.39627964032E+03  0.10659526461E+04  0.25500000920E-02 0.  1.
       -2    1    3    3    0  502  0.80297791169E+03  0.57831130351E+03 -0.90371951234E+02  0.99367226992E+03  0.25500000920E-02 0. -1.
</event>
<event>
 5   0  0.4514680E-05  0.1997686E+04  0.7818609E-02  0.8607703E-01
       -2   -1    0    0    0  501  0.00000000000E+00  0.00000000000E+00  0.91218462289E+03  0.91218462289E+03  0.25500000920E-02 0. -1.
        2   -1    0    0  501    0  0.00000000000E+00  0.00000000000E+00 -0.10937340510E+04  0.10937340510E+04  0.25500000920E-02 0.  1.
    10030    2    1    2    0    0  0.00000000000E+00  0.00000000000E+00 -0.18154942811E+03  0.20059186739E+04  0.19976860443E+04 0.  0.
        3    1    3    3  502    0 -0.82503450003E+03  0.11175520698E+03 -0.64487873403E+03  0.10531095595E+04  0.10100000352E+00 0.  1.
       -3    1    3    3    0  502  0.82503450003E+03 -0.11175520698E+03  0.46332930592E+03  0.95280911439E+03  0.10100000352E+00 0. -1.
</event>
<event>
 5   0  0.2110896E-05  0.1997175E+04  0.7818609E-02  0.8607943E-01
        1   -1    0    0  501    0  0.00000000000E+00  0.00000000000E+00  0.95943263180E+03  0.95943263181E+03  0.50400001928E-02 0. -1.
       -1   -1    0    0    0  501  0.00000000000E+00  0.00000000000E+00 -0.10393403561E+04  0.10393403561E+04  0.50400001928E-02 0.  1.
    10030    2    1    2    0    0  0.00000000000E+00  0.00000000000E+00 -0.79907724262E+02  0.19987729879E+04  0.19971750581E+04 0.  0.
        4    1    3    3  502    0  0.94174172698E+03 -0.67044888289E+02 -0.36548775505E+03  0.10124008146E+04  0.12699999809E+01 0.  1.
       -4    1    3    3    0  502 -0.94174172698E+03  0.67044888289E+02  0.28558003079E+03  0.98637217330E+03  0.12699999809E+01 0. -1.
</event>
<event>
 5   0  0.2110896E-05  0.1996030E+04  0.7818609E-02  0.8608479E-01
       -1   -1    0    0    0  501  0.00000000000E+00  0.00000000000E+00  0.18951281781E+04  0.18951281781E+04  0.50400001928E-02 0.  1.
        1   -1    0    0  501    0  0.00000000000E+00  0.00000000000E+00 -0.52557626561E+03  0.52557626564E+03  0.50400001928E-02 0. -1.
    10030    2    1    2    0    0  0.00000000000E+00  0.00000000000E+00  0.13695519125E+04  0.24207044438E+04  0.19960304514E+04 0.  0.
        4    1    3    3  502    0 -0.96345655688E+03  0.24580586478E+03  0.58070652762E+03  0.11514732929E+04  0.12699999809E+01 0.  1.
       -4    1    3    3    0  502  0.96345655688E+03 -0.24580586478E+03  0.78884538488E+03  0.12692311509E+04  0.12699999809E+01 0. -1.
</event>
<event>
 5   0  0.4577279E-05  0.2005940E+04  0.7818609E-02  0.8603848E-01
       -2   -1    0    0    0  501  0.00000000000E+00  0.00000000000E+00  0.31530496248E+03  0.31530496249E+03  0.25500000920E-02 0.  1.
        2   -1    0    0  501    0  0.00000000000E+00  0.00000000000E+00 -0.31904002664E+04  0.31904002664E+04  0.25500000920E-02 0. -1.
    10030    2    1    2    0    0  0.00000000000E+00  0.00000000000E+00 -0.28750953040E+04  0.35057052289E+04  0.20059402148E+04 0.  0.
        1    1    3    3  502    0 -0.76458036869E+03  0.41117569356E+03 -0.55970552263E+03  0.10329176459E+04  0.50400001928E-02 0.  1.
       -1    1    3    3    0  502  0.76458036869E+03 -0.41117569356E+03 -0.23153897813E+04  0.24727875830E+04  0.50400001928E-02 0. -1.
</event>
<event>
 5   0  0.4412054E-05  0.2000111E+04  0.7818609E-02  0.8606569E-01
       -2   -1    0    0    0  501  0.00000000000E+00  0.00000000000E+00  0.65315421893E+03  0.65315421894E+03  0.25500000920E-02 0.  1.
        2   -1    0    0  501    0  0.00000000000E+00  0.00000000000E+00 -0.15312021694E+04  0.15312021694E+04  0.25500000920E-02 0. -1.
    10030    2    1    2    0    0  0.00000000000E+00  0.00000000000E+00 -0.87804795046E+03  0.21843563883E+04  0.20001111539E+04 0.  0.
        4    1    3    3  502    0  0.62882494507E+03 -0.10588230193E+03 -0.12803640138E+04  0.14303725018E+04  0.12699999809E+01 0. -1.
       -4    1    3    3    0  502 -0.62882494507E+03  0.10588230193E+03  0.40231606329E+03  0.75398388650E+03  0.12699999809E+01 0.  1.
</event>
<event>
 5   0  0.2256868E-05  0.2004815E+04  0.7818609E-02  0.8604373E-01
        1   -1    0    0  501    0  0.00000000000E+00  0.00000000000E+00  0.15876149660E+04  0.15876149661E+04  0.50400001928E-02 0. -1.
       -1   -1    0    0    0  501  0.00000000000E+00  0.00000000000E+00 -0.63291196715E+03  0.63291196717E+03  0.50400001928E-02 0.  1.
    10030    2    1    2    0    0  0.00000000000E+00  0.00000000000E+00  0.95470299890E+03  0.22205269332E+04  0.20048147159E+04 0.  0.
        5    1    3    3  502    0  0.81788372846E+03  0.45791897264E+03  0.83920850424E+02  0.94111018373E+03  0.46999998093E+01 0.  1.
       -5    1    3    3    0  502 -0.81788372846E+03 -0.45791897264E+03  0.87078214847E+03  0.12794167495E+04  0.46999998093E+01 0. -1.
</event>
<event>
 5   0  0.4577279E-05  0.2001826E+04  0.7818609E-02  0.8605767E-01
       -2   -1    0    0    0  501  0.00000000000E+00  0.00000000000E+00  0.57312539728E+03  0.57312539728E+03  0.25500000920E-02 0. -1.
        2   -1    0    0  501    0  0.00000000000E+00  0.00000000000E+00 -0.17480071080E+04  0.17480071080E+04  0.25500000920E-02 0.  1.
    10030    2    1    2    0    0  0.00000000000E+00  0.00000000000E+00 -0.11748817107E+04  0.23211325052E+04  0.20018264342E+04 0.  0.
        1    1    3    3  502    0 -0.36428997456E+03 -0.21441653881E+03 -0.16394314384E+04  0.16930496387E+04  0.50400001928E-02 0.  1.
       -1    1    3    3    0  502  0.36428997456E+03  0.21441653881E+03  0.46454972776E+03  0.62808286656E+03  0.50400001928E-02 0. -1.
</event>
<event>
 5   0  0.4514680E-05  0.1992207E+04  0.7818609E-02  0.8610273E-01
        2   -1    0    0  501    0  0.00000000000E+00  0.00000000000E+00  0.16796514536E+04  0.16796514536E+04  0.25500000920E-02 0.  1.
       -2   -1    0    0    0  501  0.00000000000E+00  0.00000000000E+00 -0.59073107253E+03  0.59073107254E+03  0.25500000920E-02 0. -1.
    10030    2    1    2    0    0  0.00000000000E+00  0.00000000000E+00  0.10889203810E+04  0.22703825261E+04  0.19922071224E+04 0.  0.
        3    1    3    3  502    0 -0.71588179455E+03 -0.28587897677E+03  0.12634303462E+04  0.14800235752E+04  0.10100000352E+00 0.  1.
       -3    1    3    3    0  502  0.71588179455E+03  0.28587897677E+03 -0.17450996520E+03  0.79035895091E+03  0.10100000352E+00 0. -1.
</event>
<event>
 5   0  0.2007644E-05  0.1973032E+04  0.7818609E-02  0.8619334E-01
       -1   -1    0    0    0  501  0.00000000000E+00  0.00000000000E+00  0.71659960816E+03  0.71659960818E+03  0.50400001928E-02 0. -1.
        1   -1    0    0  501    0  0.00000000000E+00  0.00000000000E+00 -0.13580998663E+04  0.13580998664E+04  0.50400001928E-02 0.  1.
    10030    2    1    2    0    0  0.00000000000E+00  0.00000000000E+00 -0.64150025818E+03  0.20746994745E+04  0.19730320140E+04 0.  0.
        1    1    3    3  502    0 -0.45959728264E+03 -0.54270304695E+03  0.39818907192E+03  0.81505263413E+03  0.50400001928E-02 0. -1.
       -1    1    3    3    0  502  0.45959728264E+03  0.54270304695E+03 -0.10396893301E+04  0.12596468404E+04  0.50400001928E-02 0.  1.
</event>
<event>
 5   0  0.2007644E-05  0.2005459E+04  0.7818609E-02  0.8604073E-01
        1   -1    0    0  501    0  0.00000000000E+00  0.00000000000E+00  0.17179401947E+04  0.17179401947E+04  0.50400001928E-02 0.  1.
       -1   -1    0    0    0  501  0.00000000000E+00  0.00000000000E+00 -0.58527413664E+03  0.58527413666E+03  0.50400001928E-02 0. -1.
    10030    2    1    2    0    0  0.00000000000E+00  0.00000000000E+00  0.11326660581E+04  0.23032143314E+04  0.20054585155E+04 0.  0.
        1    1    3    3  502    0 -0.41452149250E+02  0.92969454015E+03  0.99515456141E+03  0.13624914017E+04  0.50400001928E-02 0.  1.
       -1    1    3    3    0  502  0.41452149250E+02 -0.92969454015E+03  0.13751149667E+03  0.94072292966E+03  0.50400001928E-02 0. -1.
</event>
<event>
 5   0  0.2142551E-05  0.2000323E+04  0.7818609E-02  0.8606470E-01
        1   -1    0    0  501    0  0.00000000000E+00  0.00000000000E+00  0.15554752105E+04  0.15554752105E+04  0.50400001928E-02 0.  1.
       -1   -1    0    0    0  501  0.00000000000E+00  0.00000000000E+00 -0.64309791488E+03  0.64309791490E+03  0.50400001928E-02 0. -1.
    10030    2    1    2    0    0  0.00000000000E+00  0.00000000000E+00  0.91237729559E+03  0.21985731254E+04  0.20003228385E+04 0.  0.
        3    1    3    3  502    0 -0.13336763768E+03 -0.83925918525E+03  0.10358892239E+04  0.13398542462E+04  0.10100000352E+00 0.  1.
       -3    1    3    3    0  502  0.13336763768E+03  0.83925918525E+03 -0.12351192826E+03  0.85871887917E+03  0.10100000352E+00 0. -1.
</event>
<event>
 5   0  0.2256868E-05  0.1941246E+04  0.7818609E-02  0.8634593E-01
        1   -1    0    0  501    0  0.00000000000E+00  0.00000000000E+00  0.13723981485E+04  0.13723981485E+04  0.50400001928E-02 0.  1.
       -1   -1    0    0    0  501  0.00000000000E+00  0.00000000000E+00 -0.68646944358E+03  0.68646944359E+03  0.50400001928E-02 0. -1.
    10030    2    1    2    0    0  0.00000000000E+00  0.00000000000E+00  0.68592870494E+03  0.20588675921E+04  0.19412463969E+04 0.  0.
        5    1    3    3  502    0  0.26563338302E+03 -0.91841271458E+03  0.52057541722E+03  0.10886063859E+04  0.46999998093E+01 0.  1.
       -5    1    3    3    0  502 -0.26563338302E+03  0.91841271458E+03  0.16535328773E+03  0.97026120619E+03  0.46999998093E+01 0. -1.
</event>
<event>
 5   0  0.2142551E-05  0.2003328E+04  0.7818609E-02  0.8605066E-01
       -1   -1    0    0    0  501  0.00000000000E+00  0.00000000000E+00  0.44587753683E+03  0.44587753686E+03  0.50400001928E-02 0. -1.
        1   -1    0    0  501    0  0.00000000000E+00  0.00000000000E+00 -0.22502392278E+04  0.22502392278E+04  0.50400001928E-02 0.  1.
    10030    2    1    2    0    0  0.00000000000E+00  0.00000000000E+00 -0.18043616910E+04  0.26961167647E+04  0.20033283548E+04 0.  0.
        3    1    3    3  502    0 -0.41458022545E+03 -0.55176529585E+03 -0.18791834994E+04  0.20019121708E+04  0.10100000352E+00 0.  1.
       -3    1    3    3    0  502  0.41458022545E+03  0.55176529585E+03  0.74821808345E+02  0.69420459394E+03  0.10100000352E+00 0. -1.
</event>
<event>
 5   0  0.4412054E-05  0.1999081E+04  0.7818609E-02  0.8607050E-01
       -2   -1    0    0    0  501  0.00000000000E+00  0.00000000000E+00  0.58874789702E+03  0.58874789702E+03  0.25500000920E-02 0.  1.
        2   -1    0    0  501    0  0.00000000000E+00  0.00000000000E+00 -0.16969593070E+04  0.16969593070E+04  0.25500000920E-02 0. -1.
    10030    2    1    2    0    0  0.00000000000E+00  0.00000000000E+00 -0.11082114100E+04  0.22857072040E+04  0.19990810122E+04 0.  0.
        4    1    3    3  502    0 -0.91707106855E+03  0.63418827138E+02 -0.10028558344E+04  0.13604274071E+04  0.12699999809E+01 0. -1.
       -4    1    3    3    0  502  0.91707106855E+03 -0.63418827138E+02 -0.10535557555E+03  0.92527979693E+03  0.12699999809E+01 0.  1.
</event>
<event>
 5   0  0.4577279E-05  0.1996038E+04  0.7818609E-02  0.8608475E-01
       -2   -1    0    0    0  501  0.00000000000E+00  0.00000000000E+00  0.51320859713E+03  0.51320859714E+03  0.25500000920E-02 0. -1.
        2   -1    0    0  501    0  0.00000000000E+00  0.00000000000E+00 -0.19408136231E+04  0.19408136231E+04  0.25500000920E-02 0.  1.
    10030    2    1    2    0    0  0.00000000000E+00  0.00000000000E+00 -0.14276050259E+04  0.24540222202E+04  0.19960383131E+04 0.  0.
        1    1    3    3  502    0  0.72336281606E+03 -0.15341122479E+03 -0.15378558785E+04  0.17063966334E+04  0.50400001928E-02 0.  1.
       -1    1    3    3    0  502 -0.72336281606E+03  0.15341122479E+03  0.11025085252E+03  0.74762558681E+03  0.50400001928E-02 0. -1.
</event>
<event>
 5   0  0.2093980E-05  0.1973356E+04  0.7818609E-02  0.8619180E-01
       -1   -1    0    0    0  501  0.00000000000E+00  0.00000000000E+00  0.65529675439E+03  0.65529675441E+03  0.50400001928E-02 0. -1.
        1   -1    0    0  501    0  0.00000000000E+00  0.00000000000E+00 -0.14856381529E+04  0.14856381529E+04  0.50400001928E-02 0.  1.
    10030    2    1    2    0    0  0.00000000000E+00  0.00000000000E+00 -0.83034139847E+03  0.21409349073E+04  0.19733563893E+04 0.  0.
        2    1    3    3  502    0 -0.52298599262E+03 -0.83614120451E+03 -0.44748963288E+03  0.10830020470E+04  0.25500000920E-02 0. -1.
       -2    1    3    3    0  502  0.52298599262E+03  0.83614120451E+03 -0.38285176559E+03  0.10579328602E+04  0.25500000920E-02 0.  1.
</event>
<event>
 5   0  0.4447313E-05  0.2020821E+04  0.7818609E-02  0.8596947E-01
       -2   -1    0    0    0  501  0.00000000000E+00  0.00000000000E+00  0.71369006041E+03  0.71369006042E+03  0.25500000920E-02 0.  1.
        2   -1    0    0  501    0  0.00000000000E+00  0.00000000000E+00 -0.14304944489E+04  0.14304944489E+04  0.25500000920E-02 0. -1.
    10030    2    1    2    0    0  0.00000000000E+00  0.00000000000E+00 -0.71680438852E+03  0.21441845094E+04  0.20208212882E+04 0.  0.
        5    1    3    3  502    0  0.64756269197E+03 -0.37532347270E+02 -0.11803955336E+04  0.13468859725E+04  0.46999998093E+01 0. -1.
       -5    1    3    3    0  502 -0.64756269197E+03  0.37532347270E+02  0.46359114507E+03  0.79729853688E+03  0.46999998093E+01 0.  1.
</event>
<event>
 5   0  0.2093980E-05  0.1981368E+04  0.7818609E-02  0.8615381E-01
        1   -1    0    0  501    0  0.00000000000E+00  0.00000000000E+00  0.91525679471E+03  0.91525679473E+03  0.50400001928E-02 0.  1.
       -1   -1    0    0    0  501  0.00000000000E+00  0.00000000000E+00 -0.10723277294E+04  0.10723277294E+04  0.50400001928E-02 0. -1.
    10030    2    1    2    0    0  0.00000000000E+00  0.00000000000E+00 -0.15707093467E+03  0.19875845241E+04  0.19813684569E+04 0.  0.
        2    1    3    3  502    0  0.11923533145E+03  0.90053252229E+03  0.31802659399E+03  0.96245353263E+03  0.25500000920E-02 0.  1.
       -2    1    3    3    0  502 -0.11923533145E+03 -0.90053252229E+03 -0.47509752866E+03  0.10251309915E+04  0.25500000920E-02 0. -1.
</event>
<event>
 5   0  0.4473361E-05  0.1998954E+04  0.7818609E-02  0.8607110E-01
       -2   -1    0    0    0  501  0.00000000000E+00  0.00000000000E+00  0.74158701608E+03  0.74158701608E+03  0.25500000920E-02 0. -1.
        2   -1    0    0  501    0  0.00000000000E+00  0.00000000000E+00 -0.13470493946E+04  0.13470493946E+04  0.25500000920E-02 0.  1.
    10030    2    1    2    0    0  0.00000000000E+00  0.00000000000E+00 -0.60546237852E+03  0.20886364107E+04  0.19989540676E+04 0.  0.
        2    1    3    3  502    0  0.99101997656E+03  0.12953600149E+03 -0.31042152302E+03  0.10465475104E+04  0.25500000920E-02 0. -1.
       -2    1    3    3    0  502 -0.99101997656E+03 -0.12953600149E+03 -0.29504085550E+03  0.10420889003E+04  0.25500000920E-02 0.  1.
</event>
<event>
 5   0  0.4514680E-05  0.1996939E+04  0.7818609E-02  0.8608053E-01
        2   -1    0    0  501    0  0.00000000000E+00  0.00000000000E+00  0.14448974540E+04  0.14448974540E+04  0.25500000920E-02 0.  1.
       -2   -1    0    0    0  501  0.00000000000E+00  0.00000000000E+00 -0.68997366968E+03  0.68997366968E+03  0.25500000920E-02 0. -1.
    10030    2    1    2    0    0  0.00000000000E+00  0.00000000000E+00  0.75492378429E+03  0.21348711237E+04  0.19969388560E+04 0.  0.
        3    1    3    3  502    0  0.18506270028E+03 -0.36306213294E+03 -0.59702444313E+03  0.72284196842E+03  0.10100000352E+00 0. -1.
       -3    1    3    3    0  502 -0.18506270028E+03  0.36306213294E+03  0.13519482274E+04  0.14120291552E+04  0.10100000352E+00 0.  1.
</event>
<event>
 5   0  0.1601500E-05  0.1998663E+04  0.7818609E-02  0.8607246E-01
       -3   -1    0    0    0  501  0.00000000000E+00  0.00000000000E+00  0.67945704665E+03  0.67945705415E+03  0.10100000352E+00 0.  1.
        3   -1    0    0  501    0  0.00000000000E+00  0.00000000000E+00 -0.14697968083E+04  0.14697968118E+04  0.10100000352E+00 0. -1.
    10030    2    1    2    0    0  0.00000000000E+00  0.00000000000E+00 -0.79033976168E+03  0.21492538660E+04  0.19986633637E+04 0.  0.
        5    1    3    3  502    0 -0.13251109203E+03  0.14045741975E+03  0.65919222494E+03  0.68690898648E+03  0.46999998093E+01 0.  1.
       -5    1    3    3    0  502  0.13251109203E+03 -0.14045741975E+03 -0.14495319866E+04  0.14623448795E+04  0.46999998093E+01 0. -1.
</event>
<event>
 5   0  0.4577279E-05  0.2006875E+04  0.7818609E-02  0.8603413E-01
        2   -1    0    0  501    0  0.00000000000E+00  0.00000000000E+00  0.14706306723E+04  0.14706306723E+04  0.25500000920E-02 0. -1.
       -2   -1    0    0    0  501  0.00000000000E+00  0.00000000000E+00 -0.68466332773E+03  0.68466332773E+03  0.25500000920E-02 0.  1.
    10030    2    1    2    0    0  0.00000000000E+00  0.00000000000E+00  0.78596734460E+03  0.21552940001E+04  0.20068750733E+04 0.  0.
        1    1    3    3  502    0  0.62604978629E+03 -0.25631968350E+03  0.11889060763E+04  0.13678946499E+04  0.50400001928E-02 0. -1.
       -1    1    3    3    0  502 -0.62604978629E+03  0.25631968350E+03 -0.40293873169E+03  0.78739935013E+03  0.50400001928E-02 0.  1.
</event>
<event>
 5   0  0.4412054E-05  0.2000581E+04  0.7818609E-02  0.8606349E-01
        2   -1    0    0  501    0  0.00000000000E+00  0.00000000000E+00  0.13649774212E+04  0.13649774212E+04  0.25500000920E-02 0. -1.
       -2   -1    0    0    0  501  0.00000000000E+00  0.00000000000E+00 -0.73303866685E+03  0.73303866685E+03  0.25500000920E-02 0.  1.
    10030    2    1    2    0    0  0.00000000000E+00  0.00000000000E+00  0.63193875433E+03  0.20980160880E+04  0.20005811447E+04 0.  0.
        4    1    3    3  502    0  0.46060376957E+02  0.86161451414E+03  0.84665728301E+03  0.12088553665E+04  0.12699999809E+01 0. -1.
       -4    1    3    3    0  502 -0.46060376957E+02 -0.86161451414E+03 -0.21471852868E+03  0.88916072155E+03  0.12699999809E+01 0.  1.
</event>
<event>
 5   0  0.2256868E-05  0.1992881E+04  0.7818609E-02  0.8609956E-01
        1   -1    0    0  501    0  0.00000000000E+00  0.00000000000E+00  0.83414031910E+03  0.83414031911E+03  0.50400001928E-02 0.  1.
       -1   -1    0    0    0  501  0.00000000000E+00  0.00000000000E+00 -0.11903195500E+04  0.11903195500E+04  0.50400001928E-02 0. -1.
    10030    2    1    2    0    0  0.00000000000E+00  0.00000000000E+00 -0.35617923087E+03  0.20244598691E+04  0.19928808587E+04 0.  0.
        5    1    3    3  502    0 -0.18617234829E+02  0.53258718833E+03 -0.10333786192E+04  0.11627076912E+04  0.46999998093E+01 0. -1.
       -5    1    3    3    0  502  0.18617234829E+02 -0.53258718833E+03  0.67719938830E+03  0.86175217790E+03  0.46999998093E+01 0.  1.
</event>
<event>
 5   0  0.2110896E-05  0.2001948E+04  0.7818609E-02  0.8605710E-01
        1   -1    0    0  501    0  0.00000000000E+00  0.00000000000E+00  0.90445489404E+03  0.90445489405E+03  0.50400001928E-02 0. -1.
       -1   -1    0    0    0  501  0.00000000000E+00  0.00000000000E+00 -0.11077936111E+04  0.11077936111E+04  0.50400001928E-02 0.  1.
    10030    2    1    2    0    0  0.00000000000E+00  0.00000000000E+00 -0.20333871704E+03  0.20122485051E+04  0.20019484041E+04 0.  0.
        4    1    3    3  502    0  0.23930438181E+03 -0.16757912777E+03  0.86064790734E+03  0.90888161195E+03  0.12699999809E+01 0. -1.
       -4    1    3    3    0  502 -0.23930438181E+03  0.16757912777E+03 -0.10639866244E+04  0.11033668932E+04  0.12699999809E+01 0.  1.
</event>
<event>
 5   0  0.2256868E-05  0.1998544E+04  0.7818609E-02  0.8607302E-01
       -1   -1    0    0    0  501  0.00000000000E+00  0.00000000000E+00  0.10998641401E+04  0.10998641401E+04  0.50400001928E-02 0.  1.
        1   -1    0    0  501    0  0.00000000000E+00  0.00000000000E+00 -0.90787973540E+03  0.90787973541E+03  0.50400001928E-02 0. -1.
    10030    2    1    2    0    0  0.00000000000E+00  0.00000000000E+00  0.19198440469E+03  0.20077438755E+04  0.19985438344E+04 0.  0.
        5    1    3    3  502    0  0.92038484265E+03 -0.14460448927E+03  0.45890794465E+03  0.10385746524E+04  0.46999998093E+01 0.  1.
       -5    1    3    3    0  502 -0.92038484265E+03  0.14460448927E+03 -0.26692353996E+03  0.96916922314E+03  0.46999998093E+01 0. -1.
</event>
<event>
 5   0  0.4514680E-05  0.2005996E+04  0.7818609E-02  0.8603823E-01
       -2   -1    0    0    0  501  0.00000000000E+00  0.00000000000E+00  0.53689979319E+03  0.53689979319E+03  0.25500000920E-02 0.  1.
        2   -1    0    0  501    0  0.00000000000E+00  0.00000000000E+00 -0.18737293168E+04  0.18737293168E+04  0.25500000920E-02 0. -1.
    10030    2    1    2    0    0  0.00000000000E+00  0.00000000000E+00 -0.13368295236E+04  0.24106291100E+04  0.20059958950E+04 0.  0.
        3    1    3    3  502    0  0.23887991525E+02  0.91412172414E+03 -0.17320489517E+03  0.93069281108E+03  0.10100000352E+00 0.  1.
       -3    1    3    3    0  502 -0.23887991525E+02 -0.91412172414E+03 -0.11636246284E+04  0.14799362989E+04  0.10100000352E+00 0. -1.
</event>
<event>
 5   0  0.4473361E-05  0.1955550E+04  0.7818609E-02  0.8627689E-01
        2   -1    0    0  501    0  0.00000000000E+00  0.00000000000E+00  0.12537522015E+04  0.12537522015E+04  0.25500000920E-02 0. -1.
       -2   -1    0    0    0  501  0.00000000000E+00  0.00000000000E+00 -0.76254606147E+03  0.76254606147E+03  0.25500000920E-02 0.  1.
    10030    2    1    2    0    0  0.00000000000E+00  0.00000000000E+00  0.49120613999E+03  0.20162982629E+04  0.19555498493E+04 0.  0.
        2    1    3    3  502    0 -0.53037469748E+03 -0.44750655849E+03  0.95582951230E+03  0.11811729324E+04  0.25500000920E-02 0. -1.
       -2    1    3    3    0  502  0.53037469748E+03  0.44750655849E+03 -0.46462337231E+03  0.83512533055E+03  0.25500000920E-02 0.  1.
</event>
<event>
 5   0  0.4447313E-05  0.1998578E+04  0.7818609E-02  0.8607286E-01
        2   -1    0    0  501    0  0.00000000000E+00  0.00000000000E+00  0.17083034276E+04  0.17083034277E+04  0.25500000920E-02 0.  1.
       -2   -1    0    0    0  501  0.00000000000E+00  0.00000000000E+00 -0.58454373738E+03  0.58454373739E+03  0.25500000920E-02 0. -1.
    10030    2    1    2    0    0  0.00000000000E+00  0.00000000000E+00  0.11237596903E+04  0.22928471650E+04  0.19985775644E+04 0.  0.
        5    1    3    3  502    0  0.21128313974E+03 -0.31187495120E+03  0.16237114900E+04  0.16668436168E+04  0.46999998093E+01 0.  1.
       -5    1    3    3    0  502 -0.21128313974E+03  0.31187495120E+03 -0.49995179971E+03  0.62600354820E+03  0.46999998093E+01 0. -1.
</event>
<event>
 5   0  0.2110896E-05  0.2002203E+04  0.7818609E-02  0.8605591E-01
       -1   -1    0    0    0  501  0.00000000000E+00  0.00000000000E+00  0.66674215175E+03  0.66674215177E+03  0.50400001928E-02 0. -1.
        1   -1    0    0  501    0  0.00000000000E+00  0.00000000000E+00 -0.15031358802E+04  0.15031358802E+04  0.50400001928E-02 0.  1.
    10030    2    1    2    0    0  0.00000000000E+00  0.00000000000E+00 -0.83639372844E+03  0.21698780320E+04  0.20022028380E+04 0.  0.
        4    1    3    3  502    0 -0.98283941585E+02  0.95200080920E+03 -0.99942414707E+02  0.96226574970E+03  0.12699999809E+01 0. -1.
       -4    1    3    3    0  502  0.98283941585E+02 -0.95200080920E+03 -0.73645131373E+03  0.12076122823E+04  0.12699999809E+01 0.  1.
</event>
<event>
 5   0  0.2007644E-05  0.1951721E+04  0.7818609E-02  0.8629531E-01
       -1   -1    0    0    0  501  0.00000000000E+00  0.00000000000E+00  0.52317009454E+03  0.52317009457E+03  0.50400001928E-02 0. -1.
        1   -1    0    0  501    0  0.00000000000E+00  0.00000000000E+00 -0.18202559613E+04  0.18202559613E+04  0.50400001928E-02 0.  1.
    10030    2    1    2    0    0  0.00000000000E+00  0.00000000000E+00 -0.12970858667E+04  0.23434260559E+04  0.19517207622E+04 0.  0.
        1    1    3    3  502    0 -0.55937064316E+03 -0.21826800206E+03 -0.15721961792E+04  0.16829549201E+04  0.50400001928E-02 0.  1.
       -1    1    3    3    0  502  0.55937064316E+03  0.21826800206E+03  0.27511031245E+03  0.66047113577E+03  0.50400001928E-02 0. -1.
</event>
<event>
 5   0  0.4473361E-05  0.1976811E+04  0.7818609E-02  0.8617540E-01
       -2   -1    0    0    0  501  0.00000000000E+00  0.00000000000E+00  0.19131636882E+04  0.19131636882E+04  0.25500000920E-02 0.  1.
        2   -1    0    0  501    0  0.00000000000E+00  0.00000000000E+00 -0.51064382765E+03  0.51064382766E+03  0.25500000920E-02 0. -1.
    10030    2    1    2    0    0  0.00000000000E+00  0.00000000000E+00  0.14025198606E+04  0.24238075159E+04  0.19768107939E+04 0.  0.
        2    1    3    3  502    0 -0.73638385771E+03 -0.52128449157E+03  0.11962033688E+04  0.14982994382E+04  0.25500000920E-02 0.  1.
       -2    1    3    3    0  502  0.73638385771E+03  0.52128449157E+03  0.20631649178E+03  0.92550807767E+03  0.25500000920E-02 0. -1.
</event>
<event>
 5   0  0.1601500E-05  0.2022886E+04  0.7818609E-02  0.8595995E-01
        3   -1    0    0  501    0  0.00000000000E+00  0.00000000000E+00  0.21937409354E+04  0.21937409378E+04  0.10100000352E+00 0. -1.
       -3   -1    0    0    0  501  0.00000000000E+00  0.00000000000E+00 -0.46633422262E+03  0.46633423356E+03  0.10100000352E+00 0.  1.
    10030    2    1    2    0    0  0.00000000000E+00  0.00000000000E+00  0.17274067128E+04  0.26600751713E+04  0.20228855542E+04 0.  0.
        3    1    3    3  502    0 -0.18852263225E+03  0.69559106100E+03  0.17969100905E+04  0.19360458648E+04  0.10100000352E+00 0. -1.
       -3    1    3    3    0  502  0.18852263225E+03 -0.69559106100E+03 -0.69503377682E+02  0.72402930653E+03  0.10100000352E+00 0.  1.
</event>
<event>
 5   0  0.2110896E-05  0.1995897E+04  0.7818609E-02  0.8608541E-01
       -1   -1    0    0    0  501  0.00000000000E+00  0.00000000000E+00  0.99851788057E+03  0.99851788058E+03  0.50400001928E-02 0. -1.
        1   -1    0    0  501    0  0.00000000000E+00  0.00000000000E+00 -0.99737943247E+03  0.99737943248E+03  0.50400001928E-02 0.  1.
    10030    2    1    2    0    0  0.00000000000E+00  0.00000000000E+00  0.11384481008E+01  0.19958973131E+04  0.19958969884E+04 0.  0.
        4    1    3    3  502    0  0.97005437462E+03 -0.21779425352E+02 -0.23271122685E+03  0.99781559473E+03  0.12699999809E+01 0.  1.
       -4    1    3    3    0  502 -0.97005437462E+03  0.21779425352E+02  0.23384967495E+03  0.99808171833E+03  0.12699999809E+01 0. -1.
</event>
<event>
 5   0  0.4412054E-05  0.1988753E+04  0.7818609E-02  0.8611897E-01
       -2   -1    0    0    0  501  0.00000000000E+00  0.00000000000E+00  0.51156346686E+03  0.51156346687E+03  0.25500000920E-02 0.  1.
        2   -1    0    0  501    0  0.00000000000E+00  0.00000000000E+00 -0.19328679919E+04  0.19328679919E+04  0.25500000920E-02 0. -1.
    10030    2    1    2    0    0  0.00000000000E+00  0.00000000000E+00 -0.14213045250E+04  0.24444314587E+04  0.19887530273E+04 0.  0.
        4    1    3    3  502    0  0.74360136141E+03 -0.64811906532E+03 -0.86506187097E+03  0.13119965553E+04  0.12699999809E+01 0. -1.
       -4    1    3    3    0  502 -0.74360136141E+03  0.64811906532E+03 -0.55624265404E+03  0.11324349035E+04  0.12699999809E+01 0.  1.
</event>
<event>
 5   0  0.2256868E-05  0.1999205E+04  0.7818609E-02  0.8606992E-01
        1   -1    0    0  501    0  0.00000000000E+00  0.00000000000E+00  0.11618849455E+04  0.11618849456E+04  0.50400001928E-02 0.  1.
       -1   -1    0    0    0  501  0.00000000000E+00  0.00000000000E+00 -0.85998640506E+03  0.85998640508E+03  0.50400001928E-02 0. -1.
    10030    2    1    2    0    0  0.00000000000E+00  0.00000000000E+00  0.30189854048E+03  0.20218713506E+04  0.19992050995E+04 0.  0.
        5    1    3    3  502    0 -0.29670328241E+03 -0.95395017839E+03  0.11696190315E+03  0.10058608042E+04  0.46999998093E+01 0. -1.
       -5    1    3    3    0  502  0.29670328241E+03  0.95395017839E+03  0.18493663734E+03  0.10160105464E+04  0.46999998093E+01 0.  1.
</event>
<event>
 5   0  0.4447313E-05  0.2002966E+04  0.7818609E-02  0.8605235E-01
        2   -1    0    0  501    0  0.00000000000E+00  0.00000000000E+00  0.21269095954E+04  0.21269095954E+04  0.25500000920E-02 0.  1.
       -2   -1    0    0    0  501  0.00000000000E+00  0.00000000000E+00 -0.47156111093E+03  0.47156111094E+03  0.25500000920E-02 0. -1.
    10030    2    1    2    0    0  0.00000000000E+00  0.00000000000E+00  0.16553484844E+04  0.25984707063E+04  0.20029656529E+04 0.  0.
        5    1    3    3  502    0 -0.48079716738E+03 -0.52536944238E+02  0.19653357391E+04  0.20239794229E+04  0.46999998093E+01 0.  1.
       -5    1    3    3    0  502  0.48079716738E+03  0.52536944238E+02 -0.30998725470E+03  0.57449128344E+03  0.46999998093E+01 0. -1.
</event>
<event>
 5   0  0.4577279E-05  0.2007376E+04  0.7818609E-02  0.8603180E-01
        2   -1    0    0  501    0  0.00000000000E+00  0.00000000000E+00  0.79348403843E+03  0.79348403843E+03  0.25500000920E-02 0.  1.
       -2   -1    0    0    0  501  0.00000000000E+00  0.00000000000E+00 -0.12695772917E+04  0.12695772917E+04  0.25500000920E-02 0. -1.
    10030    2    1    2    0    0  0.00000000000E+00  0.00000000000E+00 -0.47609325325E+03  0.20630613301E+04  0.20073757162E+04 0.  0.
        1    1    3    3  502    0  0.65700437165E+03  0.18487414796E+03 -0.99436596898E+03  0.12060666960E+04  0.50400001928E-02 0. -1.
       -1    1    3    3    0  502 -0.65700437165E+03 -0.18487414796E+03  0.51827271573E+03  0.85699463409E+03  0.50400001928E-02 0.  1.
</event>
<event>
 5   0  0.2142551E-05  0.1986902E+04  0.7818609E-02  0.8612769E-01
       -1   -1    0    0    0  501  0.00000000000E+00  0.00000000000E+00  0.13980384229E+04  0.13980384230E+04  0.50400001928E-02 0.  1.
        1   -1    0    0  501    0  0.00000000000E+00  0.00000000000E+00 -0.70594947456E+03  0.70594947458E+03  0.50400001928E-02 0. -1.
    10030    2    1    2    0    0  0.00000000000E+00  0.00000000000E+00  0.69208894838E+03  0.21039878975E+04  0.19869015981E+04 0.  0.
        3    1    3    3  502    0  0.40214787623E+03 -0.83689903499E+03  0.72016514130E+03  0.11750577646E+04  0.10100000352E+00 0.  1.
       -3    1    3    3    0  502 -0.40214787623E+03  0.83689903499E+03 -0.28076192914E+02  0.92893013297E+03  0.10100000352E+00 0. -1.
</event>
<event>
 5   0  0.2110896E-05  0.1994760E+04  0.7818609E-02  0.8609074E-01
        1   -1    0    0  501    0  0.00000000000E+00  0.00000000000E+00  0.46929954732E+03  0.46929954735E+03  0.50400001928E-02 0.  1.
       -1   -1    0    0    0  501  0.00000000000E+00  0.00000000000E+00 -0.21196844022E+04  0.21196844022E+04  0.50400001928E-02 0. -1.
    10030    2    1    2    0    0  0.00000000000E+00  0.00000000000E+00 -0.16503848549E+04  0.25889839495E+04  0.19947600662E+04 0.  0.
        4    1    3    3  502    0  0.82613134433E+03  0.48341857803E+03 -0.11890164598E+04  0.15264168088E+04  0.12699999809E+01 0.  1.
       -4    1    3    3    0  502 -0.82613134433E+03 -0.48341857803E+03 -0.46136839507E+03  0.10625671407E+04  0.12699999809E+01 0. -1.
</event>
<event>
 5   0  0.2110896E-05  0.2000048E+04  0.7818609E-02  0.8606598E-01
       -1   -1    0    0    0  501  0.00000000000E+00  0.00000000000E+00  0.12188320420E+04  0.12188320420E+04  0.50400001928E-02 0. -1.
        1   -1    0    0  501    0  0.00000000000E+00  0.00000000000E+00 -0.82049726536E+03  0.82049726537E+03  0.50400001928E-02 0.  1.
    10030    2    1    2    0    0  0.00000000000E+00  0.00000000000E+00  0.39833477666E+03  0.20393293074E+04  0.20000483569E+04 0.  0.
        4    1    3    3  502    0  0.51323179624E+03  0.82423592000E+03  0.44318966474E+03  0.10673286375E+04  0.12699999809E+01 0.  1.
       -4    1    3    3    0  502 -0.51323179624E+03 -0.82423592000E+03 -0.44854888082E+02  0.97200066995E+03  0.12699999809E+01 0. -1.
</event>
<event>
 5   0  0.2110896E-05  0.1994119E+04  0.7818609E-02  0.8609375E-01
        1   -1    0    0  501    0  0.00000000000E+00  0.00000000000E+00  0.11961644914E+04  0.11961644914E+04  0.50400001928E-02 0. -1.
       -1   -1    0    0    0  501  0.00000000000E+00  0.00000000000E+00 -0.83109575487E+03  0.83109575488E+03  0.50400001928E-02 0.  1.
    10030    2    1    2    0    0  0.00000000000E+00  0.00000000000E+00  0.36506873656E+03  0.20272602463E+04  0.19941185832E+04 0.  0.
        4    1    3    3  502    0  0.15552196986E+03 -0.38496850160E+03  0.11040976289E+04  0.11795851039E+04  0.12699999809E+01 0. -1.
       -4    1    3    3    0  502 -0.15552196986E+03  0.38496850160E+03 -0.73902889237E+03  0.84767514237E+03  0.12699999809E+01 0.  1.
</event>
<event>
 5   0  0.2007644E-05  0.2012884E+04  0.7818609E-02  0.8600620E-01
        1   -1    0    0  501    0  0.00000000000E+00  0.00000000000E+00  0.17141043752E+04  0.17141043752E+04  0.50400001928E-02 0. -1.
       -1   -1    0    0    0  501  0.00000000000E+00  0.00000000000E+00 -0.59093593116E+03  0.59093593118E+03  0.50400001928E-02 0.  1.
    10030    2    1    2    0    0  0.00000000000E+00  0.00000000000E+00  0.11231684440E+04  0.23050403064E+04  0.20128843634E+04 0.  0.
        1    1    3    3  502    0 -0.58560996477E+03 -0.24547086544E+03  0.14557721371E+04  0.15882277833E+04  0.50400001928E-02 0. -1.
       -1    1    3    3    0  502  0.58560996477E+03  0.24547086544E+03 -0.33260369302E+03  0.71681252308E+03  0.50400001928E-02 0.  1.
</event>
<event>
 5   0  0.4447313E-05  0.2008596E+04  0.7818609E-02  0.8602612E-01
       -2   -1    0    0    0  501  0.00000000000E+00  0.00000000000E+00  0.10788710575E+04  0.10788710575E+04  0.25500000920E-02 0. -1.
        2   -1    0    0  501    0  0.00000000000E+00  0.00000000000E+00 -0.93487910179E+03  0.93487910180E+03  0.25500000920E-02 0.  1.
    10030    2    1    2    0    0  0.00000000000E+00  0.00000000000E+00  0.14399195573E+03  0.20137501593E+04  0.20085955344E+04 0.  0.
        5    1    3    3  502    0 -0.26973911655E+03 -0.48128288003E+03 -0.76932352271E+03  0.94671705076E+03  0.46999998093E+01 0.  1.
       -5    1    3    3    0  502  0.26973911655E+03  0.48128288003E+03  0.91331547844E+03  0.10670331086E+04  0.46999998093E+01 0. -1.
</event>
<event>
 5   0  0.4473361E-05  0.1977424E+04  0.7818609E-02  0.8617249E-01
       -2   -1    0    0    0  501  0.00000000000E+00  0.00000000000E+00  0.13166152813E+04  0.13166152813E+04  0.25500000920E-02 0.  1.
        2   -1    0    0  501    0  0.00000000000E+00  0.00000000000E+00 -0.74247289577E+03  0.74247289578E+03  0.25500000920E-02 0. -1.
    10030    2    1    2    0    0  0.00000000000E+00  0.00000000000E+00  0.57414238548E+03  0.20590881770E+04  0.19774237386E+04 0.  0.
        2    1    3    3  502    0  0.11594053858E+03  0.12502313347E+03 -0.72704769375E+03  0.74677395602E+03  0.25500000920E-02 0. -1.
       -2    1    3    3    0  502 -0.11594053858E+03 -0.12502313347E+03  0.13011900792E+04  0.13123142210E+04  0.25500000920E-02 0.  1.
</event>
<event>
 5   0  0.2093980E-05  0.1995161E+04  0.7818609E-02  0.8608886E-01
        1   -1    0    0  501    0  0.00000000000E+00  0.00000000000E+00  0.15785555188E+04  0.15785555188E+04  0.50400001928E-02 0.  1.
       -1   -1    0    0    0  501  0.00000000000E+00  0.00000000000E+00 -0.63042876864E+03  0.63042876866E+03  0.50400001928E-02 0. -1.
    10030    2    1    2    0    0  0.00000000000E+00  0.00000000000E+00  0.94812675015E+03  0.22089842875E+04  0.19951609579E+04 0.  0.
        2    1    3    3  502    0  0.69727585613E+03 -0.13440178160E+03  0.12498018686E+04  0.14374498841E+04  0.25500000920E-02 0.  1.
       -2    1    3    3    0  502 -0.69727585613E+03  0.13440178160E+03 -0.30167511849E+03  0.77153440336E+03  0.25500000920E-02 0. -1.
</event>
<event>
 5   0  0.2007644E-05  0.2006961E+04  0.7818609E-02  0.8603373E-01
       -1   -1    0    0    0  501  0.00000000000E+00  0.00000000000E+00  0.47412780714E+03  0.47412780716E+03  0.50400001928E-02 0.  1.
        1   -1    0    0  501    0  0.00000000000E+00  0.00000000000E+00 -0.21238426013E+04  0.21238426013E+04  0.50400001928E-02 0. -1.
    10030    2    1    2    0    0  0.00000000000E+00  0.00000000000E+00 -0.16497147941E+04  0.25979704084E+04  0.20069607224E+04 0.  0.
        1    1    3    3  502    0 -0.15015930690E+03  0.51154076291E+03 -0.19253565111E+04  0.19978036602E+04  0.50400001928E-02 0. -1.
       -1    1    3    3    0  502  0.15015930690E+03 -0.51154076291E+03  0.27564171699E+03  0.60016674828E+03  0.50400001928E-02 0.  1.
</event>
<event>
 5   0  0.2142551E-05  0.1976327E+04  0.7818609E-02  0.8617769E-01
        1   -1    0    0  501    0  0.00000000000E+00  0.00000000000E+00  0.98725091328E+03  0.98725091329E+03  0.50400001928E-02 0.  1.
       -1   -1    0    0    0  501  0.00000000000E+00  0.00000000000E+00 -0.98907661374E+03  0.98907661375E+03  0.50400001928E-02 0. -1.
    10030    2    1    2    0    0  0.00000000000E+00  0.00000000000E+00 -0.18257004599E+01  0.19763275270E+04  0.19763266838E+04 0.  0.
        3    1    3    3  502    0  0.36156956544E+02 -0.48458847975E+03  0.85951384137E+03  0.98736891480E+03  0.10100000352E+00 0.  1.
       -3    1    3    3    0  502 -0.36156956544E+02  0.48458847975E+03 -0.86133954183E+03  0.98895861224E+03  0.10100000352E+00 0. -1.
</event>
<event>
 5   0  0.2007644E-05  0.2010539E+04  0.7818609E-02  0.8601709E-01
       -1   -1    0    0    0  501  0.00000000000E+00  0.00000000000E+00  0.10177030897E+04  0.10177030897E+04  0.50400001928E-02 0.  1.
        1   -1    0    0  501    0  0.00000000000E+00  0.00000000000E+00 -0.99298763708E+03  0.99298763710E+03  0.50400001928E-02 0. -1.
    10030    2    1    2    0    0  0.00000000000E+00  0.00000000000E+00  0.24715452600E+02  0.20106907268E+04  0.20105388196E+04 0.  0.
        1    1    3    3  502    0 -0.84138310647E+03  0.49509149477E+03 -0.22750506633E+03  0.10023969649E+04  0.50400001928E-02 0. -1.
       -1    1    3    3    0  502  0.84138310647E+03 -0.49509149477E+03  0.25222051893E+03  0.10082937619E+04  0.50400001928E-02 0.  1.
</event>
<event>
 5   0  0.2110896E-05  0.2006382E+04  0.7818609E-02  0.8603643E-01
        1   -1    0    0  501    0  0.00000000000E+00  0.00000000000E+00  0.87603121149E+03  0.87603121151E+03  0.50400001928E-02 0. -1.
       -1   -1    0    0    0  501  0.00000000000E+00  0.00000000000E+00 -0.11488083159E+04  0.11488083160E+04  0.50400001928E-02 0.  1.
    10030    2    1    2    0    0  0.00000000000E+00  0.00000000000E+00 -0.27277710445E+03  0.20248395275E+04  0.20063817591E+04 0.  0.
        4    1    3    3  502    0  0.34787590002E+03  0.77573674017E+03  0.40105657681E+03  0.94001761822E+03  0.12699999809E+01 0.  1.
       -4    1    3    3    0  502 -0.34787590002E+03 -0.77573674017E+03 -0.67383368126E+03  0.10848219092E+04  0.12699999809E+01 0. -1.
</event>
<event>
 5   0  0.2110896E-05  0.2018785E+04  0.7818609E-02  0.8597888E-01
       -1   -1    0    0    0  501  0.00000000000E+00  0.00000000000E+00  0.57424711665E+03  0.57424711667E+03  0.50400001928E-02 0. -1.
        1   -1    0    0  501    0  0.00000000000E+00  0.00000000000E+00 -0.17742772790E+04  0.17742772790E+04  0.50400001928E-02 0.  1.
    10030    2    1    2    0    0  0.00000000000E+00  0.00000000000E+00 -0.12000301624E+04  0.23485243957E+04  0.20187853890E+04 0.  0.
        4    1    3    3  502    0 -0.46614009057E+02  0.51839771028E+03  0.40609375915E+03  0.66016877083E+03  0.12699999809E+01 0. -1.
       -4    1    3    3    0  502  0.46614009057E+02 -0.51839771028E+03 -0.16061239215E+04  0.16883556249E+04  0.12699999809E+01 0.  1.
</event>
<event>
 5   0  0.2142551E-05  0.1998859E+04  0.7818609E-02  0.8607154E-01
        1   -1    0    0  501    0  0.00000000000E+00  0.00000000000E+00  0.12821569089E+04  0.12821569089E+04  0.50400001928E-02 0. -1.
       -1   -1    0    0    0  501  0.00000000000E+00  0.00000000000E+00 -0.77904633388E+03  0.77904633389E+03  0.50400001928E-02 0.  1.
    10030    2    1    2    0    0  0.00000000000E+00  0.00000000000E+00  0.50311057501E+03  0.20612032428E+04  0.19988593141E+04 0.  0.
        3    1    3    3  502    0 -0.68058060271E+03  0.38392236307E+03 -0.39099533332E+03  0.87376409776E+03  0.10100000352E+00 0.  1.
       -3    1    3    3    0  502  0.68058060271E+03 -0.38392236307E+03  0.89410590833E+03  0.11874391450E+04  0.10100000352E+00 0. -1.
</event>
<event>
 5   0  0.4473361E-05  0.2002459E+04  0.7818609E-02  0.8605472E-01
        2   -1    0    0  501    0  0.00000000000E+00  0.00000000000E+00  0.14831772922E+04  0.14831772922E+04  0.25500000920E-02 0.  1.
       -2   -1    0    0    0  501  0.00000000000E+00  0.00000000000E+00 -0.67588742895E+03  0.67588742896E+03  0.25500000920E-02 0. -1.
    10030    2    1    2    0    0  0.00000000000E+00  0.00000000000E+00  0.80728986325E+03  0.21590647212E+04  0.20024593746E+04 0.  0.
        2    1    3    3  502    0 -0.32430583702E+03 -0.94223962745E+03  0.29871435748E+03  0.10402980625E+04  0.25500000920E-02 0.  1.
       -2    1    3    3    0  502  0.32430583702E+03  0.94223962745E+03  0.50857550577E+03  0.11187666587E+04  0.25500000920E-02 0. -1.
</event>
<event>
 5   0  0.2256868E-05  0.2001988E+04  0.7818609E-02  0.8605692E-01
       -1   -1    0    0    0  501  0.00000000000E+00  0.00000000000E+00  0.11844371570E+04  0.11844371570E+04  0.50400001928E-02 0. -1.
        1   -1    0    0  501    0  0.00000000000E+00  0.00000000000E+00 -0.84596219371E+03  0.84596219372E+03  0.50400001928E-02 0.  1.
    10030    2    1    2    0    0  0.00000000000E+00  0.00000000000E+00  0.33847496325E+03  0.20303993507E+04  0.20019880675E+04 0.  0.
        5    1    3    3  502    0 -0.35970755972E+03 -0.71888419203E+03 -0.43570286458E+03  0.91435391740E+03  0.46999998093E+01 0.  1.
       -5    1    3    3    0  502  0.35970755972E+03  0.71888419203E+03  0.77417782783E+03  0.11160454333E+04  0.46999998093E+01 0. -1.
</event>
<event>
 5   0  0.4577279E-05  0.1982538E+04  0.7818609E-02  0.8614828E-01
        2   -1    0    0  501    0  0.00000000000E+00  0.00000000000E+00  0.13594190839E+04  0.13594190839E+04  0.25500000920E-02 0. -1.
       -2   -1    0    0    0  501  0.00000000000E+00  0.00000000000E+00 -0.72281924383E+03  0.72281924384E+03  0.25500000920E-02 0.  1.
    10030    2    1    2    0    0  0.00000000000E+00  0.00000000000E+00  0.63659984007E+03  0.20822383277E+04  0.19825380443E+04 0.  0.
        1    1    3    3  502    0  0.57427191441E+03  0.77107905119E+03  0.64783643712E+02  0.96361198383E+03  0.50400001928E-02 0. -1.
       -1    1    3    3    0  502 -0.57427191441E+03 -0.77107905119E+03  0.57181619636E+03  0.11186263439E+04  0.50400001928E-02 0.  1.
</event>
<event>
 5   0  0.2142551E-05  0.2009816E+04  0.7818609E-02  0.8602045E-01
        1   -1    0    0  501    0  0.00000000000E+00  0.00000000000E+00  0.96018045311E+03  0.96018045313E+03  0.50400001928E-02 0. -1.
       -1   -1    0    0    0  501  0.00000000000E+00  0.00000000000E+00 -0.10517191729E+04  0.10517191729E+04  0.50400001928E-02 0.  1.
    10030    2    1    2    0    0  0.00000000000E+00  0.00000000000E+00 -0.91538719763E+02  0.20118996260E+04  0.20098161030E+04 0.  0.
        3    1    3    3  502    0 -0.83038983637E+03  0.43360621326E+03 -0.40984758601E+03  0.10225148813E+04  0.10100000352E+00 0.  1.
       -3    1    3    3    0  502  0.83038983637E+03 -0.43360621326E+03  0.31830886625E+03  0.98938474471E+03  0.10100000352E+00 0. -1.
</event>
<event>
 5   0  0.4577279E-05  0.2005419E+04  0.7818609E-02  0.8604091E-01
        2   -1    0    0  501    0  0.00000000000E+00  0.00000000000E+00  0.82460066769E+03  0.82460066770E+03  0.25500000920E-02 0.  1.
       -2   -1    0    0    0  501  0.00000000000E+00  0.00000000000E+00 -0.12192888894E+04  0.12192888894E+04  0.25500000920E-02 0. -1.
    10030    2    1    2    0    0  0.00000000000E+00  0.00000000000E+00 -0.39468822169E+03  0.20438895571E+04  0.20054190907E+04 0.  0.
        1    1    3    3  502    0 -0.87918684609E+02 -0.82994440054E+02 -0.12118327239E+04  0.12178490559E+04  0.50400001928E-02 0. -1.
       -1    1    3    3    0  502  0.87918684609E+02  0.82994440054E+02  0.81714450218E+03  0.82604050122E+03  0.50400001928E-02 0.  1.
</event>
<event>
 5   0  0.2007644E-05  0.1990671E+04  0.7818609E-02  0.8610995E-01
       -1   -1    0    0    0  501  0.00000000000E+00  0.00000000000E+00  0.81604833867E+03  0.81604833869E+03  0.50400001928E-02 0. -1.
        1   -1    0    0  501    0  0.00000000000E+00  0.00000000000E+00 -0.12140119005E+04  0.12140119005E+04  0.50400001928E-02 0.  1.
    10030    2    1    2    0    0  0.00000000000E+00  0.00000000000E+00 -0.39796356178E+03  0.20300602391E+04  0.19906706353E+04 0.  0.
        1    1    3    3  502    0  0.38377924355E+03 -0.29483157612E+03  0.68798694254E+03  0.84115289881E+03  0.50400001928E-02 0. -1.
       -1    1    3    3    0  502 -0.38377924355E+03  0.29483157612E+03 -0.10859505043E+04  0.11889073403E+04  0.50400001928E-02 0.  1.
</event>
<event>
 5   0  0.4447313E-05  0.2008510E+04  0.7818609E-02  0.8602652E-01
        2   -1    0    0  501    0  0.00000000000E+00  0.00000000000E+00  0.20450172691E+04  0.20450172691E+04  0.25500000920E-02 0.  1.
       -2   -1    0    0    0  501  0.00000000000E+00  0.00000000000E+00 -0.49316365701E+03  0.49316365702E+03  0.25500000920E-02 0. -1.
    10030    2    1    2    0    0  0.00000000000E+00  0.00000000000E+00  0.15518536121E+04  0.25381809261E+04  0.20085100897E+04 0.  0.
        5    1    3    3  502    0  0.37620934851E+03  0.67424363705E+03  0.15874316474E+04  0.17652476544E+04  0.46999998093E+01 0.  1.
       -5    1    3    3    0  502 -0.37620934851E+03 -0.67424363705E+03 -0.35578035328E+02  0.77293327177E+03  0.46999998093E+01 0. -1.
</event>
<event>
 5   0  0.2093980E-05  0.2010982E+04  0.7818609E-02  0.8601503E-01
        1   -1    0    0  501    0  0.00000000000E+00  0.00000000000E+00  0.14868231952E+04  0.14868231952E+04  0.50400001928E-02 0. -1.
       -1   -1    0    0    0  501  0.00000000000E+00  0.00000000000E+00 -0.67998173061E+03  0.67998173063E+03  0.50400001928E-02 0.  1.
    10030    2    1    2    0    0  0.00000000000E+00  0.00000000000E+00  0.80684146463E+03  0.21668049259E+04  0.20109824559E+04 0.  0.
        2    1    3    3  502    0 -0.67302626068E+02  0.80328596430E+03 -0.24416041326E+03  0.84226616418E+03  0.25500000920E-02 0.  1.
       -2    1    3    3    0  502  0.67302626068E+02 -0.80328596430E+03  0.10510018779E+04  0.13245387617E+04  0.25500000920E-02 0. -1.
</event>
<event>
 5   0  0.4514680E-05  0.2032034E+04  0.7818609E-02  0.8591789E-01
        2   -1    0    0  501    0  0.00000000000E+00  0.00000000000E+00  0.12873053878E+04  0.12873053878E+04  0.25500000920E-02 0.  1.
       -2   -1    0    0    0  501  0.00000000000E+00  0.00000000000E+00 -0.80190010721E+03  0.80190010721E+03  0.25500000920E-02 0. -1.
    10030    2    1    2    0    0  0.00000000000E+00  0.00000000000E+00  0.48540528061E+03  0.20892054950E+04  0.20320337876E+04 0.  0.
        3    1    3    3  502    0 -0.76050683867E+03  0.55986989002E+03 -0.14262917883E+03  0.95507488621E+03  0.10100000352E+00 0. -1.
       -3    1    3    3    0  502  0.76050683867E+03 -0.55986989002E+03  0.62803445945E+03  0.11341306088E+04  0.10100000352E+00 0.  1.
</event>
<event>
 5   0  0.4473361E-05  0.2004725E+04  0.7818609E-02  0.8604415E-01
        2   -1    0    0  501    0  0.00000000000E+00  0.00000000000E+00  0.10692495142E+04  0.10692495142E+04  0.25500000920E-02 0.  1.
       -2   -1    0    0    0  501  0.00000000000E+00  0.00000000000E+00 -0.93965952190E+03  0.93965952190E+03  0.25500000920E-02 0. -1.
    10030    2    1    2    0    0  0.00000000000E+00  0.00000000000E+00  0.12958999228E+03  0.20089090361E+04  0.20047249061E+04 0.  0.
        2    1    3    3  502    0 -0.34829968326E+03  0.88365688344E+03  0.38572633588E+03  0.10251570432E+04  0.25500000920E-02 0.  1.
       -2    1    3    3    0  502  0.34829968326E+03 -0.88365688344E+03 -0.25613634360E+03  0.98375199289E+03  0.25500000920E-02 0. -1.
</event>
<event>
 5   0  0.2093980E-05  0.1998092E+04  0.7818609E-02  0.8607513E-01
        1   -1    0    0  501    0  0.00000000000E+00  0.00000000000E+00  0.14041104080E+04  0.14041104080E+04  0.50400001928E-02 0.  1.
       -1   -1    0    0    0  501  0.00000000000E+00  0.00000000000E+00 -0.71083642509E+03  0.71083642511E+03  0.50400001928E-02 0. -1.
    10030    2    1    2    0    0  0.00000000000E+00  0.00000000000E+00  0.69327398292E+03  0.21149468331E+04  0.19980919127E+04 0.  0.
        2    1    3    3  502    0 -0.35080429413E+03  0.60594631128E+03 -0.40768234907E+03  0.81020953012E+03  0.25500000920E-02 0. -1.
       -2    1    3    3    0  502  0.35080429413E+03 -0.60594631128E+03  0.11009563320E+04  0.13047373030E+04  0.25500000920E-02 0.  1.
</event>
<event>
 5   0  0.4447313E-05  0.2002071E+04  0.7818609E-02  0.8605653E-01
       -2   -1    0    0    0  501  0.00000000000E+00  0.00000000000E+00  0.71087487671E+03  0.71087487672E+03  0.25500000920E-02 0. -1.
        2   -1    0    0  501    0  0.00000000000E+00  0.00000000000E+00 -0.14096325281E+04  0.14096325281E+04  0.25500000920E-02 0.  1.
    10030    2    1    2    0    0  0.00000000000E+00  0.00000000000E+00 -0.69875765134E+03  0.21205074048E+04  0.20020712770E+04 0.  0.
        5    1    3    3  502    0 -0.44820596228E+03  0.59984186591E+03  0.35426441150E+03  0.82838651122E+03  0.46999998093E+01 0. -1.
       -5    1    3    3    0  502  0.44820596228E+03 -0.59984186591E+03 -0.10530220628E+04  0.12921208936E+04  0.46999998093E+01 0.  1.
</event>
<event>
 5   0  0.4447313E-05  0.1997997E+04  0.7818609E-02  0.8607558E-01
       -2   -1    0    0    0  501  0.00000000000E+00  0.00000000000E+00  0.69438671437E+03  0.69438671438E+03  0.25500000920E-02 0. -1.
        2   -1    0    0  501    0  0.00000000000E+00  0.00000000000E+00 -0.14372369255E+04  0.14372369255E+04  0.25500000920E-02 0.  1.
    10030    2    1    2    0    0  0.00000000000E+00  0.00000000000E+00 -0.74285021109E+03  0.21316236398E+04  0.19979972237E+04 0.  0.
        5    1    3    3  502    0  0.15848007550E+03 -0.87081986460E+03 -0.86557950430E+03  0.12380198460E+04  0.46999998093E+01 0.  1.
       -5    1    3    3    0  502 -0.15848007550E+03  0.87081986460E+03  0.12272929321E+03  0.89360379381E+03  0.46999998093E+01 0. -1.
</event>
<event>
 5   0  0.4514680E-05  0.1984674E+04  0.7818609E-02  0.8613820E-01
       -2   -1    0    0    0  501  0.00000000000E+00  0.00000000000E+00  0.96128250556E+03  0.96128250556E+03  0.25500000920E-02 0.  1.
        2   -1    0    0  501    0  0.00000000000E+00  0.00000000000E+00 -0.10243949028E+04  0.10243949028E+04  0.25500000920E-02 0. -1.
    10030    2    1    2    0    0  0.00000000000E+00  0.00000000000E+00 -0.63112397251E+02  0.19856774084E+04  0.19846741787E+04 0.  0.
        3    1    3    3  502    0  0.74241547303E+03  0.74425904931E+02  0.62300148351E+03  0.97203436594E+03  0.10100000352E+00 0. -1.
       -3    1    3    3    0  502 -0.74241547303E+03 -0.74425904931E+02 -0.68611388076E+03  0.10136430424E+04  0.10100000352E+00 0.  1.
</event>
<event>
 5   0  0.4577279E-05  0.2005460E+04  0.7818609E-02  0.8604072E-01
       -2   -1    0    0    0  501  0.00000000000E+00  0.00000000000E+00  0.94768803649E+03  0.94768803649E+03  0.25500000920E-02 0.  1.
        2   -1    0    0  501    0  0.00000000000E+00  0.00000000000E+00 -0.10609687414E+04  0.10609687414E+04  0.25500000920E-02 0. -1.
    10030    2    1    2    0    0  0.00000000000E+00  0.00000000000E+00 -0.11328070492E+03  0.20086567779E+04  0.20054599306E+04 0.  0.
        1    1    3    3  502    0 -0.20590536618E+03  0.84548765905E+03 -0.55565235311E+03  0.10324707933E+04  0.50400001928E-02 0. -1.
       -1    1    3    3    0  502  0.20590536618E+03 -0.84548765905E+03  0.44237164819E+03  0.97618598463E+03  0.50400001928E-02 0.  1.
</event>
<event>
 5   0  0.2256868E-05  0.1998247E+04  0.7818609E-02  0.8607441E-01
        1   -1    0    0  501    0  0.00000000000E+00  0.00000000000E+00  0.84418887886E+03  0.84418887888E+03  0.50400001928E-02 0.  1.
       -1   -1    0    0    0  501  0.00000000000E+00  0.00000000000E+00 -0.11824930167E+04  0.11824930167E+04  0.50400001928E-02 0. -1.
    10030    2    1    2    0    0  0.00000000000E+00  0.00000000000E+00 -0.33830413781E+03  0.20266818956E+04  0.19982466855E+04 0.  0.
        5    1    3    3  502    0  0.42688750471E+03  0.40025017438E+03  0.65218158221E+03  0.87623972173E+03  0.46999998093E+01 0.  1.
       -5    1    3    3    0  502 -0.42688750471E+03 -0.40025017438E+03 -0.99048572002E+03  0.11504421738E+04  0.46999998093E+01 0. -1.
</event>
<event>
 5   0  0.2007644E-05  0.1995023E+04  0.7818609E-02  0.8608951E-01
       -1   -1    0    0    0  501  0.00000000000E+00  0.00000000000E+00  0.17151561150E+04  0.17151561150E+04  0.50400001928E-02 0.  1.
        1   -1    0    0  501    0  0.00000000000E+00  0.00000000000E+00 -0.58013916347E+03  0.58013916349E+03  0.50400001928E-02 0. -1.
    10030    2    1    2    0    0  0.00000000000E+00  0.00000000000E+00  0.11350169515E+04  0.22952952785E+04  0.19950230413E+04 0.  0.
        1    1    3    3  502    0  0.36888689749E+03 -0.28338412736E+02  0.16332991184E+04  0.16746780643E+04  0.50400001928E-02 0.  1.
       -1    1    3    3    0  502 -0.36888689749E+03  0.28338412736E+02 -0.49828216686E+03  0.62061721424E+03  0.50400001928E-02 0. -1.
</event>
<event>
 5   0  0.4473361E-05  0.2048041E+04  0.7818609E-02  0.8584483E-01
        2   -1    0    0  501    0  0.00000000000E+00  0.00000000000E+00  0.97222786793E+03  0.97222786793E+03  0.25500000920E-02 0.  1.
       -2   -1    0    0    0  501  0.00000000000E+00  0.00000000000E+00 -0.10785727555E+04  0.10785727555E+04  0.25500000920E-02 0. -1.
    10030    2    1    2    0    0  0.00000000000E+00  0.00000000000E+00 -0.10634488761E+03  0.20508006235E+04  0.20480414942E+04 0.  0.
        2    1    3    3  502    0  0.47501933626E+03 -0.48190510984E+03 -0.82280570664E+03  0.10653098777E+04  0.25500000920E-02 0. -1.
       -2    1    3    3    0  502 -0.47501933626E+03  0.48190510984E+03  0.71646081904E+03  0.98549074574E+03  0.25500000920E-02 0.  1.
</event>
<event>
 5   0  0.2093980E-05  0.1995251E+04  0.7818609E-02  0.8608844E-01
        1   -1    0    0  501    0  0.00000000000E+00  0.00000000000E+00  0.12082839097E+04  0.12082839097E+04  0.50400001928E-02 0. -1.
       -1   -1    0    0    0  501  0.00000000000E+00  0.00000000000E+00 -0.82369466334E+03  0.82369466335E+03  0.50400001928E-02 0.  1.
    10030    2    1    2    0    0  0.00000000000E+00  0.00000000000E+00  0.38458924636E+03  0.20319785731E+04  0.19952513709E+04 0.  0.
        2    1    3    3  502    0  0.32478581001E+03 -0.88389432408E+03 -0.14316511013E+03  0.95249737390E+03  0.25500000920E-02 0. -1.
       -2    1    3    3    0  502 -0.32478581001E+03  0.88389432408E+03  0.52775435648E+03  0.10794811992E+04  0.25500000920E-02 0.  1.
</event>
<event>
 5   0  0.4577279E-05  0.2000902E+04  0.7818609E-02  0.8606199E-01
       -2   -1    0    0    0  501  0.00000000000E+00  0.00000000000E+00  0.83400435643E+03  0.83400435643E+03  0.25500000920E-02 0. -1.
        2   -1    0    0  501    0  0.00000000000E+00  0.00000000000E+00 -0.12001160716E+04  0.12001160716E+04  0.25500000920E-02 0.  1.
    10030    2    1    2    0    0  0.00000000000E+00  0.00000000000E+00 -0.36611171516E+03  0.20341204280E+04  0.20009018286E+04 0.  0.
        1    1    3    3  502    0 -0.17445111884E+03 -0.84982448594E+03  0.32348040035E+03  0.92589114868E+03  0.50400001928E-02 0. -1.
       -1    1    3    3    0  502  0.17445111884E+03  0.84982448594E+03 -0.68959211550E+03  0.11082292793E+04  0.50400001928E-02 0.  1.
</event>
<event>
 5   0  0.4447313E-05  0.2096144E+04  0.7818609E-02  0.8562944E-01
        2   -1    0    0  501    0  0.00000000000E+00  0.00000000000E+00  0.67637297118E+03  0.67637297119E+03  0.25500000920E-02 0. -1.
       -2   -1    0    0    0  501  0.00000000000E+00  0.00000000000E+00 -0.16240366108E+04  0.16240366108E+04  0.25500000920E-02 0.  1.
    10030    2    1    2    0    0  0.00000000000E+00  0.00000000000E+00 -0.94766363963E+03  0.23004095820E+04  0.20961435712E+04 0.  0.
        5    1    3    3  502    0 -0.84600686560E+03 -0.53299318566E+03 -0.81847786747E+03  0.12921832154E+04  0.46999998093E+01 0.  1.
       -5    1    3    3    0  502  0.84600686560E+03  0.53299318566E+03 -0.12918577215E+03  0.10082263666E+04  0.46999998093E+01 0. -1.
</event>
<event>
 5   0  0.2142551E-05  0.1999247E+04  0.7818609E-02  0.8606973E-01
        1   -1    0    0  501    0  0.00000000000E+00  0.00000000000E+00  0.11383420515E+04  0.11383420515E+04  0.50400001928E-02 0.  1.
       -1   -1    0    0    0  501  0.00000000000E+00  0.00000000000E+00 -0.87780950693E+03  0.87780950695E+03  0.50400001928E-02 0. -1.
    10030    2    1    2    0    0  0.00000000000E+00  0.00000000000E+00  0.26053254455E+03  0.20161515584E+04  0.19992473333E+04 0.  0.
        3    1    3    3  502    0  0.13436048577E+03  0.14585212049E+03 -0.85777388626E+03  0.88039856391E+03  0.10100000352E+00 0. -1.
       -3    1    3    3    0  502 -0.13436048577E+03 -0.14585212049E+03  0.11183064308E+04  0.11357529945E+04  0.10100000352E+00 0.  1.
</event>
<event>
 5   0  0.2256868E-05  0.2002719E+04  0.7818609E-02  0.8605350E-01
        1   -1    0    0  501    0  0.00000000000E+00  0.00000000000E+00  0.18830029399E+04  0.18830029399E+04  0.50400001928E-02 0.  1.
       -1   -1    0    0    0  501  0.00000000000E+00  0.00000000000E+00 -0.53251173299E+03  0.53251173302E+03  0.50400001928E-02 0. -1.
    10030    2    1    2    0    0  0.00000000000E+00  0.00000000000E+00  0.13504912069E+04  0.24155146729E+04  0.20027193101E+04 0.  0.
        5    1    3    3  502    0 -0.19338267457E+03  0.17191838316E+02 -0.50958086585E+03  0.54533216205E+03  0.46999998093E+01 0. -1.
       -5    1    3    3    0  502  0.19338267457E+03 -0.17191838316E+02  0.18600720728E+04  0.18701825109E+04  0.46999998093E+01 0.  1.
</event>
<event>
 5   0  0.4577279E-05  0.1975388E+04  0.7818609E-02  0.8618215E-01
       -2   -1    0    0    0  501  0.00000000000E+00  0.00000000000E+00  0.68334268191E+03  0.68334268192E+03  0.25500000920E-02 0. -1.
        2   -1    0    0  501    0  0.00000000000E+00  0.00000000000E+00 -0.14275996990E+04  0.14275996990E+04  0.25500000920E-02 0.  1.
    10030    2    1    2    0    0  0.00000000000E+00  0.00000000000E+00 -0.74425701704E+03  0.21109423809E+04  0.19753883740E+04 0.  0.
        1    1    3    3  502    0 -0.69740998356E+03  0.67731959727E+03 -0.18581631323E+03  0.98978291777E+03  0.50400001928E-02 0. -1.
       -1    1    3    3    0  502  0.69740998356E+03 -0.67731959727E+03 -0.55844070381E+03  0.11211594631E+04  0.50400001928E-02 0.  1.
</event>
<event>
 5   0  0.4412054E-05  0.2008244E+04  0.7818609E-02  0.8602776E-01
        2   -1    0    0  501    0  0.00000000000E+00  0.00000000000E+00  0.17489978330E+04  0.17489978330E+04  0.25500000920E-02 0.  1.
       -2   -1    0    0    0  501  0.00000000000E+00  0.00000000000E+00 -0.57647928923E+03  0.57647928924E+03  0.25500000920E-02 0. -1.
    10030    2    1    2    0    0  0.00000000000E+00  0.00000000000E+00  0.11725185438E+04  0.23254771222E+04  0.20082440366E+04 0.  0.
        4    1    3    3  502    0  0.66005368738E+02 -0.97196719614E+03  0.86796271127E+03  0.13047750075E+04  0.12699999809E+01 0. -1.
       -4    1    3    3    0  502 -0.66005368738E+02  0.97196719614E+03  0.30455583250E+03  0.10207021148E+04  0.12699999809E+01 0.  1.
</event>
<event>
 5   0  0.2093980E-05  0.2000466E+04  0.7818609E-02  0.8606403E-01
        1   -1    0    0  501    0  0.00000000000E+00  0.00000000000E+00  0.10379981651E+04  0.10379981651E+04  0.50400001928E-02 0. -1.
       -1   -1    0    0    0  501  0.00000000000E+00  0.00000000000E+00 -0.96384176558E+03  0.96384176560E+03  0.50400001928E-02 0.  1.
    10030    2    1    2    0    0  0.00000000000E+00  0.00000000000E+00  0.74156399487E+02  0.20018399307E+04  0.20004659298E+04 0.  0.
        2    1    3    3  502    0  0.79539967246E+02 -0.14411701625E+03  0.10243508175E+04  0.10374926111E+04  0.25500000920E-02 0. -1.
       -2    1    3    3    0  502 -0.79539967246E+02  0.14411701625E+03 -0.95019441801E+03  0.96434731958E+03  0.25500000920E-02 0.  1.
</event>
<event>
 5   0  0.2110896E-05  0.2002654E+04  0.7818609E-02  0.8605381E-01
       -1   -1    0    0    0  501  0.00000000000E+00  0.00000000000E+00  0.48592256357E+03  0.48592256360E+03  0.50400001928E-02 0. -1.
        1   -1    0    0  501    0  0.00000000000E+00  0.00000000000E+00 -0.20634069672E+04  0.20634069672E+04  0.50400001928E-02 0.  1.
    10030    2    1    2    0    0  0.00000000000E+00  0.00000000000E+00 -0.15774844036E+04  0.25493295308E+04  0.20026542420E+04 0.  0.
        4    1    3    3  502    0  0.95771920807E+03 -0.22540524987E+03 -0.10256004100E+04  0.14212288422E+04  0.12699999809E+01 0.  1.
       -4    1    3    3    0  502 -0.95771920807E+03  0.22540524987E+03 -0.55188399364E+03  0.11281006886E+04  0.12699999809E+01 0. -1.
</event>
<event>
 5   0  0.4514680E-05  0.2023877E+04  0.7818609E-02  0.8595538E-01
       -2   -1    0    0    0  501  0.00000000000E+00  0.00000000000E+00  0.84526375966E+03  0.84526375967E+03  0.25500000920E-02 0. -1.
        2   -1    0    0  501    0  0.00000000000E+00  0.00000000000E+00 -0.12114797599E+04  0.12114797600E+04  0.25500000920E-02 0.  1.
    10030    2    1    2    0    0  0.00000000000E+00  0.00000000000E+00 -0.36621600028E+03  0.20567435196E+04  0.20238774040E+04 0.  0.
        3    1    3    3  502    0  0.18731089986E+03  0.35708703771E+03  0.76009303471E+03  0.86042893799E+03  0.10100000352E+00 0. -1.
       -3    1    3    3    0  502 -0.18731089986E+03 -0.35708703771E+03 -0.11263090350E+04  0.11963145816E+04  0.10100000352E+00 0.  1.
</event>
<event>
 5   0  0.2007644E-05  0.1873651E+04  0.7818609E-02  0.8668084E-01
       -1   -1    0    0    0  501  0.00000000000E+00  0.00000000000E+00  0.56418041815E+03  0.56418041817E+03  0.50400001928E-02 0.  1.
        1   -1    0    0  501    0  0.00000000000E+00  0.00000000000E+00 -0.15556057897E+04  0.15556057897E+04  0.50400001928E-02 0. -1.
    10030    2    1    2    0    0  0.00000000000E+00  0.00000000000E+00 -0.99142537160E+03  0.21197862079E+04  0.18736513282E+04 0.  0.
        1    1    3    3  502    0  0.39888583908E+03 -0.82225094714E+03 -0.72877359914E+03  0.11688958429E+04  0.50400001928E-02 0. -1.
       -1    1    3    3    0  502 -0.39888583908E+03  0.82225094714E+03 -0.26265177246E+03  0.95089036503E+03  0.50400001928E-02 0.  1.
</event>
<event>
 5   0  0.4447313E-05  0.2005969E+04  0.7818609E-02  0.8603835E-01
       -2   -1    0    0    0  501  0.00000000000E+00  0.00000000000E+00  0.71541255478E+03  0.71541255478E+03  0.25500000920E-02 0. -1.
        2   -1    0    0  501    0  0.00000000000E+00  0.00000000000E+00 -0.14061502786E+04  0.14061502786E+04  0.25500000920E-02 0.  1.
    10030    2    1    2    0    0  0.00000000000E+00  0.00000000000E+00 -0.69073772384E+03  0.21215628334E+04  0.20059686570E+04 0.  0.
        5    1    3    3  502    0 -0.16819236917E+03 -0.63558870999E+03 -0.11464413761E+04  0.13215943403E+04  0.46999998093E+01 0.  1.
       -5    1    3    3    0  502  0.16819236917E+03  0.63558870999E+03  0.45570365228E+03  0.79996849314E+03  0.46999998093E+01 0. -1.
</event>
<event>
 5   0  0.2093980E-05  0.1990551E+04  0.7818609E-02  0.8611051E-01
       -1   -1    0    0    0  501  0.00000000000E+00  0.00000000000E+00  0.59508745863E+03  0.59508745865E+03  0.50400001928E-02 0. -1.
        1   -1    0    0  501    0  0.00000000000E+00  0.00000000000E+00 -0.16645841662E+04  0.16645841662E+04  0.50400001928E-02 0.  1.
    10030    2    1    2    0    0  0.00000000000E+00  0.00000000000E+00 -0.10694967075E+04  0.22596716248E+04  0.19905508395E+04 0.  0.
        2    1    3    3  502    0  0.61402521310E+03  0.72146532723E+03 -0.18849590041E+03  0.96595542609E+03  0.25500000920E-02 0. -1.
       -2    1    3    3    0  502 -0.61402521310E+03 -0.72146532723E+03 -0.88100080713E+03  0.12937161987E+04  0.25500000920E-02 0.  1.
</event>
<event>
 5   0  0.4577279E-05  0.1994558E+04  0.7818609E-02  0.8609169E-01
       -2   -1    0    0    0  501  0.00000000000E+00  0.00000000000E+00  0.62228501664E+03  0.62228501664E+03  0.25500000920E-02 0. -1.
        2   -1    0    0  501    0  0.00000000000E+00  0.00000000000E+00 -0.15982472252E+04  0.15982472252E+04  0.25500000920E-02 0.  1.
    10030    2    1    2    0    0  0.00000000000E+00  0.00000000000E+00 -0.97596220854E+03  0.22205322418E+04  0.19945578970E+04 0.  0.
        1    1    3    3  502    0 -0.31428316893E+03 -0.56833327459E+03 -0.13305543199E+04  0.14805915775E+04  0.50400001928E-02 0.  1.
       -1    1    3    3    0  502  0.31428316893E+03  0.56833327459E+03  0.35459211132E+03  0.73994066432E+03  0.50400001928E-02 0. -1.
</event>
<event>
 5   0  0.4473361E-05  0.2015744E+04  0.7818609E-02  0.8599295E-01
        2   -1    0    0  501    0  0.00000000000E+00  0.00000000000E+00  0.12538976932E+04  0.12538976932E+04  0.25500000920E-02 0. -1.
       -2   -1    0    0    0  501  0.00000000000E+00  0.00000000000E+00 -0.81011853228E+03  0.81011853229E+03  0.25500000920E-02 0.  1.
    10030    2    1    2    0    0  0.00000000000E+00  0.00000000000E+00  0.44377916090E+03  0.20640162255E+04  0.20157437921E+04 0.  0.
        2    1    3    3  502    0  0.68714049115E+03 -0.13088109341E+02 -0.53297061479E+03  0.86970743898E+03  0.25500000920E-02 0.  1.
       -2    1    3    3    0  502 -0.68714049115E+03  0.13088109341E+02  0.97674977568E+03  0.11943087865E+04  0.25500000920E-02 0. -1.
</event>
<event>
 5   0  0.1601500E-05  0.1994711E+04  0.7818609E-02  0.8609097E-01
       -3   -1    0    0    0  501  0.00000000000E+00  0.00000000000E+00  0.53783555657E+03  0.53783556606E+03  0.10100000352E+00 0. -1.
        3   -1    0    0  501    0  0.00000000000E+00  0.00000000000E+00 -0.18494840038E+04  0.18494840065E+04  0.10100000352E+00 0.  1.
    10030    2    1    2    0    0  0.00000000000E+00  0.00000000000E+00 -0.13116484472E+04  0.23873195726E+04  0.19947112805E+04 0.  0.
        4    1    3    3  502    0 -0.63498978558E+03  0.70738318645E+03 -0.29456224087E+03  0.99517411889E+03  0.12699999809E+01 0.  1.
       -4    1    3    3    0  502  0.63498978558E+03 -0.70738318645E+03 -0.10170862063E+04  0.13921454537E+04  0.12699999809E+01 0. -1.
</event>
<event>
 5   0  0.2110896E-05  0.1967148E+04  0.7818609E-02  0.8622136E-01
        1   -1    0    0  501    0  0.00000000000E+00  0.00000000000E+00  0.11131688131E+04  0.11131688132E+04  0.50400001928E-02 0.  1.
       -1   -1    0    0    0  501  0.00000000000E+00  0.00000000000E+00 -0.86906628427E+03  0.86906628429E+03  0.50400001928E-02 0. -1.
    10030    2    1    2    0    0  0.00000000000E+00  0.00000000000E+00  0.24410252887E+03  0.19822350974E+04  0.19671476653E+04 0.  0.
        4    1    3    3  502    0  0.15850286872E+03 -0.69832895522E+03  0.80148475442E+03  0.10747864502E+04  0.12699999809E+01 0.  1.
       -4    1    3    3    0  502 -0.15850286872E+03  0.69832895522E+03 -0.55738222556E+03  0.90744864723E+03  0.12699999809E+01 0. -1.
</event>
<event>
 5   0  0.4412054E-05  0.1990183E+04  0.7818609E-02  0.8611224E-01
        2   -1    0    0  501    0  0.00000000000E+00  0.00000000000E+00  0.13831566884E+04  0.13831566884E+04  0.25500000920E-02 0.  1.
       -2   -1    0    0    0  501  0.00000000000E+00  0.00000000000E+00 -0.71590381021E+03  0.71590381022E+03  0.25500000920E-02 0. -1.
    10030    2    1    2    0    0  0.00000000000E+00  0.00000000000E+00  0.66725287823E+03  0.20990604987E+04  0.19901830503E+04 0.  0.
        4    1    3    3  502    0 -0.36526303022E+02  0.85911869038E+03  0.86180887374E+03  0.12174297691E+04  0.12699999809E+01 0.  1.
       -4    1    3    3    0  502  0.36526303022E+02 -0.85911869038E+03 -0.19455599552E+03  0.88163072954E+03  0.12699999809E+01 0. -1.
</event>
<event>
 5   0  0.4447313E-05  0.1994203E+04  0.7818609E-02  0.8609336E-01
        2   -1    0    0  501    0  0.00000000000E+00  0.00000000000E+00  0.10486410205E+04  0.10486410205E+04  0.25500000920E-02 0.  1.
       -2   -1    0    0    0  501  0.00000000000E+00  0.00000000000E+00 -0.94809479594E+03  0.94809479595E+03  0.25500000920E-02 0. -1.
    10030    2    1    2    0    0  0.00000000000E+00  0.00000000000E+00  0.10054622454E+03  0.19967358164E+04  0.19942026921E+04 0.  0.
        5    1    3    3  502    0 -0.82262148616E+02 -0.74952100318E+03 -0.60296668274E+03  0.96547382450E+03  0.46999998093E+01 0. -1.
       -5    1    3    3    0  502  0.82262148616E+02  0.74952100318E+03  0.70351290728E+03  0.10312619919E+04  0.46999998093E+01 0.  1.
</event>
<event>
 5   0  0.2007644E-05  0.1998043E+04  0.7818609E-02  0.8607536E-01
       -1   -1    0    0    0  501  0.00000000000E+00  0.00000000000E+00  0.68892008626E+03  0.68892008628E+03  0.50400001928E-02 0.  1.
        1   -1    0    0  501    0  0.00000000000E+00  0.00000000000E+00 -0.14487072692E+04  0.14487072692E+04  0.50400001928E-02 0. -1.
    10030    2    1    2    0    0  0.00000000000E+00  0.00000000000E+00 -0.75978718293E+03  0.21376273555E+04  0.19980425790E+04 0.  0.
        1    1    3    3  502    0  0.95887554978E+02 -0.60790628140E+03 -0.12218264753E+04  0.13680659363E+04  0.50400001928E-02 0. -1.
       -1    1    3    3    0  502 -0.95887554978E+02  0.60790628140E+03  0.46203929241E+03  0.76956141920E+03  0.50400001928E-02 0.  1.
</event>
<event>
 5   0  0.4412054E-05  0.1945774E+04  0.7818609E-02  0.8632401E-01
        2   -1    0    0  501    0  0.00000000000E+00  0.00000000000E+00  0.23983351533E+04  0.23983351533E+04  0.25500000920E-02 0. -1.
       -2   -1    0    0    0  501  0.00000000000E+00  0.00000000000E+00 -0.39465262234E+03  0.39465262235E+03  0.25500000920E-02 0.  1.
    10030    2    1    2    0    0  0.00000000000E+00  0.00000000000E+00  0.20036825310E+04  0.27929877757E+04  0.19457741467E+04 0.  0.
        4    1    3    3  502    0 -0.95149938499E+03 -0.81562635450E+02  0.12684730797E+04  0.15877748927E+04  0.12699999809E+01 0. -1.
       -4    1    3    3    0  502  0.95149938499E+03  0.81562635450E+02  0.73520945134E+03  0.12052128830E+04  0.12699999809E+01 0.  1.
</event>
<event>
 5   0  0.1601500E-05  0.1986357E+04  0.7818609E-02  0.8613026E-01
        3   -1    0    0  501    0  0.00000000000E+00  0.00000000000E+00  0.13176264940E+04  0.13176264978E+04  0.10100000352E+00 0. -1.
       -3   -1    0    0    0  501  0.00000000000E+00  0.00000000000E+00 -0.74862123594E+03  0.74862124276E+03  0.10100000352E+00 0.  1.
    10030    2    1    2    0    0  0.00000000000E+00  0.00000000000E+00  0.56900525802E+03  0.20662477406E+04  0.19863566502E+04 0.  0.
        5    1    3    3  502    0  0.39696279422E+03  0.19443919354E+02  0.12312876671E+04  0.12938504300E+04  0.46999998093E+01 0. -1.
       -5    1    3    3    0  502 -0.39696279422E+03 -0.19443919354E+02 -0.66228240911E+03  0.77239731059E+03  0.46999998093E+01 0.  1.
</event>
<event>
 5   0  0.2142551E-05  0.2002605E+04  0.7818609E-02  0.8605404E-01
       -1   -1    0    0    0  501  0.00000000000E+00  0.00000000000E+00  0.85693648600E+03  0.85693648601E+03  0.50400001928E-02 0. -1.
        1   -1    0    0  501    0  0.00000000000E+00  0.00000000000E+00 -0.11699899157E+04  0.11699899157E+04  0.50400001928E-02 0.  1.
    10030    2    1    2    0    0  0.00000000000E+00  0.00000000000E+00 -0.31305342972E+03  0.20269264017E+04  0.20026053501E+04 0.  0.
        3    1    3    3  502    0 -0.39510981559E+03 -0.57033675594E+03 -0.88724420122E+03  0.11263205868E+04  0.10100000352E+00 0.  1.
       -3    1    3    3    0  502  0.39510981559E+03  0.57033675594E+03  0.57419077150E+03  0.90060581490E+03  0.10100000352E+00 0. -1.
</event>
<event>
 5   0  0.2093980E-05  0.1999926E+04  0.7818609E-02  0.8606655E-01
        1   -1    0    0  501    0  0.00000000000E+00  0.00000000000E+00  0.76386505326E+03  0.76386505328E+03  0.50400001928E-02 0.  1.
       -1   -1    0    0    0  501  0.00000000000E+00  0.00000000000E+00 -0.13090351016E+04  0.13090351016E+04  0.50400001928E-02 0. -1.
    10030    2    1    2    0    0  0.00000000000E+00  0.00000000000E+00 -0.54517004836E+03  0.20729001549E+04  0.19999261663E+04 0.  0.
        2    1    3    3  502    0 -0.56623454537E+03  0.53785562769E+03 -0.91988500620E+03  0.12066891320E+04  0.25500000920E-02 0. -1.
       -2    1    3    3    0  502  0.56623454537E+03 -0.53785562769E+03  0.37471495784E+03  0.86621102293E+03  0.25500000920E-02 0.  1.
</event>
<event>
 5   0  0.2093980E-05  0.1951605E+04  0.7818609E-02  0.8629587E-01
        1   -1    0    0  501    0  0.00000000000E+00  0.00000000000E+00  0.45042582975E+03  0.45042582978E+03  0.50400001928E-02 0. -1.
       -1   -1    0    0    0  501  0.00000000000E+00  0.00000000000E+00 -0.21139784823E+04  0.21139784823E+04  0.50400001928E-02 0.  1.
    10030    2    1    2    0    0  0.00000000000E+00  0.00000000000E+00 -0.16635526525E+04  0.25644043121E+04  0.19516049928E+04 0.  0.
        2    1    3    3  502    0  0.94154166338E+02 -0.20086276320E+03  0.41685308579E+03  0.47220477743E+03  0.25500000920E-02 0. -1.
       -2    1    3    3    0  502 -0.94154166338E+02  0.20086276320E+03 -0.20804057383E+04  0.20921995346E+04  0.25500000920E-02 0.  1.
</event>
<event>
 5   0  0.2007644E-05  0.2095486E+04  0.7818609E-02  0.8563234E-01
        1   -1    0    0  501    0  0.00000000000E+00  0.00000000000E+00  0.10784351124E+04  0.10784351124E+04  0.50400001928E-02 0. -1.
       -1   -1    0    0    0  501  0.00000000000E+00  0.00000000000E+00 -0.10179245564E+04  0.10179245564E+04  0.50400001928E-02 0.  1.
    10030    2    1    2    0    0  0.00000000000E+00  0.00000000000E+00  0.60510555987E+02  0.20963596689E+04  0.20954861808E+04 0.  0.
        1    1    3    3  502    0 -0.30711114878E+03  0.10012755216E+04  0.60195259951E+02  0.10490440397E+04  0.50400001928E-02 0.  1.
       -1    1    3    3    0  502  0.30711114878E+03 -0.10012755216E+04  0.31529603618E+00  0.10473156292E+04  0.50400001928E-02 0. -1.
</event>
<event>
 5   0  0.2256868E-05  0.2000044E+04  0.7818609E-02  0.8606600E-01
        1   -1    0    0  501    0  0.00000000000E+00  0.00000000000E+00  0.90088838768E+03  0.90088838770E+03  0.50400001928E-02 0. -1.
       -1   -1    0    0    0  501  0.00000000000E+00  0.00000000000E+00 -0.11100642333E+04  0.11100642333E+04  0.50400001928E-02 0.  1.
    10030    2    1    2    0    0  0.00000000000E+00  0.00000000000E+00 -0.20917584565E+03  0.20109526210E+04  0.20000439769E+04 0.  0.
        5    1    3    3  502    0 -0.55998093870E+03  0.82354929575E+03 -0.19569002572E+03  0.10149525952E+04  0.46999998093E+01 0. -1.
       -5    1    3    3    0  502  0.55998093870E+03 -0.82354929575E+03 -0.13485819927E+02  0.99600002589E+03  0.46999998093E+01 0.  1.
</event>
<event>
 5   0  0.2093980E-05  0.1997867E+04  0.7818609E-02  0.8607619E-01
        1   -1    0    0  501    0  0.00000000000E+00  0.00000000000E+00  0.98762846167E+03  0.98762846168E+03  0.50400001928E-02 0. -1.
       -1   -1    0    0    0  501  0.00000000000E+00  0.00000000000E+00 -0.10103675716E+04  0.10103675716E+04  0.50400001928E-02 0.  1.
    10030    2    1    2    0    0  0.00000000000E+00  0.00000000000E+00 -0.22739109887E+02  0.19979960333E+04  0.19978666326E+04 0.  0.
        2    1    3    3  502    0  0.72761381208E+03 -0.37743312149E+03  0.55962289637E+03  0.99249957525E+03  0.25500000920E-02 0. -1.
       -2    1    3    3    0  502 -0.72761381208E+03  0.37743312149E+03 -0.58236200625E+03  0.10054964580E+04  0.25500000920E-02 0.  1.
</event>
<event>
 5   0  0.4412054E-05  0.2002941E+04  0.7818609E-02  0.8605247E-01
       -2   -1    0    0    0  501  0.00000000000E+00  0.00000000000E+00  0.74397263156E+03  0.74397263157E+03  0.25500000920E-02 0.  1.
        2   -1    0    0  501    0  0.00000000000E+00  0.00000000000E+00 -0.13480917494E+04  0.13480917494E+04  0.25500000920E-02 0. -1.
    10030    2    1    2    0    0  0.00000000000E+00  0.00000000000E+00 -0.60411911788E+03  0.20920643810E+04  0.20029412038E+04 0.  0.
        4    1    3    3  502    0 -0.32289972236E+03  0.76739302601E+03  0.27929002245E+03  0.87815762629E+03  0.12699999809E+01 0.  1.
       -4    1    3    3    0  502  0.32289972236E+03 -0.76739302601E+03 -0.88340914033E+03  0.12139067547E+04  0.12699999809E+01 0. -1.
</event>
<event>
 5   0  0.4412054E-05  0.1996171E+04  0.7818609E-02  0.8608413E-01
        2   -1    0    0  501    0  0.00000000000E+00  0.00000000000E+00  0.19734553545E+04  0.19734553545E+04  0.25500000920E-02 0.  1.
       -2   -1    0    0    0  501  0.00000000000E+00  0.00000000000E+00 -0.50478707557E+03  0.50478707557E+03  0.25500000920E-02 0. -1.
    10030    2    1    2    0    0  0.00000000000E+00  0.00000000000E+00  0.14686682789E+04  0.24782424301E+04  0.19961710920E+04 0.  0.
        4    1    3    3  502    0 -0.98131762892E+03  0.18190107374E+03  0.72186621103E+03  0.12317324097E+04  0.12699999809E+01 0.  1.
       -4    1    3    3    0  502  0.98131762892E+03 -0.18190107374E+03  0.74680206788E+03  0.12465100204E+04  0.12699999809E+01 0. -1.
</event>
<event>
 5   0  0.4577279E-05  0.2006493E+04  0.7818609E-02  0.8603591E-01
        2   -1    0    0  501    0  0.00000000000E+00  0.00000000000E+00  0.14261886629E+04  0.14261886629E+04  0.25500000920E-02 0.  1.
       -2   -1    0    0    0  501  0.00000000000E+00  0.00000000000E+00 -0.70572954214E+03  0.70572954215E+03  0.25500000920E-02 0. -1.
    10030    2    1    2    0    0  0.00000000000E+00  0.00000000000E+00  0.72045912080E+03  0.21319182051E+04  0.20064929326E+04 0.  0.
        1    1    3    3  502    0  0.76578532338E+03  0.58757675661E+03  0.69579520686E+02  0.96773700773E+03  0.50400001928E-02 0.  1.
       -1    1    3    3    0  502 -0.76578532338E+03 -0.58757675661E+03  0.65087960011E+03  0.11641811974E+04  0.50400001928E-02 0. -1.
</event>
<event>
 5   0  0.2110896E-05  0.2001451E+04  0.7818609E-02  0.8605943E-01
        1   -1    0    0  501    0  0.00000000000E+00  0.00000000000E+00  0.16550109621E+04  0.16550109621E+04  0.50400001928E-02 0. -1.
       -1   -1    0    0    0  501  0.00000000000E+00  0.00000000000E+00 -0.60510258915E+03  0.60510258917E+03  0.50400001928E-02 0.  1.
    10030    2    1    2    0    0  0.00000000000E+00  0.00000000000E+00  0.10499083730E+04  0.22601135513E+04  0.20014508920E+04 0.  0.
        4    1    3    3  502    0  0.51486814950E+03  0.75220176884E+03  0.58600815358E+02  0.91341796614E+03  0.12699999809E+01 0. -1.
       -4    1    3    3    0  502 -0.51486814950E+03 -0.75220176884E+03  0.99130755761E+03  0.13466955852E+04  0.12699999809E+01 0.  1.
</event>
<event>
 5   0  0.2110896E-05  0.1998463E+04  0.7818609E-02  0.8607340E-01
       -1   -1    0    0    0  501  0.00000000000E+00  0.00000000000E+00  0.93973040360E+03  0.93973040362E+03  0.50400001928E-02 0.  1.
        1   -1    0    0  501    0  0.00000000000E+00  0.00000000000E+00 -0.10625001955E+04  0.10625001955E+04  0.50400001928E-02 0. -1.
    10030    2    1    2    0    0  0.00000000000E+00  0.00000000000E+00 -0.12276979188E+03  0.20022305991E+04  0.19984631471E+04 0.  0.
        4    1    3    3  502    0 -0.95499641499E+03 -0.15648539196E+03 -0.31076434811E+03  0.10164063771E+04  0.12699999809E+01 0. -1.
       -4    1    3    3    0  502  0.95499641499E+03  0.15648539196E+03  0.18799455623E+03  0.98582422197E+03  0.12699999809E+01 0.  1.
</event>
<event>
 5   0  0.4447313E-05  0.2000940E+04  0.7818609E-02  0.8606181E-01
       -2   -1    0    0    0  501  0.00000000000E+00  0.00000000000E+00  0.42632797830E+03  0.42632797830E+03  0.25500000920E-02 0. -1.
        2   -1    0    0  501    0  0.00000000000E+00  0.00000000000E+00 -0.23478178273E+04  0.23478178273E+04  0.25500000920E-02 0.  1.
    10030    2    1    2    0    0  0.00000000000E+00  0.00000000000E+00 -0.19214898490E+04  0.27741458056E+04  0.20009402067E+04 0.  0.
        5    1    3    3  502    0 -0.62353656557E+02  0.12898702068E+03 -0.23335067970E+04  0.23379054069E+04  0.46999998093E+01 0.  1.
       -5    1    3    3    0  502  0.62353656557E+02 -0.12898702068E+03  0.41201694802E+03  0.43624039868E+03  0.46999998093E+01 0. -1.
</event>
<event>
 5   0  0.2256868E-05  0.2013421E+04  0.7818609E-02  0.8600372E-01
       -1   -1    0    0    0  501  0.00000000000E+00  0.00000000000E+00  0.78968246473E+03  0.78968246474E+03  0.50400001928E-02 0. -1.
        1   -1    0    0  501    0  0.00000000000E+00  0.00000000000E+00 -0.12833836593E+04  0.12833836593E+04  0.50400001928E-02 0.  1.
    10030    2    1    2    0    0  0.00000000000E+00  0.00000000000E+00 -0.49370119458E+03  0.20730661241E+04  0.20134205436E+04 0.  0.
        5    1    3    3  502    0  0.23602867861E+03  0.97492851182E+03 -0.15919130331E+03  0.10156569801E+04  0.46999998093E+01 0. -1.
       -5    1    3    3    0  502 -0.23602867861E+03 -0.97492851182E+03 -0.33450989127E+03  0.10574091439E+04  0.46999998093E+01 0.  1.
</event>
<event>
 5   0  0.2256868E-05  0.2000400E+04  0.7818609E-02  0.8606434E-01
       -1   -1    0    0    0  501  0.00000000000E+00  0.00000000000E+00  0.96751462688E+03  0.96751462689E+03  0.50400001928E-02 0. -1.
        1   -1    0    0  501    0  0.00000000000E+00  0.00000000000E+00 -0.10339896481E+04  0.10339896481E+04  0.50400001928E-02 0.  1.
    10030    2    1    2    0    0  0.00000000000E+00  0.00000000000E+00 -0.66475021252E+02  0.20015042750E+04  0.20004000686E+04 0.  0.
        5    1    3    3  502    0 -0.89498090595E+03  0.41654034041E+03  0.12772808178E+03  0.99540606291E+03  0.46999998093E+01 0. -1.
       -5    1    3    3    0  502  0.89498090595E+03 -0.41654034041E+03 -0.19420310303E+03  0.10060982121E+04  0.46999998093E+01 0.  1.
</event>
<event>
 5   0  0.4473361E-05  0.1999465E+04  0.7818609E-02  0.8606871E-01
        2   -1    0    0  501    0  0.00000000000E+00  0.00000000000E+00  0.18714792359E+04  0.18714792359E+04  0.25500000920E-02 0.  1.
       -2   -1    0    0    0  501  0.00000000000E+00  0.00000000000E+00 -0.53405085358E+03  0.53405085358E+03  0.25500000920E-02 0. -1.
    10030    2    1    2    0    0  0.00000000000E+00  0.00000000000E+00  0.13374283823E+04  0.24055300895E+04  0.19994650118E+04 0.  0.
        2    1    3    3  502    0  0.37173030657E+03  0.76466534776E+03  0.13014150086E+04  0.15545345090E+04  0.25500000920E-02 0.  1.
       -2    1    3    3    0  502 -0.37173030657E+03 -0.76466534776E+03  0.36013373653E+02  0.85099558047E+03  0.25500000920E-02 0. -1.
</event>
<event>
 5   0  0.2142551E-05  0.1998299E+04  0.7818609E-02  0.8607416E-01
       -1   -1    0    0    0  501  0.00000000000E+00  0.00000000000E+00  0.17602599681E+04  0.17602599681E+04  0.50400001928E-02 0. -1.
        1   -1    0    0  501    0  0.00000000000E+00  0.00000000000E+00 -0.56713192662E+03  0.56713192664E+03  0.50400001928E-02 0.  1.
    10030    2    1    2    0    0  0.00000000000E+00  0.00000000000E+00  0.11931280415E+04  0.23273918947E+04  0.19982989036E+04 0.  0.
        3    1    3    3  502    0 -0.43581691359E+03  0.81865939532E+03  0.16365137158E+03  0.94176502873E+03  0.10100000352E+00 0.  1.
       -3    1    3    3    0  502  0.43581691359E+03 -0.81865939532E+03  0.10294766699E+04  0.13856268660E+04  0.10100000352E+00 0. -1.
</event>
<event>
 5   0  0.4514680E-05  0.2001518E+04  0.7818609E-02  0.8605911E-01
        2   -1    0    0  501    0  0.00000000000E+00  0.00000000000E+00  0.10977732032E+04  0.10977732032E+04  0.25500000920E-02 0.  1.
       -2   -1    0    0    0  501  0.00000000000E+00  0.00000000000E+00 -0.91231849190E+03  0.91231849190E+03  0.25500000920E-02 0. -1.
    10030    2    1    2    0    0  0.00000000000E+00  0.00000000000E+00  0.18545471126E+03  0.20100916951E+04  0.20015182169E+04 0.  0.
        3    1    3    3  502    0  0.39298767536E+03 -0.53872615018E+03  0.84215004894E+03  0.10741889466E+04  0.10100000352E+00 0.  1.
       -3    1    3    3    0  502 -0.39298767536E+03  0.53872615018E+03 -0.65669533768E+03  0.93590274847E+03  0.10100000352E+00 0. -1.
</event>
<event>
 5   0  0.4412054E-05  0.1995315E+04  0.7818609E-02  0.8608814E-01
       -2   -1    0    0    0  501  0.00000000000E+00  0.00000000000E+00  0.95935908215E+03  0.95935908215E+03  0.25500000920E-02 0.  1.
        2   -1    0    0  501    0  0.00000000000E+00  0.00000000000E+00 -0.10374847565E+04  0.10374847565E+04  0.25500000920E-02 0. -1.
    10030    2    1    2    0    0  0.00000000000E+00  0.00000000000E+00 -0.78125674379E+02  0.19968438387E+04  0.19953149363E+04 0.  0.
        4    1    3    3  502    0  0.39413600349E+03  0.71179542325E+03 -0.61684645372E+03  0.10210274601E+04  0.12699999809E+01 0. -1.
       -4    1    3    3    0  502 -0.39413600349E+03 -0.71179542325E+03  0.53872077935E+03  0.97581637863E+03  0.12699999809E+01 0.  1.
</event>
<event>
 5   0  0.4412054E-05  0.1994478E+04  0.7818609E-02  0.8609207E-01
       -2   -1    0    0    0  501  0.00000000000E+00  0.00000000000E+00  0.73501731667E+03  0.73501731668E+03  0.25500000920E-02 0. -1.
        2   -1    0    0  501    0  0.00000000000E+00  0.00000000000E+00 -0.13530098105E+04  0.13530098105E+04  0.25500000920E-02 0.  1.
    10030    2    1    2    0    0  0.00000000000E+00  0.00000000000E+00 -0.61799249382E+03  0.20880271272E+04  0.19944780173E+04 0.  0.
        4    1    3    3  502    0 -0.51382931278E+03  0.43180270641E+03 -0.10811615435E+04  0.12725509954E+04  0.12699999809E+01 0.  1.
       -4    1    3    3    0  502  0.51382931278E+03 -0.43180270641E+03  0.46316904969E+03  0.81547613173E+03  0.12699999809E+01 0. -1.
</event>
<event>
 5   0  0.2093980E-05  0.2000275E+04  0.7818609E-02  0.8606492E-01
       -1   -1    0    0    0  501  0.00000000000E+00  0.00000000000E+00  0.11812215950E+04  0.11812215950E+04  0.50400001928E-02 0. -1.
        1   -1    0    0  501    0  0.00000000000E+00  0.00000000000E+00 -0.84681362768E+03  0.84681362770E+03  0.50400001928E-02 0.  1.
    10030    2    1    2    0    0  0.00000000000E+00  0.00000000000E+00  0.33440796734E+03  0.20280352227E+04  0.20002745252E+04 0.  0.
        2    1    3    3  502    0  0.97368382209E+03 -0.12362703841E+03 -0.27636743383E+02  0.98188982051E+03  0.25500000920E-02 0. -1.
       -2    1    3    3    0  502 -0.97368382209E+03  0.12362703841E+03  0.36204471072E+03  0.10461454022E+04  0.25500000920E-02 0.  1.
</event>
<event>
 5   0  0.4577279E-05  0.1997755E+04  0.7818609E-02  0.8607671E-01
        2   -1    0    0  501    0  0.00000000000E+00  0.00000000000E+00  0.13571576386E+04  0.13571576386E+04  0.25500000920E-02 0. -1.
       -2   -1    0    0    0  501  0.00000000000E+00  0.00000000000E+00 -0.73518049409E+03  0.73518049409E+03  0.25500000920E-02 0.  1.
    10030    2    1    2    0    0  0.00000000000E+00  0.00000000000E+00  0.62197714452E+03  0.20923381327E+04  0.19977545628E+04 0.  0.
        1    1    3    3  502    0  0.44996833461E+03 -0.35084637324E+03  0.11696780317E+04  0.13014266701E+04  0.50400001928E-02 0. -1.
       -1    1    3    3    0  502 -0.44996833461E+03  0.35084637324E+03 -0.54770088721E+03  0.79091146258E+03  0.50400001928E-02 0.  1.
</event>
<event>
 5   0  0.2007644E-05  0.2005609E+04  0.7818609E-02  0.8604003E-01
        1   -1    0    0  501    0  0.00000000000E+00  0.00000000000E+00  0.92277785973E+03  0.92277785974E+03  0.50400001928E-02 0. -1.
       -1   -1    0    0    0  501  0.00000000000E+00  0.00000000000E+00 -0.10897712271E+04  0.10897712271E+04  0.50400001928E-02 0.  1.
    10030    2    1    2    0    0  0.00000000000E+00  0.00000000000E+00 -0.16699336739E+03  0.20125490869E+04  0.20056088956E+04 0.  0.
        1    1    3    3  502    0  0.54846154799E+03 -0.26785292310E+03  0.71490820343E+03  0.94002606209E+03  0.50400001928E-02 0. -1.
       -1    1    3    3    0  502 -0.54846154799E+03  0.26785292310E+03 -0.88190157082E+03  0.10725230248E+04  0.50400001928E-02 0.  1.
</event>
<event>
 5   0  0.2256868E-05  0.1995139E+04  0.7818609E-02  0.8608897E-01
       -1   -1    0    0    0  501  0.00000000000E+00  0.00000000000E+00  0.64311781085E+03  0.64311781087E+03  0.50400001928E-02 0.  1.
        1   -1    0    0  501    0  0.00000000000E+00  0.00000000000E+00 -0.15473753394E+04  0.15473753394E+04  0.50400001928E-02 0. -1.
    10030    2    1    2    0    0  0.00000000000E+00  0.00000000000E+00 -0.90425752852E+03  0.21904931503E+04  0.19951387329E+04 0.  0.
        5    1    3    3  502    0 -0.79996696909E+03 -0.30040542593E+03  0.11298513819E+03  0.86196189186E+03  0.46999998093E+01 0.  1.
       -5    1    3    3    0  502  0.79996696909E+03  0.30040542593E+03 -0.10172426667E+04  0.13285312584E+04  0.46999998093E+01 0. -1.
</event>
<event>
 5   0  0.4577279E-05  0.2004145E+04  0.7818609E-02  0.8604685E-01
       -2   -1    0    0    0  501  0.00000000000E+00  0.00000000000E+00  0.45664062760E+03  0.45664062761E+03  0.25500000920E-02 0. -1.
        2   -1    0    0  501    0  0.00000000000E+00  0.00000000000E+00 -0.21989933805E+04  0.21989933805E+04  0.25500000920E-02 0.  1.
    10030    2    1    2    0    0  0.00000000000E+00  0.00000000000E+00 -0.17423527529E+04  0.26556340081E+04  0.20041454213E+04 0.  0.
        1    1    3    3  502    0  0.21175506621E+03  0.38090001136E+03 -0.20668458037E+04  0.21122917893E+04  0.50400001928E-02 0.  1.
       -1    1    3    3    0  502 -0.21175506621E+03 -0.38090001136E+03  0.32449305081E+03  0.54334221883E+03  0.50400001928E-02 0. -1.
</event>
<event>
 5   0  0.2256868E-05  0.1996709E+04  0.7818609E-02  0.8608161E-01
        1   -1    0    0  501    0  0.00000000000E+00  0.00000000000E+00  0.67184800140E+03  0.67184800142E+03  0.50400001928E-02 0. -1.
       -1   -1    0    0    0  501  0.00000000000E+00  0.00000000000E+00 -0.14835368124E+04  0.14835368124E+04  0.50400001928E-02 0.  1.
    10030    2    1    2    0    0  0.00000000000E+00  0.00000000000E+00 -0.81168881103E+03  0.21553848139E+04  0.19967085340E+04 0.  0.
        5    1    3    3  502    0  0.30641390299E+03  0.20687031050E+03  0.59521642297E+03  0.70070641890E+03  0.46999998093E+01 0. -1.
       -5    1    3    3    0  502 -0.30641390299E+03 -0.20687031050E+03 -0.14069052340E+04  0.14546783950E+04  0.46999998093E+01 0.  1.
</event>
<event>
 5   0  0.2142551E-05  0.1992142E+04  0.7818609E-02  0.8610303E-01
        1   -1    0    0  501    0  0.00000000000E+00  0.00000000000E+00  0.94904853097E+03  0.94904853098E+03  0.50400001928E-02 0. -1.
       -1   -1    0    0    0  501  0.00000000000E+00  0.00000000000E+00 -0.10454236293E+04  0.10454236293E+04  0.50400001928E-02 0.  1.
    10030    2    1    2    0    0  0.00000000000E+00  0.00000000000E+00 -0.96375098349E+02  0.19944721603E+04  0.19921423239E+04 0.  0.
        3    1    3    3  502    0  0.18171456172E+03  0.61831080387E+03 -0.80856858861E+03  0.10339785321E+04  0.10100000352E+00 0.  1.
       -3    1    3    3    0  502 -0.18171456172E+03 -0.61831080387E+03  0.71219349026E+03  0.96049362824E+03  0.10100000352E+00 0. -1.
</event>
<event>
 5   0  0.2110896E-05  0.1982735E+04  0.7818609E-02  0.8614735E-01
       -1   -1    0    0    0  501  0.00000000000E+00  0.00000000000E+00  0.81064533922E+03  0.81064533924E+03  0.50400001928E-02 0. -1.
        1   -1    0    0  501    0  0.00000000000E+00  0.00000000000E+00 -0.12123796380E+04  0.12123796380E+04  0.50400001928E-02 0.  1.
    10030    2    1    2    0    0  0.00000000000E+00  0.00000000000E+00 -0.40173429877E+03  0.20230249772E+04  0.19827353862E+04 0.  0.
        4    1    3    3  502    0 -0.71119032881E+02  0.93228401087E+03 -0.53710391068E+03  0.10782827169E+04  0.12699999809E+01 0.  1.
       -4    1    3    3    0  502  0.71119032881E+02 -0.93228401087E+03  0.13536961191E+03  0.94474226035E+03  0.12699999809E+01 0. -1.
</event>
<event>
 5   0  0.4447313E-05  0.1993633E+04  0.7818609E-02  0.8609603E-01
        2   -1    0    0  501    0  0.00000000000E+00  0.00000000000E+00  0.60843286662E+03  0.60843286662E+03  0.25500000920E-02 0. -1.
       -2   -1    0    0    0  501  0.00000000000E+00  0.00000000000E+00 -0.16331192034E+04  0.16331192034E+04  0.25500000920E-02 0.  1.
    10030    2    1    2    0    0  0.00000000000E+00  0.00000000000E+00 -0.10246863368E+04  0.22415520700E+04  0.19936332646E+04 0.  0.
        5    1    3    3  502    0  0.29098812653E+03  0.67995825909E+02 -0.15815593860E+04  0.16095495344E+04  0.46999998093E+01 0.  1.
       -5    1    3    3    0  502 -0.29098812653E+03 -0.67995825909E+02  0.55687304922E+03  0.63200253566E+03  0.46999998093E+01 0. -1.
</event>
<event>
 5   0  0.4577279E-05  0.1998102E+04  0.7818609E-02  0.8607508E-01
       -2   -1    0    0    0  501  0.00000000000E+00  0.00000000000E+00  0.62976875096E+03  0.62976875097E+03  0.25500000920E-02 0.  1.
        2   -1    0    0  501    0  0.00000000000E+00  0.00000000000E+00 -0.15848723527E+04  0.15848723528E+04  0.25500000920E-02 0. -1.
    10030    2    1    2    0    0  0.00000000000E+00  0.00000000000E+00 -0.95510360179E+03  0.22146411037E+04  0.19981021816E+04 0.  0.
        1    1    3    3  502    0 -0.27541063765E+03  0.12972748811E+01 -0.15419645888E+04  0.15663676118E+04  0.50400001928E-02 0. -1.
       -1    1    3    3    0  502  0.27541063765E+03 -0.12972748811E+01  0.58686098699E+03  0.64827349192E+03  0.50400001928E-02 0.  1.
</event>
<event>
 5   0  0.2093980E-05  0.1979179E+04  0.7818609E-02  0.8616418E-01
        1   -1    0    0  501    0  0.00000000000E+00  0.00000000000E+00  0.14314434824E+04  0.14314434824E+04  0.50400001928E-02 0. -1.
       -1   -1    0    0    0  501  0.00000000000E+00  0.00000000000E+00 -0.68412557805E+03  0.68412557807E+03  0.50400001928E-02 0.  1.
    10030    2    1    2    0    0  0.00000000000E+00  0.00000000000E+00  0.74731790434E+03  0.21155690605E+04  0.19791787184E+04 0.  0.
        2    1    3    3  502    0  0.86466612791E+02 -0.98494870305E+03  0.32975959411E+03  0.10422772245E+04  0.25500000920E-02 0.  1.
       -2    1    3    3    0  502 -0.86466612791E+02  0.98494870305E+03  0.41755831023E+03  0.10732918360E+04  0.25500000920E-02 0. -1.
</event>
<event>
 5   0  0.2256868E-05  0.2016271E+04  0.7818609E-02  0.8599051E-01
        1   -1    0    0  501    0  0.00000000000E+00  0.00000000000E+00  0.15676282874E+04  0.15676282874E+04  0.50400001928E-02 0. -1.
       -1   -1    0    0    0  501  0.00000000000E+00  0.00000000000E+00 -0.64832802444E+03  0.64832802446E+03  0.50400001928E-02 0.  1.
    10030    2    1    2    0    0  0.00000000000E+00  0.00000000000E+00  0.91930026299E+03  0.22159563119E+04  0.20162711630E+04 0.  0.
        5    1    3    3  502    0 -0.18632472054E+03  0.91677574963E+03  0.87251453255E+03  0.12792569625E+04  0.46999998093E+01 0.  1.
       -5    1    3    3    0  502  0.18632472054E+03 -0.91677574963E+03  0.46785730448E+02  0.93669934940E+03  0.46999998093E+01 0. -1.
</event>
<event>
 5   0  0.4514680E-05  0.1995859E+04  0.7818609E-02  0.8608559E-01
       -2   -1    0    0    0  501  0.00000000000E+00  0.00000000000E+00  0.10343625283E+04  0.10343625283E+04  0.25500000920E-02 0. -1.
        2   -1    0    0  501    0  0.00000000000E+00  0.00000000000E+00 -0.96277990376E+03  0.96277990376E+03  0.25500000920E-02 0.  1.
    10030    2    1    2    0    0  0.00000000000E+00  0.00000000000E+00  0.71582624496E+02  0.19971424320E+04  0.19958591688E+04 0.  0.
        3    1    3    3  502    0 -0.32542287347E+03 -0.24147449049E+03 -0.87674540339E+03  0.96586359736E+03  0.10100000352E+00 0.  1.
       -3    1    3    3    0  502  0.32542287347E+03  0.24147449049E+03  0.94832802789E+03  0.10312788347E+04  0.10100000352E+00 0. -1.
</event>
<event>
 5   0  0.4577279E-05  0.1997610E+04  0.7818609E-02  0.8607739E-01
        2   -1    0    0  501    0  0.00000000000E+00  0.00000000000E+00  0.95883108066E+03  0.95883108066E+03  0.25500000920E-02 0. -1.
       -2   -1    0    0    0  501  0.00000000000E+00  0.00000000000E+00 -0.10404452077E+04  0.10404452077E+04  0.25500000920E-02 0.  1.
    10030    2    1    2    0    0  0.00000000000E+00  0.00000000000E+00 -0.81614127016E+02  0.19992762883E+04  0.19976097746E+04 0.  0.
        1    1    3    3  502    0  0.64742734558E+03  0.76054171376E+03 -0.45844814886E+02  0.99984379443E+03  0.50400001928E-02 0. -1.
       -1    1    3    3    0  502 -0.64742734558E+03 -0.76054171376E+03 -0.35769312130E+02  0.99943249392E+03  0.50400001928E-02 0.  1.
</event>
<event>
 5   0  0.1601500E-05  0.2002339E+04  0.7818609E-02  0.8605528E-01
       -3   -1    0    0    0  501  0.00000000000E+00  0.00000000000E+00  0.20730842375E+04  0.20730842400E+04  0.10100000352E+00 0. -1.
        3   -1    0    0  501    0  0.00000000000E+00  0.00000000000E+00 -0.48350218280E+03  0.48350219335E+03  0.10100000352E+00 0.  1.
    10030    2    1    2    0    0  0.00000000000E+00  0.00000000000E+00  0.15895820547E+04  0.25565864333E+04  0.20023394024E+04 0.  0.
        2    1    3    3  502    0 -0.17877225313E+03  0.73737871093E+03 -0.39198583527E+02  0.75975220354E+03  0.25500000920E-02 0.  1.
       -2    1    3    3    0  502  0.17877225313E+03 -0.73737871093E+03  0.16287806382E+04  0.17968342298E+04  0.25500000920E-02 0. -1.
</event>
<event>
 5   0  0.2093980E-05  0.1986321E+04  0.7818609E-02  0.8613043E-01
        1   -1    0    0  501    0  0.00000000000E+00  0.00000000000E+00  0.17160018375E+04  0.17160018375E+04  0.50400001928E-02 0. -1.
       -1   -1    0    0    0  501  0.00000000000E+00  0.00000000000E+00 -0.57480553693E+03  0.57480553695E+03  0.50400001928E-02 0.  1.
    10030    2    1    2    0    0  0.00000000000E+00  0.00000000000E+00  0.11411963005E+04  0.22908073744E+04  0.19863205759E+04 0.  0.
        2    1    3    3  502    0 -0.27633854136E+03 -0.91192034679E+03  0.24766479212E+03  0.98453012020E+03  0.25500000920E-02 0.  1.
       -2    1    3    3    0  502  0.27633854136E+03  0.91192034679E+03  0.89353150841E+03  0.13062772542E+04  0.25500000920E-02 0. -1.
</event>
<event>
 5   0  0.2256868E-05  0.2010969E+04  0.7818609E-02  0.8601510E-01
       -1   -1    0    0    0  501  0.00000000000E+00  0.00000000000E+00  0.64416252811E+03  0.64416252813E+03  0.50400001928E-02 0. -1.
        1   -1    0    0  501    0  0.00000000000E+00  0.00000000000E+00 -0.15694777768E+04  0.15694777768E+04  0.50400001928E-02 0.  1.
    10030    2    1    2    0    0  0.00000000000E+00  0.00000000000E+00 -0.92531524865E+03  0.22136403049E+04  0.20109686944E+04 0.  0.
        5    1    3    3  502    0 -0.22635548213E+01  0.16271469821E+03  0.62955856203E+03  0.65026707568E+03  0.46999998093E+01 0. -1.
       -5    1    3    3    0  502  0.22635548213E+01 -0.16271469821E+03 -0.15548738107E+04  0.15633732292E+04  0.46999998093E+01 0.  1.
</event>
<event>
 5   0  0.2093980E-05  0.2000188E+04  0.7818609E-02  0.8606533E-01
       -1   -1    0    0    0  501  0.00000000000E+00  0.00000000000E+00  0.59911333559E+03  0.59911333561E+03  0.50400001928E-02 0. -1.
        1   -1    0    0  501    0  0.00000000000E+00  0.00000000000E+00 -0.16694477491E+04  0.16694477491E+04  0.50400001928E-02 0.  1.
    10030    2    1    2    0    0  0.00000000000E+00  0.00000000000E+00 -0.10703344135E+04  0.22685610847E+04  0.20001884007E+04 0.  0.
        2    1    3    3  502    0  0.17839264810E+03 -0.36583542971E+03 -0.15712638503E+04  0.16231234044E+04  0.25500000920E-02 0.  1.
       -2    1    3    3    0  502 -0.17839264810E+03  0.36583542971E+03  0.50092943680E+03  0.64543768033E+03  0.25500000920E-02 0. -1.
</event>
<event>
 5   0  0.2256868E-05  0.2000451E+04  0.7818609E-02  0.8606410E-01
        1   -1    0    0  501    0  0.00000000000E+00  0.00000000000E+00  0.75628223824E+03  0.75628223826E+03  0.50400001928E-02 0. -1.
       -1   -1    0    0    0  501  0.00000000000E+00  0.00000000000E+00 -0.13228534453E+04  0.13228534453E+04  0.50400001928E-02 0.  1.
    10030    2    1    2    0    0  0.00000000000E+00  0.00000000000E+00 -0.56657120708E+03  0.20791356836E+04  0.20004505138E+04 0.  0.
        5    1    3    3  502    0  0.80937867632E+03  0.57696158157E+03 -0.16731735274E+03  0.10079661179E+04  0.46999998093E+01 0. -1.
       -5    1    3    3    0  502 -0.80937867632E+03 -0.57696158157E+03 -0.39925385435E+03  0.10711695657E+04  0.46999998093E+01 0.  1.
</event>
<event>
 5   0  0.2093980E-05  0.2000760E+04  0.7818609E-02  0.8606265E-01
       -1   -1    0    0    0  501  0.00000000000E+00  0.00000000000E+00  0.10202332594E+04  0.10202332594E+04  0.50400001928E-02 0.  1.
        1   -1    0    0  501    0  0.00000000000E+00  0.00000000000E+00 -0.98091312253E+03  0.98091312254E+03  0.50400001928E-02 0. -1.
    10030    2    1    2    0    0  0.00000000000E+00  0.00000000000E+00  0.39320136846E+02  0.20011463819E+04  0.20007600478E+04 0.  0.
        2    1    3    3  502    0 -0.64659351252E+03  0.27604143090E+03 -0.69215013419E+03  0.98658697045E+03  0.25500000920E-02 0. -1.
       -2    1    3    3    0  502  0.64659351252E+03 -0.27604143090E+03  0.73147027104E+03  0.10145594115E+04  0.25500000920E-02 0.  1.
</event>
<event>
 5   0  0.4514680E-05  0.2025897E+04  0.7818609E-02  0.8594608E-01
        2   -1    0    0  501    0  0.00000000000E+00  0.00000000000E+00  0.85458143408E+03  0.85458143409E+03  0.25500000920E-02 0.  1.
       -2   -1    0    0    0  501  0.00000000000E+00  0.00000000000E+00 -0.12006634133E+04  0.12006634133E+04  0.25500000920E-02 0. -1.
    10030    2    1    2    0    0  0.00000000000E+00  0.00000000000E+00 -0.34608197918E+03  0.20552448474E+04  0.20258969979E+04 0.  0.
        3    1    3    3  502    0  0.19740049858E+03 -0.85004005484E+03  0.34873410388E+03  0.93976089357E+03  0.10100000352E+00 0.  1.
       -3    1    3    3    0  502 -0.19740049858E+03  0.85004005484E+03 -0.69481608306E+03  0.11154839538E+04  0.10100000352E+00 0. -1.
</event>
<event>
 5   0  0.4473361E-05  0.2000589E+04  0.7818609E-02  0.8606346E-01
        2   -1    0    0  501    0  0.00000000000E+00  0.00000000000E+00  0.22354764084E+04  0.22354764084E+04  0.25500000920E-02 0. -1.
       -2   -1    0    0    0  501  0.00000000000E+00  0.00000000000E+00 -0.44759525952E+03  0.44759525953E+03  0.25500000920E-02 0.  1.
    10030    2    1    2    0    0  0.00000000000E+00  0.00000000000E+00  0.17878811489E+04  0.26830716680E+04  0.20005885566E+04 0.  0.
        2    1    3    3  502    0  0.22573483563E+03  0.38156859250E+03  0.20965171389E+04  0.21428800528E+04  0.25500000920E-02 0. -1.
       -2    1    3    3    0  502 -0.22573483563E+03 -0.38156859250E+03 -0.30863599000E+03  0.54019161519E+03  0.25500000920E-02 0.  1.
</event>
<event>
 5   0  0.4577279E-05  0.2002323E+04  0.7818609E-02  0.8605535E-01
        2   -1    0    0  501    0  0.00000000000E+00  0.00000000000E+00  0.14282529478E+04  0.14282529478E+04  0.25500000920E-02 0.  1.
       -2   -1    0    0    0  501  0.00000000000E+00  0.00000000000E+00 -0.70178341279E+03  0.70178341280E+03  0.25500000920E-02 0. -1.
    10030    2    1    2    0    0  0.00000000000E+00  0.00000000000E+00  0.72646953500E+03  0.21300363606E+04  0.20023228791E+04 0.  0.
        1    1    3    3  502    0  0.21251773158E+03 -0.49595556211E+03  0.12603438980E+04  0.13709859398E+04  0.50400001928E-02 0.  1.
       -1    1    3    3    0  502 -0.21251773158E+03  0.49595556211E+03 -0.53387436301E+03  0.75905042081E+03  0.50400001928E-02 0. -1.
</event>
<event>
 5   0  0.2093980E-05  0.2038364E+04  0.7818609E-02  0.8588892E-01
        1   -1    0    0  501    0  0.00000000000E+00  0.00000000000E+00  0.12871763558E+04  0.12871763558E+04  0.50400001928E-02 0. -1.
       -1   -1    0    0    0  501  0.00000000000E+00  0.00000000000E+00 -0.80698460576E+03  0.80698460578E+03  0.50400001928E-02 0.  1.
    10030    2    1    2    0    0  0.00000000000E+00  0.00000000000E+00  0.48019175002E+03  0.20941609616E+04  0.20383635633E+04 0.  0.
        2    1    3    3  502    0  0.13944865649E+03 -0.60277728639E+03  0.10721702824E+04  0.12378753973E+04  0.25500000920E-02 0. -1.
       -2    1    3    3    0  502 -0.13944865649E+03  0.60277728639E+03 -0.59197853237E+03  0.85628556427E+03  0.25500000920E-02 0.  1.
</event>
<event>
 5   0  0.4412054E-05  0.1995268E+04  0.7818609E-02  0.8608836E-01
        2   -1    0    0  501    0  0.00000000000E+00  0.00000000000E+00  0.90427493851E+03  0.90427493851E+03  0.25500000920E-02 0.  1.
       -2   -1    0    0    0  501  0.00000000000E+00  0.00000000000E+00 -0.11006319697E+04  0.11006319697E+04  0.25500000920E-02 0. -1.
    10030    2    1    2    0    0  0.00000000000E+00  0.00000000000E+00 -0.19635703122E+03  0.20049069082E+04  0.19952683095E+04 0.  0.
        4    1    3    3  502    0  0.66890106029E+03  0.55054487190E+03 -0.59528444424E+03  0.10511391282E+04  0.12699999809E+01 0. -1.
       -4    1    3    3    0  502 -0.66890106029E+03 -0.55054487190E+03  0.39892741302E+03  0.95376778002E+03  0.12699999809E+01 0.  1.
</event>
<event>
 5   0  0.2007644E-05  0.2028172E+04  0.7818609E-02  0.8593561E-01
       -1   -1    0    0    0  501  0.00000000000E+00  0.00000000000E+00  0.80275990830E+03  0.80275990832E+03  0.50400001928E-02 0.  1.
        1   -1    0    0  501    0  0.00000000000E+00  0.00000000000E+00 -0.12810437961E+04  0.12810437962E+04  0.50400001928E-02 0. -1.
    10030    2    1    2    0    0  0.00000000000E+00  0.00000000000E+00 -0.47828388784E+03  0.20838037045E+04  0.20281721824E+04 0.  0.
        1    1    3    3  502    0 -0.30133216222E+03 -0.13503984931E+03  0.74597681712E+03  0.81579301578E+03  0.50400001928E-02 0.  1.
       -1    1    3    3    0  502  0.30133216222E+03  0.13503984931E+03 -0.12242607050E+04  0.12680106887E+04  0.50400001928E-02 0. -1.
</event>
<event>
 5   0  0.2110896E-05  0.1997093E+04  0.7818609E-02  0.8607981E-01
        1   -1    0    0  501    0  0.00000000000E+00  0.00000000000E+00  0.19408567325E+04  0.19408567325E+04  0.50400001928E-02 0. -1.
       -1   -1    0    0    0  501  0.00000000000E+00  0.00000000000E+00 -0.51373975906E+03  0.51373975908E+03  0.50400001928E-02 0.  1.
    10030    2    1    2    0    0  0.00000000000E+00  0.00000000000E+00  0.14271169735E+04  0.24545964916E+04  0.19970931577E+04 0.  0.
        4    1    3    3  502    0 -0.96151223471E+03 -0.24905549972E+03  0.58726002201E+03  0.11538675686E+04  0.12699999809E+01 0. -1.
       -4    1    3    3    0  502  0.96151223471E+03  0.24905549972E+03  0.83985695147E+03  0.13007289231E+04  0.12699999809E+01 0.  1.
</event>
<event>
 5   0  0.4514680E-05  0.2000378E+04  0.7818609E-02  0.8606444E-01
        2   -1    0    0  501    0  0.00000000000E+00  0.00000000000E+00  0.19186670768E+04  0.19186670768E+04  0.25500000920E-02 0. -1.
       -2   -1    0    0    0  501  0.00000000000E+00  0.00000000000E+00 -0.52139198186E+03  0.52139198187E+03  0.25500000920E-02 0.  1.
    10030    2    1    2    0    0  0.00000000000E+00  0.00000000000E+00  0.13972750949E+04  0.24400590586E+04  0.20003775941E+04 0.  0.
        3    1    3    3  502    0  0.39848967888E+03 -0.91514944542E+03  0.62067445484E+03  0.11753847543E+04  0.10100000352E+00 0. -1.
       -3    1    3    3    0  502 -0.39848967888E+03  0.91514944542E+03  0.77660064008E+03  0.12646743043E+04  0.10100000352E+00 0.  1.
</event>
<event>
 5   0  0.2256868E-05  0.1997791E+04  0.7818609E-02  0.8607654E-01
        1   -1    0    0  501    0  0.00000000000E+00  0.00000000000E+00  0.16524822164E+04  0.16524822164E+04  0.50400001928E-02 0. -1.
       -1   -1    0    0    0  501  0.00000000000E+00  0.00000000000E+00 -0.60381429587E+03  0.60381429589E+03  0.50400001928E-02 0.  1.
    10030    2    1    2    0    0  0.00000000000E+00  0.00000000000E+00  0.10486679206E+04  0.22562965123E+04  0.19977911663E+04 0.  0.
        5    1    3    3  502    0 -0.15657398050E+03 -0.96218314005E+03  0.77037244288E+03  0.12425005421E+04  0.46999998093E+01 0. -1.
       -5    1    3    3    0  502  0.15657398050E+03  0.96218314005E+03  0.27829547768E+03  0.10137959702E+04  0.46999998093E+01 0.  1.
</event>
<event>
 5   0  0.4514680E-05  0.2060810E+04  0.7818609E-02  0.8578706E-01
       -2   -1    0    0    0  501  0.00000000000E+00  0.00000000000E+00  0.78691758564E+03  0.78691758564E+03  0.25500000920E-02 0.  1.
        2   -1    0    0  501    0  0.00000000000E+00  0.00000000000E+00 -0.13492326429E+04  0.13492326429E+04  0.25500000920E-02 0. -1.
    10030    2    1    2    0    0  0.00000000000E+00  0.00000000000E+00 -0.56231505727E+03  0.21361502285E+04  0.20608104171E+04 0.  0.
        3    1    3    3  502    0  0.50575280849E+02  0.71071072457E+03 -0.10527269494E+04  0.12711811961E+04  0.10100000352E+00 0. -1.
       -3    1    3    3    0  502 -0.50575280849E+02 -0.71071072457E+03  0.49041189211E+03  0.86496903249E+03  0.10100000352E+00 0.  1.
</event>
<event>
 5   0  0.2110896E-05  0.1979761E+04  0.7818609E-02  0.8616142E-01
       -1   -1    0    0    0  501  0.00000000000E+00  0.00000000000E+00  0.55145361028E+03  0.55145361030E+03  0.50400001928E-02 0.  1.
        1   -1    0    0  501    0  0.00000000000E+00  0.00000000000E+00 -0.17768735323E+04  0.17768735324E+04  0.50400001928E-02 0. -1.
    10030    2    1    2    0    0  0.00000000000E+00  0.00000000000E+00 -0.12254199221E+04  0.23283271427E+04  0.19797609194E+04 0.  0.
        4    1    3    3  502    0 -0.10391263516E+03 -0.57864640004E+03 -0.15493126589E+04  0.16571061583E+04  0.12699999809E+01 0. -1.
       -4    1    3    3    0  502  0.10391263516E+03  0.57864640004E+03  0.32389273679E+03  0.67122098437E+03  0.12699999809E+01 0.  1.
</event>
<event>
 5   0  0.2256868E-05  0.1994353E+04  0.7818609E-02  0.8609266E-01
       -1   -1    0    0    0  501  0.00000000000E+00  0.00000000000E+00  0.60499120610E+03  0.60499120612E+03  0.50400001928E-02 0. -1.
        1   -1    0    0  501    0  0.00000000000E+00  0.00000000000E+00 -0.16435950881E+04  0.16435950881E+04  0.50400001928E-02 0.  1.
    10030    2    1    2    0    0  0.00000000000E+00  0.00000000000E+00 -0.10386038820E+04  0.22485862942E+04  0.19943526014E+04 0.  0.
        5    1    3    3  502    0 -0.65705486548E+03  0.73163585083E+03 -0.33292224915E+03  0.10382058700E+04  0.46999998093E+01 0. -1.
       -5    1    3    3    0  502  0.65705486548E+03 -0.73163585083E+03 -0.70568163282E+03  0.12103804242E+04  0.46999998093E+01 0.  1.
</event>
<event>
 5   0  0.4447313E-05  0.1999322E+04  0.7818609E-02  0.8606937E-01
        2   -1    0    0  501    0  0.00000000000E+00  0.00000000000E+00  0.85972739221E+03  0.85972739221E+03  0.25500000920E-02 0.  1.
       -2   -1    0    0    0  501  0.00000000000E+00  0.00000000000E+00 -0.11623714682E+04  0.11623714682E+04  0.25500000920E-02 0. -1.
    10030    2    1    2    0    0  0.00000000000E+00  0.00000000000E+00 -0.30264407598E+03  0.20220988604E+04  0.19993224764E+04 0.  0.
        5    1    3    3  502    0 -0.87742816805E+03 -0.42821684690E+03 -0.36836084103E+03  0.10435332564E+04  0.46999998093E+01 0. -1.
       -5    1    3    3    0  502  0.87742816805E+03  0.42821684690E+03  0.65716765056E+02  0.97856560397E+03  0.46999998093E+01 0.  1.
</event>
<event>
 5   0  0.2007644E-05  0.2002854E+04  0.7818609E-02  0.8605288E-01
       -1   -1    0    0    0  501  0.00000000000E+00  0.00000000000E+00  0.10933310001E+04  0.10933310001E+04  0.50400001928E-02 0.  1.
        1   -1    0    0  501    0  0.00000000000E+00  0.00000000000E+00 -0.91724800686E+03  0.91724800688E+03  0.50400001928E-02 0. -1.
    10030    2    1    2    0    0  0.00000000000E+00  0.00000000000E+00  0.17608299320E+03  0.20105790069E+04  0.20028536448E+04 0.  0.
        1    1    3    3  502    0  0.96656720961E+03  0.18683684926E+03 -0.96229885014E+02  0.98915133814E+03  0.50400001928E-02 0. -1.
       -1    1    3    3    0  502 -0.96656720961E+03 -0.18683684926E+03  0.27231287821E+03  0.10214276688E+04  0.50400001928E-02 0.  1.
</event>
<event>
 5   0  0.4447313E-05  0.2003443E+04  0.7818609E-02  0.8605013E-01
       -2   -1    0    0    0  501  0.00000000000E+00  0.00000000000E+00  0.72629010839E+03  0.72629010839E+03  0.25500000920E-02 0.  1.
        2   -1    0    0  501    0  0.00000000000E+00  0.00000000000E+00 -0.13816050950E+04  0.13816050950E+04  0.25500000920E-02 0. -1.
    10030    2    1    2    0    0  0.00000000000E+00  0.00000000000E+00 -0.65531498664E+03  0.21078952034E+04  0.20034431504E+04 0.  0.
        5    1    3    3  502    0 -0.24425780667E+03 -0.85910536027E+03  0.14953024234E+03  0.90559664285E+03  0.46999998093E+01 0.  1.
       -5    1    3    3    0  502  0.24425780667E+03  0.85910536027E+03 -0.80484522898E+03  0.12022985606E+04  0.46999998093E+01 0. -1.
</event>
<event>
 5   0  0.2093980E-05  0.1998927E+04  0.7818609E-02  0.8607123E-01
       -1   -1    0    0    0  501  0.00000000000E+00  0.00000000000E+00  0.17518991067E+04  0.17518991068E+04  0.50400001928E-02 0. -1.
        1   -1    0    0  501    0  0.00000000000E+00  0.00000000000E+00 -0.57019657314E+03  0.57019657316E+03  0.50400001928E-02 0.  1.
    10030    2    1    2    0    0  0.00000000000E+00  0.00000000000E+00  0.11817025336E+04  0.23220956799E+04  0.19989265791E+04 0.  0.
        2    1    3    3  502    0  0.86656497972E+03  0.29391400434E+00  0.11693494913E+04  0.14554426074E+04  0.25500000920E-02 0. -1.
       -2    1    3    3    0  502 -0.86656497972E+03 -0.29391400434E+00  0.12353042261E+02  0.86665307253E+03  0.25500000920E-02 0.  1.
</event>
<event>
 5   0  0.2142551E-05  0.1996652E+04  0.7818609E-02  0.8608187E-01
        1   -1    0    0  501    0  0.00000000000E+00  0.00000000000E+00  0.12050833831E+04  0.12050833832E+04  0.50400001928E-02 0. -1.
       -1   -1    0    0    0  501  0.00000000000E+00  0.00000000000E+00 -0.82704244552E+03  0.82704244554E+03  0.50400001928E-02 0.  1.
    10030    2    1    2    0    0  0.00000000000E+00  0.00000000000E+00  0.37804093762E+03  0.20321258287E+04  0.19966523065E+04 0.  0.
        3    1    3    3  502    0 -0.43368882537E+03  0.62723160979E+03 -0.46674790530E+03  0.89406884906E+03  0.10100000352E+00 0.  1.
       -3    1    3    3    0  502  0.43368882537E+03 -0.62723160979E+03  0.84478884292E+03  0.11380569796E+04  0.10100000352E+00 0. -1.
</event>
<event>
 5   0  0.2256868E-05  0.1995814E+04  0.7818609E-02  0.8608580E-01
       -1   -1    0    0    0  501  0.00000000000E+00  0.00000000000E+00  0.14561679988E+04  0.14561679988E+04  0.50400001928E-02 0. -1.
        1   -1    0    0  501    0  0.00000000000E+00  0.00000000000E+00 -0.68386205757E+03  0.68386205759E+03  0.50400001928E-02 0.  1.
    10030    2    1    2    0    0  0.00000000000E+00  0.00000000000E+00  0.77230594122E+03  0.21400300564E+04  0.19958136625E+04 0.  0.
        5    1    3    3  502    0 -0.44383006053E+03 -0.31591892705E+02 -0.57159309614E+03  0.72437830439E+03  0.46999998093E+01 0.  1.
       -5    1    3    3    0  502  0.44383006053E+03  0.31591892705E+02  0.13438990374E+04  0.14156517520E+04  0.46999998093E+01 0. -1.
</event>
<event>
 5   0  0.4473361E-05  0.1996465E+04  0.7818609E-02  0.8608275E-01
        2   -1    0    0  501    0  0.00000000000E+00  0.00000000000E+00  0.10398823650E+04  0.10398823650E+04  0.25500000920E-02 0. -1.
       -2   -1    0    0    0  501  0.00000000000E+00  0.00000000000E+00 -0.95825093301E+03  0.95825093301E+03  0.25500000920E-02 0.  1.
    10030    2    1    2    0    0  0.00000000000E+00  0.00000000000E+00  0.81631432040E+02  0.19981332981E+04  0.19964651227E+04 0.  0.
        2    1    3    3  502    0  0.13321614828E+03 -0.98198006339E+03  0.16106959496E+03  0.10039794826E+04  0.25500000920E-02 0. -1.
       -2    1    3    3    0  502 -0.13321614828E+03  0.98198006339E+03 -0.79438162922E+02  0.99415381546E+03  0.25500000920E-02 0.  1.
</event>
<event>
 5   0  0.4577279E-05  0.1996861E+04  0.7818609E-02  0.8608090E-01
       -2   -1    0    0    0  501  0.00000000000E+00  0.00000000000E+00  0.38348682426E+03  0.38348682427E+03  0.25500000920E-02 0.  1.
        2   -1    0    0  501    0  0.00000000000E+00  0.00000000000E+00 -0.25994719992E+04  0.25994719992E+04  0.25500000920E-02 0. -1.
    10030    2    1    2    0    0  0.00000000000E+00  0.00000000000E+00 -0.22159851750E+04  0.29829588235E+04  0.19968607981E+04 0.  0.
        1    1    3    3  502    0  0.79065616277E+03 -0.16896234808E+02 -0.19756761851E+03  0.81514146894E+03  0.50400001928E-02 0.  1.
       -1    1    3    3    0  502 -0.79065616277E+03  0.16896234808E+02 -0.20184175564E+04  0.21678173545E+04  0.50400001928E-02 0. -1.
</event>
<event>
 5   0  0.2007644E-05  0.1916886E+04  0.7818609E-02  0.8646496E-01
       -1   -1    0    0    0  501  0.00000000000E+00  0.00000000000E+00  0.73543862517E+03  0.73543862518E+03  0.50400001928E-02 0. -1.
        1   -1    0    0  501    0  0.00000000000E+00  0.00000000000E+00 -0.12490687699E+04  0.12490687699E+04  0.50400001928E-02 0.  1.
    10030    2    1    2    0    0  0.00000000000E+00  0.00000000000E+00 -0.51363014470E+03  0.19845073951E+04  0.19168864535E+04 0.  0.
        1    1    3    3  502    0  0.33998821973E+03  0.87753740464E+03 -0.44473851662E+03  0.10408920378E+04  0.50400001928E-02 0.  1.
       -1    1    3    3    0  502 -0.33998821973E+03 -0.87753740464E+03 -0.68891628089E+02  0.94361535730E+03  0.50400001928E-02 0. -1.
</event>
<event>
 5   0  0.2142551E-05  0.1974341E+04  0.7818609E-02  0.8618712E-01
        1   -1    0    0  501    0  0.00000000000E+00  0.00000000000E+00  0.95990903245E+03  0.95990903246E+03  0.50400001928E-02 0. -1.
       -1   -1    0    0    0  501  0.00000000000E+00  0.00000000000E+00 -0.10152063124E+04  0.10152063124E+04  0.50400001928E-02 0.  1.
    10030    2    1    2    0    0  0.00000000000E+00  0.00000000000E+00 -0.55297279926E+02  0.19751153449E+04  0.19743411145E+04 0.  0.
        3    1    3    3  502    0 -0.32110675168E+03  0.84818396750E+03  0.36235050157E+03  0.97663887128E+03  0.10100000352E+00 0. -1.
       -3    1    3    3    0  502  0.32110675168E+03 -0.84818396750E+03 -0.41764778150E+03  0.99847647358E+03  0.10100000352E+00 0.  1.
</event>
<event>
 5   0  0.2142551E-05  0.2001244E+04  0.7818609E-02  0.8606039E-01
        1   -1    0    0  501    0  0.00000000000E+00  0.00000000000E+00  0.71265961440E+03  0.71265961442E+03  0.50400001928E-02 0.  1.
       -1   -1    0    0    0  501  0.00000000000E+00  0.00000000000E+00 -0.14049400881E+04  0.14049400881E+04  0.50400001928E-02 0. -1.
    10030    2    1    2    0    0  0.00000000000E+00  0.00000000000E+00 -0.69228047373E+03  0.21175997026E+04  0.20012436748E+04 0.  0.
        3    1    3    3  502    0 -0.78719479453E+03  0.52133730870E+03 -0.69672838842E+03  0.11734132654E+04  0.10100000352E+00 0. -1.
       -3    1    3    3    0  502  0.78719479453E+03 -0.52133730870E+03  0.44479146863E+01  0.94418643716E+03  0.10100000352E+00 0.  1.
</event>
<event>
 5   0  0.2093980E-05  0.1986013E+04  0.7818609E-02  0.8613188E-01
       -1   -1    0    0    0  501  0.00000000000E+00  0.00000000000E+00  0.70655714255E+03  0.70655714257E+03  0.50400001928E-02 0.  1.
        1   -1    0    0  501    0  0.00000000000E+00  0.00000000000E+00 -0.13955874036E+04  0.13955874036E+04  0.50400001928E-02 0. -1.
    10030    2    1    2    0    0  0.00000000000E+00  0.00000000000E+00 -0.68903026105E+03  0.21021445462E+04  0.19860133415E+04 0.  0.
        2    1    3    3  502    0 -0.14978506794E+02  0.71402910178E+03  0.38575584927E+03  0.81170776091E+03  0.25500000920E-02 0.  1.
       -2    1    3    3    0  502  0.14978506794E+02 -0.71402910178E+03 -0.10747861103E+04  0.12904367853E+04  0.25500000920E-02 0. -1.
</event>
<event>
 5   0  0.4577279E-05  0.1998161E+04  0.7818609E-02  0.8607481E-01
       -2   -1    0    0    0  501  0.00000000000E+00  0.00000000000E+00  0.13425699241E+04  0.13425699241E+04  0.25500000920E-02 0. -1.
        2   -1    0    0  501    0  0.00000000000E+00  0.00000000000E+00 -0.74347091307E+03  0.74347091307E+03  0.25500000920E-02 0.  1.
    10030    2    1    2    0    0  0.00000000000E+00  0.00000000000E+00  0.59909901103E+03  0.20860408372E+04  0.19981608417E+04 0.  0.
        1    1    3    3  502    0  0.54498825807E+03  0.11423643375E+03  0.11655497024E+04  0.12917307277E+04  0.50400001928E-02 0. -1.
       -1    1    3    3    0  502 -0.54498825807E+03 -0.11423643375E+03 -0.56645069134E+03  0.79431010945E+03  0.50400001928E-02 0.  1.
</event>
<event>
 5   0  0.4514680E-05  0.1999781E+04  0.7818609E-02  0.8606723E-01
        2   -1    0    0  501    0  0.00000000000E+00  0.00000000000E+00  0.94556586248E+03  0.94556586248E+03  0.25500000920E-02 0.  1.
       -2   -1    0    0    0  501  0.00000000000E+00  0.00000000000E+00 -0.10573366105E+04  0.10573366105E+04  0.25500000920E-02 0. -1.
    10030    2    1    2    0    0  0.00000000000E+00  0.00000000000E+00 -0.11177074805E+03  0.20029024730E+04  0.19997813921E+04 0.  0.
        3    1    3    3  502    0 -0.94354783415E+03  0.54660315718E+02  0.27098440747E+03  0.98321046818E+03  0.10100000352E+00 0.  1.
       -3    1    3    3    0  502  0.94354783415E+03 -0.54660315718E+02 -0.38275515552E+03  0.10196920048E+04  0.10100000352E+00 0. -1.
</event>
<event>
 5   0  0.2142551E-05  0.2010492E+04  0.7818609E-02  0.8601731E-01
       -1   -1    0    0    0  501  0.00000000000E+00  0.00000000000E+00  0.10002546412E+04  0.10002546412E+04  0.50400001928E-02 0.  1.
        1   -1    0    0  501    0  0.00000000000E+00  0.00000000000E+00 -0.10102623008E+04  0.10102623008E+04  0.50400001928E-02 0. -1.
    10030    2    1    2    0    0  0.00000000000E+00  0.00000000000E+00 -0.10007659595E+02  0.20105169421E+04  0.20104920346E+04 0.  0.
        3    1    3    3  502    0 -0.66055890740E+03 -0.53542001110E+03 -0.54120715916E+03  0.10079275062E+04  0.10100000352E+00 0. -1.
       -3    1    3    3    0  502  0.66055890740E+03  0.53542001110E+03  0.53119949957E+03  0.10025894359E+04  0.10100000352E+00 0.  1.
</event>
<event>
 5   0  0.4412054E-05  0.2043461E+04  0.7818609E-02  0.8586567E-01
        2   -1    0    0  501    0  0.00000000000E+00  0.00000000000E+00  0.16890010677E+04  0.16890010677E+04  0.25500000920E-02 0. -1.
       -2   -1    0    0    0  501  0.00000000000E+00  0.00000000000E+00 -0.61807701259E+03  0.61807701259E+03  0.25500000920E-02 0.  1.
    10030    2    1    2    0    0  0.00000000000E+00  0.00000000000E+00  0.10709240551E+04  0.23070780803E+04  0.20434605298E+04 0.  0.
        4    1    3    3  502    0 -0.52753260128E+03  0.11486076735E+02 -0.45234261073E+03  0.69500937098E+03  0.12699999809E+01 0.  1.
       -4    1    3    3    0  502  0.52753260128E+03 -0.11486076735E+02  0.15232666659E+04  0.16120687093E+04  0.12699999809E+01 0. -1.
</event>
<event>
 5   0  0.2142551E-05  0.2009236E+04  0.7818609E-02  0.8602315E-01
       -1   -1    0    0    0  501  0.00000000000E+00  0.00000000000E+00  0.15760580942E+04  0.15760580942E+04  0.50400001928E-02 0.  1.
        1   -1    0    0  501    0  0.00000000000E+00  0.00000000000E+00 -0.64036807586E+03  0.64036807588E+03  0.50400001928E-02 0. -1.
    10030    2    1    2    0    0  0.00000000000E+00  0.00000000000E+00  0.93569001830E+03  0.22164261700E+04  0.20092359635E+04 0.  0.
        3    1    3    3  502    0  0.23080997761E+03  0.17295335417E+03 -0.59371489986E+03  0.66006325530E+03  0.10100000352E+00 0. -1.
       -3    1    3    3    0  502 -0.23080997761E+03 -0.17295335417E+03  0.15294049182E+04  0.15563629147E+04  0.10100000352E+00 0.  1.
</event>
<event>
 5   0  0.2142551E-05  0.1959436E+04  0.7818609E-02  0.8625824E-01
       -1   -1    0    0    0  501  0.00000000000E+00  0.00000000000E+00  0.10887443880E+04  0.10887443880E+04  0.50400001928E-02 0. -1.
        1   -1    0    0  501    0  0.00000000000E+00  0.00000000000E+00 -0.88160907535E+03  0.88160907537E+03  0.50400001928E-02 0.  1.
    10030    2    1    2    0    0  0.00000000000E+00  0.00000000000E+00  0.20713531265E+03  0.19703534634E+04  0.19594355649E+04 0.  0.
        3    1    3    3  502    0 -0.17648907260E+02  0.80727721074E+03  0.66149151734E+03  0.10438290169E+04  0.10100000352E+00 0. -1.
       -3    1    3    3    0  502  0.17648907260E+02 -0.80727721074E+03 -0.45435620469E+03  0.92652444644E+03  0.10100000352E+00 0.  1.
</event>
<event>
 5   0  0.4447313E-05  0.1998410E+04  0.7818609E-02  0.8607364E-01
       -2   -1    0    0    0  501  0.00000000000E+00  0.00000000000E+00  0.92719930617E+03  0.92719930617E+03  0.25500000920E-02 0.  1.
        2   -1    0    0  501    0  0.00000000000E+00  0.00000000000E+00 -0.10768026344E+04  0.10768026344E+04  0.25500000920E-02 0. -1.
    10030    2    1    2    0    0  0.00000000000E+00  0.00000000000E+00 -0.14960332822E+03  0.20040019406E+04  0.19984100235E+04 0.  0.
        5    1    3    3  502    0 -0.69936400050E+03  0.18698367136E+03  0.61583125205E+03  0.95044364354E+03  0.46999998093E+01 0.  1.
       -5    1    3    3    0  502  0.69936400050E+03 -0.18698367136E+03 -0.76543458027E+03  0.10535582970E+04  0.46999998093E+01 0. -1.
</event>
<event>
 5   0  0.2110896E-05  0.2001243E+04  0.7818609E-02  0.8606040E-01
       -1   -1    0    0    0  501  0.00000000000E+00  0.00000000000E+00  0.12145811968E+04  0.12145811968E+04  0.50400001928E-02 0. -1.
        1   -1    0    0  501    0  0.00000000000E+00  0.00000000000E+00 -0.82435252517E+03  0.82435252518E+03  0.50400001928E-02 0.  1.
    10030    2    1    2    0    0  0.00000000000E+00  0.00000000000E+00  0.39022867159E+03  0.20389337220E+04  0.20012426905E+04 0.  0.
        4    1    3    3  502    0  0.62165963153E+02 -0.80761993150E+03  0.79365375404E+03  0.11340204826E+04  0.12699999809E+01 0. -1.
       -4    1    3    3    0  502 -0.62165963153E+02  0.80761993150E+03 -0.40342508245E+03  0.90491323937E+03  0.12699999809E+01 0.  1.
</event>
<event>
 5   0  0.2142551E-05  0.1996598E+04  0.7818609E-02  0.8608213E-01
        1   -1    0    0  501    0  0.00000000000E+00  0.00000000000E+00  0.10814279145E+04  0.10814279145E+04  0.50400001928E-02 0. -1.
       -1   -1    0    0    0  501  0.00000000000E+00  0.00000000000E+00 -0.92155986151E+03  0.92155986152E+03  0.50400001928E-02 0.  1.
    10030    2    1    2    0    0  0.00000000000E+00  0.00000000000E+00  0.15986805297E+03  0.20029877760E+04  0.19965976652E+04 0.  0.
        3    1    3    3  502    0 -0.78475934818E+03  0.11361811957E+03 -0.52850872033E+03  0.95293115665E+03  0.10100000352E+00 0.  1.
       -3    1    3    3    0  502  0.78475934818E+03 -0.11361811957E+03  0.68837677330E+03  0.10500566194E+04  0.10100000352E+00 0. -1.
</event>
<event>
 5   0  0.4473361E-05  0.2008041E+04  0.7818609E-02  0.8602870E-01
       -2   -1    0    0    0  501  0.00000000000E+00  0.00000000000E+00  0.39497606789E+03  0.39497606790E+03  0.25500000920E-02 0.  1.
        2   -1    0    0  501    0  0.00000000000E+00  0.00000000000E+00 -0.25521980509E+04  0.25521980509E+04  0.25500000920E-02 0. -1.
    10030    2    1    2    0    0  0.00000000000E+00  0.00000000000E+00 -0.21572219830E+04  0.29471741188E+04  0.20080409863E+04 0.  0.
        2    1    3    3  502    0  0.35288981927E+03 -0.91123473893E+03 -0.14170620366E+04  0.17213206528E+04  0.25500000920E-02 0. -1.
       -2    1    3    3    0  502 -0.35288981927E+03  0.91123473893E+03 -0.74015994641E+03  0.12258534661E+04  0.25500000920E-02 0.  1.
</event>
<event>
 5   0  0.2110896E-05  0.2018213E+04  0.7818609E-02  0.8598152E-01
        1   -1    0    0  501    0  0.00000000000E+00  0.00000000000E+00  0.86925581001E+03  0.86925581002E+03  0.50400001928E-02 0. -1.
       -1   -1    0    0    0  501  0.00000000000E+00  0.00000000000E+00 -0.11714577065E+04  0.11714577065E+04  0.50400001928E-02 0.  1.
    10030    2    1    2    0    0  0.00000000000E+00  0.00000000000E+00 -0.30220189644E+03  0.20407135165E+04  0.20182134848E+04 0.  0.
        4    1    3    3  502    0  0.93121641321E+03 -0.18315108078E+02  0.24155204896E+03  0.96221019360E+03  0.12699999809E+01 0.  1.
       -4    1    3    3    0  502 -0.93121641321E+03  0.18315108078E+02 -0.54375394541E+03  0.10785033229E+04  0.12699999809E+01 0. -1.
</event>
<event>
 5   0  0.4577279E-05  0.2006691E+04  0.7818609E-02  0.8603499E-01
        2   -1    0    0  501    0  0.00000000000E+00  0.00000000000E+00  0.13377419828E+04  0.13377419828E+04  0.25500000920E-02 0.  1.
       -2   -1    0    0    0  501  0.00000000000E+00  0.00000000000E+00 -0.75253844438E+03  0.75253844438E+03  0.25500000920E-02 0. -1.
    10030    2    1    2    0    0  0.00000000000E+00  0.00000000000E+00  0.58520353841E+03  0.20902804272E+04  0.20066910781E+04 0.  0.
        1    1    3    3  502    0  0.44732462621E+03 -0.41540123540E+03 -0.53683635646E+03  0.81292729147E+03  0.50400001928E-02 0. -1.
       -1    1    3    3    0  502 -0.44732462621E+03  0.41540123540E+03  0.11220398949E+04  0.12773531357E+04  0.50400001928E-02 0.  1.
</event>
<event>
 5   0  0.2093980E-05  0.2003988E+04  0.7818609E-02  0.8604758E-01
        1   -1    0    0  501    0  0.00000000000E+00  0.00000000000E+00  0.14392728838E+04  0.14392728838E+04  0.50400001928E-02 0.  1.
       -1   -1    0    0    0  501  0.00000000000E+00  0.00000000000E+00 -0.69756896038E+03  0.69756896040E+03  0.50400001928E-02 0. -1.
    10030    2    1    2    0    0  0.00000000000E+00  0.00000000000E+00  0.74170392346E+03  0.21368418442E+04  0.20039881130E+04 0.  0.
        2    1    3    3  502    0  0.23592510523E+03 -0.89377260149E+03 -0.41436041051E+02  0.92531457568E+03  0.25500000920E-02 0. -1.
       -2    1    3    3    0  502 -0.23592510523E+03  0.89377260149E+03  0.78313996451E+03  0.12115272686E+04  0.25500000920E-02 0.  1.
</event>
<event>
 5   0  0.2110896E-05  0.1979795E+04  0.7818609E-02  0.8616126E-01
       -1   -1    0    0    0  501  0.00000000000E+00  0.00000000000E+00  0.15766045801E+04  0.15766045801E+04  0.50400001928E-02 0.  1.
        1   -1    0    0  501    0  0.00000000000E+00  0.00000000000E+00 -0.62152381291E+03  0.62152381293E+03  0.50400001928E-02 0. -1.
    10030    2    1    2    0    0  0.00000000000E+00  0.00000000000E+00  0.95508076723E+03  0.21981283931E+04  0.19797952320E+04 0.  0.
        4    1    3    3  502    0  0.47201984399E+03  0.69057818278E+03  0.10652499416E+04  0.13544223900E+04  0.12699999809E+01 0.  1.
       -4    1    3    3    0  502 -0.47201984399E+03 -0.69057818278E+03 -0.11016917438E+03  0.84370600302E+03  0.12699999809E+01 0. -1.
</event>
<event>
 5   0  0.4514680E-05  0.2033513E+04  0.7818609E-02  0.8591111E-01
       -2   -1    0    0    0  501  0.00000000000E+00  0.00000000000E+00  0.60352307515E+03  0.60352307516E+03  0.25500000920E-02 0.  1.
        2   -1    0    0  501    0  0.00000000000E+00  0.00000000000E+00 -0.17129314442E+04  0.17129314442E+04  0.25500000920E-02 0. -1.
    10030    2    1    2    0    0  0.00000000000E+00  0.00000000000E+00 -0.11094083691E+04  0.23164545194E+04  0.20335128746E+04 0.  0.
        3    1    3    3  502    0  0.98567187410E+03  0.76122138487E+02 -0.28405364422E+03  0.10286059043E+04  0.10100000352E+00 0.  1.
       -3    1    3    3    0  502 -0.98567187410E+03 -0.76122138487E+02 -0.82535472486E+03  0.12878486151E+04  0.10100000352E+00 0. -1.
</event>
<event>
 5   0  0.2142551E-05  0.1983204E+04  0.7818609E-02  0.8614514E-01
        1   -1    0    0  501    0  0.00000000000E+00  0.00000000000E+00  0.15693492059E+04  0.15693492059E+04  0.50400001928E-02 0.  1.
       -1   -1    0    0    0  501  0.00000000000E+00  0.00000000000E+00 -0.62654935719E+03  0.62654935721E+03  0.50400001928E-02 0. -1.
    10030    2    1    2    0    0  0.00000000000E+00  0.00000000000E+00  0.94279984870E+03  0.21958985631E+04  0.19832042116E+04 0.  0.
        3    1    3    3  502    0  0.75879843051E+03  0.28551237323E+03  0.11035815710E+04  0.13693738231E+04  0.10100000352E+00 0. -1.
       -3    1    3    3    0  502 -0.75879843051E+03 -0.28551237323E+03 -0.16078172228E+03  0.82652474000E+03  0.10100000352E+00 0.  1.
</event>
<event>
 5   0  0.4473361E-05  0.1998714E+04  0.7818609E-02  0.8607222E-01
       -2   -1    0    0    0  501  0.00000000000E+00  0.00000000000E+00  0.71555119429E+03  0.71555119429E+03  0.25500000920E-02 0. -1.
        2   -1    0    0  501    0  0.00000000000E+00  0.00000000000E+00 -0.13957271139E+04  0.13957271139E+04  0.25500000920E-02 0.  1.
    10030    2    1    2    0    0  0.00000000000E+00  0.00000000000E+00 -0.68017591958E+03  0.21112783082E+04  0.19987137897E+04 0.  0.
        2    1    3    3  502    0  0.10954033522E+03 -0.69616553502E+03 -0.10885614724E+04  0.12967696852E+04  0.25500000920E-02 0.  1.
       -2    1    3    3    0  502 -0.10954033522E+03  0.69616553502E+03  0.40838555280E+03  0.81450862300E+03  0.25500000920E-02 0. -1.
</event>
<event>
 5   0  0.4514680E-05  0.2005226E+04  0.7818609E-02  0.8604181E-01
        2   -1    0    0  501    0  0.00000000000E+00  0.00000000000E+00  0.18264137821E+04  0.18264137821E+04  0.25500000920E-02 0. -1.
       -2   -1    0    0    0  501  0.00000000000E+00  0.00000000000E+00 -0.55038640995E+03  0.55038640995E+03  0.25500000920E-02 0.  1.
    10030    2    1    2    0    0  0.00000000000E+00  0.00000000000E+00  0.12760273722E+04  0.23768001921E+04  0.20052264956E+04 0.  0.
        3    1    3    3  502    0  0.23032571492E+03 -0.94160581579E+03  0.94151103108E+03  0.13513380329E+04  0.10100000352E+00 0.  1.
       -3    1    3    3    0  502 -0.23032571492E+03  0.94160581579E+03  0.33451634110E+03  0.10254621592E+04  0.10100000352E+00 0. -1.
</event>
<event>
 5   0  0.4473361E-05  0.1999820E+04  0.7818609E-02  0.8606705E-01
       -2   -1    0    0    0  501  0.00000000000E+00  0.00000000000E+00  0.11710378633E+04  0.11710378634E+04  0.25500000920E-02 0.  1.
        2   -1    0    0  501    0  0.00000000000E+00  0.00000000000E+00 -0.85378949962E+03  0.85378949962E+03  0.25500000920E-02 0. -1.
    10030    2    1    2    0    0  0.00000000000E+00  0.00000000000E+00  0.31724836373E+03  0.20248273630E+04  0.19998198233E+04 0.  0.
        2    1    3    3  502    0  0.67475348438E+03  0.46673113691E+03 -0.42009089251E+03  0.92174105736E+03  0.25500000920E-02 0. -1.
       -2    1    3    3    0  502 -0.67475348438E+03 -0.46673113691E+03  0.73733925624E+03  0.11030863056E+04  0.25500000920E-02 0.  1.
</event>
<event>
 5   0  0.4473361E-05  0.2005235E+04  0.7818609E-02  0.8604177E-01
       -2   -1    0    0    0  501  0.00000000000E+00  0.00000000000E+00  0.18771807821E+04  0.18771807821E+04  0.25500000920E-02 0. -1.
        2   -1    0    0  501    0  0.00000000000E+00  0.00000000000E+00 -0.53550627442E+03  0.53550627443E+03  0.25500000920E-02 0.  1.
    10030    2    1    2    0    0  0.00000000000E+00  0.00000000000E+00  0.13416745077E+04  0.24126870565E+04  0.20052352351E+04 0.  0.
        2    1    3    3  502    0  0.73248273584E+03 -0.35679236641E+02  0.14934543495E+04  0.16637938154E+04  0.25500000920E-02 0. -1.
       -2    1    3    3    0  502 -0.73248273584E+03  0.35679236641E+02 -0.15177984179E+03  0.74889324113E+03  0.25500000920E-02 0.  1.
</event>
<event>
 5   0  0.2256868E-05  0.1916256E+04  0.7818609E-02  0.8646807E-01
       -1   -1    0    0    0  501  0.00000000000E+00  0.00000000000E+00  0.54937507388E+03  0.54937507390E+03  0.50400001928E-02 0.  1.
        1   -1    0    0  501    0  0.00000000000E+00  0.00000000000E+00 -0.16710068612E+04  0.16710068612E+04  0.50400001928E-02 0. -1.
    10030    2    1    2    0    0  0.00000000000E+00  0.00000000000E+00 -0.11216317873E+04  0.22203819351E+04  0.19162562645E+04 0.  0.
        5    1    3    3  502    0  0.40547356188E+03 -0.62150351587E+03 -0.12630657435E+04  0.14649343303E+04  0.46999998093E+01 0. -1.
       -5    1    3    3    0  502 -0.40547356188E+03  0.62150351587E+03  0.14143395622E+03  0.75544760479E+03  0.46999998093E+01 0.  1.
</event>
<event>
 5   0  0.2110896E-05  0.2003161E+04  0.7818609E-02  0.8605144E-01
        1   -1    0    0  501    0  0.00000000000E+00  0.00000000000E+00  0.14409738975E+04  0.14409738975E+04  0.50400001928E-02 0.  1.
       -1   -1    0    0    0  501  0.00000000000E+00  0.00000000000E+00 -0.69617018839E+03  0.69617018841E+03  0.50400001928E-02 0. -1.
    10030    2    1    2    0    0  0.00000000000E+00  0.00000000000E+00  0.74480370908E+03  0.21371440859E+04  0.20031605724E+04 0.  0.
        4    1    3    3  502    0  0.68639397763E+03 -0.70827653887E+03  0.55832525897E+03  0.11333671319E+04  0.12699999809E+01 0.  1.
       -4    1    3    3    0  502 -0.68639397763E+03  0.70827653887E+03  0.18647845012E+03  0.10037769540E+04  0.12699999809E+01 0. -1.
</event>
<event>
 5   0  0.4473361E-05  0.1883489E+04  0.7818609E-02  0.8663119E-01
        2   -1    0    0  501    0  0.00000000000E+00  0.00000000000E+00  0.84923720663E+03  0.84923720663E+03  0.25500000920E-02 0. -1.
       -2   -1    0    0    0  501  0.00000000000E+00  0.00000000000E+00 -0.10443289724E+04  0.10443289724E+04  0.25500000920E-02 0.  1.
    10030    2    1    2    0    0  0.00000000000E+00  0.00000000000E+00 -0.19509176579E+03  0.18935661790E+04  0.18834893356E+04 0.  0.
        2    1    3    3  502    0  0.66808763460E+03 -0.21603190164E+03 -0.72849590365E+03  0.10117890846E+04  0.25500000920E-02 0.  1.
       -2    1    3    3    0  502 -0.66808763460E+03  0.21603190164E+03  0.53340413786E+03  0.88177709447E+03  0.25500000920E-02 0. -1.
</event>
<event>
 5   0  0.4473361E-05  0.1996567E+04  0.7818609E-02  0.8608227E-01
        2   -1    0    0  501    0  0.00000000000E+00  0.00000000000E+00  0.99602718322E+03  0.99602718322E+03  0.25500000920E-02 0.  1.
       -2   -1    0    0    0  501  0.00000000000E+00  0.00000000000E+00 -0.10005453261E+04  0.10005453261E+04  0.25500000920E-02 0. -1.
    10030    2    1    2    0    0  0.00000000000E+00  0.00000000000E+00 -0.45181429185E+01  0.19965725094E+04  0.19965673972E+04 0.  0.
        2    1    3    3  502    0 -0.11553900134E+03 -0.25148197089E+03 -0.96141631172E+03  0.10004567792E+04  0.25500000920E-02 0. -1.
       -2    1    3    3    0  502  0.11553900134E+03  0.25148197089E+03  0.95689816880E+03  0.99611573021E+03  0.25500000920E-02 0.  1.
</event>
<event>
 5   0  0.1601500E-05  0.1997154E+04  0.7818609E-02  0.8607952E-01
        3   -1    0    0  501    0  0.00000000000E+00  0.00000000000E+00  0.10735637768E+04  0.10735637815E+04  0.10100000352E+00 0.  1.
       -3   -1    0    0    0  501  0.00000000000E+00  0.00000000000E+00 -0.92882817690E+03  0.92882818239E+03  0.10100000352E+00 0. -1.
    10030    2    1    2    0    0  0.00000000000E+00  0.00000000000E+00  0.14473559988E+03  0.20023919639E+04  0.19971542713E+04 0.  0.
        3    1    3    3  502    0  0.46549449689E+03  0.72116487401E+03 -0.43925703629E+03  0.96421504670E+03  0.10100000352E+00 0. -1.
       -3    1    3    3    0  502 -0.46549449689E+03 -0.72116487401E+03  0.58399263617E+03  0.10381769172E+04  0.10100000352E+00 0.  1.
</event>
<event>
 5   0  0.4514680E-05  0.2040722E+04  0.7818609E-02  0.8587815E-01
       -2   -1    0    0    0  501  0.00000000000E+00  0.00000000000E+00  0.55383433457E+03  0.55383433457E+03  0.25500000920E-02 0.  1.
        2   -1    0    0  501    0  0.00000000000E+00  0.00000000000E+00 -0.18798694078E+04  0.18798694078E+04  0.25500000920E-02 0. -1.
    10030    2    1    2    0    0  0.00000000000E+00  0.00000000000E+00 -0.13260350732E+04  0.24337037423E+04  0.20407216591E+04 0.  0.
        3    1    3    3  502    0  0.20110787246E+03 -0.29611669580E+03 -0.18025348484E+04  0.18377326693E+04  0.10100000352E+00 0. -1.
       -3    1    3    3    0  502 -0.20110787246E+03  0.29611669580E+03  0.47649977522E+03  0.59597107303E+03  0.10100000352E+00 0.  1.
</event>
<event>
 5   0  0.2093980E-05  0.1997372E+04  0.7818609E-02  0.8607850E-01
        1   -1    0    0  501    0  0.00000000000E+00  0.00000000000E+00  0.13796171307E+04  0.13796171307E+04  0.50400001928E-02 0.  1.
       -1   -1    0    0    0  501  0.00000000000E+00  0.00000000000E+00 -0.72293488199E+03  0.72293488200E+03  0.50400001928E-02 0. -1.
    10030    2    1    2    0    0  0.00000000000E+00  0.00000000000E+00  0.65668224867E+03  0.21025520127E+04  0.19973716205E+04 0.  0.
        2    1    3    3  502    0 -0.37064163864E+03  0.14732008835E+03  0.12921397197E+04  0.13522956363E+04  0.25500000920E-02 0.  1.
       -2    1    3    3    0  502  0.37064163864E+03 -0.14732008835E+03 -0.63545747105E+03  0.75025637635E+03  0.25500000920E-02 0. -1.
</event>
<event>
 5   0  0.2007644E-05  0.1943596E+04  0.7818609E-02  0.8633455E-01
        1   -1    0    0  501    0  0.00000000000E+00  0.00000000000E+00  0.89306372940E+03  0.89306372942E+03  0.50400001928E-02 0. -1.
       -1   -1    0    0    0  501  0.00000000000E+00  0.00000000000E+00 -0.10574739335E+04  0.10574739335E+04  0.50400001928E-02 0.  1.
    10030    2    1    2    0    0  0.00000000000E+00  0.00000000000E+00 -0.16441020407E+03  0.19505376629E+04  0.19435962696E+04 0.  0.
        1    1    3    3  502    0  0.49921894681E+03  0.83360825699E+03 -0.65735158741E+02  0.97388058513E+03  0.50400001928E-02 0. -1.
       -1    1    3    3    0  502 -0.49921894681E+03 -0.83360825699E+03 -0.98675045328E+02  0.97665707777E+03  0.50400001928E-02 0.  1.
</event>
<event>
 5   0  0.4473361E-05  0.2001966E+04  0.7818609E-02  0.8605702E-01
       -2   -1    0    0    0  501  0.00000000000E+00  0.00000000000E+00  0.15681161068E+04  0.15681161068E+04  0.25500000920E-02 0. -1.
        2   -1    0    0  501    0  0.00000000000E+00  0.00000000000E+00 -0.63896225214E+03  0.63896225215E+03  0.25500000920E-02 0.  1.
    10030    2    1    2    0    0  0.00000000000E+00  0.00000000000E+00  0.92915385464E+03  0.22070783589E+04  0.20019660329E+04 0.  0.
        2    1    3    3  502    0  0.41365621824E+03  0.25140955024E+02  0.14690968387E+04  0.15264301674E+04  0.25500000920E-02 0. -1.
       -2    1    3    3    0  502 -0.41365621824E+03 -0.25140955024E+02 -0.53994298409E+03  0.68064819149E+03  0.25500000920E-02 0.  1.
</event>
<event>
 5   0  0.4447313E-05  0.1999583E+04  0.7818609E-02  0.8606816E-01
        2   -1    0    0  501    0  0.00000000000E+00  0.00000000000E+00  0.11781234544E+04  0.11781234544E+04  0.25500000920E-02 0. -1.
       -2   -1    0    0    0  501  0.00000000000E+00  0.00000000000E+00 -0.84845322533E+03  0.84845322533E+03  0.25500000920E-02 0.  1.
    10030    2    1    2    0    0  0.00000000000E+00  0.00000000000E+00  0.32967022906E+03  0.20265766797E+04  0.19995826012E+04 0.  0.
        5    1    3    3  502    0  0.57038282741E+03  0.55589145531E+03 -0.44764816054E+03  0.91365356976E+03  0.46999998093E+01 0.  1.
       -5    1    3    3    0  502 -0.57038282741E+03 -0.55589145531E+03  0.77731838959E+03  0.11129231100E+04  0.46999998093E+01 0. -1.
</event>
<event>
 5   0  0.2093980E-05  0.1997057E+04  0.7818609E-02  0.8607998E-01
        1   -1    0    0  501    0  0.00000000000E+00  0.00000000000E+00  0.23645854327E+04  0.23645854327E+04  0.50400001928E-02 0.  1.
       -1   -1    0    0    0  501  0.00000000000E+00  0.00000000000E+00 -0.42166321295E+03  0.42166321298E+03  0.50400001928E-02 0. -1.
    10030    2    1    2    0    0  0.00000000000E+00  0.00000000000E+00  0.19429222197E+04  0.27862486457E+04  0.19970565249E+04 0.  0.
        2    1    3    3  502    0  0.62996811438E+03  0.52312963521E+03  0.17687099275E+04  0.19490662503E+04  0.25500000920E-02 0.  1.
       -2    1    3    3    0  502 -0.62996811438E+03 -0.52312963521E+03  0.17421229223E+03  0.83718239538E+03  0.25500000920E-02 0. -1.
</event>
<event>
 5   0  0.2256868E-05  0.1996594E+04  0.7818609E-02  0.8608215E-01
        1   -1    0    0  501    0  0.00000000000E+00  0.00000000000E+00  0.13591510830E+04  0.13591510830E+04  0.50400001928E-02 0. -1.
       -1   -1    0    0    0  501  0.00000000000E+00  0.00000000000E+00 -0.73324964964E+03  0.73324964966E+03  0.50400001928E-02 0.  1.
    10030    2    1    2    0    0  0.00000000000E+00  0.00000000000E+00  0.62590143334E+03  0.20924007326E+04  0.19965941555E+04 0.  0.
        5    1    3    3  502    0  0.37181509959E+03  0.59267290211E+03 -0.43330536292E+03  0.82297221381E+03  0.46999998093E+01 0.  1.
       -5    1    3    3    0  502 -0.37181509959E+03 -0.59267290211E+03  0.10592067963E+04  0.12694285188E+04  0.46999998093E+01 0. -1.
</event>
<event>
 5   0  0.4412054E-05  0.1991936E+04  0.7818609E-02  0.8610400E-01
       -2   -1    0    0    0  501  0.00000000000E+00  0.00000000000E+00  0.39738815812E+03  0.39738815813E+03  0.25500000920E-02 0. -1.
        2   -1    0    0  501    0  0.00000000000E+00  0.00000000000E+00 -0.24961790639E+04  0.24961790639E+04  0.25500000920E-02 0.  1.
    10030    2    1    2    0    0  0.00000000000E+00  0.00000000000E+00 -0.20987909058E+04  0.28935672220E+04  0.19919357425E+04 0.  0.
        4    1    3    3  502    0 -0.75415196108E+03 -0.42391293691E+03 -0.33257492194E+03  0.92685222668E+03  0.12699999809E+01 0. -1.
       -4    1    3    3    0  502  0.75415196108E+03  0.42391293691E+03 -0.17662159838E+04  0.19667149953E+04  0.12699999809E+01 0.  1.
</event>
<event>
 5   0  0.2142551E-05  0.2009625E+04  0.7818609E-02  0.8602134E-01
       -1   -1    0    0    0  501  0.00000000000E+00  0.00000000000E+00  0.10116492133E+04  0.10116492133E+04  0.50400001928E-02 0. -1.
        1   -1    0    0  501    0  0.00000000000E+00  0.00000000000E+00 -0.99802201744E+03  0.99802201745E+03  0.50400001928E-02 0.  1.
    10030    2    1    2    0    0  0.00000000000E+00  0.00000000000E+00  0.13627195882E+02  0.20096712308E+04  0.20096250286E+04 0.  0.
        3    1    3    3  502    0 -0.56068766113E+02 -0.13253372714E+03  0.10012907250E+04  0.10115789744E+04  0.10100000352E+00 0. -1.
       -3    1    3    3    0  502  0.56068766113E+02  0.13253372714E+03 -0.98766352908E+03  0.99809225638E+03  0.10100000352E+00 0.  1.
</event>
<event>
 5   0  0.2093980E-05  0.2000732E+04  0.7818609E-02  0.8606278E-01
        1   -1    0    0  501    0  0.00000000000E+00  0.00000000000E+00  0.10204693347E+04  0.10204693347E+04  0.50400001928E-02 0. -1.
       -1   -1    0    0    0  501  0.00000000000E+00  0.00000000000E+00 -0.98065895056E+03  0.98065895058E+03  0.50400001928E-02 0.  1.
    10030    2    1    2    0    0  0.00000000000E+00  0.00000000000E+00  0.39810384119E+02  0.20011282853E+04  0.20007322528E+04 0.  0.
        2    1    3    3  502    0  0.90088373036E+03  0.37756852769E+03  0.23577863077E+03  0.10048587221E+04  0.25500000920E-02 0. -1.
       -2    1    3    3    0  502 -0.90088373036E+03 -0.37756852769E+03 -0.19596824665E+03  0.99626956313E+03  0.25500000920E-02 0.  1.
</event>
<event>
 5   0  0.4473361E-05  0.2000499E+04  0.7818609E-02  0.8606387E-01
       -2   -1    0    0    0  501  0.00000000000E+00  0.00000000000E+00  0.82084286670E+03  0.82084286671E+03  0.25500000920E-02 0. -1.
        2   -1    0    0  501    0  0.00000000000E+00  0.00000000000E+00 -0.12188681176E+04  0.12188681176E+04  0.25500000920E-02 0.  1.
    10030    2    1    2    0    0  0.00000000000E+00  0.00000000000E+00 -0.39802525086E+03  0.20397109843E+04  0.20004991375E+04 0.  0.
        2    1    3    3  502    0 -0.71459933772E+02  0.18266697742E+03  0.80104159619E+03  0.82470684828E+03  0.25500000920E-02 0. -1.
       -2    1    3    3    0  502  0.71459933772E+02 -0.18266697742E+03 -0.11990668470E+04  0.12150041360E+04  0.25500000920E-02 0.  1.
</event>
<event>
 5   0  0.4447313E-05  0.1998465E+04  0.7818609E-02  0.8607339E-01
        2   -1    0    0  501    0  0.00000000000E+00  0.00000000000E+00  0.11252267309E+04  0.11252267309E+04  0.25500000920E-02 0. -1.
       -2   -1    0    0    0  501  0.00000000000E+00  0.00000000000E+00 -0.88734598597E+03  0.88734598598E+03  0.25500000920E-02 0.  1.
    10030    2    1    2    0    0  0.00000000000E+00  0.00000000000E+00  0.23788074493E+03  0.20125727169E+04  0.19984648338E+04 0.  0.
        5    1    3    3  502    0 -0.40085855210E+03  0.73481580393E+03  0.66850465918E+03  0.10712433962E+04  0.46999998093E+01 0. -1.
       -5    1    3    3    0  502  0.40085855210E+03 -0.73481580393E+03 -0.43062391426E+03  0.94132932071E+03  0.46999998093E+01 0.  1.
</event>
<event>
 5   0  0.2110896E-05  0.2003978E+04  0.7818609E-02  0.8604763E-01
       -1   -1    0    0    0  501  0.00000000000E+00  0.00000000000E+00  0.10108630244E+04  0.10108630244E+04  0.50400001928E-02 0. -1.
        1   -1    0    0  501    0  0.00000000000E+00  0.00000000000E+00 -0.99319282384E+03  0.99319282385E+03  0.50400001928E-02 0.  1.
    10030    2    1    2    0    0  0.00000000000E+00  0.00000000000E+00  0.17670200527E+02  0.20040558482E+04  0.20039779457E+04 0.  0.
        4    1    3    3  502    0 -0.42287037279E+03 -0.87186843976E+01  0.91721226369E+03  0.10100372851E+04  0.12699999809E+01 0. -1.
       -4    1    3    3    0  502  0.42287037279E+03  0.87186843976E+01 -0.89954206317E+03  0.99401856318E+03  0.12699999809E+01 0.  1.
</event>
<event>
 5   0  0.4447313E-05  0.2012121E+04  0.7818609E-02  0.8600975E-01
        2   -1    0    0  501    0  0.00000000000E+00  0.00000000000E+00  0.19434188583E+04  0.19434188583E+04  0.25500000920E-02 0.  1.
       -2   -1    0    0    0  501  0.00000000000E+00  0.00000000000E+00 -0.52081305296E+03  0.52081305297E+03  0.25500000920E-02 0. -1.
    10030    2    1    2    0    0  0.00000000000E+00  0.00000000000E+00  0.14226058054E+04  0.24642319113E+04  0.20121211781E+04 0.  0.
        5    1    3    3  502    0 -0.38190818270E+03 -0.63181029210E+02  0.18485481990E+04  0.18886498449E+04  0.46999998093E+01 0.  1.
       -5    1    3    3    0  502  0.38190818270E+03  0.63181029210E+02 -0.42594239366E+03  0.57558206641E+03  0.46999998093E+01 0. -1.
</event>
<event>
 5   0  0.2142551E-05  0.1994625E+04  0.7818609E-02  0.8609138E-01
       -1   -1    0    0    0  501  0.00000000000E+00  0.00000000000E+00  0.98187011368E+03  0.98187011369E+03  0.50400001928E-02 0.  1.
        1   -1    0    0  501    0  0.00000000000E+00  0.00000000000E+00 -0.10129981448E+04  0.10129981449E+04  0.50400001928E-02 0. -1.
    10030    2    1    2    0    0  0.00000000000E+00  0.00000000000E+00 -0.31128031170E+02  0.19948682585E+04  0.19946253820E+04 0.  0.
        3    1    3    3  502    0 -0.28633601997E+03  0.14772810060E+03  0.92838388607E+03  0.98270471565E+03  0.10100000352E+00 0.  1.
       -3    1    3    3    0  502  0.28633601997E+03 -0.14772810060E+03 -0.95951191724E+03  0.10121635429E+04  0.10100000352E+00 0. -1.
</event>
<event>
 5   0  0.4473361E-05  0.1997323E+04  0.7818609E-02  0.8607873E-01
       -2   -1    0    0    0  501  0.00000000000E+00  0.00000000000E+00  0.49227232936E+03  0.49227232937E+03  0.25500000920E-02 0.  1.
        2   -1    0    0  501    0  0.00000000000E+00  0.00000000000E+00 -0.20259616567E+04  0.20259616567E+04  0.25500000920E-02 0. -1.
    10030    2    1    2    0    0  0.00000000000E+00  0.00000000000E+00 -0.15336893274E+04  0.25182339861E+04  0.19973230725E+04 0.  0.
        2    1    3    3  502    0  0.20682385873E+03  0.92486139785E+03 -0.36978100246E+03  0.10172918478E+04  0.25500000920E-02 0.  1.
       -2    1    3    3    0  502 -0.20682385873E+03 -0.92486139785E+03 -0.11639083249E+04  0.15009421383E+04  0.25500000920E-02 0. -1.
</event>
<event>
 5   0  0.4514680E-05  0.2001135E+04  0.7818609E-02  0.8606090E-01
       -2   -1    0    0    0  501  0.00000000000E+00  0.00000000000E+00  0.56612986240E+03  0.56612986241E+03  0.25500000920E-02 0. -1.
        2   -1    0    0  501    0  0.00000000000E+00  0.00000000000E+00 -0.17683846482E+04  0.17683846482E+04  0.25500000920E-02 0.  1.
    10030    2    1    2    0    0  0.00000000000E+00  0.00000000000E+00 -0.12022547858E+04  0.23345145106E+04  0.20011350355E+04 0.  0.
        3    1    3    3  502    0  0.42850492109E+03  0.71065156893E+03 -0.12532668641E+04  0.15031034438E+04  0.10100000352E+00 0.  1.
       -3    1    3    3    0  502 -0.42850492109E+03 -0.71065156893E+03  0.51012078248E+02  0.83141106689E+03  0.10100000352E+00 0. -1.
</event>
<event>
 5   0  0.4577279E-05  0.1993292E+04  0.7818609E-02  0.8609763E-01
        2   -1    0    0  501    0  0.00000000000E+00  0.00000000000E+00  0.25426505215E+04  0.25426505215E+04  0.25500000920E-02 0. -1.
       -2   -1    0    0    0  501  0.00000000000E+00  0.00000000000E+00 -0.39065679703E+03  0.39065679703E+03  0.25500000920E-02 0.  1.
    10030    2    1    2    0    0  0.00000000000E+00  0.00000000000E+00  0.21519937244E+04  0.29333073185E+04  0.19932924609E+04 0.  0.
        1    1    3    3  502    0  0.97287083303E+03  0.19613024637E+03  0.12105404846E+04  0.15653603407E+04  0.50400001928E-02 0.  1.
       -1    1    3    3    0  502 -0.97287083303E+03 -0.19613024637E+03  0.94145323981E+03  0.13679469778E+04  0.50400001928E-02 0. -1.
</event>
<event>
 5   0  0.2007644E-05  0.2004243E+04  0.7818609E-02  0.8604640E-01
        1   -1    0    0  501    0  0.00000000000E+00  0.00000000000E+00  0.82649615486E+03  0.82649615487E+03  0.50400001928E-02 0. -1.
       -1   -1    0    0    0  501  0.00000000000E+00  0.00000000000E+00 -0.12150656022E+04  0.12150656022E+04  0.50400001928E-02 0.  1.
    10030    2    1    2    0    0  0.00000000000E+00  0.00000000000E+00 -0.38856944732E+03  0.20415617571E+04  0.20042425483E+04 0.  0.
        1    1    3    3  502    0  0.18402888296E+03  0.30975722010E+03 -0.11468066640E+04  0.12020739120E+04  0.50400001928E-02 0.  1.
       -1    1    3    3    0  502 -0.18402888296E+03 -0.30975722010E+03  0.75823721673E+03  0.83948784507E+03  0.50400001928E-02 0. -1.
</event>
<event>
 5   0  0.4514680E-05  0.1985095E+04  0.7818609E-02  0.8613621E-01
       -2   -1    0    0    0  501  0.00000000000E+00  0.00000000000E+00  0.62111021607E+03  0.62111021607E+03  0.25500000920E-02 0.  1.
        2   -1    0    0  501    0  0.00000000000E+00  0.00000000000E+00 -0.15861120467E+04  0.15861120467E+04  0.25500000920E-02 0. -1.
    10030    2    1    2    0    0  0.00000000000E+00  0.00000000000E+00 -0.96500183066E+03  0.22072222628E+04  0.19850948552E+04 0.  0.
        3    1    3    3  502    0 -0.28832147771E+03 -0.68421754900E+03 -0.12148924945E+04  0.14238141425E+04  0.10100000352E+00 0. -1.
       -3    1    3    3    0  502  0.28832147771E+03  0.68421754900E+03  0.24989066388E+03  0.78340812031E+03  0.10100000352E+00 0.  1.
</event>
<event>
 5   0  0.2110896E-05  0.2001004E+04  0.7818609E-02  0.8606151E-01
       -1   -1    0    0    0  501  0.00000000000E+00  0.00000000000E+00  0.83390780324E+03  0.83390780325E+03  0.50400001928E-02 0.  1.
        1   -1    0    0  501    0  0.00000000000E+00  0.00000000000E+00 -0.12003776938E+04  0.12003776939E+04  0.50400001928E-02 0. -1.
    10030    2    1    2    0    0  0.00000000000E+00  0.00000000000E+00 -0.36646989060E+03  0.20342854971E+04  0.20010040737E+04 0.  0.
        4    1    3    3  502    0 -0.66707137781E+03 -0.15774803050E+02  0.57466406802E+03  0.88060971575E+03  0.12699999809E+01 0.  1.
       -4    1    3    3    0  502  0.66707137781E+03  0.15774803050E+02 -0.94113395862E+03  0.11536757814E+04  0.12699999809E+01 0. -1.
</event>
<event>
 5   0  0.4447313E-05  0.1999758E+04  0.7818609E-02  0.8606734E-01
        2   -1    0    0  501    0  0.00000000000E+00  0.00000000000E+00  0.14485700464E+04  0.14485700464E+04  0.25500000920E-02 0. -1.
       -2   -1    0    0    0  501  0.00000000000E+00  0.00000000000E+00 -0.69016886660E+03  0.69016886661E+03  0.25500000920E-02 0.  1.
    10030    2    1    2    0    0  0.00000000000E+00  0.00000000000E+00  0.75840117979E+03  0.21387389130E+04  0.19997579325E+04 0.  0.
        5    1    3    3  502    0  0.71803529540E+03 -0.44784043767E+03  0.94875280286E+03  0.12713338326E+04  0.46999998093E+01 0. -1.
       -5    1    3    3    0  502 -0.71803529540E+03  0.44784043767E+03 -0.19035162307E+03  0.86740508037E+03  0.46999998093E+01 0.  1.
</event>
<event>
 5   0  0.2110896E-05  0.2003317E+04  0.7818609E-02  0.8605071E-01
        1   -1    0    0  501    0  0.00000000000E+00  0.00000000000E+00  0.10197622514E+04  0.10197622514E+04  0.50400001928E-02 0.  1.
       -1   -1    0    0    0  501  0.00000000000E+00  0.00000000000E+00 -0.98387623460E+03  0.98387623461E+03  0.50400001928E-02 0. -1.
    10030    2    1    2    0    0  0.00000000000E+00  0.00000000000E+00  0.35886016819E+02  0.20036384860E+04  0.20033170934E+04 0.  0.
        4    1    3    3  502    0 -0.35114953199E+03 -0.46500117385E+03  0.83280443564E+03  0.10164137575E+04  0.12699999809E+01 0.  1.
       -4    1    3    3    0  502  0.35114953199E+03  0.46500117385E+03 -0.79691841882E+03  0.98722472855E+03  0.12699999809E+01 0. -1.
</event>
<event>
 5   0  0.2142551E-05  0.1998898E+04  0.7818609E-02  0.8607136E-01
       -1   -1    0    0    0  501  0.00000000000E+00  0.00000000000E+00  0.21168503767E+04  0.21168503768E+04  0.50400001928E-02 0. -1.
        1   -1    0    0  501    0  0.00000000000E+00  0.00000000000E+00 -0.47187935983E+03  0.47187935986E+03  0.50400001928E-02 0.  1.
    10030    2    1    2    0    0  0.00000000000E+00  0.00000000000E+00  0.16449710169E+04  0.25887297366E+04  0.19988976969E+04 0.  0.
        3    1    3    3  502    0 -0.53112615139E+03  0.81661219576E+03  0.11119218932E+04  0.14782830493E+04  0.10100000352E+00 0. -1.
       -3    1    3    3    0  502  0.53112615139E+03 -0.81661219576E+03  0.53304912368E+03  0.11104466873E+04  0.10100000352E+00 0.  1.
</event>
<event>
 5   0  0.4577279E-05  0.1997501E+04  0.7818609E-02  0.8607790E-01
       -2   -1    0    0    0  501  0.00000000000E+00  0.00000000000E+00  0.13190500878E+04  0.13190500878E+04  0.25500000920E-02 0.  1.
        2   -1    0    0  501    0  0.00000000000E+00  0.00000000000E+00 -0.75622776363E+03  0.75622776363E+03  0.25500000920E-02 0. -1.
    10030    2    1    2    0    0  0.00000000000E+00  0.00000000000E+00  0.56282232414E+03  0.20752778514E+04  0.19975007364E+04 0.  0.
        1    1    3    3  502    0 -0.12224061834E+03 -0.87859448968E+03  0.75822703838E+03  0.11669529930E+04  0.50400001928E-02 0.  1.
       -1    1    3    3    0  502  0.12224061834E+03  0.87859448968E+03 -0.19540471424E+03  0.90832485843E+03  0.50400001928E-02 0. -1.
</event>
<event>
 5   0  0.4412054E-05  0.2002684E+04  0.7818609E-02  0.8605367E-01
        2   -1    0    0  501    0  0.00000000000E+00  0.00000000000E+00  0.12283586478E+04  0.12283586478E+04  0.25500000920E-02 0.  1.
       -2   -1    0    0    0  501  0.00000000000E+00  0.00000000000E+00 -0.81628103993E+03  0.81628103993E+03  0.25500000920E-02 0. -1.
    10030    2    1    2    0    0  0.00000000000E+00  0.00000000000E+00  0.41207760788E+03  0.20446396877E+04  0.20026840734E+04 0.  0.
        4    1    3    3  502    0 -0.46651489678E+03 -0.55089159867E+03 -0.50244920288E+03  0.87953085038E+03  0.12699999809E+01 0. -1.
       -4    1    3    3    0  502  0.46651489678E+03  0.55089159867E+03  0.91452681076E+03  0.11651088374E+04  0.12699999809E+01 0.  1.
</event>
<event>
 5   0  0.4514680E-05  0.2028020E+04  0.7818609E-02  0.8593631E-01
       -2   -1    0    0    0  501  0.00000000000E+00  0.00000000000E+00  0.17057599788E+04  0.17057599788E+04  0.25500000920E-02 0. -1.
        2   -1    0    0  501    0  0.00000000000E+00  0.00000000000E+00 -0.60279089386E+03  0.60279089386E+03  0.25500000920E-02 0.  1.
    10030    2    1    2    0    0  0.00000000000E+00  0.00000000000E+00  0.11029690850E+04  0.23085508727E+04  0.20280202981E+04 0.  0.
        3    1    3    3  502    0  0.77704697776E+03  0.32193871715E+03 -0.93224918671E+02  0.84624904072E+03  0.10100000352E+00 0.  1.
       -3    1    3    3    0  502 -0.77704697776E+03 -0.32193871715E+03  0.11961940036E+04  0.14623018320E+04  0.10100000352E+00 0. -1.
</event>
<event>
 5   0  0.2110896E-05  0.1989156E+04  0.7818609E-02  0.8611707E-01
       -1   -1    0    0    0  501  0.00000000000E+00  0.00000000000E+00  0.53441062761E+03  0.53441062763E+03  0.50400001928E-02 0.  1.
        1   -1    0    0  501    0  0.00000000000E+00  0.00000000000E+00 -0.18509843169E+04  0.18509843170E+04  0.50400001928E-02 0. -1.
    10030    2    1    2    0    0  0.00000000000E+00  0.00000000000E+00 -0.13165736893E+04  0.23853949446E+04  0.19891562941E+04 0.  0.
        4    1    3    3  502    0 -0.12359388773E+03  0.30580034874E+03 -0.17834878577E+04  0.18137309210E+04  0.12699999809E+01 0. -1.
       -4    1    3    3    0  502  0.12359388773E+03 -0.30580034874E+03  0.46691416834E+03  0.57166402360E+03  0.12699999809E+01 0.  1.
</event>
<event>
 5   0  0.2093980E-05  0.1993244E+04  0.7818609E-02  0.8609786E-01
        1   -1    0    0  501    0  0.00000000000E+00  0.00000000000E+00  0.20049877874E+04  0.20049877874E+04  0.50400001928E-02 0.  1.
       -1   -1    0    0    0  501  0.00000000000E+00  0.00000000000E+00 -0.49539247901E+03  0.49539247903E+03  0.50400001928E-02 0. -1.
    10030    2    1    2    0    0  0.00000000000E+00  0.00000000000E+00  0.15095953084E+04  0.25003802664E+04  0.19932444611E+04 0.  0.
        2    1    3    3  502    0 -0.35686606871E+03  0.32227750413E+03 -0.34025321068E+03  0.58905723665E+03  0.25500000920E-02 0. -1.
       -2    1    3    3    0  502  0.35686606871E+03 -0.32227750413E+03  0.18498485191E+04  0.19113230298E+04  0.25500000920E-02 0.  1.
</event>
<event>
 5   0  0.4447313E-05  0.1996442E+04  0.7818609E-02  0.8608286E-01
       -2   -1    0    0    0  501  0.00000000000E+00  0.00000000000E+00  0.78558671344E+03  0.78558671344E+03  0.25500000920E-02 0.  1.
        2   -1    0    0  501    0  0.00000000000E+00  0.00000000000E+00 -0.12684083363E+04  0.12684083363E+04  0.25500000920E-02 0. -1.
    10030    2    1    2    0    0  0.00000000000E+00  0.00000000000E+00 -0.48282162287E+03  0.20539950497E+04  0.19964415706E+04 0.  0.
        5    1    3    3  502    0  0.99677699445E+03  0.24736507859E+02 -0.29017307877E+03  0.10384598101E+04  0.46999998093E+01 0.  1.
       -5    1    3    3    0  502 -0.99677699445E+03 -0.24736507859E+02 -0.19264854410E+03  0.10155352397E+04  0.46999998093E+01 0. -1.
</event>
<event>
 5   0  0.2007644E-05  0.2001780E+04  0.7818609E-02  0.8605789E-01
       -1   -1    0    0    0  501  0.00000000000E+00  0.00000000000E+00  0.13996534511E+04  0.13996534512E+04  0.50400001928E-02 0.  1.
        1   -1    0    0  501    0  0.00000000000E+00  0.00000000000E+00 -0.71573454552E+03  0.71573454553E+03  0.50400001928E-02 0. -1.
    10030    2    1    2    0    0  0.00000000000E+00  0.00000000000E+00  0.68391890563E+03  0.21153879967E+04  0.20017795351E+04 0.  0.
        1    1    3    3  502    0  0.58323614470E+03 -0.70672662424E+03 -0.83577056640E+02  0.92011523534E+03  0.50400001928E-02 0. -1.
       -1    1    3    3    0  502 -0.58323614470E+03  0.70672662424E+03  0.76749596227E+03  0.11952727613E+04  0.50400001928E-02 0.  1.
</event>
<event>
 5   0  0.4514680E-05  0.2003423E+04  0.7818609E-02  0.8605022E-01
        2   -1    0    0  501    0  0.00000000000E+00  0.00000000000E+00  0.12838945063E+04  0.12838945063E+04  0.25500000920E-02 0. -1.
       -2   -1    0    0    0  501  0.00000000000E+00  0.00000000000E+00 -0.78154869447E+03  0.78154869448E+03  0.25500000920E-02 0.  1.
    10030    2    1    2    0    0  0.00000000000E+00  0.00000000000E+00  0.50234581184E+03  0.20654432008E+04  0.20034231458E+04 0.  0.
        3    1    3    3  502    0 -0.74907287144E+03 -0.66263565148E+03  0.30976439708E+03  0.10469719028E+04  0.10100000352E+00 0.  1.
       -3    1    3    3    0  502  0.74907287144E+03  0.66263565148E+03  0.19258141476E+03  0.10184712980E+04  0.10100000352E+00 0. -1.
</event>
<event>
 5   0  0.2093980E-05  0.2002852E+04  0.7818609E-02  0.8605289E-01
       -1   -1    0    0    0  501  0.00000000000E+00  0.00000000000E+00  0.68882816831E+03  0.68882816833E+03  0.50400001928E-02 0. -1.
        1   -1    0    0  501    0  0.00000000000E+00  0.00000000000E+00 -0.14558838628E+04  0.14558838628E+04  0.50400001928E-02 0.  1.
    10030    2    1    2    0    0  0.00000000000E+00  0.00000000000E+00 -0.76705569448E+03  0.21447120311E+04  0.20028517813E+04 0.  0.
        2    1    3    3  502    0 -0.60179184430E+03  0.20847537695E+03 -0.12110774633E+04  0.13683289183E+04  0.25500000920E-02 0.  1.
       -2    1    3    3    0  502  0.60179184430E+03 -0.20847537695E+03  0.44402176881E+03  0.77638311280E+03  0.25500000920E-02 0. -1.
</event>
<event>
 5   0  0.2110896E-05  0.2002250E+04  0.7818609E-02  0.8605569E-01
        1   -1    0    0  501    0  0.00000000000E+00  0.00000000000E+00  0.11796015562E+04  0.11796015562E+04  0.50400001928E-02 0.  1.
       -1   -1    0    0    0  501  0.00000000000E+00  0.00000000000E+00 -0.84965259361E+03  0.84965259363E+03  0.50400001928E-02 0. -1.
    10030    2    1    2    0    0  0.00000000000E+00  0.00000000000E+00  0.32994896260E+03  0.20292541498E+04  0.20022502558E+04 0.  0.
        4    1    3    3  502    0  0.29877512342E+03 -0.76833190652E+03 -0.41070867998E+03  0.92102319496E+03  0.12699999809E+01 0. -1.
       -4    1    3    3    0  502 -0.29877512342E+03  0.76833190652E+03  0.74065764257E+03  0.11082309549E+04  0.12699999809E+01 0.  1.
</event>
<event>
 5   0  0.1601500E-05  0.2015840E+04  0.7818609E-02  0.8599251E-01
       -3   -1    0    0    0  501  0.00000000000E+00  0.00000000000E+00  0.12226991403E+04  0.12226991445E+04  0.10100000352E+00 0.  1.
        3   -1    0    0  501    0  0.00000000000E+00  0.00000000000E+00 -0.83086888674E+03  0.83086889288E+03  0.10100000352E+00 0. -1.
    10030    2    1    2    0    0  0.00000000000E+00  0.00000000000E+00  0.39183025360E+03  0.20535680374E+04  0.20158399581E+04 0.  0.
        2    1    3    3  502    0 -0.78149539700E+03 -0.45779405078E+03  0.64645045570E+03  0.11127482375E+04  0.25500000920E-02 0.  1.
       -2    1    3    3    0  502  0.78149539700E+03  0.45779405078E+03 -0.25462020210E+03  0.94081979985E+03  0.25500000920E-02 0. -1.
</event>
<event>
 5   0  0.4412054E-05  0.1999564E+04  0.7818609E-02  0.8606825E-01
        2   -1    0    0  501    0  0.00000000000E+00  0.00000000000E+00  0.14703481197E+04  0.14703481197E+04  0.25500000920E-02 0.  1.
       -2   -1    0    0    0  501  0.00000000000E+00  0.00000000000E+00 -0.67981444628E+03  0.67981444629E+03  0.25500000920E-02 0. -1.
    10030    2    1    2    0    0  0.00000000000E+00  0.00000000000E+00  0.79053367341E+03  0.21501625660E+04  0.19995638453E+04 0.  0.
        4    1    3    3  502    0  0.66337070970E+03 -0.54299888042E+03 -0.15792413788E+03  0.87169382747E+03  0.12699999809E+01 0. -1.
       -4    1    3    3    0  502 -0.66337070970E+03  0.54299888042E+03  0.94845781129E+03  0.12784687385E+04  0.12699999809E+01 0.  1.
</event>
<event>
 5   0  0.2256868E-05  0.1984906E+04  0.7818609E-02  0.8613710E-01
       -1   -1    0    0    0  501  0.00000000000E+00  0.00000000000E+00  0.39545413369E+03  0.39545413372E+03  0.50400001928E-02 0. -1.
        1   -1    0    0  501    0  0.00000000000E+00  0.00000000000E+00 -0.24907146517E+04  0.24907146517E+04  0.50400001928E-02 0.  1.
    10030    2    1    2    0    0  0.00000000000E+00  0.00000000000E+00 -0.20952605180E+04  0.28861687854E+04  0.19849064511E+04 0.  0.
        5    1    3    3  502    0  0.31419885803E+03  0.45271852980E+03  0.15253249141E+03  0.57180699589E+03  0.46999998093E+01 0. -1.
       -5    1    3    3    0  502 -0.31419885803E+03 -0.45271852980E+03 -0.22477930094E+04  0.23143617895E+04  0.46999998093E+01 0.  1.
</event>
<event>
 5   0  0.4473361E-05  0.1980762E+04  0.7818609E-02  0.8615668E-01
       -2   -1    0    0    0  501  0.00000000000E+00  0.00000000000E+00  0.10532153523E+04  0.10532153523E+04  0.25500000920E-02 0. -1.
        2   -1    0    0  501    0  0.00000000000E+00  0.00000000000E+00 -0.93129505687E+03  0.93129505688E+03  0.25500000920E-02 0.  1.
    10030    2    1    2    0    0  0.00000000000E+00  0.00000000000E+00  0.12192029544E+03  0.19845104092E+04  0.19807617236E+04 0.  0.
        2    1    3    3  502    0  0.34800241122E+03 -0.70407240010E+03 -0.54353122772E+03  0.95511769867E+03  0.25500000920E-02 0.  1.
       -2    1    3    3    0  502 -0.34800241122E+03  0.70407240010E+03  0.66545152316E+03  0.10293927105E+04  0.25500000920E-02 0. -1.
</event>
<event>
 5   0  0.2093980E-05  0.2000506E+04  0.7818609E-02  0.8606384E-01
        1   -1    0    0  501    0  0.00000000000E+00  0.00000000000E+00  0.76027750264E+03  0.76027750266E+03  0.50400001928E-02 0.  1.
       -1   -1    0    0    0  501  0.00000000000E+00  0.00000000000E+00 -0.13159742891E+04  0.13159742892E+04  0.50400001928E-02 0. -1.
    10030    2    1    2    0    0  0.00000000000E+00  0.00000000000E+00 -0.55569678651E+03  0.20762517918E+04  0.20005055822E+04 0.  0.
        2    1    3    3  502    0  0.27254324627E+03  0.10594684823E+03  0.71492712391E+03  0.77241526929E+03  0.25500000920E-02 0.  1.
       -2    1    3    3    0  502 -0.27254324627E+03 -0.10594684823E+03 -0.12706239104E+04  0.13038365225E+04  0.25500000920E-02 0. -1.
</event>
<event>
 5   0  0.2007644E-05  0.1995891E+04  0.7818609E-02  0.8608544E-01
       -1   -1    0    0    0  501  0.00000000000E+00  0.00000000000E+00  0.12342313152E+04  0.12342313153E+04  0.50400001928E-02 0.  1.
        1   -1    0    0  501    0  0.00000000000E+00  0.00000000000E+00 -0.80689501676E+03  0.80689501677E+03  0.50400001928E-02 0. -1.
    10030    2    1    2    0    0  0.00000000000E+00  0.00000000000E+00  0.42733629848E+03  0.20411263320E+04  0.19958908766E+04 0.  0.
        1    1    3    3  502    0  0.43625571406E+03  0.19807221199E+03  0.11089191538E+04  0.12079955873E+04  0.50400001928E-02 0.  1.
       -1    1    3    3    0  502 -0.43625571406E+03 -0.19807221199E+03 -0.68158285529E+03  0.83313074476E+03  0.50400001928E-02 0. -1.
</event>
<event>
 5   0  0.4473361E-05  0.1997189E+04  0.7818609E-02  0.8607936E-01
        2   -1    0    0  501    0  0.00000000000E+00  0.00000000000E+00  0.19707409663E+04  0.19707409663E+04  0.25500000920E-02 0.  1.
       -2   -1    0    0    0  501  0.00000000000E+00  0.00000000000E+00 -0.50599798531E+03  0.50599798532E+03  0.25500000920E-02 0. -1.
    10030    2    1    2    0    0  0.00000000000E+00  0.00000000000E+00  0.14647429810E+04  0.24767389516E+04  0.19971889831E+04 0.  0.
        2    1    3    3  502    0 -0.51211267306E+03  0.77318803904E+03  0.11915679472E+04  0.15099381796E+04  0.25500000920E-02 0.  1.
       -2    1    3    3    0  502  0.51211267306E+03 -0.77318803904E+03  0.27317503386E+03  0.96680077201E+03  0.25500000920E-02 0. -1.
</event>
<event>
 5   0  0.4412054E-05  0.2003900E+04  0.7818609E-02  0.8604799E-01
        2   -1    0    0  501    0  0.00000000000E+00  0.00000000000E+00  0.95119015814E+03  0.95119015814E+03  0.25500000920E-02 0. -1.
       -2   -1    0    0    0  501  0.00000000000E+00  0.00000000000E+00 -0.10554185592E+04  0.10554185592E+04  0.25500000920E-02 0.  1.
    10030    2    1    2    0    0  0.00000000000E+00  0.00000000000E+00 -0.10422840102E+03  0.20066087173E+04  0.20038999438E+04 0.  0.
        4    1    3    3  502    0  0.22984735567E+03  0.16106919625E+03 -0.10152506492E+04  0.10533321349E+04  0.12699999809E+01 0.  1.
       -4    1    3    3    0  502 -0.22984735567E+03 -0.16106919625E+03  0.91102224819E+03  0.95327658236E+03  0.12699999809E+01 0. -1.
</event>
<event>
 5   0  0.2093980E-05  0.2030969E+04  0.7818609E-02  0.8592277E-01
        1   -1    0    0  501    0  0.00000000000E+00  0.00000000000E+00  0.11742092215E+04  0.11742092216E+04  0.50400001928E-02 0.  1.
       -1   -1    0    0    0  501  0.00000000000E+00  0.00000000000E+00 -0.87821571781E+03  0.87821571783E+03  0.50400001928E-02 0. -1.
    10030    2    1    2    0    0  0.00000000000E+00  0.00000000000E+00  0.29599350373E+03  0.20524249394E+04  0.20309692212E+04 0.  0.
        2    1    3    3  502    0 -0.21993974689E+03  0.96642131289E+03  0.37138711795E+03  0.10584290423E+04  0.25500000920E-02 0. -1.
       -2    1    3    3    0  502  0.21993974689E+03 -0.96642131289E+03 -0.75393614223E+02  0.99399589705E+03  0.25500000920E-02 0.  1.
</event>
<event>
 5   0  0.2007644E-05  0.2069660E+04  0.7818609E-02  0.8574727E-01
       -1   -1    0    0    0  501  0.00000000000E+00  0.00000000000E+00  0.94824409608E+03  0.94824409609E+03  0.50400001928E-02 0. -1.
        1   -1    0    0  501    0  0.00000000000E+00  0.00000000000E+00 -0.11293221601E+04  0.11293221601E+04  0.50400001928E-02 0.  1.
    10030    2    1    2    0    0  0.00000000000E+00  0.00000000000E+00 -0.18107806401E+03  0.20775662562E+04  0.20696599440E+04 0.  0.
        1    1    3    3  502    0  0.18428150032E+03  0.54081455327E+03  0.77556229138E+03  0.96329482518E+03  0.50400001928E-02 0. -1.
       -1    1    3    3    0  502 -0.18428150032E+03 -0.54081455327E+03 -0.95664035539E+03  0.11142714310E+04  0.50400001928E-02 0.  1.
</event>
<event>
 5   0  0.2110896E-05  0.1999827E+04  0.7818609E-02  0.8606702E-01
        1   -1    0    0  501    0  0.00000000000E+00  0.00000000000E+00  0.48486129199E+03  0.48486129201E+03  0.50400001928E-02 0. -1.
       -1   -1    0    0    0  501  0.00000000000E+00  0.00000000000E+00 -0.20620883010E+04  0.20620883010E+04  0.50400001928E-02 0.  1.
    10030    2    1    2    0    0  0.00000000000E+00  0.00000000000E+00 -0.15772270090E+04  0.25469495930E+04  0.19998267904E+04 0.  0.
        4    1    3    3  502    0 -0.74300709250E+03  0.66892013888E+03 -0.81109122650E+03  0.12873943771E+04  0.12699999809E+01 0.  1.
       -4    1    3    3    0  502  0.74300709250E+03 -0.66892013888E+03 -0.76613578254E+03  0.12595552159E+04  0.12699999809E+01 0. -1.
</event>
<event>
 5   0  0.4412054E-05  0.2026641E+04  0.7818609E-02  0.8594265E-01
       -2   -1    0    0    0  501  0.00000000000E+00  0.00000000000E+00  0.40011088724E+03  0.40011088725E+03  0.25500000920E-02 0. -1.
        2   -1    0    0  501    0  0.00000000000E+00  0.00000000000E+00 -0.25663352491E+04  0.25663352491E+04  0.25500000920E-02 0.  1.
    10030    2    1    2    0    0  0.00000000000E+00  0.00000000000E+00 -0.21662243619E+04  0.29664461364E+04  0.20266412347E+04 0.  0.
        4    1    3    3  502    0  0.98447231912E+03 -0.24000502432E+03 -0.10909812242E+04  0.14889693762E+04  0.12699999809E+01 0. -1.
       -4    1    3    3    0  502 -0.98447231912E+03  0.24000502432E+03 -0.10752431377E+04  0.14774767602E+04  0.12699999809E+01 0.  1.
</event>
<event>
 5   0  0.2142551E-05  0.1996311E+04  0.7818609E-02  0.8608347E-01
       -1   -1    0    0    0  501  0.00000000000E+00  0.00000000000E+00  0.72935036884E+03  0.72935036886E+03  0.50400001928E-02 0.  1.
        1   -1    0    0  501    0  0.00000000000E+00  0.00000000000E+00 -0.13660299535E+04  0.13660299535E+04  0.50400001928E-02 0. -1.
    10030    2    1    2    0    0  0.00000000000E+00  0.00000000000E+00 -0.63667958464E+03  0.20953803224E+04  0.19963110484E+04 0.  0.
        3    1    3    3  502    0 -0.39686158183E+02  0.81784843627E+02  0.72499637712E+03  0.73067332566E+03  0.10100000352E+00 0.  1.
       -3    1    3    3    0  502  0.39686158183E+02 -0.81784843627E+02 -0.13616759618E+04  0.13647069967E+04  0.10100000352E+00 0. -1.
</event>
<event>
 5   0  0.2007644E-05  0.1990464E+04  0.7818609E-02  0.8611092E-01
       -1   -1    0    0    0  501  0.00000000000E+00  0.00000000000E+00  0.77005914594E+03  0.77005914596E+03  0.50400001928E-02 0.  1.
        1   -1    0    0  501    0  0.00000000000E+00  0.00000000000E+00 -0.12862474336E+04  0.12862474336E+04  0.50400001928E-02 0. -1.
    10030    2    1    2    0    0  0.00000000000E+00  0.00000000000E+00 -0.51618828766E+03  0.20563065796E+04  0.19904638658E+04 0.  0.
        1    1    3    3  502    0 -0.52012443576E+03  0.79263804719E+03  0.54712405764E+02  0.94963042806E+03  0.50400001928E-02 0.  1.
       -1    1    3    3    0  502  0.52012443576E+03 -0.79263804719E+03 -0.57090069343E+03  0.11066761515E+04  0.50400001928E-02 0. -1.
</event>
<event>
 5   0  0.2007644E-05  0.1990326E+04  0.7818609E-02  0.8611157E-01
       -1   -1    0    0    0  501  0.00000000000E+00  0.00000000000E+00  0.11689659284E+04  0.11689659284E+04  0.50400001928E-02 0.  1.
        1   -1    0    0  501    0  0.00000000000E+00  0.00000000000E+00 -0.84720152006E+03  0.84720152008E+03  0.50400001928E-02 0. -1.
    10030    2    1    2    0    0  0.00000000000E+00  0.00000000000E+00  0.32176440835E+03  0.20161674485E+04  0.19903263164E+04 0.  0.
        1    1    3    3  502    0  0.83153307127E+03 -0.53235847458E+03  0.28698507455E+03  0.10282087469E+04  0.50400001928E-02 0.  1.
       -1    1    3    3    0  502 -0.83153307127E+03  0.53235847458E+03  0.34779333802E+02  0.98795870165E+03  0.50400001928E-02 0. -1.
</event>
<event>
 5   0  0.4412054E-05  0.1996662E+04  0.7818609E-02  0.8608183E-01
       -2   -1    0    0    0  501  0.00000000000E+00  0.00000000000E+00  0.92184480789E+03  0.92184480789E+03  0.25500000920E-02 0. -1.
        2   -1    0    0  501    0  0.00000000000E+00  0.00000000000E+00 -0.10811635723E+04  0.10811635723E+04  0.25500000920E-02 0.  1.
    10030    2    1    2    0    0  0.00000000000E+00  0.00000000000E+00 -0.15931876439E+03  0.20030083802E+04  0.19966622404E+04 0.  0.
        4    1    3    3  502    0  0.21958037244E+03  0.90868762929E+03  0.27178918923E+03  0.97355006233E+03  0.12699999809E+01 0.  1.
       -4    1    3    3    0  502 -0.21958037244E+03 -0.90868762929E+03 -0.43110795362E+03  0.10294583178E+04  0.12699999809E+01 0. -1.
</event>
<event>
 5   0  0.4514680E-05  0.1999526E+04  0.7818609E-02  0.8606842E-01
        2   -1    0    0  501    0  0.00000000000E+00  0.00000000000E+00  0.20492127959E+04  0.20492127959E+04  0.25500000920E-02 0. -1.
       -2   -1    0    0    0  501  0.00000000000E+00  0.00000000000E+00 -0.48776098035E+03  0.48776098036E+03  0.25500000920E-02 0.  1.
    10030    2    1    2    0    0  0.00000000000E+00  0.00000000000E+00  0.15614518155E+04  0.25369737763E+04  0.19995259861E+04 0.  0.
        3    1    3    3  502    0 -0.77224960642E+03 -0.61467797183E+03  0.98264885383E+03  0.13927660406E+04  0.10100000352E+00 0. -1.
       -3    1    3    3    0  502  0.77224960642E+03  0.61467797183E+03  0.57880296171E+03  0.11442077357E+04  0.10100000352E+00 0.  1.
</event>
<event>
 5   0  0.4447313E-05  0.2002213E+04  0.7818609E-02  0.8605587E-01
       -2   -1    0    0    0  501  0.00000000000E+00  0.00000000000E+00  0.52262139318E+03  0.52262139319E+03  0.25500000920E-02 0.  1.
        2   -1    0    0  501    0  0.00000000000E+00  0.00000000000E+00 -0.19176678588E+04  0.19176678588E+04  0.25500000920E-02 0. -1.
    10030    2    1    2    0    0  0.00000000000E+00  0.00000000000E+00 -0.13950464656E+04  0.24402892519E+04  0.20022130236E+04 0.  0.
        5    1    3    3  502    0  0.43457002167E+03  0.66530831734E+03 -0.14395947672E+04  0.16443665785E+04  0.46999998093E+01 0. -1.
       -5    1    3    3    0  502 -0.43457002167E+03 -0.66530831734E+03  0.44548301634E+02  0.79592267340E+03  0.46999998093E+01 0.  1.
</event>
<event>
 5   0  0.4514680E-05  0.2003756E+04  0.7818609E-02  0.8604866E-01
        2   -1    0    0  501    0  0.00000000000E+00  0.00000000000E+00  0.26064179547E+04  0.26064179547E+04  0.25500000920E-02 0.  1.
       -2   -1    0    0    0  501  0.00000000000E+00  0.00000000000E+00 -0.38511091631E+03  0.38511091632E+03  0.25500000920E-02 0. -1.
    10030    2    1    2    0    0  0.00000000000E+00  0.00000000000E+00  0.22213070384E+04  0.29915288710E+04  0.20037564790E+04 0.  0.
        3    1    3    3  502    0  0.37427896213E+03  0.86889190805E+03  0.16028825687E+04  0.18612604408E+04  0.10100000352E+00 0.  1.
       -3    1    3    3    0  502 -0.37427896213E+03 -0.86889190805E+03  0.61842446972E+03  0.11302684302E+04  0.10100000352E+00 0. -1.
</event>
<event>
 5   0  0.2256868E-05  0.2001416E+04  0.7818609E-02  0.8605959E-01
        1   -1    0    0  501    0  0.00000000000E+00  0.00000000000E+00  0.19837719585E+04  0.19837719585E+04  0.50400001928E-02 0.  1.
       -1   -1    0    0    0  501  0.00000000000E+00  0.00000000000E+00 -0.50480419382E+03  0.50480419385E+03  0.50400001928E-02 0. -1.
    10030    2    1    2    0    0  0.00000000000E+00  0.00000000000E+00  0.14789677647E+04  0.24885761524E+04  0.20014159031E+04 0.  0.
        5    1    3    3  502    0 -0.67785187486E+03  0.88161761742E+02  0.16482258653E+04  0.17843559772E+04  0.46999998093E+01 0.  1.
       -5    1    3    3    0  502  0.67785187486E+03 -0.88161761742E+02 -0.16925810058E+03  0.70422017515E+03  0.46999998093E+01 0. -1.
</event>
<event>
 5   0  0.4447313E-05  0.2003615E+04  0.7818609E-02  0.8604932E-01
        2   -1    0    0  501    0  0.00000000000E+00  0.00000000000E+00  0.10280214054E+04  0.10280214054E+04  0.25500000920E-02 0. -1.
       -2   -1    0    0    0  501  0.00000000000E+00  0.00000000000E+00 -0.97626223834E+03  0.97626223835E+03  0.25500000920E-02 0.  1.
    10030    2    1    2    0    0  0.00000000000E+00  0.00000000000E+00  0.51759167056E+02  0.20042836437E+04  0.20036152109E+04 0.  0.
        5    1    3    3  502    0 -0.97332008995E+03 -0.18847978072E+03  0.16987121574E+03  0.10058603010E+04  0.46999998093E+01 0.  1.
       -5    1    3    3    0  502  0.97332008995E+03  0.18847978072E+03 -0.11811204869E+03  0.99842334272E+03  0.46999998093E+01 0. -1.
</event>
<event>
 5   0  0.4473361E-05  0.1995993E+04  0.7818609E-02  0.8608496E-01
       -2   -1    0    0    0  501  0.00000000000E+00  0.00000000000E+00  0.45988985359E+03  0.45988985360E+03  0.25500000920E-02 0.  1.
        2   -1    0    0  501    0  0.00000000000E+00  0.00000000000E+00 -0.21657300148E+04  0.21657300148E+04  0.25500000920E-02 0. -1.
    10030    2    1    2    0    0  0.00000000000E+00  0.00000000000E+00 -0.17058401612E+04  0.26256198684E+04  0.19959932459E+04 0.  0.
        2    1    3    3  502    0  0.10866288769E+03  0.40026119628E+03  0.34115402090E+03  0.53703139051E+03  0.25500000920E-02 0.  1.
       -2    1    3    3    0  502 -0.10866288769E+03 -0.40026119628E+03 -0.20469941821E+04  0.20885884779E+04  0.25500000920E-02 0. -1.
</event>
<event>
 5   0  0.4447313E-05  0.1999763E+04  0.7818609E-02  0.8606732E-01
        2   -1    0    0  501    0  0.00000000000E+00  0.00000000000E+00  0.97901761369E+03  0.97901761370E+03  0.25500000920E-02 0.  1.
       -2   -1    0    0    0  501  0.00000000000E+00  0.00000000000E+00 -0.10211895890E+04  0.10211895890E+04  0.25500000920E-02 0. -1.
    10030    2    1    2    0    0  0.00000000000E+00  0.00000000000E+00 -0.42171975258E+02  0.20002072027E+04  0.19997625804E+04 0.  0.
        5    1    3    3  502    0  0.40016364126E+03  0.65367497984E+03 -0.66334913745E+03  0.10136449513E+04  0.46999998093E+01 0. -1.
       -5    1    3    3    0  502 -0.40016364126E+03 -0.65367497984E+03  0.62117716220E+03  0.98656225140E+03  0.46999998093E+01 0.  1.
</event>
<event>
 5   0  0.2007644E-05  0.1997969E+04  0.7818609E-02  0.8607571E-01
        1   -1    0    0  501    0  0.00000000000E+00  0.00000000000E+00  0.43856992995E+03  0.43856992998E+03  0.50400001928E-02 0.  1.
       -1   -1    0    0    0  501  0.00000000000E+00  0.00000000000E+00 -0.22755094210E+04  0.22755094210E+04  0.50400001928E-02 0. -1.
    10030    2    1    2    0    0  0.00000000000E+00  0.00000000000E+00 -0.18369394910E+04  0.27140793510E+04  0.19979689761E+04 0.  0.
        1    1    3    3  502    0 -0.16733855019E+03  0.49133451096E+03  0.24101737902E+03  0.57227717852E+03  0.50400001928E-02 0.  1.
       -1    1    3    3    0  502  0.16733855019E+03 -0.49133451096E+03 -0.20779568701E+04  0.21418021724E+04  0.50400001928E-02 0. -1.
</event>
<event>
 5   0  0.4473361E-05  0.1992047E+04  0.7818609E-02  0.8610348E-01
       -2   -1    0    0    0  501  0.00000000000E+00  0.00000000000E+00  0.94712860245E+03  0.94712860246E+03  0.25500000920E-02 0.  1.
        2   -1    0    0  501    0  0.00000000000E+00  0.00000000000E+00 -0.10474422209E+04  0.10474422209E+04  0.25500000920E-02 0. -1.
    10030    2    1    2    0    0  0.00000000000E+00  0.00000000000E+00 -0.10031361841E+03  0.19945708233E+04  0.19920466730E+04 0.  0.
        2    1    3    3  502    0 -0.92486005816E+03 -0.20523226854E+03  0.25776510424E+03  0.98179899174E+03  0.25500000920E-02 0.  1.
       -2    1    3    3    0  502  0.92486005816E+03  0.20523226854E+03 -0.35807872265E+03  0.10127718316E+04  0.25500000920E-02 0. -1.
</event>
<event>
 5   0  0.2256868E-05  0.1995880E+04  0.7818609E-02  0.8608549E-01
       -1   -1    0    0    0  501  0.00000000000E+00  0.00000000000E+00  0.89347793873E+03  0.89347793874E+03  0.50400001928E-02 0.  1.
        1   -1    0    0  501    0  0.00000000000E+00  0.00000000000E+00 -0.11146151151E+04  0.11146151151E+04  0.50400001928E-02 0. -1.
    10030    2    1    2    0    0  0.00000000000E+00  0.00000000000E+00 -0.22113717634E+03  0.20080930538E+04  0.19958797714E+04 0.  0.
        5    1    3    3  502    0 -0.29888716162E+03  0.37794917317E+03  0.76866843177E+03  0.90722233266E+03  0.46999998093E+01 0.  1.
       -5    1    3    3    0  502  0.29888716162E+03 -0.37794917317E+03 -0.98980560811E+03  0.11008707212E+04  0.46999998093E+01 0. -1.
</event>
<event>
 5   0  0.2142551E-05  0.1910155E+04  0.7818609E-02  0.8649818E-01
       -1   -1    0    0    0  501  0.00000000000E+00  0.00000000000E+00  0.94805339490E+03  0.94805339492E+03  0.50400001928E-02 0.  1.
        1   -1    0    0  501    0  0.00000000000E+00  0.00000000000E+00 -0.96215407084E+03  0.96215407086E+03  0.50400001928E-02 0. -1.
    10030    2    1    2    0    0  0.00000000000E+00  0.00000000000E+00 -0.14100675940E+02  0.19102074658E+04  0.19101554212E+04 0.  0.
        3    1    3    3  502    0 -0.24314349855E+03  0.41345004269E+03 -0.83297460508E+03  0.96120050020E+03  0.10100000352E+00 0. -1.
       -3    1    3    3    0  502  0.24314349855E+03 -0.41345004269E+03  0.81887392914E+03  0.94900696557E+03  0.10100000352E+00 0.  1.
</event>
<event>
 5   0  0.4412054E-05  0.1963768E+04  0.7818609E-02  0.8623750E-01
       -2   -1    0    0    0  501  0.00000000000E+00  0.00000000000E+00  0.61862273225E+03  0.61862273225E+03  0.25500000920E-02 0.  1.
        2   -1    0    0  501    0  0.00000000000E+00  0.00000000000E+00 -0.15584557814E+04  0.15584557814E+04  0.25500000920E-02 0. -1.
    10030    2    1    2    0    0  0.00000000000E+00  0.00000000000E+00 -0.93983304914E+03  0.21770785136E+04  0.19637679838E+04 0.  0.
        4    1    3    3  502    0  0.84538210562E+01 -0.24868394007E+03  0.58308831577E+03  0.63396274814E+03  0.12699999809E+01 0.  1.
       -4    1    3    3    0  502 -0.84538210562E+01  0.24868394007E+03 -0.15229213649E+04  0.15431157655E+04  0.12699999809E+01 0. -1.
</event>
<event>
 5   0  0.2142551E-05  0.1998668E+04  0.7818609E-02  0.8607244E-01
       -1   -1    0    0    0  501  0.00000000000E+00  0.00000000000E+00  0.89069499894E+03  0.89069499896E+03  0.50400001928E-02 0. -1.
        1   -1    0    0  501    0  0.00000000000E+00  0.00000000000E+00 -0.11212236515E+04  0.11212236515E+04  0.50400001928E-02 0.  1.
    10030    2    1    2    0    0  0.00000000000E+00  0.00000000000E+00 -0.23052865254E+03  0.20119186504E+04  0.19986678554E+04 0.  0.
        3    1    3    3  502    0  0.16153379108E+03 -0.13632181036E+03  0.86793605542E+03  0.89330275279E+03  0.10100000352E+00 0. -1.
       -3    1    3    3    0  502 -0.16153379108E+03  0.13632181036E+03 -0.10984647080E+04  0.11186158977E+04  0.10100000352E+00 0.  1.
</event>
<event>
 5   0  0.2007644E-05  0.1997422E+04  0.7818609E-02  0.8607827E-01
        1   -1    0    0  501    0  0.00000000000E+00  0.00000000000E+00  0.13390286114E+04  0.13390286114E+04  0.50400001928E-02 0. -1.
       -1   -1    0    0    0  501  0.00000000000E+00  0.00000000000E+00 -0.74488588992E+03  0.74488588993E+03  0.50400001928E-02 0.  1.
    10030    2    1    2    0    0  0.00000000000E+00  0.00000000000E+00  0.59414272151E+03  0.20839145014E+04  0.19974218572E+04 0.  0.
        1    1    3    3  502    0  0.49511564671E+03  0.52479841194E+03 -0.42338949917E+03  0.83654739544E+03  0.50400001928E-02 0.  1.
       -1    1    3    3    0  502 -0.49511564671E+03 -0.52479841194E+03  0.10175322207E+04  0.12473671059E+04  0.50400001928E-02 0. -1.
</event>
<event>
 5   0  0.2142551E-05  0.1998598E+04  0.7818609E-02  0.8607277E-01
        1   -1    0    0  501    0  0.00000000000E+00  0.00000000000E+00  0.10570357678E+04  0.10570357678E+04  0.50400001928E-02 0. -1.
       -1   -1    0    0    0  501  0.00000000000E+00  0.00000000000E+00 -0.94471555560E+03  0.94471555562E+03  0.50400001928E-02 0.  1.
    10030    2    1    2    0    0  0.00000000000E+00  0.00000000000E+00  0.11232021222E+03  0.20017513235E+04  0.19985976411E+04 0.  0.
        3    1    3    3  502    0  0.97673698316E+03  0.20681619492E+03  0.98771918951E+02  0.10032666520E+04  0.10100000352E+00 0. -1.
       -3    1    3    3    0  502 -0.97673698316E+03 -0.20681619492E+03  0.13548293273E+02  0.99848467150E+03  0.10100000352E+00 0.  1.
</event>
<event>
 5   0  0.4447313E-05  0.2001575E+04  0.7818609E-02  0.8605885E-01
        2   -1    0    0  501    0  0.00000000000E+00  0.00000000000E+00  0.17761694358E+04  0.17761694358E+04  0.25500000920E-02 0.  1.
       -2   -1    0    0    0  501  0.00000000000E+00  0.00000000000E+00 -0.56389659246E+03  0.56389659247E+03  0.25500000920E-02 0. -1.
    10030    2    1    2    0    0  0.00000000000E+00  0.00000000000E+00  0.12122728433E+04  0.23400660283E+04  0.20015752721E+04 0.  0.
        5    1    3    3  502    0 -0.25497090879E+03 -0.51999859951E+03 -0.34806619220E+03  0.67570768234E+03  0.46999998093E+01 0. -1.
       -5    1    3    3    0  502  0.25497090879E+03  0.51999859951E+03  0.15603390355E+04  0.16643583459E+04  0.46999998093E+01 0.  1.
</event>
<event>
 5   0  0.2110896E-05  0.1996452E+04  0.7818609E-02  0.8608281E-01
       -1   -1    0    0    0  501  0.00000000000E+00  0.00000000000E+00  0.77519102166E+03  0.77519102168E+03  0.50400001928E-02 0. -1.
        1   -1    0    0  501    0  0.00000000000E+00  0.00000000000E+00 -0.12854318655E+04  0.12854318655E+04  0.50400001928E-02 0.  1.
    10030    2    1    2    0    0  0.00000000000E+00  0.00000000000E+00 -0.51024084387E+03  0.20606228872E+04  0.19964520942E+04 0.  0.
        4    1    3    3  502    0 -0.75186486384E+03 -0.26801523708E+03  0.36358046214E+03  0.87711191198E+03  0.12699999809E+01 0. -1.
       -4    1    3    3    0  502  0.75186486384E+03  0.26801523708E+03 -0.87382130601E+03  0.11835109752E+04  0.12699999809E+01 0.  1.
</event>
<event>
 5   0  0.2256868E-05  0.2003132E+04  0.7818609E-02  0.8605158E-01
       -1   -1    0    0    0  501  0.00000000000E+00  0.00000000000E+00  0.81943140158E+03  0.81943140160E+03  0.50400001928E-02 0.  1.
        1   -1    0    0  501    0  0.00000000000E+00  0.00000000000E+00 -0.12241837756E+04  0.12241837756E+04  0.50400001928E-02 0. -1.
    10030    2    1    2    0    0  0.00000000000E+00  0.00000000000E+00 -0.40475237400E+03  0.20436151772E+04  0.20031321744E+04 0.  0.
        5    1    3    3  502    0 -0.49470351771E+03 -0.83304776439E+03  0.56548950634E+02  0.97052564212E+03  0.46999998093E+01 0. -1.
       -5    1    3    3    0  502  0.49470351771E+03  0.83304776439E+03 -0.46130132464E+03  0.10730895351E+04  0.46999998093E+01 0.  1.
</event>
<event>
 5   0  0.4447313E-05  0.2005799E+04  0.7818609E-02  0.8603914E-01
       -2   -1    0    0    0  501  0.00000000000E+00  0.00000000000E+00  0.76463309114E+03  0.76463309114E+03  0.25500000920E-02 0.  1.
        2   -1    0    0  501    0  0.00000000000E+00  0.00000000000E+00 -0.13154112716E+04  0.13154112716E+04  0.25500000920E-02 0. -1.
    10030    2    1    2    0    0  0.00000000000E+00  0.00000000000E+00 -0.55077818050E+03  0.20800443628E+04  0.20057985809E+04 0.  0.
        5    1    3    3  502    0 -0.39378859668E+03  0.32830174606E+03 -0.11692299839E+04  0.12767037012E+04  0.46999998093E+01 0. -1.
       -5    1    3    3    0  502  0.39378859668E+03 -0.32830174606E+03  0.61845180344E+03  0.80334066156E+03  0.46999998093E+01 0.  1.
</event>
<event>
 5   0  0.2256868E-05  0.1999186E+04  0.7818609E-02  0.8607001E-01
        1   -1    0    0  501    0  0.00000000000E+00  0.00000000000E+00  0.18301323577E+04  0.18301323577E+04  0.50400001928E-02 0. -1.
       -1   -1    0    0    0  501  0.00000000000E+00  0.00000000000E+00 -0.54596384823E+03  0.54596384825E+03  0.50400001928E-02 0.  1.
    10030    2    1    2    0    0  0.00000000000E+00  0.00000000000E+00  0.12841685095E+04  0.23760962060E+04  0.19991859392E+04 0.  0.
        5    1    3    3  502    0 -0.82274212115E+02  0.51956927968E+03  0.16522963070E+04  0.17340203167E+04  0.46999998093E+01 0. -1.
       -5    1    3    3    0  502  0.82274212115E+02 -0.51956927968E+03 -0.36812779751E+03  0.64207588934E+03  0.46999998093E+01 0.  1.
</event>
<event>
 5   0  0.4412054E-05  0.1992873E+04  0.7818609E-02  0.8609960E-01
        2   -1    0    0  501    0  0.00000000000E+00  0.00000000000E+00  0.20078295295E+04  0.20078295295E+04  0.25500000920E-02 0. -1.
       -2   -1    0    0    0  501  0.00000000000E+00  0.00000000000E+00 -0.49450672896E+03  0.49450672897E+03  0.25500000920E-02 0.  1.
    10030    2    1    2    0    0  0.00000000000E+00  0.00000000000E+00  0.15133228005E+04  0.25023362585E+04  0.19928725127E+04 0.  0.
        4    1    3    3  502    0 -0.72112828746E+03 -0.13298043833E+03  0.16038005991E+04  0.17634873911E+04  0.12699999809E+01 0. -1.
       -4    1    3    3    0  502  0.72112828746E+03  0.13298043833E+03 -0.90477798531E+02  0.73884886741E+03  0.12699999809E+01 0.  1.
</event>
<event>
 5   0  0.2110896E-05  0.2004007E+04  0.7818609E-02  0.8604750E-01
       -1   -1    0    0    0  501  0.00000000000E+00  0.00000000000E+00  0.12540023658E+04  0.12540023659E+04  0.50400001928E-02 0. -1.
        1   -1    0    0  501    0  0.00000000000E+00  0.00000000000E+00 -0.80064507610E+03  0.80064507612E+03  0.50400001928E-02 0.  1.
    10030    2    1    2    0    0  0.00000000000E+00  0.00000000000E+00  0.45335728974E+03  0.20546474420E+04  0.20040068060E+04 0.  0.
        4    1    3    3  502    0 -0.18686766654E+03 -0.46614136586E+03 -0.66229693629E+03  0.83117154817E+03  0.12699999809E+01 0.  1.
       -4    1    3    3    0  502  0.18686766654E+03  0.46614136586E+03  0.11156542260E+04  0.12234758938E+04  0.12699999809E+01 0. -1.
</event>
<event>
 5   0  0.2093980E-05  0.1921172E+04  0.7818609E-02  0.8644389E-01
        1   -1    0    0  501    0  0.00000000000E+00  0.00000000000E+00  0.20276868992E+04  0.20276868992E+04  0.50400001928E-02 0.  1.
       -1   -1    0    0    0  501  0.00000000000E+00  0.00000000000E+00 -0.45506328468E+03  0.45506328471E+03  0.50400001928E-02 0. -1.
    10030    2    1    2    0    0  0.00000000000E+00  0.00000000000E+00  0.15726236146E+04  0.24827501839E+04  0.19211724136E+04 0.  0.
        2    1    3    3  502    0  0.38712502343E+03 -0.44176034513E+03  0.17685590637E+04  0.18635501464E+04  0.25500000920E-02 0.  1.
       -2    1    3    3    0  502 -0.38712502343E+03  0.44176034513E+03 -0.19593544913E+03  0.61920003757E+03  0.25500000920E-02 0. -1.
</event>
<event>
 5   0  0.2142551E-05  0.2000198E+04  0.7818609E-02  0.8606528E-01
        1   -1    0    0  501    0  0.00000000000E+00  0.00000000000E+00  0.93818256873E+03  0.93818256875E+03  0.50400001928E-02 0.  1.
       -1   -1    0    0    0  501  0.00000000000E+00  0.00000000000E+00 -0.10661021776E+04  0.10661021777E+04  0.50400001928E-02 0. -1.
    10030    2    1    2    0    0  0.00000000000E+00  0.00000000000E+00 -0.12791960890E+03  0.20042847464E+04  0.20001984697E+04 0.  0.
        3    1    3    3  502    0  0.59984606920E+03 -0.42054230795E+02 -0.86472604166E+03  0.10532497341E+04  0.10100000352E+00 0. -1.
       -3    1    3    3    0  502 -0.59984606920E+03  0.42054230795E+02  0.73680643276E+03  0.95103501230E+03  0.10100000352E+00 0.  1.
</event>
<event>
 5   0  0.4514680E-05  0.2005141E+04  0.7818609E-02  0.8604221E-01
        2   -1    0    0  501    0  0.00000000000E+00  0.00000000000E+00  0.19304898830E+04  0.19304898830E+04  0.25500000920E-02 0. -1.
       -2   -1    0    0    0  501  0.00000000000E+00  0.00000000000E+00 -0.52066982155E+03  0.52066982156E+03  0.25500000920E-02 0.  1.
    10030    2    1    2    0    0  0.00000000000E+00  0.00000000000E+00  0.14098200614E+04  0.24511597046E+04  0.20051412149E+04 0.  0.
        3    1    3    3  502    0  0.66883195360E+03  0.48732337395E+03  0.13041149654E+02  0.82764142885E+03  0.10100000352E+00 0.  1.
       -3    1    3    3    0  502 -0.66883195360E+03 -0.48732337395E+03  0.13967789118E+04  0.16235182757E+04  0.10100000352E+00 0. -1.
</event>
<event>
 5   0  0.2093980E-05  0.2004010E+04  0.7818609E-02  0.8604748E-01
        1   -1    0    0  501    0  0.00000000000E+00  0.00000000000E+00  0.99260294606E+03  0.99260294607E+03  0.50400001928E-02 0. -1.
       -1   -1    0    0    0  501  0.00000000000E+00  0.00000000000E+00 -0.10114963428E+04  0.10114963429E+04  0.50400001928E-02 0.  1.
    10030    2    1    2    0    0  0.00000000000E+00  0.00000000000E+00 -0.18893396793E+02  0.20040992889E+04  0.20040102294E+04 0.  0.
        2    1    3    3  502    0 -0.13559740786E+03 -0.86556667069E+03  0.47680729428E+03  0.99746554543E+03  0.25500000920E-02 0.  1.
       -2    1    3    3    0  502  0.13559740786E+03  0.86556667069E+03 -0.49570069108E+03  0.10066337435E+04  0.25500000920E-02 0. -1.
</event>
<event>
 5   0  0.2093980E-05  0.1963401E+04  0.7818609E-02  0.8623926E-01
       -1   -1    0    0    0  501  0.00000000000E+00  0.00000000000E+00  0.56731093208E+03  0.56731093211E+03  0.50400001928E-02 0.  1.
        1   -1    0    0  501    0  0.00000000000E+00  0.00000000000E+00 -0.16987782528E+04  0.16987782529E+04  0.50400001928E-02 0. -1.
    10030    2    1    2    0    0  0.00000000000E+00  0.00000000000E+00 -0.11314673208E+04  0.22660891850E+04  0.19634005949E+04 0.  0.
        2    1    3    3  502    0  0.78875143302E+03 -0.44161950920E+03 -0.10076130544E+04  0.13536767271E+04  0.25500000920E-02 0. -1.
       -2    1    3    3    0  502 -0.78875143302E+03  0.44161950920E+03 -0.12385426635E+03  0.91241245788E+03  0.25500000920E-02 0.  1.
</event>
<event>
 5   0  0.4447313E-05  0.2004743E+04  0.7818609E-02  0.8604406E-01
        2   -1    0    0  501    0  0.00000000000E+00  0.00000000000E+00  0.11976094048E+04  0.11976094048E+04  0.25500000920E-02 0. -1.
       -2   -1    0    0    0  501  0.00000000000E+00  0.00000000000E+00 -0.83896180696E+03  0.83896180697E+03  0.25500000920E-02 0.  1.
    10030    2    1    2    0    0  0.00000000000E+00  0.00000000000E+00  0.35864759780E+03  0.20365712117E+04  0.20047429264E+04 0.  0.
        5    1    3    3  502    0 -0.78560410665E+03  0.27286670103E+03  0.74775767967E+03  0.11183888798E+04  0.46999998093E+01 0. -1.
       -5    1    3    3    0  502  0.78560410665E+03 -0.27286670103E+03 -0.38911008187E+03  0.91818233196E+03  0.46999998093E+01 0.  1.
</event>
<event>
 5   0  0.4412054E-05  0.1982775E+04  0.7818609E-02  0.8614717E-01
       -2   -1    0    0    0  501  0.00000000000E+00  0.00000000000E+00  0.43738505963E+03  0.43738505964E+03  0.25500000920E-02 0. -1.
        2   -1    0    0  501    0  0.00000000000E+00  0.00000000000E+00 -0.22471021075E+04  0.22471021075E+04  0.25500000920E-02 0.  1.
    10030    2    1    2    0    0  0.00000000000E+00  0.00000000000E+00 -0.18097170479E+04  0.26844871671E+04  0.19827747117E+04 0.  0.
        4    1    3    3  502    0  0.48512693546E+02  0.23337041822E+03  0.39801112844E+03  0.46392855570E+03  0.12699999809E+01 0. -1.
       -4    1    3    3    0  502 -0.48512693546E+02 -0.23337041822E+03 -0.22077281763E+04  0.22205586114E+04  0.12699999809E+01 0.  1.
</event>
<event>
 5   0  0.2093980E-05  0.1996582E+04  0.7818609E-02  0.8608221E-01
        1   -1    0    0  501    0  0.00000000000E+00  0.00000000000E+00  0.13791952156E+04  0.13791952156E+04  0.50400001928E-02 0.  1.
       -1   -1    0    0    0  501  0.00000000000E+00  0.00000000000E+00 -0.72258409118E+03  0.72258409119E+03  0.50400001928E-02 0. -1.
    10030    2    1    2    0    0  0.00000000000E+00  0.00000000000E+00  0.65661112438E+03  0.21017793068E+04  0.19965816001E+04 0.  0.
        2    1    3    3  502    0 -0.64560908123E+03  0.60027556107E+03  0.82143462996E+03  0.12049467566E+04  0.25500000920E-02 0. -1.
       -2    1    3    3    0  502  0.64560908123E+03 -0.60027556107E+03 -0.16482350558E+03  0.89683255014E+03  0.25500000920E-02 0.  1.
</event>
<event>
 5   0  0.2007644E-05  0.1911605E+04  0.7818609E-02  0.8649102E-01
       -1   -1    0    0    0  501  0.00000000000E+00  0.00000000000E+00  0.64696682347E+03  0.64696682349E+03  0.50400001928E-02 0.  1.
        1   -1    0    0  501    0  0.00000000000E+00  0.00000000000E+00 -0.14120631618E+04  0.14120631618E+04  0.50400001928E-02 0. -1.
    10030    2    1    2    0    0  0.00000000000E+00  0.00000000000E+00 -0.76509633833E+03  0.20590299853E+04  0.19116045808E+04 0.  0.
        1    1    3    3  502    0 -0.39560876375E+03  0.85747281949E+03 -0.22354197866E+03  0.97043131976E+03  0.50400001928E-02 0. -1.
       -1    1    3    3    0  502  0.39560876375E+03 -0.85747281949E+03 -0.54155435967E+03  0.10885986655E+04  0.50400001928E-02 0.  1.
</event>
<event>
 5   0  0.2142551E-05  0.2010434E+04  0.7818609E-02  0.8601758E-01
        1   -1    0    0  501    0  0.00000000000E+00  0.00000000000E+00  0.11187286142E+04  0.11187286143E+04  0.50400001928E-02 0. -1.
       -1   -1    0    0    0  501  0.00000000000E+00  0.00000000000E+00 -0.90322320104E+03  0.90322320105E+03  0.50400001928E-02 0.  1.
    10030    2    1    2    0    0  0.00000000000E+00  0.00000000000E+00  0.21550541321E+03  0.20219518153E+04  0.20104344208E+04 0.  0.
        3    1    3    3  502    0  0.32353064697E+03 -0.85074589826E+03  0.53683599386E+03  0.10567088329E+04  0.10100000352E+00 0. -1.
       -3    1    3    3    0  502 -0.32353064697E+03  0.85074589826E+03 -0.32133058065E+03  0.96524298246E+03  0.10100000352E+00 0.  1.
</event>
<event>
 5   0  0.4473361E-05  0.1998694E+04  0.7818609E-02  0.8607232E-01
       -2   -1    0    0    0  501  0.00000000000E+00  0.00000000000E+00  0.87898727626E+03  0.87898727626E+03  0.25500000920E-02 0.  1.
        2   -1    0    0  501    0  0.00000000000E+00  0.00000000000E+00 -0.11361872121E+04  0.11361872121E+04  0.25500000920E-02 0. -1.
    10030    2    1    2    0    0  0.00000000000E+00  0.00000000000E+00 -0.25719993585E+03  0.20151744884E+04  0.19986936763E+04 0.  0.
        2    1    3    3  502    0 -0.97293448912E+03 -0.51826084587E+01 -0.35866063314E+03  0.10369502540E+04  0.25500000920E-02 0. -1.
       -2    1    3    3    0  502  0.97293448912E+03  0.51826084587E+01  0.10146069729E+03  0.97822423434E+03  0.25500000920E-02 0.  1.
</event>
<event>
 5   0  0.2007644E-05  0.2001533E+04  0.7818609E-02  0.8605904E-01
        1   -1    0    0  501    0  0.00000000000E+00  0.00000000000E+00  0.10015970692E+04  0.10015970692E+04  0.50400001928E-02 0. -1.
       -1   -1    0    0    0  501  0.00000000000E+00  0.00000000000E+00 -0.99993645427E+03  0.99993645428E+03  0.50400001928E-02 0.  1.
    10030    2    1    2    0    0  0.00000000000E+00  0.00000000000E+00  0.16606149419E+01  0.20015335235E+04  0.20015328346E+04 0.  0.
        1    1    3    3  502    0 -0.91350382262E+03 -0.39695523318E+03  0.98148021314E+02  0.10008475035E+04  0.50400001928E-02 0. -1.
       -1    1    3    3    0  502  0.91350382262E+03  0.39695523318E+03 -0.96487406372E+02  0.10006860200E+04  0.50400001928E-02 0.  1.
</event>
<event>
 5   0  0.4447313E-05  0.2018021E+04  0.7818609E-02  0.8598241E-01
        2   -1    0    0  501    0  0.00000000000E+00  0.00000000000E+00  0.11864736740E+04  0.11864736740E+04  0.25500000920E-02 0.  1.
       -2   -1    0    0    0  501  0.00000000000E+00  0.00000000000E+00 -0.85809068904E+03  0.85809068905E+03  0.25500000920E-02 0. -1.
    10030    2    1    2    0    0  0.00000000000E+00  0.00000000000E+00  0.32838298499E+03  0.20445643631E+04  0.20180208250E+04 0.  0.
        5    1    3    3  502    0  0.72805039862E+03 -0.66355642946E+03  0.38550323005E+03  0.10578276553E+04  0.46999998093E+01 0.  1.
       -5    1    3    3    0  502 -0.72805039862E+03  0.66355642946E+03 -0.57120245063E+02  0.98673670775E+03  0.46999998093E+01 0. -1.
</event>
<event>
 5   0  0.2142551E-05  0.1994351E+04  0.7818609E-02  0.8609266E-01
       -1   -1    0    0    0  501  0.00000000000E+00  0.00000000000E+00  0.87628747004E+03  0.87628747005E+03  0.50400001928E-02 0.  1.
        1   -1    0    0  501    0  0.00000000000E+00  0.00000000000E+00 -0.11347408603E+04  0.11347408603E+04  0.50400001928E-02 0. -1.
    10030    2    1    2    0    0  0.00000000000E+00  0.00000000000E+00 -0.25845339024E+03  0.20110283303E+04  0.19943512205E+04 0.  0.
        3    1    3    3  502    0 -0.71124485188E+03  0.67386616009E+03  0.57781257619E+02  0.98148027233E+03  0.10100000352E+00 0.  1.
       -3    1    3    3    0  502  0.71124485188E+03 -0.67386616009E+03 -0.31623464786E+03  0.10295480580E+04  0.10100000352E+00 0. -1.
</event>
<event>
 5   0  0.4473361E-05  0.1997577E+04  0.7818609E-02  0.8607754E-01
       -2   -1    0    0    0  501  0.00000000000E+00  0.00000000000E+00  0.10774241215E+04  0.10774241215E+04  0.25500000920E-02 0.  1.
        2   -1    0    0  501    0  0.00000000000E+00  0.00000000000E+00 -0.92589202277E+03  0.92589202277E+03  0.25500000920E-02 0. -1.
    10030    2    1    2    0    0  0.00000000000E+00  0.00000000000E+00  0.15153209869E+03  0.20033161442E+04  0.19975769314E+04 0.  0.
        2    1    3    3  502    0  0.54464806574E+03 -0.83249636156E+03  0.16482824713E+03  0.10083947930E+04  0.25500000920E-02 0. -1.
       -2    1    3    3    0  502 -0.54464806574E+03  0.83249636156E+03 -0.13296148432E+02  0.99492135121E+03  0.25500000920E-02 0.  1.
</event>
<event>
 5   0  0.1601500E-05  0.2002419E+04  0.7818609E-02  0.8605490E-01
       -3   -1    0    0    0  501  0.00000000000E+00  0.00000000000E+00  0.10615968878E+04  0.10615968926E+04  0.10100000352E+00 0.  1.
        3   -1    0    0  501    0  0.00000000000E+00  0.00000000000E+00 -0.94425736211E+03  0.94425736752E+03  0.10100000352E+00 0. -1.
    10030    2    1    2    0    0  0.00000000000E+00  0.00000000000E+00  0.11733952567E+03  0.20058542601E+04  0.20024192240E+04 0.  0.
        3    1    3    3  502    0  0.88353397475E+03  0.47005969488E+03  0.29771085658E+02  0.10012365999E+04  0.10100000352E+00 0.  1.
       -3    1    3    3    0  502 -0.88353397475E+03 -0.47005969488E+03  0.87568440015E+02  0.10046176602E+04  0.10100000352E+00 0. -1.
</event>
<event>
 5   0  0.4447313E-05  0.2015655E+04  0.7818609E-02  0.8599336E-01
       -2   -1    0    0    0  501  0.00000000000E+00  0.00000000000E+00  0.98445862650E+03  0.98445862650E+03  0.25500000920E-02 0. -1.
        2   -1    0    0  501    0  0.00000000000E+00  0.00000000000E+00 -0.10317513226E+04  0.10317513226E+04  0.25500000920E-02 0.  1.
    10030    2    1    2    0    0  0.00000000000E+00  0.00000000000E+00 -0.47292696133E+02  0.20162099491E+04  0.20156552185E+04 0.  0.
        5    1    3    3  502    0 -0.65204401909E+03 -0.18303704083E+03  0.72290377276E+03  0.99059371884E+03  0.46999998093E+01 0. -1.
       -5    1    3    3    0  502  0.65204401909E+03  0.18303704083E+03 -0.77019646889E+03  0.10256162303E+04  0.46999998093E+01 0.  1.
</event>
<event>
 5   0  0.2007644E-05  0.1999393E+04  0.7818609E-02  0.8606904E-01
        1   -1    0    0  501    0  0.00000000000E+00  0.00000000000E+00  0.14199962630E+04  0.14199962630E+04  0.50400001928E-02 0.  1.
       -1   -1    0    0    0  501  0.00000000000E+00  0.00000000000E+00 -0.70380010749E+03  0.70380010751E+03  0.50400001928E-02 0. -1.
    10030    2    1    2    0    0  0.00000000000E+00  0.00000000000E+00  0.71619615553E+03  0.21237963705E+04  0.19993934306E+04 0.  0.
        1    1    3    3  502    0 -0.58781314214E+03  0.71731393457E+03 -0.38396138731E+02  0.92819062390E+03  0.50400001928E-02 0. -1.
       -1    1    3    3    0  502  0.58781314214E+03 -0.71731393457E+03  0.75459229426E+03  0.11956057466E+04  0.50400001928E-02 0.  1.
</event>
<event>
 5   0  0.2110896E-05  0.1989564E+04  0.7818609E-02  0.8611516E-01
       -1   -1    0    0    0  501  0.00000000000E+00  0.00000000000E+00  0.66355190137E+03  0.66355190139E+03  0.50400001928E-02 0. -1.
        1   -1    0    0  501    0  0.00000000000E+00  0.00000000000E+00 -0.14913540601E+04  0.14913540601E+04  0.50400001928E-02 0.  1.
    10030    2    1    2    0    0  0.00000000000E+00  0.00000000000E+00 -0.82780215870E+03  0.21549059615E+04  0.19895635926E+04 0.  0.
        4    1    3    3  502    0 -0.56595132481E+03  0.81809897223E+03 -0.41223053623E+03  0.10768112454E+04  0.12699999809E+01 0. -1.
       -4    1    3    3    0  502  0.56595132481E+03 -0.81809897223E+03 -0.41557162247E+03  0.10780947160E+04  0.12699999809E+01 0.  1.
</event>
<event>
 5   0  0.4514680E-05  0.1994769E+04  0.7818609E-02  0.8609070E-01
        2   -1    0    0  501    0  0.00000000000E+00  0.00000000000E+00  0.16137726715E+04  0.16137726715E+04  0.25500000920E-02 0.  1.
       -2   -1    0    0    0  501  0.00000000000E+00  0.00000000000E+00 -0.61642871160E+03  0.61642871161E+03  0.25500000920E-02 0. -1.
    10030    2    1    2    0    0  0.00000000000E+00  0.00000000000E+00  0.99734395994E+03  0.22302013832E+04  0.19947689678E+04 0.  0.
        3    1    3    3  502    0  0.17932742333E+02 -0.84188163177E+03  0.10962555415E+04  0.13823394980E+04  0.10100000352E+00 0.  1.
       -3    1    3    3    0  502 -0.17932742333E+02  0.84188163177E+03 -0.98911581580E+02  0.84786188517E+03  0.10100000352E+00 0. -1.
</event>
<event>
 5   0  0.2256868E-05  0.2004733E+04  0.7818609E-02  0.8604411E-01
        1   -1    0    0  501    0  0.00000000000E+00  0.00000000000E+00  0.77336391323E+03  0.77336391324E+03  0.50400001928E-02 0. -1.
       -1   -1    0    0    0  501  0.00000000000E+00  0.00000000000E+00 -0.12991795591E+04  0.12991795591E+04  0.50400001928E-02 0.  1.
    10030    2    1    2    0    0  0.00000000000E+00  0.00000000000E+00 -0.52581564585E+03  0.20725434723E+04  0.20047329875E+04 0.  0.
        5    1    3    3  502    0 -0.90509728226E+03  0.30336391225E+03  0.53188764291E+02  0.95607629835E+03  0.46999998093E+01 0.  1.
       -5    1    3    3    0  502  0.90509728226E+03 -0.30336391225E+03 -0.57900441014E+03  0.11164671740E+04  0.46999998093E+01 0. -1.
</event>
<event>
 5   0  0.4577279E-05  0.1991432E+04  0.7818609E-02  0.8610637E-01
        2   -1    0    0  501    0  0.00000000000E+00  0.00000000000E+00  0.68587827700E+03  0.68587827700E+03  0.25500000920E-02 0. -1.
       -2   -1    0    0    0  501  0.00000000000E+00  0.00000000000E+00 -0.14455191034E+04  0.14455191034E+04  0.25500000920E-02 0.  1.
    10030    2    1    2    0    0  0.00000000000E+00  0.00000000000E+00 -0.75964082641E+03  0.21313973804E+04  0.19914317985E+04 0.  0.
        1    1    3    3  502    0 -0.74002488459E+03  0.10042226191E+03  0.32504802744E+03  0.81448000631E+03  0.50400001928E-02 0. -1.
       -1    1    3    3    0  502  0.74002488459E+03 -0.10042226191E+03 -0.10846888539E+04  0.13169173741E+04  0.50400001928E-02 0.  1.
</event>
<event>
 5   0  0.2007644E-05  0.1996154E+04  0.7818609E-02  0.8608421E-01
       -1   -1    0    0    0  501  0.00000000000E+00  0.00000000000E+00  0.55896732186E+03  0.55896732188E+03  0.50400001928E-02 0. -1.
        1   -1    0    0  501    0  0.00000000000E+00  0.00000000000E+00 -0.17821401499E+04  0.17821401499E+04  0.50400001928E-02 0.  1.
    10030    2    1    2    0    0  0.00000000000E+00  0.00000000000E+00 -0.12231728280E+04  0.23411074718E+04  0.19961544097E+04 0.  0.
        1    1    3    3  502    0  0.11893716012E+03 -0.41228335214E+03 -0.16684391063E+04  0.17227340659E+04  0.50400001928E-02 0.  1.
       -1    1    3    3    0  502 -0.11893716012E+03  0.41228335214E+03  0.44526627824E+03  0.61837340586E+03  0.50400001928E-02 0. -1.
</event>
<event>
 5   0  0.4473361E-05  0.2033963E+04  0.7818609E-02  0.8590904E-01
        2   -1    0    0  501    0  0.00000000000E+00  0.00000000000E+00  0.14804653498E+04  0.14804653498E+04  0.25500000920E-02 0.  1.
       -2   -1    0    0    0  501  0.00000000000E+00  0.00000000000E+00 -0.69859882680E+03  0.69859882681E+03  0.25500000920E-02 0. -1.
    10030    2    1    2    0    0  0.00000000000E+00  0.00000000000E+00  0.78186652301E+03  0.21790641766E+04  0.20339629854E+04 0.  0.
        2    1    3    3  502    0 -0.85470488267E+03 -0.25835192307E+03  0.91247322431E+03  0.12766650061E+04  0.25500000920E-02 0. -1.
       -2    1    3    3    0  502  0.85470488267E+03  0.25835192307E+03 -0.13060670130E+03  0.90239917057E+03  0.25500000920E-02 0.  1.
</event>
<event>
 5   0  0.2142551E-05  0.2000287E+04  0.7818609E-02  0.8606486E-01
       -1   -1    0    0    0  501  0.00000000000E+00  0.00000000000E+00  0.83494455742E+03  0.83494455744E+03  0.50400001928E-02 0.  1.
        1   -1    0    0  501    0  0.00000000000E+00  0.00000000000E+00 -0.11980285141E+04  0.11980285141E+04  0.50400001928E-02 0. -1.
    10030    2    1    2    0    0  0.00000000000E+00  0.00000000000E+00 -0.36308395667E+03  0.20329730715E+04  0.20002873669E+04 0.  0.
        3    1    3    3  502    0 -0.77546534343E+03 -0.16039867009E+03 -0.80243631689E+03  0.11273767272E+04  0.10100000352E+00 0. -1.
       -3    1    3    3    0  502  0.77546534343E+03  0.16039867009E+03  0.43935236022E+03  0.90559634432E+03  0.10100000352E+00 0.  1.
</event>
<event>
 5   0  0.4412054E-05  0.2003824E+04  0.7818609E-02  0.8604835E-01
       -2   -1    0    0    0  501  0.00000000000E+00  0.00000000000E+00  0.82649483372E+03  0.82649483373E+03  0.25500000920E-02 0. -1.
        2   -1    0    0  501    0  0.00000000000E+00  0.00000000000E+00 -0.12145600637E+04  0.12145600637E+04  0.25500000920E-02 0.  1.
    10030    2    1    2    0    0  0.00000000000E+00  0.00000000000E+00 -0.38806522995E+03  0.20410548974E+04  0.20038239622E+04 0.  0.
        4    1    3    3  502    0 -0.38111720566E+03 -0.36827771540E+03  0.67202824456E+03  0.85586352563E+03  0.12699999809E+01 0. -1.
       -4    1    3    3    0  502  0.38111720566E+03  0.36827771540E+03 -0.10600934745E+04  0.11851913718E+04  0.12699999809E+01 0.  1.
</event>
<event>
 5   0  0.4577279E-05  0.1995062E+04  0.7818609E-02  0.8608933E-01
       -2   -1    0    0    0  501  0.00000000000E+00  0.00000000000E+00  0.74475581433E+03  0.74475581434E+03  0.25500000920E-02 0. -1.
        2   -1    0    0  501    0  0.00000000000E+00  0.00000000000E+00 -0.13360993614E+04  0.13360993614E+04  0.25500000920E-02 0.  1.
    10030    2    1    2    0    0  0.00000000000E+00  0.00000000000E+00 -0.59134354710E+03  0.20808551758E+04  0.19950616712E+04 0.  0.
        1    1    3    3  502    0 -0.47841863032E+02  0.97145908712E+03 -0.52665905222E+03  0.11060702325E+04  0.50400001928E-02 0. -1.
       -1    1    3    3    0  502  0.47841863032E+02 -0.97145908712E+03 -0.64684494877E+02  0.97478494331E+03  0.50400001928E-02 0.  1.
</event>
<event>
 5   0  0.2142551E-05  0.1979581E+04  0.7818609E-02  0.8616227E-01
       -1   -1    0    0    0  501  0.00000000000E+00  0.00000000000E+00  0.73847612671E+03  0.73847612673E+03  0.50400001928E-02 0. -1.
        1   -1    0    0  501    0  0.00000000000E+00  0.00000000000E+00 -0.13266302715E+04  0.13266302716E+04  0.50400001928E-02 0.  1.
    10030    2    1    2    0    0  0.00000000000E+00  0.00000000000E+00 -0.58815414483E+03  0.20651063983E+04  0.19795805460E+04 0.  0.
        3    1    3    3  502    0 -0.91950838249E+03  0.34575255713E+03 -0.42031889011E+03  0.10685075928E+04  0.10100000352E+00 0.  1.
       -3    1    3    3    0  502  0.91950838249E+03 -0.34575255713E+03 -0.16783525471E+03  0.99659880551E+03  0.10100000352E+00 0. -1.
</event>
<event>
 5   0  0.2256868E-05  0.2002288E+04  0.7818609E-02  0.8605552E-01
        1   -1    0    0  501    0  0.00000000000E+00  0.00000000000E+00  0.72864152202E+03  0.72864152204E+03  0.50400001928E-02 0. -1.
       -1   -1    0    0    0  501  0.00000000000E+00  0.00000000000E+00 -0.13755582766E+04  0.13755582766E+04  0.50400001928E-02 0.  1.
    10030    2    1    2    0    0  0.00000000000E+00  0.00000000000E+00 -0.64691675455E+03  0.21041997986E+04  0.20022875681E+04 0.  0.
        5    1    3    3  502    0 -0.34017537924E+03  0.12053712475E+03 -0.13048070132E+04  0.13538064554E+04  0.46999998093E+01 0.  1.
       -5    1    3    3    0  502  0.34017537924E+03 -0.12053712475E+03  0.65789025865E+03  0.75039334319E+03  0.46999998093E+01 0. -1.
</event>
<event>
 5   0  0.2142551E-05  0.2003772E+04  0.7818609E-02  0.8604859E-01
        1   -1    0    0  501    0  0.00000000000E+00  0.00000000000E+00  0.54601529717E+03  0.54601529719E+03  0.50400001928E-02 0.  1.
       -1   -1    0    0    0  501  0.00000000000E+00  0.00000000000E+00 -0.18383648503E+04  0.18383648503E+04  0.50400001928E-02 0. -1.
    10030    2    1    2    0    0  0.00000000000E+00  0.00000000000E+00 -0.12923495531E+04  0.23843801475E+04  0.20037717735E+04 0.  0.
        3    1    3    3  502    0  0.52673149914E+03 -0.83359168273E+03 -0.85721549082E+03  0.13065755139E+04  0.10100000352E+00 0. -1.
       -3    1    3    3    0  502 -0.52673149914E+03  0.83359168273E+03 -0.43513406229E+03  0.10778046335E+04  0.10100000352E+00 0.  1.
</event>
<event>
 5   0  0.2256868E-05  0.1993614E+04  0.7818609E-02  0.8609612E-01
       -1   -1    0    0    0  501  0.00000000000E+00  0.00000000000E+00  0.73155307906E+03  0.73155307908E+03  0.50400001928E-02 0.  1.
        1   -1    0    0  501    0  0.00000000000E+00  0.00000000000E+00 -0.13582390083E+04  0.13582390083E+04  0.50400001928E-02 0. -1.
    10030    2    1    2    0    0  0.00000000000E+00  0.00000000000E+00 -0.62668592921E+03  0.20897920874E+04  0.19936137325E+04 0.  0.
        5    1    3    3  502    0  0.31679215949E+03  0.91181741866E+03 -0.57400284660E+03  0.11230626141E+04  0.46999998093E+01 0. -1.
       -5    1    3    3    0  502 -0.31679215949E+03 -0.91181741866E+03 -0.52683082614E+02  0.96672947326E+03  0.46999998093E+01 0.  1.
</event>
<event>
 5   0  0.4473361E-05  0.2035744E+04  0.7818609E-02  0.8590089E-01
       -2   -1    0    0    0  501  0.00000000000E+00  0.00000000000E+00  0.96519638009E+03  0.96519638009E+03  0.25500000920E-02 0.  1.
        2   -1    0    0  501    0  0.00000000000E+00  0.00000000000E+00 -0.10734223613E+04  0.10734223613E+04  0.25500000920E-02 0. -1.
    10030    2    1    2    0    0  0.00000000000E+00  0.00000000000E+00 -0.10822598119E+03  0.20386187414E+04  0.20357439696E+04 0.  0.
        2    1    3    3  502    0 -0.31238988383E+03  0.49111480888E+03 -0.89032642279E+03  0.10637021830E+04  0.25500000920E-02 0. -1.
       -2    1    3    3    0  502  0.31238988383E+03 -0.49111480888E+03  0.78210044160E+03  0.97491655836E+03  0.25500000920E-02 0.  1.
</event>
<event>
 5   0  0.2142551E-05  0.1998176E+04  0.7818609E-02  0.8607474E-01
        1   -1    0    0  501    0  0.00000000000E+00  0.00000000000E+00  0.77580021827E+03  0.77580021829E+03  0.50400001928E-02 0. -1.
       -1   -1    0    0    0  501  0.00000000000E+00  0.00000000000E+00 -0.12866421182E+04  0.12866421182E+04  0.50400001928E-02 0.  1.
    10030    2    1    2    0    0  0.00000000000E+00  0.00000000000E+00 -0.51084189988E+03  0.20624423365E+04  0.19981764048E+04 0.  0.
        3    1    3    3  502    0 -0.47248465747E+03  0.77910816007E+03  0.16754644916E+03  0.92645728420E+03  0.10100000352E+00 0. -1.
       -3    1    3    3    0  502  0.47248465747E+03 -0.77910816007E+03 -0.67838834905E+03  0.11359850523E+04  0.10100000352E+00 0.  1.
</event>
<event>
 5   0  0.4577279E-05  0.1973933E+04  0.7818609E-02  0.8618906E-01
       -2   -1    0    0    0  501  0.00000000000E+00  0.00000000000E+00  0.11825008789E+04  0.11825008790E+04  0.25500000920E-02 0. -1.
        2   -1    0    0  501    0  0.00000000000E+00  0.00000000000E+00 -0.82376501965E+03  0.82376501966E+03  0.25500000920E-02 0.  1.
    10030    2    1    2    0    0  0.00000000000E+00  0.00000000000E+00  0.35873585930E+03  0.20062658986E+04  0.19739329875E+04 0.  0.
        1    1    3    3  502    0  0.52286545386E+03  0.77506697029E+03 -0.14201675797E+03  0.94566688154E+03  0.50400001928E-02 0.  1.
       -1    1    3    3    0  502 -0.52286545386E+03 -0.77506697029E+03  0.50075261727E+03  0.10605990171E+04  0.50400001928E-02 0. -1.
</event>
<event>
 5   0  0.4412054E-05  0.1999458E+04  0.7818609E-02  0.8606874E-01
       -2   -1    0    0    0  501  0.00000000000E+00  0.00000000000E+00  0.12606541591E+04  0.12606541591E+04  0.25500000920E-02 0.  1.
        2   -1    0    0  501    0  0.00000000000E+00  0.00000000000E+00 -0.79280878625E+03  0.79280878625E+03  0.25500000920E-02 0. -1.
    10030    2    1    2    0    0  0.00000000000E+00  0.00000000000E+00  0.46784537285E+03  0.20534629454E+04  0.19994576202E+04 0.  0.
        4    1    3    3  502    0  0.21327918549E+03  0.93418750296E+03  0.52668679309E+03  0.10934326191E+04  0.12699999809E+01 0.  1.
       -4    1    3    3    0  502 -0.21327918549E+03 -0.93418750296E+03 -0.58841420236E+02  0.96003032623E+03  0.12699999809E+01 0. -1.
</event>
<event>
 5   0  0.2142551E-05  0.2003039E+04  0.7818609E-02  0.8605201E-01
       -1   -1    0    0    0  501  0.00000000000E+00  0.00000000000E+00  0.13921439836E+04  0.13921439836E+04  0.50400001928E-02 0.  1.
        1   -1    0    0  501    0  0.00000000000E+00  0.00000000000E+00 -0.72050121483E+03  0.72050121484E+03  0.50400001928E-02 0. -1.
    10030    2    1    2    0    0  0.00000000000E+00  0.00000000000E+00  0.67164276873E+03  0.21126451984E+04  0.20030391223E+04 0.  0.
        3    1    3    3  502    0  0.28227051436E+03  0.94262639356E+03  0.13900867477E+03  0.99375277759E+03  0.10100000352E+00 0.  1.
       -3    1    3    3    0  502 -0.28227051436E+03 -0.94262639356E+03  0.53263409396E+03  0.11188924208E+04  0.10100000352E+00 0. -1.
</event>
<event>
 5   0  0.4514680E-05  0.2000353E+04  0.7818609E-02  0.8606456E-01
        2   -1    0    0  501    0  0.00000000000E+00  0.00000000000E+00  0.15569710670E+04  0.15569710670E+04  0.25500000920E-02 0. -1.
       -2   -1    0    0    0  501  0.00000000000E+00  0.00000000000E+00 -0.64249921363E+03  0.64249921364E+03  0.25500000920E-02 0.  1.
    10030    2    1    2    0    0  0.00000000000E+00  0.00000000000E+00  0.91447185336E+03  0.21994702806E+04  0.20003526551E+04 0.  0.
        3    1    3    3  502    0  0.37313223081E+03  0.32608745499E+03 -0.49803194476E+03  0.70256424487E+03  0.10100000352E+00 0.  1.
       -3    1    3    3    0  502 -0.37313223081E+03 -0.32608745499E+03  0.14125037981E+04  0.14969060358E+04  0.10100000352E+00 0. -1.
</event>
<event>
 5   0  0.4514680E-05  0.2001466E+04  0.7818609E-02  0.8605936E-01
        2   -1    0    0  501    0  0.00000000000E+00  0.00000000000E+00  0.91026191008E+03  0.91026191008E+03  0.25500000920E-02 0. -1.
       -2   -1    0    0    0  501  0.00000000000E+00  0.00000000000E+00 -0.11001957826E+04  0.11001957826E+04  0.25500000920E-02 0.  1.
    10030    2    1    2    0    0  0.00000000000E+00  0.00000000000E+00 -0.18993387255E+03  0.20104576927E+04  0.20014657774E+04 0.  0.
        3    1    3    3  502    0 -0.57391540097E+03  0.44823192806E+03 -0.78447308827E+03  0.10703685278E+04  0.10100000352E+00 0.  1.
       -3    1    3    3    0  502  0.57391540097E+03 -0.44823192806E+03  0.59453921573E+03  0.94008916494E+03  0.10100000352E+00 0. -1.
</event>
<event>
 5   0  0.2093980E-05  0.1997325E+04  0.7818609E-02  0.8607872E-01
       -1   -1    0    0    0  501  0.00000000000E+00  0.00000000000E+00  0.55983880950E+03  0.55983880952E+03  0.50400001928E-02 0. -1.
        1   -1    0    0  501    0  0.00000000000E+00  0.00000000000E+00 -0.17814541167E+04  0.17814541167E+04  0.50400001928E-02 0.  1.
    10030    2    1    2    0    0  0.00000000000E+00  0.00000000000E+00 -0.12216153072E+04  0.23412929262E+04  0.19973253635E+04 0.  0.
        2    1    3    3  502    0  0.93900242354E+03  0.33964287762E+03 -0.59248522484E+03  0.11610863781E+04  0.25500000920E-02 0. -1.
       -2    1    3    3    0  502 -0.93900242354E+03 -0.33964287762E+03 -0.62913008238E+03  0.11802065481E+04  0.25500000920E-02 0.  1.
</event>
<event>
 5   0  0.2256868E-05  0.1999217E+04  0.7818609E-02  0.8606987E-01
        1   -1    0    0  501    0  0.00000000000E+00  0.00000000000E+00  0.12648443623E+04  0.12648443623E+04  0.50400001928E-02 0. -1.
       -1   -1    0    0    0  501  0.00000000000E+00  0.00000000000E+00 -0.78999232785E+03  0.78999232787E+03  0.50400001928E-02 0.  1.
    10030    2    1    2    0    0  0.00000000000E+00  0.00000000000E+00  0.47485203446E+03  0.20548366902E+04  0.19992171890E+04 0.  0.
        5    1    3    3  502    0 -0.20766319296E+03  0.50184245731E+03 -0.62510193174E+03  0.82809683536E+03  0.46999998093E+01 0.  1.
       -5    1    3    3    0  502  0.20766319296E+03 -0.50184245731E+03  0.10999539662E+04  0.12267398548E+04  0.46999998093E+01 0. -1.
</event>
<event>
 5   0  0.2007644E-05  0.2001638E+04  0.7818609E-02  0.8605855E-01
       -1   -1    0    0    0  501  0.00000000000E+00  0.00000000000E+00  0.71170255700E+03  0.71170255702E+03  0.50400001928E-02 0.  1.
        1   -1    0    0  501    0  0.00000000000E+00  0.00000000000E+00 -0.14073839889E+04  0.14073839889E+04  0.50400001928E-02 0. -1.
    10030    2    1    2    0    0  0.00000000000E+00  0.00000000000E+00 -0.69568143193E+03  0.21190865460E+04  0.20016381128E+04 0.  0.
        1    1    3    3  502    0 -0.55939287938E+02  0.72932999666E+03 -0.10709927395E+04  0.12969490723E+04  0.50400001928E-02 0. -1.
       -1    1    3    3    0  502  0.55939287938E+02 -0.72932999666E+03  0.37531130760E+03  0.82213747366E+03  0.50400001928E-02 0.  1.
</event>
<event>
 5   0  0.4447313E-05  0.1999623E+04  0.7818609E-02  0.8606797E-01
        2   -1    0    0  501    0  0.00000000000E+00  0.00000000000E+00  0.18795829642E+04  0.18795829642E+04  0.25500000920E-02 0. -1.
       -2   -1    0    0    0  501  0.00000000000E+00  0.00000000000E+00 -0.53183213519E+03  0.53183213519E+03  0.25500000920E-02 0.  1.
    10030    2    1    2    0    0  0.00000000000E+00  0.00000000000E+00  0.13477508290E+04  0.24114150994E+04  0.19996225855E+04 0.  0.
        5    1    3    3  502    0  0.73860202107E+03 -0.28847421946E+03 -0.60508587255E+02  0.79525700245E+03  0.46999998093E+01 0.  1.
       -5    1    3    3    0  502 -0.73860202107E+03  0.28847421946E+03  0.14082594163E+04  0.16161580969E+04  0.46999998093E+01 0. -1.
</event>
<event>
 5   0  0.4514680E-05  0.1999756E+04  0.7818609E-02  0.8606735E-01
       -2   -1    0    0    0  501  0.00000000000E+00  0.00000000000E+00  0.48296175940E+03  0.48296175941E+03  0.25500000920E-02 0.  1.
        2   -1    0    0  501    0  0.00000000000E+00  0.00000000000E+00 -0.20700521947E+04  0.20700521947E+04  0.25500000920E-02 0. -1.
    10030    2    1    2    0    0  0.00000000000E+00  0.00000000000E+00 -0.15870904353E+04  0.25530139541E+04  0.19997560351E+04 0.  0.
        3    1    3    3  502    0  0.74981438269E+03  0.32863205271E+03 -0.15264156718E+04  0.17320985676E+04  0.10100000352E+00 0. -1.
       -3    1    3    3    0  502 -0.74981438269E+03 -0.32863205271E+03 -0.60674763409E+02  0.82091538642E+03  0.10100000352E+00 0.  1.
</event>
<event>
 5   0  0.4412054E-05  0.1985155E+04  0.7818609E-02  0.8613593E-01
       -2   -1    0    0    0  501  0.00000000000E+00  0.00000000000E+00  0.13113250142E+04  0.13113250142E+04  0.25500000920E-02 0.  1.
        2   -1    0    0  501    0  0.00000000000E+00  0.00000000000E+00 -0.75130875126E+03  0.75130875126E+03  0.25500000920E-02 0. -1.
    10030    2    1    2    0    0  0.00000000000E+00  0.00000000000E+00  0.56001626292E+03  0.20626337654E+04  0.19851548644E+04 0.  0.
        4    1    3    3  502    0  0.39420843934E+03 -0.90802127891E+03  0.35568918715E+03  0.10518647001E+04  0.12699999809E+01 0. -1.
       -4    1    3    3    0  502 -0.39420843934E+03  0.90802127891E+03  0.20432707577E+03  0.10107690653E+04  0.12699999809E+01 0.  1.
</event>
<event>
 5   0  0.4514680E-05  0.1993991E+04  0.7818609E-02  0.8609435E-01
        2   -1    0    0  501    0  0.00000000000E+00  0.00000000000E+00  0.12867910184E+04  0.12867910184E+04  0.25500000920E-02 0.  1.
       -2   -1    0    0    0  501  0.00000000000E+00  0.00000000000E+00 -0.77246423125E+03  0.77246423126E+03  0.25500000920E-02 0. -1.
    10030    2    1    2    0    0  0.00000000000E+00  0.00000000000E+00  0.51432678712E+03  0.20592552496E+04  0.19939910078E+04 0.  0.
        3    1    3    3  502    0 -0.54639941703E+03 -0.39259056235E+03  0.10169894177E+04  0.12194044278E+04  0.10100000352E+00 0.  1.
       -3    1    3    3    0  502  0.54639941703E+03  0.39259056235E+03 -0.50266263058E+03  0.83985082185E+03  0.10100000352E+00 0. -1.
</event>
<event>
 5   0  0.2256868E-05  0.2010005E+04  0.7818609E-02  0.8601957E-01
        1   -1    0    0  501    0  0.00000000000E+00  0.00000000000E+00  0.79200818984E+03  0.79200818986E+03  0.50400001928E-02 0. -1.
       -1   -1    0    0    0  501  0.00000000000E+00  0.00000000000E+00 -0.12752769718E+04  0.12752769719E+04  0.50400001928E-02 0.  1.
    10030    2    1    2    0    0  0.00000000000E+00  0.00000000000E+00 -0.48326878201E+03  0.20672851617E+04  0.20100047821E+04 0.  0.
        5    1    3    3  502    0  0.13812795720E+03 -0.99045462931E+03 -0.13915550004E+03  0.10096861138E+04  0.46999998093E+01 0. -1.
       -5    1    3    3    0  502 -0.13812795720E+03  0.99045462931E+03 -0.34411328196E+03  0.10575990479E+04  0.46999998093E+01 0.  1.
</event>
<event>
 5   0  0.2110896E-05  0.2008119E+04  0.7818609E-02  0.8602834E-01
       -1   -1    0    0    0  501  0.00000000000E+00  0.00000000000E+00  0.89550913025E+03  0.89550913027E+03  0.50400001928E-02 0. -1.
        1   -1    0    0  501    0  0.00000000000E+00  0.00000000000E+00 -0.11257675867E+04  0.11257675868E+04  0.50400001928E-02 0.  1.
    10030    2    1    2    0    0  0.00000000000E+00  0.00000000000E+00 -0.23025845649E+03  0.20212767170E+04  0.20081186743E+04 0.  0.
        4    1    3    3  502    0  0.68211746380E+03  0.51775768583E+03  0.41249656914E+03  0.95053263390E+03  0.12699999809E+01 0. -1.
       -4    1    3    3    0  502 -0.68211746380E+03 -0.51775768583E+03 -0.64275502563E+03  0.10707440831E+04  0.12699999809E+01 0.  1.
</event>
<event>
 5   0  0.2256868E-05  0.2007550E+04  0.7818609E-02  0.8603099E-01
        1   -1    0    0  501    0  0.00000000000E+00  0.00000000000E+00  0.12413275096E+04  0.12413275096E+04  0.50400001928E-02 0.  1.
       -1   -1    0    0    0  501  0.00000000000E+00  0.00000000000E+00 -0.81168293600E+03  0.81168293602E+03  0.50400001928E-02 0. -1.
    10030    2    1    2    0    0  0.00000000000E+00  0.00000000000E+00  0.42964457364E+03  0.20530104457E+04  0.20075501066E+04 0.  0.
        5    1    3    3  502    0 -0.15778813251E+03 -0.45043515686E+02  0.12275071284E+04  0.12384352439E+04  0.46999998093E+01 0.  1.
       -5    1    3    3    0  502  0.15778813251E+03  0.45043515686E+02 -0.79786255475E+03  0.81457520177E+03  0.46999998093E+01 0. -1.
</event>
<event>
 5   0  0.2110896E-05  0.1997795E+04  0.7818609E-02  0.8607652E-01
       -1   -1    0    0    0  501  0.00000000000E+00  0.00000000000E+00  0.78320480598E+03  0.78320480600E+03  0.50400001928E-02 0.  1.
        1   -1    0    0  501    0  0.00000000000E+00  0.00000000000E+00 -0.12739913767E+04  0.12739913767E+04  0.50400001928E-02 0. -1.
    10030    2    1    2    0    0  0.00000000000E+00  0.00000000000E+00 -0.49078657076E+03  0.20571961827E+04  0.19977949535E+04 0.  0.
        4    1    3    3  502    0  0.99427727221E+03 -0.93931300499E+02 -0.26557639917E+03  0.10334131894E+04  0.12699999809E+01 0. -1.
       -4    1    3    3    0  502 -0.99427727221E+03  0.93931300499E+02 -0.22521017159E+03  0.10237829934E+04  0.12699999809E+01 0.  1.
</event>
<event>
 5   0  0.4514680E-05  0.2011573E+04  0.7818609E-02  0.8601229E-01
       -2   -1    0    0    0  501  0.00000000000E+00  0.00000000000E+00  0.13176887824E+04  0.13176887824E+04  0.25500000920E-02 0.  1.
        2   -1    0    0  501    0  0.00000000000E+00  0.00000000000E+00 -0.76771261564E+03  0.76771261564E+03  0.25500000920E-02 0. -1.
    10030    2    1    2    0    0  0.00000000000E+00  0.00000000000E+00  0.54997616674E+03  0.20854013980E+04  0.20115728192E+04 0.  0.
        3    1    3    3  502    0 -0.20678334259E+03  0.44424762553E+03 -0.63559448102E+03  0.80255570403E+03  0.10100000352E+00 0. -1.
       -3    1    3    3    0  502  0.20678334259E+03 -0.44424762553E+03  0.11855706478E+04  0.12828456940E+04  0.10100000352E+00 0.  1.
</event>
<event>
 5   0  0.2142551E-05  0.1999264E+04  0.7818609E-02  0.8606965E-01
        1   -1    0    0  501    0  0.00000000000E+00  0.00000000000E+00  0.67657478304E+03  0.67657478306E+03  0.50400001928E-02 0.  1.
       -1   -1    0    0    0  501  0.00000000000E+00  0.00000000000E+00 -0.14769450574E+04  0.14769450574E+04  0.50400001928E-02 0. -1.
    10030    2    1    2    0    0  0.00000000000E+00  0.00000000000E+00 -0.80037027437E+03  0.21535198405E+04  0.19992636463E+04 0.  0.
        3    1    3    3  502    0 -0.59288840583E+03  0.69800608551E+03 -0.83176696788E+03  0.12371602387E+04  0.10100000352E+00 0. -1.
       -3    1    3    3    0  502  0.59288840583E+03 -0.69800608551E+03  0.31396693514E+02  0.91635960176E+03  0.10100000352E+00 0.  1.
</event>
<event>
 5   0  0.4447313E-05  0.2002121E+04  0.7818609E-02  0.8605629E-01
        2   -1    0    0  501    0  0.00000000000E+00  0.00000000000E+00  0.22319694294E+04  0.22319694294E+04  0.25500000920E-02 0.  1.
       -2   -1    0    0    0  501  0.00000000000E+00  0.00000000000E+00 -0.44898578228E+03  0.44898578229E+03  0.25500000920E-02 0. -1.
    10030    2    1    2    0    0  0.00000000000E+00  0.00000000000E+00  0.17829836471E+04  0.26809552117E+04  0.20021214152E+04 0.  0.
        5    1    3    3  502    0 -0.42193311624E+03 -0.24113503336E+03  0.20633978246E+04  0.21198599792E+04  0.46999998093E+01 0.  1.
       -5    1    3    3    0  502  0.42193311624E+03  0.24113503336E+03 -0.28041417754E+03  0.56109523243E+03  0.46999998093E+01 0. -1.
</event>
<event>
 5   0  0.4514680E-05  0.2036327E+04  0.7818609E-02  0.8589822E-01
       -2   -1    0    0    0  501  0.00000000000E+00  0.00000000000E+00  0.65675965982E+03  0.65675965983E+03  0.25500000920E-02 0. -1.
        2   -1    0    0  501    0  0.00000000000E+00  0.00000000000E+00 -0.15784424263E+04  0.15784424263E+04  0.25500000920E-02 0.  1.
    10030    2    1    2    0    0  0.00000000000E+00  0.00000000000E+00 -0.92168276644E+03  0.22352020861E+04  0.20363273911E+04 0.  0.
        3    1    3    3  502    0  0.32613099384E+03 -0.95047691434E+03 -0.28084629987E+03  0.10433802970E+04  0.10100000352E+00 0. -1.
       -3    1    3    3    0  502 -0.32613099384E+03  0.95047691434E+03 -0.64083646657E+03  0.11918217891E+04  0.10100000352E+00 0.  1.
</event>
<event>
 5   0  0.2142551E-05  0.1997466E+04  0.7818609E-02  0.8607806E-01
        1   -1    0    0  501    0  0.00000000000E+00  0.00000000000E+00  0.75022021315E+03  0.75022021317E+03  0.50400001928E-02 0.  1.
       -1   -1    0    0    0  501  0.00000000000E+00  0.00000000000E+00 -0.13295669809E+04  0.13295669809E+04  0.50400001928E-02 0. -1.
    10030    2    1    2    0    0  0.00000000000E+00  0.00000000000E+00 -0.57934676770E+03  0.20797871940E+04  0.19974664191E+04 0.  0.
        3    1    3    3  502    0 -0.65886342622E+02 -0.58641836512E+03  0.54928847312E+03  0.80619187914E+03  0.10100000352E+00 0. -1.
       -3    1    3    3    0  502  0.65886342622E+02  0.58641836512E+03 -0.11286352408E+04  0.12735953149E+04  0.10100000352E+00 0.  1.
</event>
<event>
 5   0  0.4412054E-05  0.2001196E+04  0.7818609E-02  0.8606062E-01
       -2   -1    0    0    0  501  0.00000000000E+00  0.00000000000E+00  0.58968294098E+03  0.58968294099E+03  0.25500000920E-02 0.  1.
        2   -1    0    0  501    0  0.00000000000E+00  0.00000000000E+00 -0.16978545556E+04  0.16978545556E+04  0.25500000920E-02 0. -1.
    10030    2    1    2    0    0  0.00000000000E+00  0.00000000000E+00 -0.11081716146E+04  0.22875374966E+04  0.20011955104E+04 0.  0.
        4    1    3    3  502    0  0.62720724843E+03 -0.56081643634E+03 -0.11731383509E+04  0.14436617371E+04  0.12699999809E+01 0. -1.
       -4    1    3    3    0  502 -0.62720724843E+03  0.56081643634E+03  0.64966736330E+02  0.84387575951E+03  0.12699999809E+01 0.  1.
</event>
<event>
 5   0  0.1601500E-05  0.1959883E+04  0.7818609E-02  0.8625610E-01
        4   -1    0    0  501    0  0.00000000000E+00  0.00000000000E+00  0.10291239564E+04  0.10291247400E+04  0.12699999809E+01 0.  1.
       -4   -1    0    0    0  501  0.00000000000E+00  0.00000000000E+00 -0.93310786283E+03  0.93310872710E+03  0.12699999809E+01 0. -1.
    10030    2    1    2    0    0  0.00000000000E+00  0.00000000000E+00  0.96016093573E+02  0.19622334671E+04  0.19598829274E+04 0.  0.
        2    1    3    3  502    0 -0.27827682851E+03 -0.27039132249E+03  0.94894048145E+03  0.10252011987E+04  0.25500000920E-02 0.  1.
       -2    1    3    3    0  502  0.27827682851E+03  0.27039132249E+03 -0.85292438788E+03  0.93703226839E+03  0.25500000920E-02 0. -1.
</event>
<event>
 5   0  0.2093980E-05  0.1991934E+04  0.7818609E-02  0.8610401E-01
        1   -1    0    0  501    0  0.00000000000E+00  0.00000000000E+00  0.97485579168E+03  0.97485579169E+03  0.50400001928E-02 0.  1.
       -1   -1    0    0    0  501  0.00000000000E+00  0.00000000000E+00 -0.10175357974E+04  0.10175357974E+04  0.50400001928E-02 0. -1.
    10030    2    1    2    0    0  0.00000000000E+00  0.00000000000E+00 -0.42680005685E+02  0.19923915891E+04  0.19919344019E+04 0.  0.
        2    1    3    3  502    0 -0.32760367951E+03  0.49522075660E+03 -0.82113774710E+03  0.10133286576E+04  0.25500000920E-02 0. -1.
       -2    1    3    3    0  502  0.32760367951E+03 -0.49522075660E+03  0.77845774142E+03  0.97906293147E+03  0.25500000920E-02 0.  1.
</event>
<event>
 5   0  0.2110896E-05  0.1997014E+04  0.7818609E-02  0.8608018E-01
       -1   -1    0    0    0  501  0.00000000000E+00  0.00000000000E+00  0.44680908566E+03  0.44680908569E+03  0.50400001928E-02 0. -1.
        1   -1    0    0  501    0  0.00000000000E+00  0.00000000000E+00 -0.22314134842E+04  0.22314134842E+04  0.50400001928E-02 0.  1.
    10030    2    1    2    0    0  0.00000000000E+00  0.00000000000E+00 -0.17846043985E+04  0.26782225698E+04  0.19970135890E+04 0.  0.
        4    1    3    3  502    0 -0.38177815872E+03 -0.90835062303E+03 -0.67539475258E+03  0.11945773736E+04  0.12699999809E+01 0.  1.
       -4    1    3    3    0  502  0.38177815872E+03  0.90835062303E+03 -0.11092096459E+04  0.14836451962E+04  0.12699999809E+01 0. -1.
</event>
<event>
 5   0  0.2142551E-05  0.1977958E+04  0.7818609E-02  0.8616996E-01
        1   -1    0    0  501    0  0.00000000000E+00  0.00000000000E+00  0.92407715710E+03  0.92407715711E+03  0.50400001928E-02 0. -1.
       -1   -1    0    0    0  501  0.00000000000E+00  0.00000000000E+00 -0.10584391202E+04  0.10584391202E+04  0.50400001928E-02 0.  1.
    10030    2    1    2    0    0  0.00000000000E+00  0.00000000000E+00 -0.13436196312E+03  0.19825162773E+04  0.19779579502E+04 0.  0.
        3    1    3    3  502    0 -0.57635968713E+03  0.80250627373E+03 -0.23807768111E+02  0.98831858646E+03  0.10100000352E+00 0.  1.
       -3    1    3    3    0  502  0.57635968713E+03 -0.80250627373E+03 -0.11055419501E+03  0.99419769088E+03  0.10100000352E+00 0. -1.
</event>
<event>
 5   0  0.2256868E-05  0.1993655E+04  0.7818609E-02  0.8609593E-01
        1   -1    0    0  501    0  0.00000000000E+00  0.00000000000E+00  0.10858987820E+04  0.10858987820E+04  0.50400001928E-02 0. -1.
       -1   -1    0    0    0  501  0.00000000000E+00  0.00000000000E+00 -0.91506277506E+03  0.91506277507E+03  0.50400001928E-02 0.  1.
    10030    2    1    2    0    0  0.00000000000E+00  0.00000000000E+00  0.17083600697E+03  0.20009615571E+04  0.19936554897E+04 0.  0.
        5    1    3    3  502    0  0.90659753440E+02  0.79394076817E+03  0.68348957829E+03  0.10515423091E+04  0.46999998093E+01 0. -1.
       -5    1    3    3    0  502 -0.90659753440E+02 -0.79394076817E+03 -0.51265357132E+03  0.94941924798E+03  0.46999998093E+01 0.  1.
</event>
<event>
 5   0  0.4514680E-05  0.1999199E+04  0.7818609E-02  0.8606995E-01
       -2   -1    0    0    0  501  0.00000000000E+00  0.00000000000E+00  0.90752572088E+03  0.90752572089E+03  0.25500000920E-02 0. -1.
        2   -1    0    0  501    0  0.00000000000E+00  0.00000000000E+00 -0.11010146062E+04  0.11010146062E+04  0.25500000920E-02 0.  1.
    10030    2    1    2    0    0  0.00000000000E+00  0.00000000000E+00 -0.19348888534E+03  0.20085403271E+04  0.19991989138E+04 0.  0.
        3    1    3    3  502    0  0.69883812712E+03  0.60619766826E+03 -0.47712776130E+03  0.10409136620E+04  0.10100000352E+00 0.  1.
       -3    1    3    3    0  502 -0.69883812712E+03 -0.60619766826E+03  0.28363887595E+03  0.96762666513E+03  0.10100000352E+00 0. -1.
</event>
<event>
 5   0  0.2007644E-05  0.1982297E+04  0.7818609E-02  0.8614943E-01
        1   -1    0    0  501    0  0.00000000000E+00  0.00000000000E+00  0.89591619192E+03  0.89591619193E+03  0.50400001928E-02 0. -1.
       -1   -1    0    0    0  501  0.00000000000E+00  0.00000000000E+00 -0.10965032637E+04  0.10965032637E+04  0.50400001928E-02 0.  1.
    10030    2    1    2    0    0  0.00000000000E+00  0.00000000000E+00 -0.20058707176E+03  0.19924194556E+04  0.19822966765E+04 0.  0.
        1    1    3    3  502    0 -0.41134661719E+03 -0.56333551721E+02 -0.10048869665E+04  0.10872797818E+04  0.50400001928E-02 0.  1.
       -1    1    3    3    0  502  0.41134661719E+03  0.56333551721E+02  0.80429989469E+03  0.90513967383E+03  0.50400001928E-02 0. -1.
</event>
<event>
 5   0  0.4577279E-05  0.1997259E+04  0.7818609E-02  0.8607903E-01
       -2   -1    0    0    0  501  0.00000000000E+00  0.00000000000E+00  0.69686391052E+03  0.69686391052E+03  0.25500000920E-02 0.  1.
        2   -1    0    0  501    0  0.00000000000E+00  0.00000000000E+00 -0.14310699085E+04  0.14310699085E+04  0.25500000920E-02 0. -1.
    10030    2    1    2    0    0  0.00000000000E+00  0.00000000000E+00 -0.73420599798E+03  0.21279338190E+04  0.19972590945E+04 0.  0.
        1    1    3    3  502    0 -0.56494596354E+03  0.64366649133E+03 -0.91431204421E+03  0.12527717302E+04  0.50400001928E-02 0. -1.
       -1    1    3    3    0  502  0.56494596354E+03 -0.64366649133E+03  0.18010604623E+03  0.87516208882E+03  0.50400001928E-02 0.  1.
</event>
<event>
 5   0  0.2142551E-05  0.2002595E+04  0.7818609E-02  0.8605408E-01
       -1   -1    0    0    0  501  0.00000000000E+00  0.00000000000E+00  0.76389129094E+03  0.76389129096E+03  0.50400001928E-02 0.  1.
        1   -1    0    0  501    0  0.00000000000E+00  0.00000000000E+00 -0.13124865433E+04  0.13124865433E+04  0.50400001928E-02 0. -1.
    10030    2    1    2    0    0  0.00000000000E+00  0.00000000000E+00 -0.54859525234E+03  0.20763778342E+04  0.20025953559E+04 0.  0.
        3    1    3    3  502    0  0.17121858259E+03  0.65297805995E+03  0.49247657182E+03  0.83560118107E+03  0.10100000352E+00 0. -1.
       -3    1    3    3    0  502 -0.17121858259E+03 -0.65297805995E+03 -0.10410718242E+04  0.12407766532E+04  0.10100000352E+00 0.  1.
</event>
<event>
 5   0  0.2093980E-05  0.1998843E+04  0.7818609E-02  0.8607162E-01
       -1   -1    0    0    0  501  0.00000000000E+00  0.00000000000E+00  0.78741480519E+03  0.78741480521E+03  0.50400001928E-02 0. -1.
        1   -1    0    0  501    0  0.00000000000E+00  0.00000000000E+00 -0.12685092594E+04  0.12685092594E+04  0.50400001928E-02 0.  1.
    10030    2    1    2    0    0  0.00000000000E+00  0.00000000000E+00 -0.48109445421E+03  0.20559240646E+04  0.19988426365E+04 0.  0.
        2    1    3    3  502    0  0.25418051948E+03  0.60406410219E+03 -0.10166424293E+04  0.12095714138E+04  0.25500000920E-02 0.  1.
       -2    1    3    3    0  502 -0.25418051948E+03 -0.60406410219E+03  0.53554797505E+03  0.84635265086E+03  0.25500000920E-02 0. -1.
</event>
<event>
 5   0  0.2256868E-05  0.1999363E+04  0.7818609E-02  0.8606919E-01
       -1   -1    0    0    0  501  0.00000000000E+00  0.00000000000E+00  0.57004923220E+03  0.57004923223E+03  0.50400001928E-02 0.  1.
        1   -1    0    0  501    0  0.00000000000E+00  0.00000000000E+00 -0.17531171285E+04  0.17531171286E+04  0.50400001928E-02 0. -1.
    10030    2    1    2    0    0  0.00000000000E+00  0.00000000000E+00 -0.11830678963E+04  0.23231663608E+04  0.19993629717E+04 0.  0.
        5    1    3    3  502    0 -0.45957705776E+02  0.51466740453E+02 -0.17503340828E+04  0.17516998680E+04  0.46999998093E+01 0. -1.
       -5    1    3    3    0  502  0.45957705776E+02 -0.51466740453E+02  0.56726618646E+03  0.57146649280E+03  0.46999998093E+01 0.  1.
</event>
<event>
 5   0  0.4447313E-05  0.1998845E+04  0.7818609E-02  0.8607161E-01
        2   -1    0    0  501    0  0.00000000000E+00  0.00000000000E+00  0.11194800256E+04  0.11194800256E+04  0.25500000920E-02 0.  1.
       -2   -1    0    0    0  501  0.00000000000E+00  0.00000000000E+00 -0.89224055277E+03  0.89224055277E+03  0.25500000920E-02 0. -1.
    10030    2    1    2    0    0  0.00000000000E+00  0.00000000000E+00  0.22723947278E+03  0.20117205783E+04  0.19988451434E+04 0.  0.
        5    1    3    3  502    0 -0.50853023513E+03 -0.32409060543E+03 -0.68849935593E+03  0.91525470427E+03  0.46999998093E+01 0. -1.
       -5    1    3    3    0  502  0.50853023513E+03  0.32409060543E+03  0.91573882871E+03  0.10964658741E+04  0.46999998093E+01 0.  1.
</event>
<event>
 5   0  0.4447313E-05  0.2020629E+04  0.7818609E-02  0.8597036E-01
        2   -1    0    0  501    0  0.00000000000E+00  0.00000000000E+00  0.10646645066E+04  0.10646645066E+04  0.25500000920E-02 0. -1.
       -2   -1    0    0    0  501  0.00000000000E+00  0.00000000000E+00 -0.95873873875E+03  0.95873873875E+03  0.25500000920E-02 0.  1.
    10030    2    1    2    0    0  0.00000000000E+00  0.00000000000E+00  0.10592576785E+03  0.20234032454E+04  0.20206287202E+04 0.  0.
        5    1    3    3  502    0 -0.11108394906E+03  0.71456837309E+03  0.75945656010E+03  0.10486867789E+04  0.46999998093E+01 0. -1.
       -5    1    3    3    0  502  0.11108394906E+03 -0.71456837309E+03 -0.65353079225E+03  0.97471646646E+03  0.46999998093E+01 0.  1.
</event>
<event>
 5   0  0.4447313E-05  0.1996492E+04  0.7818609E-02  0.8608263E-01
        2   -1    0    0  501    0  0.00000000000E+00  0.00000000000E+00  0.77404641880E+03  0.77404641881E+03  0.25500000920E-02 0.  1.
       -2   -1    0    0    0  501  0.00000000000E+00  0.00000000000E+00 -0.12873840480E+04  0.12873840480E+04  0.25500000920E-02 0. -1.
    10030    2    1    2    0    0  0.00000000000E+00  0.00000000000E+00 -0.51333762918E+03  0.20614304668E+04  0.19964919353E+04 0.  0.
        5    1    3    3  502    0  0.67536197123E+03  0.70291231316E+03 -0.47877818526E+03  0.10860249320E+04  0.46999998093E+01 0. -1.
       -5    1    3    3    0  502 -0.67536197123E+03 -0.70291231316E+03 -0.34559443919E+02  0.97540553482E+03  0.46999998093E+01 0.  1.
</event>
<event>
 5   0  0.2110896E-05  0.2009815E+04  0.7818609E-02  0.8602045E-01
        1   -1    0    0  501    0  0.00000000000E+00  0.00000000000E+00  0.88976789951E+03  0.88976789953E+03  0.50400001928E-02 0.  1.
       -1   -1    0    0    0  501  0.00000000000E+00  0.00000000000E+00 -0.11349468091E+04  0.11349468091E+04  0.50400001928E-02 0. -1.
    10030    2    1    2    0    0  0.00000000000E+00  0.00000000000E+00 -0.24517890954E+03  0.20247147086E+04  0.20098151541E+04 0.  0.
        4    1    3    3  502    0 -0.27534260412E+03 -0.64767337807E+03 -0.84522392334E+03  0.10998633769E+04  0.12699999809E+01 0. -1.
       -4    1    3    3    0  502  0.27534260412E+03  0.64767337807E+03  0.60004501380E+03  0.92485133172E+03  0.12699999809E+01 0.  1.
</event>
<event>
 5   0  0.4473361E-05  0.2003808E+04  0.7818609E-02  0.8604842E-01
       -2   -1    0    0    0  501  0.00000000000E+00  0.00000000000E+00  0.10172678362E+04  0.10172678362E+04  0.25500000920E-02 0. -1.
        2   -1    0    0  501    0  0.00000000000E+00  0.00000000000E+00 -0.98677263693E+03  0.98677263693E+03  0.25500000920E-02 0.  1.
    10030    2    1    2    0    0  0.00000000000E+00  0.00000000000E+00  0.30495199245E+02  0.20040404731E+04  0.20038084391E+04 0.  0.
        2    1    3    3  502    0 -0.77707407009E+03 -0.35701854090E+03 -0.50683364911E+03  0.99407580034E+03  0.25500000920E-02 0.  1.
       -2    1    3    3    0  502  0.77707407009E+03  0.35701854090E+03  0.53732884836E+03  0.10099646728E+04  0.25500000920E-02 0. -1.
</event>
<event>
 5   0  0.4514680E-05  0.2010914E+04  0.7818609E-02  0.8601535E-01
        2   -1    0    0  501    0  0.00000000000E+00  0.00000000000E+00  0.97736944048E+03  0.97736944048E+03  0.25500000920E-02 0. -1.
       -2   -1    0    0    0  501  0.00000000000E+00  0.00000000000E+00 -0.10343521885E+04  0.10343521885E+04  0.25500000920E-02 0.  1.
    10030    2    1    2    0    0  0.00000000000E+00  0.00000000000E+00 -0.56982748049E+02  0.20117216290E+04  0.20109144385E+04 0.  0.
        3    1    3    3  502    0  0.37825453838E+03 -0.82622536388E+03  0.40205256976E+03  0.99366550044E+03  0.10100000352E+00 0. -1.
       -3    1    3    3    0  502 -0.37825453838E+03  0.82622536388E+03 -0.45903531781E+03  0.10180561286E+04  0.10100000352E+00 0.  1.
</event>
<event>
 5   0  0.2007644E-05  0.1964448E+04  0.7818609E-02  0.8623425E-01
       -1   -1    0    0    0  501  0.00000000000E+00  0.00000000000E+00  0.13319389786E+04  0.13319389786E+04  0.50400001928E-02 0.  1.
        1   -1    0    0  501    0  0.00000000000E+00  0.00000000000E+00 -0.72433058198E+03  0.72433058200E+03  0.50400001928E-02 0. -1.
    10030    2    1    2    0    0  0.00000000000E+00  0.00000000000E+00  0.60760839661E+03  0.20562695606E+04  0.19644481521E+04 0.  0.
        1    1    3    3  502    0  0.75833536284E+03  0.34072019035E+03  0.85132245554E+03  0.11899212974E+04  0.50400001928E-02 0.  1.
       -1    1    3    3    0  502 -0.75833536284E+03 -0.34072019035E+03 -0.24371405893E+03  0.86634826322E+03  0.50400001928E-02 0. -1.
</event>
<event>
 5   0  0.4514680E-05  0.1999210E+04  0.7818609E-02  0.8606990E-01
        2   -1    0    0  501    0  0.00000000000E+00  0.00000000000E+00  0.38881447439E+03  0.38881447439E+03  0.25500000920E-02 0. -1.
       -2   -1    0    0    0  501  0.00000000000E+00  0.00000000000E+00 -0.25698889953E+04  0.25698889953E+04  0.25500000920E-02 0.  1.
    10030    2    1    2    0    0  0.00000000000E+00  0.00000000000E+00 -0.21810745209E+04  0.29587034697E+04  0.19992098829E+04 0.  0.
        3    1    3    3  502    0 -0.36668228707E+03  0.77436088262E+03 -0.18525526919E+04  0.20410884750E+04  0.10100000352E+00 0.  1.
       -3    1    3    3    0  502  0.36668228707E+03 -0.77436088262E+03 -0.32852182899E+03  0.91761499471E+03  0.10100000352E+00 0. -1.
</event>
<event>
 5   0  0.2110896E-05  0.1998125E+04  0.7818609E-02  0.8607498E-01
       -1   -1    0    0    0  501  0.00000000000E+00  0.00000000000E+00  0.10699165564E+04  0.10699165564E+04  0.50400001928E-02 0.  1.
        1   -1    0    0  501    0  0.00000000000E+00  0.00000000000E+00 -0.93290048287E+03  0.93290048288E+03  0.50400001928E-02 0. -1.
    10030    2    1    2    0    0  0.00000000000E+00  0.00000000000E+00  0.13701607354E+03  0.20028170393E+04  0.19981247930E+04 0.  0.
        4    1    3    3  502    0  0.59811521052E+03  0.98527156938E+02 -0.72750715748E+03  0.94695178483E+03  0.12699999809E+01 0. -1.
       -4    1    3    3    0  502 -0.59811521052E+03 -0.98527156938E+02  0.86452323102E+03  0.10558652545E+04  0.12699999809E+01 0.  1.
</event>
<event>
 5   0  0.4447313E-05  0.1998398E+04  0.7818609E-02  0.8607370E-01
        2   -1    0    0  501    0  0.00000000000E+00  0.00000000000E+00  0.21316845810E+04  0.21316845810E+04  0.25500000920E-02 0. -1.
       -2   -1    0    0    0  501  0.00000000000E+00  0.00000000000E+00 -0.46836148838E+03  0.46836148839E+03  0.25500000920E-02 0.  1.
    10030    2    1    2    0    0  0.00000000000E+00  0.00000000000E+00  0.16633230926E+04  0.26000460694E+04  0.19983983218E+04 0.  0.
        5    1    3    3  502    0  0.79833720106E+03  0.40340998755E+03  0.14110299863E+04  0.16706614309E+04  0.46999998093E+01 0. -1.
       -5    1    3    3    0  502 -0.79833720106E+03 -0.40340998755E+03  0.25229310633E+03  0.92938463843E+03  0.46999998093E+01 0.  1.
</event>
<event>
 5   0  0.2142551E-05  0.2003348E+04  0.7818609E-02  0.8605057E-01
       -1   -1    0    0    0  501  0.00000000000E+00  0.00000000000E+00  0.14658567496E+04  0.14658567496E+04  0.50400001928E-02 0.  1.
        1   -1    0    0  501    0  0.00000000000E+00  0.00000000000E+00 -0.68448073397E+03  0.68448073399E+03  0.50400001928E-02 0. -1.
    10030    2    1    2    0    0  0.00000000000E+00  0.00000000000E+00  0.78137601562E+03  0.21503374836E+04  0.20033479018E+04 0.  0.
        3    1    3    3  502    0 -0.45593018567E+03  0.23892429171E+03 -0.53165868486E+03  0.74001224230E+03  0.10100000352E+00 0. -1.
       -3    1    3    3    0  502  0.45593018567E+03 -0.23892429171E+03  0.13130347005E+04  0.14103252413E+04  0.10100000352E+00 0.  1.
</event>
<event>
 5   0  0.4473361E-05  0.2007323E+04  0.7818609E-02  0.8603205E-01
        2   -1    0    0  501    0  0.00000000000E+00  0.00000000000E+00  0.14735760926E+04  0.14735760926E+04  0.25500000920E-02 0. -1.
       -2   -1    0    0    0  501  0.00000000000E+00  0.00000000000E+00 -0.68359986074E+03  0.68359986075E+03  0.25500000920E-02 0.  1.
    10030    2    1    2    0    0  0.00000000000E+00  0.00000000000E+00  0.78997623181E+03  0.21571759533E+04  0.20073230051E+04 0.  0.
        2    1    3    3  502    0  0.13273556258E+03  0.63540325260E+03 -0.42765193428E+03  0.77733017430E+03  0.25500000920E-02 0.  1.
       -2    1    3    3    0  502 -0.13273556258E+03 -0.63540325260E+03  0.12176281661E+04  0.13798457790E+04  0.25500000920E-02 0. -1.
</event>
<event>
 5   0  0.2256868E-05  0.1991362E+04  0.7818609E-02  0.8610670E-01
       -1   -1    0    0    0  501  0.00000000000E+00  0.00000000000E+00  0.68619371488E+03  0.68619371490E+03  0.50400001928E-02 0.  1.
        1   -1    0    0  501    0  0.00000000000E+00  0.00000000000E+00 -0.14447526286E+04  0.14447526286E+04  0.50400001928E-02 0. -1.
    10030    2    1    2    0    0  0.00000000000E+00  0.00000000000E+00 -0.75855891372E+03  0.21309463435E+04  0.19913615175E+04 0.  0.
        5    1    3    3  502    0 -0.98691475670E+03 -0.13056394091E+03 -0.36042622443E+03  0.10587619340E+04  0.46999998093E+01 0. -1.
       -5    1    3    3    0  502  0.98691475670E+03  0.13056394091E+03 -0.39813268929E+03  0.10721844095E+04  0.46999998093E+01 0.  1.
</event>
<event>
 5   0  0.2093980E-05  0.1996430E+04  0.7818609E-02  0.8608292E-01
       -1   -1    0    0    0  501  0.00000000000E+00  0.00000000000E+00  0.44675297908E+03  0.44675297911E+03  0.50400001928E-02 0.  1.
        1   -1    0    0  501    0  0.00000000000E+00  0.00000000000E+00 -0.22303886607E+04  0.22303886607E+04  0.50400001928E-02 0. -1.
    10030    2    1    2    0    0  0.00000000000E+00  0.00000000000E+00 -0.17836356816E+04  0.26771416398E+04  0.19964295918E+04 0.  0.
        2    1    3    3  502    0 -0.31373014084E+03 -0.93412185375E+03 -0.67800842918E+03  0.11961210929E+04  0.25500000920E-02 0.  1.
       -2    1    3    3    0  502  0.31373014084E+03  0.93412185375E+03 -0.11056272524E+04  0.14810205469E+04  0.25500000920E-02 0. -1.
</event>
<event>
 5   0  0.2256868E-05  0.1990205E+04  0.7818609E-02  0.8611214E-01
       -1   -1    0    0    0  501  0.00000000000E+00  0.00000000000E+00  0.46813974444E+03  0.46813974447E+03  0.50400001928E-02 0.  1.
        1   -1    0    0  501    0  0.00000000000E+00  0.00000000000E+00 -0.21152428811E+04  0.21152428811E+04  0.50400001928E-02 0. -1.
    10030    2    1    2    0    0  0.00000000000E+00  0.00000000000E+00 -0.16471031366E+04  0.25833826256E+04  0.19902052777E+04 0.  0.
        5    1    3    3  502    0  0.92642997486E+02 -0.63086572861E+03 -0.18152068650E+04  0.19239470745E+04  0.46999998093E+01 0. -1.
       -5    1    3    3    0  502 -0.92642997486E+02  0.63086572861E+03  0.16810372840E+03  0.65943555108E+03  0.46999998093E+01 0.  1.
</event>
<event>
 5   0  0.4447313E-05  0.2003625E+04  0.7818609E-02  0.8604928E-01
        2   -1    0    0  501    0  0.00000000000E+00  0.00000000000E+00  0.88701980021E+03  0.88701980021E+03  0.25500000920E-02 0.  1.
       -2   -1    0    0    0  501  0.00000000000E+00  0.00000000000E+00 -0.11314611716E+04  0.11314611716E+04  0.25500000920E-02 0. -1.
    10030    2    1    2    0    0  0.00000000000E+00  0.00000000000E+00 -0.24444137141E+03  0.20184809718E+04  0.20036251769E+04 0.  0.
        5    1    3    3  502    0 -0.22681122286E+03  0.88411585594E+03 -0.53820137138E+03  0.10596164323E+04  0.46999998093E+01 0.  1.
       -5    1    3    3    0  502  0.22681122286E+03 -0.88411585594E+03  0.29375999996E+03  0.95886453950E+03  0.46999998093E+01 0. -1.
</event>
<event>
 5   0  0.2256868E-05  0.1915711E+04  0.7818609E-02  0.8647075E-01
       -1   -1    0    0    0  501  0.00000000000E+00  0.00000000000E+00  0.85356297328E+03  0.85356297330E+03  0.50400001928E-02 0.  1.
        1   -1    0    0  501    0  0.00000000000E+00  0.00000000000E+00 -0.10748912866E+04  0.10748912866E+04  0.50400001928E-02 0. -1.
    10030    2    1    2    0    0  0.00000000000E+00  0.00000000000E+00 -0.22132831328E+03  0.19284542599E+04  0.19157112544E+04 0.  0.
        5    1    3    3  502    0  0.12732685800E+01 -0.68378047120E+03 -0.78587767655E+03  0.10417212518E+04  0.46999998093E+01 0. -1.
       -5    1    3    3    0  502 -0.12732685800E+01  0.68378047120E+03  0.56454936327E+03  0.88673300805E+03  0.46999998093E+01 0.  1.
</event>
<event>
 5   0  0.4577279E-05  0.1999466E+04  0.7818609E-02  0.8606871E-01
       -2   -1    0    0    0  501  0.00000000000E+00  0.00000000000E+00  0.53313947171E+03  0.53313947171E+03  0.25500000920E-02 0. -1.
        2   -1    0    0  501    0  0.00000000000E+00  0.00000000000E+00 -0.18746794650E+04  0.18746794650E+04  0.25500000920E-02 0.  1.
    10030    2    1    2    0    0  0.00000000000E+00  0.00000000000E+00 -0.13415399933E+04  0.24078189368E+04  0.19994655482E+04 0.  0.
        1    1    3    3  502    0  0.81699301928E+03 -0.97869343940E+02 -0.13545460615E+04  0.15848820255E+04  0.50400001928E-02 0.  1.
       -1    1    3    3    0  502 -0.81699301928E+03  0.97869343940E+02  0.13006068185E+02  0.82293691123E+03  0.50400001928E-02 0. -1.
</event>
<event>
 5   0  0.4447313E-05  0.1999645E+04  0.7818609E-02  0.8606787E-01
        2   -1    0    0  501    0  0.00000000000E+00  0.00000000000E+00  0.87632507145E+03  0.87632507146E+03  0.25500000920E-02 0.  1.
       -2   -1    0    0    0  501  0.00000000000E+00  0.00000000000E+00 -0.11407235177E+04  0.11407235177E+04  0.25500000920E-02 0. -1.
    10030    2    1    2    0    0  0.00000000000E+00  0.00000000000E+00 -0.26439844627E+03  0.20170485892E+04  0.19996445866E+04 0.  0.
        5    1    3    3  502    0  0.18102834558E+03  0.30914542594E+03 -0.10737473281E+04  0.11319441554E+04  0.46999998093E+01 0. -1.
       -5    1    3    3    0  502 -0.18102834558E+03 -0.30914542594E+03  0.80934888181E+03  0.88510443382E+03  0.46999998093E+01 0.  1.
</event>
<event>
 5   0  0.4447313E-05  0.1997106E+04  0.7818609E-02  0.8607975E-01
       -2   -1    0    0    0  501  0.00000000000E+00  0.00000000000E+00  0.16712069541E+04  0.16712069541E+04  0.25500000920E-02 0. -1.
        2   -1    0    0  501    0  0.00000000000E+00  0.00000000000E+00 -0.59663956256E+03  0.59663956256E+03  0.25500000920E-02 0.  1.
    10030    2    1    2    0    0  0.00000000000E+00  0.00000000000E+00  0.10745673915E+04  0.22678465166E+04  0.19971060924E+04 0.  0.
        5    1    3    3  502    0 -0.25804176926E+03 -0.78580018764E+03 -0.98043724148E+02  0.83288783844E+03  0.46999998093E+01 0. -1.
       -5    1    3    3    0  502  0.25804176926E+03  0.78580018764E+03  0.11726111157E+04  0.14349586782E+04  0.46999998093E+01 0.  1.
</event>
<event>
 5   0  0.2256868E-05  0.1999737E+04  0.7818609E-02  0.8606743E-01
       -1   -1    0    0    0  501  0.00000000000E+00  0.00000000000E+00  0.80289219531E+03  0.80289219533E+03  0.50400001928E-02 0. -1.
        1   -1    0    0  501    0  0.00000000000E+00  0.00000000000E+00 -0.12451700558E+04  0.12451700558E+04  0.50400001928E-02 0.  1.
    10030    2    1    2    0    0  0.00000000000E+00  0.00000000000E+00 -0.44227786051E+03  0.20480622512E+04  0.19997373024E+04 0.  0.
        5    1    3    3  502    0  0.17075079979E+03 -0.67337156318E+03  0.51535661953E+03  0.86498533688E+03  0.46999998093E+01 0. -1.
       -5    1    3    3    0  502 -0.17075079979E+03  0.67337156318E+03 -0.95763448004E+03  0.11830769143E+04  0.46999998093E+01 0.  1.
</event>
<event>
 5   0  0.2256868E-05  0.2003407E+04  0.7818609E-02  0.8605029E-01
        1   -1    0    0  501    0  0.00000000000E+00  0.00000000000E+00  0.19880046355E+04  0.19880046355E+04  0.50400001928E-02 0. -1.
       -1   -1    0    0    0  501  0.00000000000E+00  0.00000000000E+00 -0.50473236775E+03  0.50473236777E+03  0.50400001928E-02 0.  1.
    10030    2    1    2    0    0  0.00000000000E+00  0.00000000000E+00  0.14832722678E+04  0.24927370033E+04  0.20034073842E+04 0.  0.
        5    1    3    3  502    0 -0.53552960168E+03  0.10675666907E+03 -0.30323591873E+03  0.62463033313E+03  0.46999998093E+01 0.  1.
       -5    1    3    3    0  502  0.53552960168E+03 -0.10675666907E+03  0.17865081865E+04  0.18681066702E+04  0.46999998093E+01 0. -1.
</event>
<event>
 5   0  0.4447313E-05  0.2078839E+04  0.7818609E-02  0.8570623E-01
        2   -1    0    0  501    0  0.00000000000E+00  0.00000000000E+00  0.14863902287E+04  0.14863902287E+04  0.25500000920E-02 0. -1.
       -2   -1    0    0    0  501  0.00000000000E+00  0.00000000000E+00 -0.72685680568E+03  0.72685680569E+03  0.25500000920E-02 0.  1.
    10030    2    1    2    0    0  0.00000000000E+00  0.00000000000E+00  0.75953342302E+03  0.22132470344E+04  0.20788389583E+04 0.  0.
        5    1    3    3  502    0 -0.39756807390E+03  0.63288156748E+03  0.11488070887E+04  0.13705397728E+04  0.46999998093E+01 0. -1.
       -5    1    3    3    0  502  0.39756807390E+03 -0.63288156748E+03 -0.38927366571E+03  0.84270726154E+03  0.46999998093E+01 0.  1.
</event>
<event>
 5   0  0.2110896E-05  0.2004084E+04  0.7818609E-02  0.8604714E-01
       -1   -1    0    0    0  501  0.00000000000E+00  0.00000000000E+00  0.13515141948E+04  0.13515141948E+04  0.50400001928E-02 0.  1.
        1   -1    0    0  501    0  0.00000000000E+00  0.00000000000E+00 -0.74293556369E+03  0.74293556371E+03  0.50400001928E-02 0. -1.
    10030    2    1    2    0    0  0.00000000000E+00  0.00000000000E+00  0.60857863115E+03  0.20944497586E+04  0.20040837909E+04 0.  0.
        4    1    3    3  502    0 -0.39286724520E+03  0.74347737650E+03  0.87382365501E+03  0.12127129399E+04  0.12699999809E+01 0.  1.
       -4    1    3    3    0  502  0.39286724520E+03 -0.74347737650E+03 -0.26524502386E+03  0.88173681862E+03  0.12699999809E+01 0. -1.
</event>
<event>
 5   0  0.4577279E-05  0.1990376E+04  0.7818609E-02  0.8611134E-01
       -2   -1    0    0    0  501  0.00000000000E+00  0.00000000000E+00  0.11573627699E+04  0.11573627699E+04  0.25500000920E-02 0.  1.
        2   -1    0    0  501    0  0.00000000000E+00  0.00000000000E+00 -0.85573760087E+03  0.85573760087E+03  0.25500000920E-02 0. -1.
    10030    2    1    2    0    0  0.00000000000E+00  0.00000000000E+00  0.30162516907E+03  0.20131003708E+04  0.19903756832E+04 0.  0.
        1    1    3    3  502    0  0.71132067692E+03  0.48880674388E+02 -0.55139981413E+03  0.90133688529E+03  0.50400001928E-02 0. -1.
       -1    1    3    3    0  502 -0.71132067692E+03 -0.48880674388E+02  0.85302498320E+03  0.11117634855E+04  0.50400001928E-02 0.  1.
</event>
<event>
 5   0  0.2256868E-05  0.1997494E+04  0.7818609E-02  0.8607793E-01
       -1   -1    0    0    0  501  0.00000000000E+00  0.00000000000E+00  0.10461776147E+04  0.10461776147E+04  0.50400001928E-02 0.  1.
        1   -1    0    0  501    0  0.00000000000E+00  0.00000000000E+00 -0.95346628748E+03  0.95346628749E+03  0.50400001928E-02 0. -1.
    10030    2    1    2    0    0  0.00000000000E+00  0.00000000000E+00  0.92711327208E+02  0.19996439022E+04  0.19974935157E+04 0.  0.
        5    1    3    3  502    0 -0.15655644601E+02 -0.14699696960E+03 -0.94244234959E+03  0.95397740045E+03  0.46999998093E+01 0. -1.
       -5    1    3    3    0  502  0.15655644601E+02  0.14699696960E+03  0.10351536768E+04  0.10456665017E+04  0.46999998093E+01 0.  1.
</event>
<event>
 5   0  0.2007644E-05  0.1989278E+04  0.7818609E-02  0.8611650E-01
       -1   -1    0    0    0  501  0.00000000000E+00  0.00000000000E+00  0.10947205090E+04  0.10947205090E+04  0.50400001928E-02 0.  1.
        1   -1    0    0  501    0  0.00000000000E+00  0.00000000000E+00 -0.90370731381E+03  0.90370731383E+03  0.50400001928E-02 0. -1.
    10030    2    1    2    0    0  0.00000000000E+00  0.00000000000E+00  0.19101319520E+03  0.19984278228E+04  0.19892781913E+04 0.  0.
        1    1    3    3  502    0 -0.26813733921E+02 -0.51603915044E+03 -0.75827976371E+03  0.91760753113E+03  0.50400001928E-02 0. -1.
       -1    1    3    3    0  502  0.26813733921E+02  0.51603915044E+03  0.94929295891E+03  0.10808202917E+04  0.50400001928E-02 0.  1.
</event>
<event>
 5   0  0.2007644E-05  0.1963694E+04  0.7818609E-02  0.8623785E-01
        1   -1    0    0  501    0  0.00000000000E+00  0.00000000000E+00  0.13228389604E+04  0.13228389604E+04  0.50400001928E-02 0.  1.
       -1   -1    0    0    0  501  0.00000000000E+00  0.00000000000E+00 -0.72875382624E+03  0.72875382626E+03  0.50400001928E-02 0. -1.
    10030    2    1    2    0    0  0.00000000000E+00  0.00000000000E+00  0.59408513418E+03  0.20515927867E+04  0.19636944303E+04 0.  0.
        1    1    3    3  502    0  0.37961289498E+03  0.60614595374E+03  0.99983809269E+03  0.12293067473E+04  0.50400001928E-02 0.  1.
       -1    1    3    3    0  502 -0.37961289498E+03 -0.60614595374E+03 -0.40575295851E+03  0.82228603942E+03  0.50400001928E-02 0. -1.
</event>
<event>
 5   0  0.2110896E-05  0.2001726E+04  0.7818609E-02  0.8605814E-01
        1   -1    0    0  501    0  0.00000000000E+00  0.00000000000E+00  0.22671061438E+04  0.22671061438E+04  0.50400001928E-02 0.  1.
       -1   -1    0    0    0  501  0.00000000000E+00  0.00000000000E+00 -0.44185265250E+03  0.44185265253E+03  0.50400001928E-02 0. -1.
    10030    2    1    2    0    0  0.00000000000E+00  0.00000000000E+00  0.18252534913E+04  0.27089587963E+04  0.20017261183E+04 0.  0.
        4    1    3    3  502    0  0.18383015369E+02 -0.34621607059E+03  0.21832425679E+04  0.22106001958E+04  0.12699999809E+01 0.  1.
       -4    1    3    3    0  502 -0.18383015369E+02  0.34621607059E+03 -0.35798907660E+03  0.49835860046E+03  0.12699999809E+01 0. -1.
</event>
<event>
 5   0  0.4412054E-05  0.1994262E+04  0.7818609E-02  0.8609308E-01
       -2   -1    0    0    0  501  0.00000000000E+00  0.00000000000E+00  0.14221363793E+04  0.14221363793E+04  0.25500000920E-02 0. -1.
        2   -1    0    0  501    0  0.00000000000E+00  0.00000000000E+00 -0.69913858941E+03  0.69913858941E+03  0.25500000920E-02 0.  1.
    10030    2    1    2    0    0  0.00000000000E+00  0.00000000000E+00  0.72299778986E+03  0.21212749687E+04  0.19942621915E+04 0.  0.
        4    1    3    3  502    0  0.97650188729E+02 -0.39213732035E+02 -0.69321498166E+03  0.70115754281E+03  0.12699999809E+01 0.  1.
       -4    1    3    3    0  502 -0.97650188729E+02  0.39213732035E+02  0.14162127715E+04  0.14201174259E+04  0.12699999809E+01 0. -1.
</event>
<event>
 5   0  0.4514680E-05  0.1992131E+04  0.7818609E-02  0.8610309E-01
        2   -1    0    0  501    0  0.00000000000E+00  0.00000000000E+00  0.11789904291E+04  0.11789904291E+04  0.25500000920E-02 0. -1.
       -2   -1    0    0    0  501  0.00000000000E+00  0.00000000000E+00 -0.84152191326E+03  0.84152191326E+03  0.25500000920E-02 0.  1.
    10030    2    1    2    0    0  0.00000000000E+00  0.00000000000E+00  0.33746851581E+03  0.20205123423E+04  0.19921308005E+04 0.  0.
        3    1    3    3  502    0  0.20128377847E+03  0.45768681967E+02  0.11570585103E+04  0.11753273324E+04  0.10100000352E+00 0. -1.
       -3    1    3    3    0  502 -0.20128377847E+03 -0.45768681967E+02 -0.81958999452E+03  0.84518500995E+03  0.10100000352E+00 0.  1.
</event>
<event>
 5   0  0.2110896E-05  0.1985937E+04  0.7818609E-02  0.8613224E-01
        1   -1    0    0  501    0  0.00000000000E+00  0.00000000000E+00  0.14744535790E+04  0.14744535790E+04  0.50400001928E-02 0. -1.
       -1   -1    0    0    0  501  0.00000000000E+00  0.00000000000E+00 -0.66871298638E+03  0.66871298640E+03  0.50400001928E-02 0.  1.
    10030    2    1    2    0    0  0.00000000000E+00  0.00000000000E+00  0.80574059259E+03  0.21431665654E+04  0.19859368128E+04 0.  0.
        4    1    3    3  502    0 -0.23595133147E+03  0.24232932045E+03 -0.60463224058E+03  0.69280465474E+03  0.12699999809E+01 0.  1.
       -4    1    3    3    0  502  0.23595133147E+03 -0.24232932045E+03  0.14103728332E+04  0.14503619106E+04  0.12699999809E+01 0. -1.
</event>
<event>
 5   0  0.4447313E-05  0.2015672E+04  0.7818609E-02  0.8599328E-01
       -2   -1    0    0    0  501  0.00000000000E+00  0.00000000000E+00  0.10279449559E+04  0.10279449559E+04  0.25500000920E-02 0. -1.
        2   -1    0    0  501    0  0.00000000000E+00  0.00000000000E+00 -0.98812047030E+03  0.98812047031E+03  0.25500000920E-02 0.  1.
    10030    2    1    2    0    0  0.00000000000E+00  0.00000000000E+00  0.39824485594E+02  0.20160654262E+04  0.20156720500E+04 0.  0.
        5    1    3    3  502    0  0.93322755156E+03 -0.37736043524E+03 -0.29054458248E+02  0.10070654460E+04  0.46999998093E+01 0. -1.
       -5    1    3    3    0  502 -0.93322755156E+03  0.37736043524E+03  0.68878943842E+02  0.10089999802E+04  0.46999998093E+01 0.  1.
</event>
<event>
 5   0  0.4514680E-05  0.1980582E+04  0.7818609E-02  0.8615753E-01
       -2   -1    0    0    0  501  0.00000000000E+00  0.00000000000E+00  0.76531013656E+03  0.76531013656E+03  0.25500000920E-02 0.  1.
        2   -1    0    0  501    0  0.00000000000E+00  0.00000000000E+00 -0.12814100126E+04  0.12814100126E+04  0.25500000920E-02 0. -1.
    10030    2    1    2    0    0  0.00000000000E+00  0.00000000000E+00 -0.51609987605E+03  0.20467201492E+04  0.19805818052E+04 0.  0.
        3    1    3    3  502    0  0.53432168717E+01 -0.77933923112E+03  0.37331695377E+03  0.86415493130E+03  0.10100000352E+00 0.  1.
       -3    1    3    3    0  502 -0.53432168717E+01  0.77933923112E+03 -0.88941682982E+03  0.11825652179E+04  0.10100000352E+00 0. -1.
</event>
<event>
 5   0  0.4412054E-05  0.1996983E+04  0.7818609E-02  0.8608033E-01
        2   -1    0    0  501    0  0.00000000000E+00  0.00000000000E+00  0.15300072032E+04  0.15300072032E+04  0.25500000920E-02 0.  1.
       -2   -1    0    0    0  501  0.00000000000E+00  0.00000000000E+00 -0.65162127493E+03  0.65162127493E+03  0.25500000920E-02 0. -1.
    10030    2    1    2    0    0  0.00000000000E+00  0.00000000000E+00  0.87838592827E+03  0.21816284781E+04  0.19969829688E+04 0.  0.
        4    1    3    3  502    0  0.25959018483E+03  0.96247321577E+03  0.50139500830E+03  0.11158585584E+04  0.12699999809E+01 0. -1.
       -4    1    3    3    0  502 -0.25959018483E+03 -0.96247321577E+03  0.37699091997E+03  0.10657699197E+04  0.12699999809E+01 0.  1.
</event>
<event>
 5   0  0.4473361E-05  0.2007456E+04  0.7818609E-02  0.8603143E-01
       -2   -1    0    0    0  501  0.00000000000E+00  0.00000000000E+00  0.11841432806E+04  0.11841432807E+04  0.25500000920E-02 0.  1.
        2   -1    0    0  501    0  0.00000000000E+00  0.00000000000E+00 -0.85080043939E+03  0.85080043940E+03  0.25500000920E-02 0. -1.
    10030    2    1    2    0    0  0.00000000000E+00  0.00000000000E+00  0.33334284126E+03  0.20349437200E+04  0.20074557265E+04 0.  0.
        2    1    3    3  502    0 -0.64046705999E+03 -0.64491724318E+03  0.59835862855E+03  0.10881862680E+04  0.25500000920E-02 0.  1.
       -2    1    3    3    0  502  0.64046705999E+03  0.64491724318E+03 -0.26501578730E+03  0.94675745205E+03  0.25500000920E-02 0. -1.
</event>
<event>
 5   0  0.4473361E-05  0.2002568E+04  0.7818609E-02  0.8605421E-01
        2   -1    0    0  501    0  0.00000000000E+00  0.00000000000E+00  0.10472900022E+04  0.10472900023E+04  0.25500000920E-02 0. -1.
       -2   -1    0    0    0  501  0.00000000000E+00  0.00000000000E+00 -0.95729935847E+03  0.95729935847E+03  0.25500000920E-02 0.  1.
    10030    2    1    2    0    0  0.00000000000E+00  0.00000000000E+00  0.89990643780E+02  0.20045893607E+04  0.20025683981E+04 0.  0.
        2    1    3    3  502    0  0.37452177721E+02 -0.49072348715E+03 -0.82786967291E+03  0.96310975583E+03  0.25500000920E-02 0.  1.
       -2    1    3    3    0  502 -0.37452177721E+02  0.49072348715E+03  0.91786031669E+03  0.10414796049E+04  0.25500000920E-02 0. -1.
</event>
<event>
 5   0  0.4473361E-05  0.2001704E+04  0.7818609E-02  0.8605824E-01
        2   -1    0    0  501    0  0.00000000000E+00  0.00000000000E+00  0.11665280899E+04  0.11665280899E+04  0.25500000920E-02 0.  1.
       -2   -1    0    0    0  501  0.00000000000E+00  0.00000000000E+00 -0.85870624038E+03  0.85870624039E+03  0.25500000920E-02 0. -1.
    10030    2    1    2    0    0  0.00000000000E+00  0.00000000000E+00  0.30782184952E+03  0.20252343303E+04  0.20017042243E+04 0.  0.
        2    1    3    3  502    0 -0.71151647835E+03  0.32897827723E+03  0.78349783812E+03  0.11083100957E+04  0.25500000920E-02 0.  1.
       -2    1    3    3    0  502  0.71151647835E+03 -0.32897827723E+03 -0.47567598860E+03  0.91692423460E+03  0.25500000920E-02 0. -1.
</event>
<event>
 5   0  0.4514680E-05  0.2001632E+04  0.7818609E-02  0.8605858E-01
        2   -1    0    0  501    0  0.00000000000E+00  0.00000000000E+00  0.11491008981E+04  0.11491008981E+04  0.25500000920E-02 0. -1.
       -2   -1    0    0    0  501  0.00000000000E+00  0.00000000000E+00 -0.87166603638E+03  0.87166603638E+03  0.25500000920E-02 0.  1.
    10030    2    1    2    0    0  0.00000000000E+00  0.00000000000E+00  0.27743486174E+03  0.20207669345E+04  0.20016315598E+04 0.  0.
        3    1    3    3  502    0 -0.27561882374E+03  0.53977044030E+03 -0.66533497465E+03  0.89999361271E+03  0.10100000352E+00 0.  1.
       -3    1    3    3    0  502  0.27561882374E+03 -0.53977044030E+03  0.94276983639E+03  0.11207733218E+04  0.10100000352E+00 0. -1.
</event>
<event>
 5   0  0.4412054E-05  0.2023408E+04  0.7818609E-02  0.8595754E-01
       -2   -1    0    0    0  501  0.00000000000E+00  0.00000000000E+00  0.65454823775E+03  0.65454823775E+03  0.25500000920E-02 0.  1.
        2   -1    0    0  501    0  0.00000000000E+00  0.00000000000E+00 -0.15637430575E+04  0.15637430575E+04  0.25500000920E-02 0. -1.
    10030    2    1    2    0    0  0.00000000000E+00  0.00000000000E+00 -0.90919481977E+03  0.22182912953E+04  0.20234082758E+04 0.  0.
        4    1    3    3  502    0  0.18732669833E+03 -0.12495215063E+03 -0.15359208324E+04  0.15523397657E+04  0.12699999809E+01 0. -1.
       -4    1    3    3    0  502 -0.18732669833E+03  0.12495215063E+03  0.62672601266E+03  0.66595152954E+03  0.12699999809E+01 0.  1.
</event>
<event>
 5   0  0.4577279E-05  0.2015119E+04  0.7818609E-02  0.8599585E-01
       -2   -1    0    0    0  501  0.00000000000E+00  0.00000000000E+00  0.40681942362E+03  0.40681942363E+03  0.25500000920E-02 0.  1.
        2   -1    0    0  501    0  0.00000000000E+00  0.00000000000E+00 -0.24953965373E+04  0.24953965373E+04  0.25500000920E-02 0. -1.
    10030    2    1    2    0    0  0.00000000000E+00  0.00000000000E+00 -0.20885771137E+04  0.29022159609E+04  0.20151186377E+04 0.  0.
        1    1    3    3  502    0  0.60391726045E+03  0.77729192793E+03 -0.73446700712E+03  0.12281451800E+04  0.50400001928E-02 0. -1.
       -1    1    3    3    0  502 -0.60391726045E+03 -0.77729192793E+03 -0.13541101066E+04  0.16740707809E+04  0.50400001928E-02 0.  1.
</event>
<event>
 5   0  0.2007644E-05  0.1995993E+04  0.7818609E-02  0.8608496E-01
        1   -1    0    0  501    0  0.00000000000E+00  0.00000000000E+00  0.50626300408E+03  0.50626300411E+03  0.50400001928E-02 0.  1.
       -1   -1    0    0    0  501  0.00000000000E+00  0.00000000000E+00 -0.19673506363E+04  0.19673506363E+04  0.50400001928E-02 0. -1.
    10030    2    1    2    0    0  0.00000000000E+00  0.00000000000E+00 -0.14610876323E+04  0.24736136405E+04  0.19959928289E+04 0.  0.
        1    1    3    3  502    0  0.21929877515E+03 -0.56554381707E+01  0.47601346656E+03  0.52413047720E+03  0.50400001928E-02 0.  1.
       -1    1    3    3    0  502 -0.21929877515E+03  0.56554381707E+01 -0.19371010988E+04  0.19494831633E+04  0.50400001928E-02 0. -1.
</event>
<event>
 5   0  0.2142551E-05  0.1982501E+04  0.7818609E-02  0.8614846E-01
       -1   -1    0    0    0  501  0.00000000000E+00  0.00000000000E+00  0.10146236815E+04  0.10146236815E+04  0.50400001928E-02 0. -1.
        1   -1    0    0  501    0  0.00000000000E+00  0.00000000000E+00 -0.96841566030E+03  0.96841566031E+03  0.50400001928E-02 0.  1.
    10030    2    1    2    0    0  0.00000000000E+00  0.00000000000E+00  0.46208021215E+02  0.19830393418E+04  0.19825009080E+04 0.  0.
        3    1    3    3  502    0  0.66424534496E+03  0.97176398429E+02 -0.70641726286E+03  0.97452064636E+03  0.10100000352E+00 0.  1.
       -3    1    3    3    0  502 -0.66424534496E+03 -0.97176398429E+02  0.75262528407E+03  0.10085186955E+04  0.10100000352E+00 0. -1.
</event>
<event>
 5   0  0.2007644E-05  0.1994790E+04  0.7818609E-02  0.8609060E-01
        1   -1    0    0  501    0  0.00000000000E+00  0.00000000000E+00  0.12682533442E+04  0.12682533443E+04  0.50400001928E-02 0.  1.
       -1   -1    0    0    0  501  0.00000000000E+00  0.00000000000E+00 -0.78438362310E+03  0.78438362312E+03  0.50400001928E-02 0. -1.
    10030    2    1    2    0    0  0.00000000000E+00  0.00000000000E+00  0.48386972114E+03  0.20526369674E+04  0.19947903681E+04 0.  0.
        1    1    3    3  502    0  0.75203278432E+03 -0.64869628129E+03  0.14741819957E+03  0.10040379971E+04  0.50400001928E-02 0. -1.
       -1    1    3    3    0  502 -0.75203278432E+03  0.64869628129E+03  0.33645152156E+03  0.10485989703E+04  0.50400001928E-02 0.  1.
</event>
<event>
 5   0  0.4412054E-05  0.2003280E+04  0.7818609E-02  0.8605089E-01
       -2   -1    0    0    0  501  0.00000000000E+00  0.00000000000E+00  0.54447988123E+03  0.54447988124E+03  0.25500000920E-02 0.  1.
        2   -1    0    0  501    0  0.00000000000E+00  0.00000000000E+00 -0.18426435129E+04  0.18426435129E+04  0.25500000920E-02 0. -1.
    10030    2    1    2    0    0  0.00000000000E+00  0.00000000000E+00 -0.12981636317E+04  0.23871233941E+04  0.20032796321E+04 0.  0.
        4    1    3    3  502    0  0.45281754420E+03 -0.74144732231E+03 -0.12430870069E+04  0.15165931491E+04  0.12699999809E+01 0. -1.
       -4    1    3    3    0  502 -0.45281754420E+03  0.74144732231E+03 -0.55076624743E+02  0.87053024508E+03  0.12699999809E+01 0.  1.
</event>
<event>
 5   0  0.4473361E-05  0.2002424E+04  0.7818609E-02  0.8605488E-01
        2   -1    0    0  501    0  0.00000000000E+00  0.00000000000E+00  0.10827733032E+04  0.10827733032E+04  0.25500000920E-02 0. -1.
       -2   -1    0    0    0  501  0.00000000000E+00  0.00000000000E+00 -0.92579396750E+03  0.92579396751E+03  0.25500000920E-02 0.  1.
    10030    2    1    2    0    0  0.00000000000E+00  0.00000000000E+00  0.15697933565E+03  0.20085672707E+04  0.20024235239E+04 0.  0.
        2    1    3    3  502    0  0.29256860267E+03  0.47850905664E+02  0.10377390619E+04  0.10792536574E+04  0.25500000920E-02 0. -1.
       -2    1    3    3    0  502 -0.29256860267E+03 -0.47850905664E+02 -0.88075972623E+03  0.92931361326E+03  0.25500000920E-02 0.  1.
</event>
<event>
 5   0  0.4473361E-05  0.1982926E+04  0.7818609E-02  0.8614645E-01
       -2   -1    0    0    0  501  0.00000000000E+00  0.00000000000E+00  0.10302801916E+04  0.10302801916E+04  0.25500000920E-02 0.  1.
        2   -1    0    0  501    0  0.00000000000E+00  0.00000000000E+00 -0.95410797294E+03  0.95410797294E+03  0.25500000920E-02 0. -1.
    10030    2    1    2    0    0  0.00000000000E+00  0.00000000000E+00  0.76172218634E+02  0.19843881645E+04  0.19829256619E+04 0.  0.
        2    1    3    3  502    0 -0.87577561739E+03 -0.45755495640E+03 -0.43577232398E+02  0.98905937402E+03  0.25500000920E-02 0. -1.
       -2    1    3    3    0  502  0.87577561739E+03  0.45755495640E+03  0.11974945103E+03  0.99532879049E+03  0.25500000920E-02 0.  1.
</event>
<event>
 5   0  0.4577279E-05  0.2005352E+04  0.7818609E-02  0.8604122E-01
       -2   -1    0    0    0  501  0.00000000000E+00  0.00000000000E+00  0.96262838100E+03  0.96262838101E+03  0.25500000920E-02 0. -1.
        2   -1    0    0  501    0  0.00000000000E+00  0.00000000000E+00 -0.10443901823E+04  0.10443901823E+04  0.25500000920E-02 0.  1.
    10030    2    1    2    0    0  0.00000000000E+00  0.00000000000E+00 -0.81761801312E+02  0.20070185633E+04  0.20053524681E+04 0.  0.
        1    1    3    3  502    0 -0.62976487902E+03  0.24704989839E+03 -0.78157832528E+03  0.10336837687E+04  0.50400001928E-02 0.  1.
       -1    1    3    3    0  502  0.62976487902E+03 -0.24704989839E+03  0.69981652397E+03  0.97333479460E+03  0.50400001928E-02 0. -1.
</event>
<event>
 5   0  0.4447313E-05  0.1981630E+04  0.7818609E-02  0.8615258E-01
        2   -1    0    0  501    0  0.00000000000E+00  0.00000000000E+00  0.20685277648E+04  0.20685277648E+04  0.25500000920E-02 0. -1.
       -2   -1    0    0    0  501  0.00000000000E+00  0.00000000000E+00 -0.47459574398E+03  0.47459574398E+03  0.25500000920E-02 0.  1.
    10030    2    1    2    0    0  0.00000000000E+00  0.00000000000E+00  0.15939320208E+04  0.25431235088E+04  0.19816301103E+04 0.  0.
        5    1    3    3  502    0 -0.45247527886E+03 -0.45692529390E+03  0.17643234661E+04  0.18778642084E+04  0.46999998093E+01 0. -1.
       -5    1    3    3    0  502  0.45247527886E+03  0.45692529390E+03 -0.17039144524E+03  0.66525930042E+03  0.46999998093E+01 0.  1.
</event>
<event>
 5   0  0.2093980E-05  0.1996700E+04  0.7818609E-02  0.8608165E-01
       -1   -1    0    0    0  501  0.00000000000E+00  0.00000000000E+00  0.10319740004E+04  0.10319740005E+04  0.50400001928E-02 0. -1.
        1   -1    0    0  501    0  0.00000000000E+00  0.00000000000E+00 -0.96582112435E+03  0.96582112436E+03  0.50400001928E-02 0.  1.
    10030    2    1    2    0    0  0.00000000000E+00  0.00000000000E+00  0.66152876099E+02  0.19977951248E+04  0.19966995662E+04 0.  0.
        2    1    3    3  502    0  0.93407813641E+03 -0.34448634048E+03  0.10747775050E+03  0.10013612088E+04  0.25500000920E-02 0.  1.
       -2    1    3    3    0  502 -0.93407813641E+03  0.34448634048E+03 -0.41324874403E+02  0.99643391599E+03  0.25500000920E-02 0. -1.
</event>
<event>
 5   0  0.2142551E-05  0.1999221E+04  0.7818609E-02  0.8606985E-01
        1   -1    0    0  501    0  0.00000000000E+00  0.00000000000E+00  0.19965417687E+04  0.19965417688E+04  0.50400001928E-02 0. -1.
       -1   -1    0    0    0  501  0.00000000000E+00  0.00000000000E+00 -0.50047617199E+03  0.50047617201E+03  0.50400001928E-02 0.  1.
    10030    2    1    2    0    0  0.00000000000E+00  0.00000000000E+00  0.14960655968E+04  0.24970179408E+04  0.19992214301E+04 0.  0.
        3    1    3    3  502    0 -0.49376043763E+02 -0.23838428862E+03 -0.46288494813E+03  0.52299861201E+03  0.10100000352E+00 0.  1.
       -3    1    3    3    0  502  0.49376043763E+02  0.23838428862E+03  0.19589505449E+04  0.19740193288E+04  0.10100000352E+00 0. -1.
</event>
<event>
 5   0  0.2007644E-05  0.1983945E+04  0.7818609E-02  0.8614164E-01
       -1   -1    0    0    0  501  0.00000000000E+00  0.00000000000E+00  0.59148740136E+03  0.59148740138E+03  0.50400001928E-02 0.  1.
        1   -1    0    0  501    0  0.00000000000E+00  0.00000000000E+00 -0.16636192540E+04  0.16636192541E+04  0.50400001928E-02 0. -1.
    10030    2    1    2    0    0  0.00000000000E+00  0.00000000000E+00 -0.10721318527E+04  0.22551066554E+04  0.19839453919E+04 0.  0.
        1    1    3    3  502    0  0.35293245337E+03  0.38550348004E+03 -0.14944110811E+04  0.15831736257E+04  0.50400001928E-02 0. -1.
       -1    1    3    3    0  502 -0.35293245337E+03 -0.38550348004E+03  0.42227922837E+03  0.67193302978E+03  0.50400001928E-02 0.  1.
</event>
<event>
 5   0  0.2093980E-05  0.2006679E+04  0.7818609E-02  0.8603505E-01
        1   -1    0    0  501    0  0.00000000000E+00  0.00000000000E+00  0.74826531089E+03  0.74826531091E+03  0.50400001928E-02 0. -1.
       -1   -1    0    0    0  501  0.00000000000E+00  0.00000000000E+00 -0.13453647494E+04  0.13453647494E+04  0.50400001928E-02 0.  1.
    10030    2    1    2    0    0  0.00000000000E+00  0.00000000000E+00 -0.59709943849E+03  0.20936300603E+04  0.20066786215E+04 0.  0.
        2    1    3    3  502    0  0.14807911449E+03  0.50963862223E+03  0.58983352023E+03  0.79344976590E+03  0.25500000920E-02 0. -1.
       -2    1    3    3    0  502 -0.14807911449E+03 -0.50963862223E+03 -0.11869329587E+04  0.13001802944E+04  0.25500000920E-02 0.  1.
</event>
<event>
 5   0  0.4514680E-05  0.2004978E+04  0.7818609E-02  0.8604297E-01
        2   -1    0    0  501    0  0.00000000000E+00  0.00000000000E+00  0.29636177394E+04  0.29636177394E+04  0.25500000920E-02 0. -1.
       -2   -1    0    0    0  501  0.00000000000E+00  0.00000000000E+00 -0.33910722895E+03  0.33910722896E+03  0.25500000920E-02 0.  1.
    10030    2    1    2    0    0  0.00000000000E+00  0.00000000000E+00  0.26245105104E+04  0.33027249683E+04  0.20049780041E+04 0.  0.
        3    1    3    3  502    0 -0.33576019538E+03 -0.85081890041E+03  0.63636261983E+03  0.11142643781E+04  0.10100000352E+00 0.  1.
       -3    1    3    3    0  502  0.33576019538E+03  0.85081890041E+03  0.19881478906E+04  0.21884605903E+04  0.10100000352E+00 0. -1.
</event>
<event>
 5   0  0.2093980E-05  0.2008008E+04  0.7818609E-02  0.8602886E-01
       -1   -1    0    0    0  501  0.00000000000E+00  0.00000000000E+00  0.95953473915E+03  0.95953473916E+03  0.50400001928E-02 0. -1.
        1   -1    0    0  501    0  0.00000000000E+00  0.00000000000E+00 -0.10505342327E+04  0.10505342327E+04  0.50400001928E-02 0.  1.
    10030    2    1    2    0    0  0.00000000000E+00  0.00000000000E+00 -0.90999493524E+02  0.20100689719E+04  0.20080080587E+04 0.  0.
        2    1    3    3  502    0 -0.53138797074E+03  0.77609619364E+03  0.30603815072E+03  0.98911972326E+03  0.25500000920E-02 0. -1.
       -2    1    3    3    0  502  0.53138797074E+03 -0.77609619364E+03 -0.39703764425E+03  0.10209492486E+04  0.25500000920E-02 0.  1.
</event>
<event>
 5   0  0.4447313E-05  0.1992507E+04  0.7818609E-02  0.8610132E-01
        2   -1    0    0  501    0  0.00000000000E+00  0.00000000000E+00  0.97250166958E+03  0.97250166958E+03  0.25500000920E-02 0. -1.
       -2   -1    0    0    0  501  0.00000000000E+00  0.00000000000E+00 -0.10205853872E+04  0.10205853872E+04  0.25500000920E-02 0.  1.
    10030    2    1    2    0    0  0.00000000000E+00  0.00000000000E+00 -0.48083717662E+02  0.19930870568E+04  0.19925069566E+04 0.  0.
        5    1    3    3  502    0 -0.18518610867E+03  0.76155831864E+03 -0.63922817719E+03  0.10113850503E+04  0.46999998093E+01 0.  1.
       -5    1    3    3    0  502  0.18518610867E+03 -0.76155831864E+03  0.59114445952E+03  0.98170200650E+03  0.46999998093E+01 0. -1.
</event>
<event>
 5   0  0.4412054E-05  0.2003241E+04  0.7818609E-02  0.8605107E-01
        2   -1    0    0  501    0  0.00000000000E+00  0.00000000000E+00  0.18981671654E+04  0.18981671654E+04  0.25500000920E-02 0. -1.
       -2   -1    0    0    0  501  0.00000000000E+00  0.00000000000E+00 -0.52853262507E+03  0.52853262508E+03  0.25500000920E-02 0.  1.
    10030    2    1    2    0    0  0.00000000000E+00  0.00000000000E+00  0.13696345404E+04  0.24266997905E+04  0.20032406493E+04 0.  0.
        4    1    3    3  502    0  0.78748132829E+03 -0.12575549885E+03 -0.49347623727E+02  0.79898566243E+03  0.12699999809E+01 0.  1.
       -4    1    3    3    0  502 -0.78748132829E+03  0.12575549885E+03  0.14189821641E+04  0.16277141281E+04  0.12699999809E+01 0. -1.
</event>
<event>
 5   0  0.2256868E-05  0.2000612E+04  0.7818609E-02  0.8606334E-01
       -1   -1    0    0    0  501  0.00000000000E+00  0.00000000000E+00  0.47019154236E+03  0.47019154239E+03  0.50400001928E-02 0. -1.
        1   -1    0    0  501    0  0.00000000000E+00  0.00000000000E+00 -0.21280953188E+04  0.21280953188E+04  0.50400001928E-02 0.  1.
    10030    2    1    2    0    0  0.00000000000E+00  0.00000000000E+00 -0.16579037765E+04  0.25982868612E+04  0.20006123266E+04 0.  0.
        5    1    3    3  502    0 -0.57114829063E+03  0.37086475751E+03  0.12263030017E+03  0.69196193448E+03  0.46999998093E+01 0. -1.
       -5    1    3    3    0  502  0.57114829063E+03 -0.37086475751E+03 -0.17805340767E+04  0.19063249268E+04  0.46999998093E+01 0.  1.
</event>
<event>
 5   0  0.2142551E-05  0.2008811E+04  0.7818609E-02  0.8602512E-01
       -1   -1    0    0    0  501  0.00000000000E+00  0.00000000000E+00  0.10133881884E+04  0.10133881884E+04  0.50400001928E-02 0.  1.
        1   -1    0    0  501    0  0.00000000000E+00  0.00000000000E+00 -0.99550269006E+03  0.99550269007E+03  0.50400001928E-02 0. -1.
    10030    2    1    2    0    0  0.00000000000E+00  0.00000000000E+00  0.17885498325E+02  0.20088908785E+04  0.20088112581E+04 0.  0.
        3    1    3    3  502    0  0.39608292073E+03  0.80016873036E+03  0.46904682507E+03  0.10085418243E+04  0.10100000352E+00 0. -1.
       -3    1    3    3    0  502 -0.39608292073E+03 -0.80016873036E+03 -0.45116132674E+03  0.10003490541E+04  0.10100000352E+00 0.  1.
</event>
<event>
 5   0  0.2110896E-05  0.1998385E+04  0.7818609E-02  0.8607376E-01
        1   -1    0    0  501    0  0.00000000000E+00  0.00000000000E+00  0.56015560783E+03  0.56015560785E+03  0.50400001928E-02 0. -1.
       -1   -1    0    0    0  501  0.00000000000E+00  0.00000000000E+00 -0.17823369054E+04  0.17823369054E+04  0.50400001928E-02 0.  1.
    10030    2    1    2    0    0  0.00000000000E+00  0.00000000000E+00 -0.12221812976E+04  0.23424925132E+04  0.19983853609E+04 0.  0.
        4    1    3    3  502    0  0.66995285861E+02  0.47134447025E+03 -0.16408406051E+04  0.17085120667E+04  0.12699999809E+01 0.  1.
       -4    1    3    3    0  502 -0.66995285861E+02 -0.47134447025E+03  0.41865930749E+03  0.63398044655E+03  0.12699999809E+01 0. -1.
</event>
<event>
 5   0  0.2256868E-05  0.2024463E+04  0.7818609E-02  0.8595268E-01
        1   -1    0    0  501    0  0.00000000000E+00  0.00000000000E+00  0.19904092360E+04  0.19904092360E+04  0.50400001928E-02 0.  1.
       -1   -1    0    0    0  501  0.00000000000E+00  0.00000000000E+00 -0.51477498748E+03  0.51477498750E+03  0.50400001928E-02 0. -1.
    10030    2    1    2    0    0  0.00000000000E+00  0.00000000000E+00  0.14756342485E+04  0.25051842235E+04  0.20244632766E+04 0.  0.
        5    1    3    3  502    0  0.47011261244E+03 -0.47442615767E+03  0.16790199672E+04  0.18069909207E+04  0.46999998093E+01 0.  1.
       -5    1    3    3    0  502 -0.47011261244E+03  0.47442615767E+03 -0.20338571867E+03  0.69819330276E+03  0.46999998093E+01 0. -1.
</event>
<event>
 5   0  0.4473361E-05  0.2000927E+04  0.7818609E-02  0.8606187E-01
        2   -1    0    0  501    0  0.00000000000E+00  0.00000000000E+00  0.12729561747E+04  0.12729561747E+04  0.25500000920E-02 0. -1.
       -2   -1    0    0    0  501  0.00000000000E+00  0.00000000000E+00 -0.78630158441E+03  0.78630158442E+03  0.25500000920E-02 0.  1.
    10030    2    1    2    0    0  0.00000000000E+00  0.00000000000E+00  0.48665459027E+03  0.20592577591E+04  0.20009272421E+04 0.  0.
        2    1    3    3  502    0 -0.93332972736E+02  0.66665571208E+02  0.12661675101E+04  0.12713518419E+04  0.25500000920E-02 0. -1.
       -2    1    3    3    0  502  0.93332972736E+02 -0.66665571208E+02 -0.77951291984E+03  0.78790591722E+03  0.25500000920E-02 0.  1.
</event>
<event>
 5   0  0.2093980E-05  0.2005220E+04  0.7818609E-02  0.8604184E-01
       -1   -1    0    0    0  501  0.00000000000E+00  0.00000000000E+00  0.33630863080E+03  0.33630863083E+03  0.50400001928E-02 0.  1.
        1   -1    0    0  501    0  0.00000000000E+00  0.00000000000E+00 -0.29890004671E+04  0.29890004671E+04  0.50400001928E-02 0. -1.
    10030    2    1    2    0    0  0.00000000000E+00  0.00000000000E+00 -0.26526918363E+04  0.33253090979E+04  0.20052198429E+04 0.  0.
        2    1    3    3  502    0 -0.84297687414E+03  0.43682014489E+03 -0.18606380221E+04  0.20888742659E+04  0.25500000920E-02 0. -1.
       -2    1    3    3    0  502  0.84297687414E+03 -0.43682014489E+03 -0.79205381416E+03  0.12364348320E+04  0.25500000920E-02 0.  1.
</event>
<event>
 5   0  0.4447313E-05  0.1990912E+04  0.7818609E-02  0.8610882E-01
       -2   -1    0    0    0  501  0.00000000000E+00  0.00000000000E+00  0.67428450115E+03  0.67428450116E+03  0.25500000920E-02 0.  1.
        2   -1    0    0  501    0  0.00000000000E+00  0.00000000000E+00 -0.14696057391E+04  0.14696057391E+04  0.25500000920E-02 0. -1.
    10030    2    1    2    0    0  0.00000000000E+00  0.00000000000E+00 -0.79532123799E+03  0.21438902403E+04  0.19909117235E+04 0.  0.
        5    1    3    3  502    0  0.97161965402E+03  0.17616049000E+03 -0.26216279545E+03  0.10216793487E+04  0.46999998093E+01 0.  1.
       -5    1    3    3    0  502 -0.97161965402E+03 -0.17616049000E+03 -0.53315844254E+03  0.11222108916E+04  0.46999998093E+01 0. -1.
</event>
<event>
 5   0  0.2007644E-05  0.1999514E+04  0.7818609E-02  0.8606848E-01
        1   -1    0    0  501    0  0.00000000000E+00  0.00000000000E+00  0.15523272421E+04  0.15523272421E+04  0.50400001928E-02 0.  1.
       -1   -1    0    0    0  501  0.00000000000E+00  0.00000000000E+00 -0.64388116568E+03  0.64388116570E+03  0.50400001928E-02 0. -1.
    10030    2    1    2    0    0  0.00000000000E+00  0.00000000000E+00  0.90844607640E+03  0.21962084078E+04  0.19995142152E+04 0.  0.
        1    1    3    3  502    0 -0.40544920901E+03  0.16315210025E+03  0.14418452301E+04  0.15066271391E+04  0.50400001928E-02 0.  1.
       -1    1    3    3    0  502  0.40544920901E+03 -0.16315210025E+03 -0.53339915367E+03  0.68958126865E+03  0.50400001928E-02 0. -1.
</event>
<event>
 5   0  0.4514680E-05  0.2000178E+04  0.7818609E-02  0.8606537E-01
       -2   -1    0    0    0  501  0.00000000000E+00  0.00000000000E+00  0.14789308510E+04  0.14789308510E+04  0.25500000920E-02 0.  1.
        2   -1    0    0  501    0  0.00000000000E+00  0.00000000000E+00 -0.67628479965E+03  0.67628479965E+03  0.25500000920E-02 0. -1.
    10030    2    1    2    0    0  0.00000000000E+00  0.00000000000E+00  0.80264605139E+03  0.21552156507E+04  0.20001784463E+04 0.  0.
        3    1    3    3  502    0 -0.90354113541E+03  0.37360796430E+03  0.17476623304E+03  0.99323347748E+03  0.10100000352E+00 0.  1.
       -3    1    3    3    0  502  0.90354113541E+03 -0.37360796430E+03  0.62787981834E+03  0.11619821732E+04  0.10100000352E+00 0. -1.
</event>
<event>
 5   0  0.4447313E-05  0.2006058E+04  0.7818609E-02  0.8603794E-01
       -2   -1    0    0    0  501  0.00000000000E+00  0.00000000000E+00  0.10583156203E+04  0.10583156203E+04  0.25500000920E-02 0. -1.
        2   -1    0    0  501    0  0.00000000000E+00  0.00000000000E+00 -0.95063024732E+03  0.95063024732E+03  0.25500000920E-02 0.  1.
    10030    2    1    2    0    0  0.00000000000E+00  0.00000000000E+00  0.10768537296E+03  0.20089458676E+04  0.20060576660E+04 0.  0.
        5    1    3    3  502    0 -0.46638533714E+02 -0.50070508008E+03 -0.81525702117E+03  0.95788664810E+03  0.46999998093E+01 0.  1.
       -5    1    3    3    0  502  0.46638533714E+02  0.50070508008E+03  0.92294239413E+03  0.10510592195E+04  0.46999998093E+01 0. -1.
</event>
<event>
 5   0  0.4447313E-05  0.1976285E+04  0.7818609E-02  0.8617789E-01
       -2   -1    0    0    0  501  0.00000000000E+00  0.00000000000E+00  0.11048878485E+04  0.11048878485E+04  0.25500000920E-02 0.  1.
        2   -1    0    0  501    0  0.00000000000E+00  0.00000000000E+00 -0.88373240727E+03  0.88373240727E+03  0.25500000920E-02 0. -1.
    10030    2    1    2    0    0  0.00000000000E+00  0.00000000000E+00  0.22115544127E+03  0.19886202558E+04  0.19762845930E+04 0.  0.
        5    1    3    3  502    0  0.21468050097E+03 -0.80519543505E+03 -0.42375062920E+03  0.93488720810E+03  0.46999998093E+01 0.  1.
       -5    1    3    3    0  502 -0.21468050097E+03  0.80519543505E+03  0.64490607047E+03  0.10537330477E+04  0.46999998093E+01 0. -1.
</event>
<event>
 5   0  0.4514680E-05  0.1997989E+04  0.7818609E-02  0.8607562E-01
       -2   -1    0    0    0  501  0.00000000000E+00  0.00000000000E+00  0.57870117677E+03  0.57870117677E+03  0.25500000920E-02 0.  1.
        2   -1    0    0  501    0  0.00000000000E+00  0.00000000000E+00 -0.17245337996E+04  0.17245337996E+04  0.25500000920E-02 0. -1.
    10030    2    1    2    0    0  0.00000000000E+00  0.00000000000E+00 -0.11458326228E+04  0.23032349763E+04  0.19979887279E+04 0.  0.
        3    1    3    3  502    0  0.65111577026E+03 -0.39690501281E+03  0.17105297500E+03  0.78150141774E+03  0.10100000352E+00 0.  1.
       -3    1    3    3    0  502 -0.65111577026E+03  0.39690501281E+03 -0.13168855978E+04  0.15217335586E+04  0.10100000352E+00 0. -1.
</event>
<event>
 5   0  0.2007644E-05  0.1996578E+04  0.7818609E-02  0.8608222E-01
       -1   -1    0    0    0  501  0.00000000000E+00  0.00000000000E+00  0.34583015629E+03  0.34583015633E+03  0.50400001928E-02 0. -1.
        1   -1    0    0  501    0  0.00000000000E+00  0.00000000000E+00 -0.28817062528E+04  0.28817062528E+04  0.50400001928E-02 0.  1.
    10030    2    1    2    0    0  0.00000000000E+00  0.00000000000E+00 -0.25358760965E+04  0.32275364091E+04  0.19965779963E+04 0.  0.
        1    1    3    3  502    0 -0.36694774187E+03 -0.13351517610E+03  0.21725477726E+03  0.44685186111E+03  0.50400001928E-02 0. -1.
       -1    1    3    3    0  502  0.36694774187E+03  0.13351517610E+03 -0.27531308737E+04  0.27806845480E+04  0.50400001928E-02 0.  1.
</event>
<event>
 5   0  0.2110896E-05  0.2005437E+04  0.7818609E-02  0.8604083E-01
       -1   -1    0    0    0  501  0.00000000000E+00  0.00000000000E+00  0.74850693983E+03  0.74850693984E+03  0.50400001928E-02 0.  1.
        1   -1    0    0  501    0  0.00000000000E+00  0.00000000000E+00 -0.13432660137E+04  0.13432660137E+04  0.50400001928E-02 0. -1.
    10030    2    1    2    0    0  0.00000000000E+00  0.00000000000E+00 -0.59475907389E+03  0.20917729536E+04  0.20054365443E+04 0.  0.
        4    1    3    3  502    0 -0.19289688689E+02 -0.89969657563E+03 -0.75870575689E+03  0.11770565232E+04  0.12699999809E+01 0.  1.
       -4    1    3    3    0  502  0.19289688689E+02  0.89969657563E+03  0.16394668299E+03  0.91471643041E+03  0.12699999809E+01 0. -1.
</event>
<event>
 5   0  0.2256868E-05  0.1972257E+04  0.7818609E-02  0.8619702E-01
        1   -1    0    0  501    0  0.00000000000E+00  0.00000000000E+00  0.18377023375E+04  0.18377023375E+04  0.50400001928E-02 0. -1.
       -1   -1    0    0    0  501  0.00000000000E+00  0.00000000000E+00 -0.52916591920E+03  0.52916591923E+03  0.50400001928E-02 0.  1.
    10030    2    1    2    0    0  0.00000000000E+00  0.00000000000E+00  0.13085364183E+04  0.23668682567E+04  0.19722570286E+04 0.  0.
        5    1    3    3  502    0  0.78892900001E+03  0.43167549040E+03  0.11397816946E+04  0.14518529876E+04  0.46999998093E+01 0. -1.
       -5    1    3    3    0  502 -0.78892900001E+03 -0.43167549040E+03  0.16875472366E+03  0.91501526917E+03  0.46999998093E+01 0.  1.
</event>
<event>
 5   0  0.4473361E-05  0.1983045E+04  0.7818609E-02  0.8614589E-01
        2   -1    0    0  501    0  0.00000000000E+00  0.00000000000E+00  0.21351566063E+04  0.21351566063E+04  0.25500000920E-02 0.  1.
       -2   -1    0    0    0  501  0.00000000000E+00  0.00000000000E+00 -0.46044260578E+03  0.46044260579E+03  0.25500000920E-02 0. -1.
    10030    2    1    2    0    0  0.00000000000E+00  0.00000000000E+00  0.16747140005E+04  0.25955992121E+04  0.19830452053E+04 0.  0.
        2    1    3    3  502    0  0.45414568589E+02 -0.21918075232E+03  0.21016542388E+04  0.21135404478E+04  0.25500000920E-02 0.  1.
       -2    1    3    3    0  502 -0.45414568589E+02  0.21918075232E+03 -0.42694023822E+03  0.48205876431E+03  0.25500000920E-02 0. -1.
</event>
<event>
 5   0  0.2142551E-05  0.1981336E+04  0.7818609E-02  0.8615397E-01
       -1   -1    0    0    0  501  0.00000000000E+00  0.00000000000E+00  0.97248824710E+03  0.97248824711E+03  0.50400001928E-02 0. -1.
        1   -1    0    0  501    0  0.00000000000E+00  0.00000000000E+00 -0.10091871887E+04  0.10091871887E+04  0.50400001928E-02 0.  1.
    10030    2    1    2    0    0  0.00000000000E+00  0.00000000000E+00 -0.36698941614E+02  0.19816754358E+04  0.19813355901E+04 0.  0.
        3    1    3    3  502    0 -0.77398003423E+03 -0.32343726842E+03  0.50877594591E+03  0.98107580406E+03  0.10100000352E+00 0. -1.
       -3    1    3    3    0  502  0.77398003423E+03  0.32343726842E+03 -0.54547488752E+03  0.10005996318E+04  0.10100000352E+00 0.  1.
</event>
<event>
 5   0  0.2110896E-05  0.2020543E+04  0.7818609E-02  0.8597076E-01
       -1   -1    0    0    0  501  0.00000000000E+00  0.00000000000E+00  0.17379462271E+04  0.17379462271E+04  0.50400001928E-02 0.  1.
        1   -1    0    0  501    0  0.00000000000E+00  0.00000000000E+00 -0.58727291273E+03  0.58727291276E+03  0.50400001928E-02 0. -1.
    10030    2    1    2    0    0  0.00000000000E+00  0.00000000000E+00  0.11506733144E+04  0.23252191398E+04  0.20205432368E+04 0.  0.
        4    1    3    3  502    0  0.93256943834E+03  0.36591249200E+03  0.42498606763E+03  0.10882060833E+04  0.12699999809E+01 0. -1.
       -4    1    3    3    0  502 -0.93256943834E+03 -0.36591249200E+03  0.72568724672E+03  0.12370130566E+04  0.12699999809E+01 0.  1.
</event>
<event>
 5   0  0.4412054E-05  0.1991276E+04  0.7818609E-02  0.8610710E-01
       -2   -1    0    0    0  501  0.00000000000E+00  0.00000000000E+00  0.41749086888E+03  0.41749086888E+03  0.25500000920E-02 0.  1.
        2   -1    0    0  501    0  0.00000000000E+00  0.00000000000E+00 -0.23744110879E+04  0.23744110879E+04  0.25500000920E-02 0. -1.
    10030    2    1    2    0    0  0.00000000000E+00  0.00000000000E+00 -0.19569202191E+04  0.27919019568E+04  0.19912759208E+04 0.  0.
        4    1    3    3  502    0 -0.59430111934E+03  0.21667790476E+03  0.99537112175E+02  0.64035332782E+03  0.12699999809E+01 0.  1.
       -4    1    3    3    0  502  0.59430111934E+03 -0.21667790476E+03 -0.20564573312E+04  0.21515486290E+04  0.12699999809E+01 0. -1.
</event>
<event>
 5   0  0.2110896E-05  0.1993263E+04  0.7818609E-02  0.8609777E-01
       -1   -1    0    0    0  501  0.00000000000E+00  0.00000000000E+00  0.60082093228E+03  0.60082093230E+03  0.50400001928E-02 0.  1.
        1   -1    0    0  501    0  0.00000000000E+00  0.00000000000E+00 -0.16531951680E+04  0.16531951680E+04  0.50400001928E-02 0. -1.
    10030    2    1    2    0    0  0.00000000000E+00  0.00000000000E+00 -0.10523742357E+04  0.22540161003E+04  0.19932629151E+04 0.  0.
        4    1    3    3  502    0 -0.87260279296E+03  0.67170774831E+02  0.12970970008E+02  0.87528132977E+03  0.12699999809E+01 0.  1.
       -4    1    3    3    0  502  0.87260279296E+03 -0.67170774831E+02 -0.10653452058E+04  0.13787347706E+04  0.12699999809E+01 0. -1.
</event>
<event>
 5   0  0.2110896E-05  0.1995209E+04  0.7818609E-02  0.8608864E-01
       -1   -1    0    0    0  501  0.00000000000E+00  0.00000000000E+00  0.45869961997E+03  0.45869962000E+03  0.50400001928E-02 0. -1.
        1   -1    0    0  501    0  0.00000000000E+00  0.00000000000E+00 -0.21696431667E+04  0.21696431667E+04  0.50400001928E-02 0.  1.
    10030    2    1    2    0    0  0.00000000000E+00  0.00000000000E+00 -0.17109435467E+04  0.26283427867E+04  0.19952087571E+04 0.  0.
        4    1    3    3  502    0 -0.29470777073E+03 -0.83999899474E+03 -0.14486522392E+04  0.17003075911E+04  0.12699999809E+01 0.  1.
       -4    1    3    3    0  502  0.29470777073E+03  0.83999899474E+03 -0.26229130745E+03  0.92803519554E+03  0.12699999809E+01 0. -1.
</event>
<event>
 5   0  0.2007644E-05  0.1999096E+04  0.7818609E-02  0.8607043E-01
        1   -1    0    0  501    0  0.00000000000E+00  0.00000000000E+00  0.12969845028E+04  0.12969845028E+04  0.50400001928E-02 0.  1.
       -1   -1    0    0    0  501  0.00000000000E+00  0.00000000000E+00 -0.77032257029E+03  0.77032257030E+03  0.50400001928E-02 0. -1.
    10030    2    1    2    0    0  0.00000000000E+00  0.00000000000E+00  0.52666193248E+03  0.20673070731E+04  0.19990962316E+04 0.  0.
        1    1    3    3  502    0 -0.91037320140E+03  0.40586153095E+03  0.34067247364E+03  0.10533568638E+04  0.50400001928E-02 0.  1.
       -1    1    3    3    0  502  0.91037320140E+03 -0.40586153095E+03  0.18598945884E+03  0.10139502093E+04  0.50400001928E-02 0. -1.
</event>
<event>
 5   0  0.4577279E-05  0.2005969E+04  0.7818609E-02  0.8603835E-01
        2   -1    0    0  501    0  0.00000000000E+00  0.00000000000E+00  0.14373852828E+04  0.14373852828E+04  0.25500000920E-02 0.  1.
       -2   -1    0    0    0  501  0.00000000000E+00  0.00000000000E+00 -0.69986682801E+03  0.69986682802E+03  0.25500000920E-02 0. -1.
    10030    2    1    2    0    0  0.00000000000E+00  0.00000000000E+00  0.73751845477E+03  0.21372521108E+04  0.20059693702E+04 0.  0.
        1    1    3    3  502    0  0.34933219337E+02  0.73654482409E+03 -0.35563413156E+03  0.81865392154E+03  0.50400001928E-02 0. -1.
       -1    1    3    3    0  502 -0.34933219337E+02 -0.73654482409E+03  0.10931525863E+04  0.13185981893E+04  0.50400001928E-02 0.  1.
</event>
<event>
 5   0  0.2142551E-05  0.1987972E+04  0.7818609E-02  0.8612265E-01
       -1   -1    0    0    0  501  0.00000000000E+00  0.00000000000E+00  0.67045688785E+03  0.67045688787E+03  0.50400001928E-02 0. -1.
        1   -1    0    0  501    0  0.00000000000E+00  0.00000000000E+00 -0.14736337481E+04  0.14736337481E+04  0.50400001928E-02 0.  1.
    10030    2    1    2    0    0  0.00000000000E+00  0.00000000000E+00 -0.80317686029E+03  0.21440906360E+04  0.19879717268E+04 0.  0.
        3    1    3    3  502    0  0.56825361357E+03 -0.75283611238E+02 -0.12774120629E+04  0.14001290584E+04  0.10100000352E+00 0.  1.
       -3    1    3    3    0  502 -0.56825361357E+03  0.75283611238E+02  0.47423520259E+03  0.74396157766E+03  0.10100000352E+00 0. -1.
</event>
<event>
 5   0  0.4473361E-05  0.1996544E+04  0.7818609E-02  0.8608238E-01
       -2   -1    0    0    0  501  0.00000000000E+00  0.00000000000E+00  0.90370948265E+03  0.90370948265E+03  0.25500000920E-02 0.  1.
        2   -1    0    0  501    0  0.00000000000E+00  0.00000000000E+00 -0.11027294772E+04  0.11027294772E+04  0.25500000920E-02 0. -1.
    10030    2    1    2    0    0  0.00000000000E+00  0.00000000000E+00 -0.19901999455E+03  0.20064389599E+04  0.19965440995E+04 0.  0.
        2    1    3    3  502    0 -0.88317980458E+03 -0.11459396358E+03  0.35373378117E+03  0.95826193269E+03  0.25500000920E-02 0.  1.
       -2    1    3    3    0  502  0.88317980458E+03  0.11459396358E+03 -0.55275377572E+03  0.10481770272E+04  0.25500000920E-02 0. -1.
</event>
<event>
 5   0  0.4514680E-05  0.2008044E+04  0.7818609E-02  0.8602869E-01
        2   -1    0    0  501    0  0.00000000000E+00  0.00000000000E+00  0.16030703561E+04  0.16030703561E+04  0.25500000920E-02 0.  1.
       -2   -1    0    0    0  501  0.00000000000E+00  0.00000000000E+00 -0.62883103236E+03  0.62883103237E+03  0.25500000920E-02 0. -1.
    10030    2    1    2    0    0  0.00000000000E+00  0.00000000000E+00  0.97423932374E+03  0.22319013885E+04  0.20080442097E+04 0.  0.
        3    1    3    3  502    0  0.10899133669E+03  0.56113442989E+03 -0.43031243077E+03  0.71548567991E+03  0.10100000352E+00 0. -1.
       -3    1    3    3    0  502 -0.10899133669E+03 -0.56113442989E+03  0.14045517545E+04  0.15164157086E+04  0.10100000352E+00 0.  1.
</event>
<event>
 5   0  0.1601500E-05  0.2004429E+04  0.7818609E-02  0.8604553E-01
       -3   -1    0    0    0  501  0.00000000000E+00  0.00000000000E+00  0.54950550178E+03  0.54950551106E+03  0.10100000352E+00 0.  1.
        3   -1    0    0  501    0  0.00000000000E+00  0.00000000000E+00 -0.18278866944E+04  0.18278866972E+04  0.10100000352E+00 0. -1.
    10030    2    1    2    0    0  0.00000000000E+00  0.00000000000E+00 -0.12783811926E+04  0.23773922082E+04  0.20044289057E+04 0.  0.
        5    1    3    3  502    0 -0.81340588031E+03  0.22596084168E+03  0.14234763717E+01  0.84422244959E+03  0.46999998093E+01 0.  1.
       -5    1    3    3    0  502  0.81340588031E+03 -0.22596084168E+03 -0.12798046690E+04  0.15331697586E+04  0.46999998093E+01 0. -1.
</event>
<event>
 5   0  0.2256868E-05  0.1998510E+04  0.7818609E-02  0.8607317E-01
       -1   -1    0    0    0  501  0.00000000000E+00  0.00000000000E+00  0.71891434530E+03  0.71891434531E+03  0.50400001928E-02 0.  1.
        1   -1    0    0  501    0  0.00000000000E+00  0.00000000000E+00 -0.13889150231E+04  0.13889150231E+04  0.50400001928E-02 0. -1.
    10030    2    1    2    0    0  0.00000000000E+00  0.00000000000E+00 -0.67000067781E+03  0.21078293684E+04  0.19985103798E+04 0.  0.
        5    1    3    3  502    0 -0.72865299104E+03  0.10093848789E+02 -0.10561035853E+04  0.12831266266E+04  0.46999998093E+01 0. -1.
       -5    1    3    3    0  502  0.72865299104E+03 -0.10093848789E+02  0.38610290748E+03  0.82470274178E+03  0.46999998093E+01 0.  1.
</event>
<event>
 5   0  0.4412054E-05  0.1997361E+04  0.7818609E-02  0.8607855E-01
       -2   -1    0    0    0  501  0.00000000000E+00  0.00000000000E+00  0.11046690427E+04  0.11046690428E+04  0.25500000920E-02 0.  1.
        2   -1    0    0  501    0  0.00000000000E+00  0.00000000000E+00 -0.90286127692E+03  0.90286127692E+03  0.25500000920E-02 0. -1.
    10030    2    1    2    0    0  0.00000000000E+00  0.00000000000E+00  0.20180776583E+03  0.20075303197E+04  0.19973611616E+04 0.  0.
        4    1    3    3  502    0 -0.72805425756E+03  0.67788893717E+03  0.12336708462E+02  0.99486191019E+03  0.12699999809E+01 0. -1.
       -4    1    3    3    0  502  0.72805425756E+03 -0.67788893717E+03  0.18947105737E+03  0.10126684095E+04  0.12699999809E+01 0.  1.
</event>
<event>
 5   0  0.4412054E-05  0.2000600E+04  0.7818609E-02  0.8606340E-01
        2   -1    0    0  501    0  0.00000000000E+00  0.00000000000E+00  0.44090127292E+03  0.44090127293E+03  0.25500000920E-02 0. -1.
       -2   -1    0    0    0  501  0.00000000000E+00  0.00000000000E+00 -0.22694418479E+04  0.22694418479E+04  0.25500000920E-02 0.  1.
    10030    2    1    2    0    0  0.00000000000E+00  0.00000000000E+00 -0.18285405750E+04  0.27103431208E+04  0.20005997096E+04 0.  0.
        4    1    3    3  502    0 -0.92359163874E+03 -0.33903121571E+03 -0.66953161688E+03  0.11900579311E+04  0.12699999809E+01 0. -1.
       -4    1    3    3    0  502  0.92359163874E+03  0.33903121571E+03 -0.11590089581E+04  0.15202851898E+04  0.12699999809E+01 0.  1.
</event>
<event>
 5   0  0.4473361E-05  0.1892433E+04  0.7818609E-02  0.8658632E-01
       -2   -1    0    0    0  501  0.00000000000E+00  0.00000000000E+00  0.53231613697E+03  0.53231613698E+03  0.25500000920E-02 0. -1.
        2   -1    0    0  501    0  0.00000000000E+00  0.00000000000E+00 -0.16819440097E+04  0.16819440097E+04  0.25500000920E-02 0.  1.
    10030    2    1    2    0    0  0.00000000000E+00  0.00000000000E+00 -0.11496278727E+04  0.22142601466E+04  0.18924332885E+04 0.  0.
        2    1    3    3  502    0  0.90232418280E+03  0.66256579026E+02 -0.25066919946E+03  0.93883646749E+03  0.25500000920E-02 0.  1.
       -2    1    3    3    0  502 -0.90232418280E+03 -0.66256579026E+02 -0.89895867323E+03  0.12754236791E+04  0.25500000920E-02 0. -1.
</event>
<event>
 5   0  0.2256868E-05  0.2009982E+04  0.7818609E-02  0.8601968E-01
       -1   -1    0    0    0  501  0.00000000000E+00  0.00000000000E+00  0.13148191383E+04  0.13148191383E+04  0.50400001928E-02 0.  1.
        1   -1    0    0  501    0  0.00000000000E+00  0.00000000000E+00 -0.76817175155E+03  0.76817175156E+03  0.50400001928E-02 0. -1.
    10030    2    1    2    0    0  0.00000000000E+00  0.00000000000E+00  0.54664738679E+03  0.20829908899E+04  0.20099820104E+04 0.  0.
        5    1    3    3  502    0  0.54741567319E+03 -0.27949932054E+03 -0.55066794272E+03  0.82525212061E+03  0.46999998093E+01 0. -1.
       -5    1    3    3    0  502 -0.54741567319E+03  0.27949932054E+03  0.10973153295E+04  0.12577387693E+04  0.46999998093E+01 0.  1.
</event>
<event>
 5   0  0.4514680E-05  0.1990328E+04  0.7818609E-02  0.8611156E-01
        2   -1    0    0  501    0  0.00000000000E+00  0.00000000000E+00  0.35810833872E+03  0.35810833873E+03  0.25500000920E-02 0.  1.
       -2   -1    0    0    0  501  0.00000000000E+00  0.00000000000E+00 -0.27655083935E+04  0.27655083935E+04  0.25500000920E-02 0. -1.
    10030    2    1    2    0    0  0.00000000000E+00  0.00000000000E+00 -0.24074000548E+04  0.31236167322E+04  0.19903282307E+04 0.  0.
        3    1    3    3  502    0 -0.64169657682E+03 -0.72623381998E+03 -0.15586808382E+04  0.18353953317E+04  0.10100000352E+00 0. -1.
       -3    1    3    3    0  502  0.64169657682E+03  0.72623381998E+03 -0.84871921652E+03  0.12882214005E+04  0.10100000352E+00 0.  1.
</event>
<event>
 5   0  0.1601500E-05  0.1987864E+04  0.7818609E-02  0.8612316E-01
        3   -1    0    0  501    0  0.00000000000E+00  0.00000000000E+00  0.76116656483E+03  0.76116657153E+03  0.10100000352E+00 0.  1.
       -3   -1    0    0    0  501  0.00000000000E+00  0.00000000000E+00 -0.12978774550E+04  0.12978774589E+04  0.10100000352E+00 0. -1.
    10030    2    1    2    0    0  0.00000000000E+00  0.00000000000E+00 -0.53671089013E+03  0.20590440304E+04  0.19878641150E+04 0.  0.
        4    1    3    3  502    0 -0.35326712329E+03  0.90085594192E+03 -0.50355493609E+03  0.10908291686E+04  0.12699999809E+01 0. -1.
       -4    1    3    3    0  502  0.35326712329E+03 -0.90085594192E+03 -0.33155954038E+02  0.96821486183E+03  0.12699999809E+01 0.  1.
</event>
<event>
 5   0  0.2142551E-05  0.1994425E+04  0.7818609E-02  0.8609231E-01
        1   -1    0    0  501    0  0.00000000000E+00  0.00000000000E+00  0.81544772903E+03  0.81544772905E+03  0.50400001928E-02 0. -1.
       -1   -1    0    0    0  501  0.00000000000E+00  0.00000000000E+00 -0.12194935576E+04  0.12194935576E+04  0.50400001928E-02 0.  1.
    10030    2    1    2    0    0  0.00000000000E+00  0.00000000000E+00 -0.40404582859E+03  0.20349412867E+04  0.19944254833E+04 0.  0.
        3    1    3    3  502    0  0.80920558929E+03 -0.58272419523E+03 -0.19466047609E+03  0.10160088014E+04  0.10100000352E+00 0.  1.
       -3    1    3    3    0  502 -0.80920558929E+03  0.58272419523E+03 -0.20938535250E+03  0.10189324852E+04  0.10100000352E+00 0. -1.
</event>
<event>
 5   0  0.1601500E-05  0.2003731E+04  0.7818609E-02  0.8604878E-01
       -3   -1    0    0    0  501  0.00000000000E+00  0.00000000000E+00  0.65630752729E+03  0.65630753506E+03  0.10100000352E+00 0. -1.
        3   -1    0    0  501    0  0.00000000000E+00  0.00000000000E+00 -0.15293665251E+04  0.15293665284E+04  0.10100000352E+00 0.  1.
    10030    2    1    2    0    0  0.00000000000E+00  0.00000000000E+00 -0.87305899777E+03  0.21856740635E+04  0.20037312939E+04 0.  0.
        4    1    3    3  502    0  0.77844241511E+03 -0.32107128649E+03 -0.10286589703E+04  0.13293608445E+04  0.12699999809E+01 0.  1.
       -4    1    3    3    0  502 -0.77844241511E+03  0.32107128649E+03  0.15559997257E+03  0.85631321899E+03  0.12699999809E+01 0. -1.
</event>
<event>
 5   0  0.4412054E-05  0.2021644E+04  0.7818609E-02  0.8596568E-01
       -2   -1    0    0    0  501  0.00000000000E+00  0.00000000000E+00  0.55395672865E+03  0.55395672866E+03  0.25500000920E-02 0. -1.
        2   -1    0    0  501    0  0.00000000000E+00  0.00000000000E+00 -0.18444784011E+04  0.18444784011E+04  0.25500000920E-02 0.  1.
    10030    2    1    2    0    0  0.00000000000E+00  0.00000000000E+00 -0.12905216724E+04  0.23984351298E+04  0.20216441043E+04 0.  0.
        4    1    3    3  502    0 -0.68009589304E+03  0.64693558786E+03 -0.20024468931E+03  0.95976852785E+03  0.12699999809E+01 0. -1.
       -4    1    3    3    0  502  0.68009589304E+03 -0.64693558786E+03 -0.10902769831E+04  0.14386666019E+04  0.12699999809E+01 0.  1.
</event>
<event>
 5   0  0.2110896E-05  0.1999551E+04  0.7818609E-02  0.8606830E-01
        1   -1    0    0  501    0  0.00000000000E+00  0.00000000000E+00  0.12162598093E+04  0.12162598093E+04  0.50400001928E-02 0. -1.
       -1   -1    0    0    0  501  0.00000000000E+00  0.00000000000E+00 -0.82182382656E+03  0.82182382658E+03  0.50400001928E-02 0.  1.
    10030    2    1    2    0    0  0.00000000000E+00  0.00000000000E+00  0.39443598269E+03  0.20380836358E+04  0.19995512402E+04 0.  0.
        4    1    3    3  502    0  0.67062137023E+03 -0.56483965081E+03  0.68686352432E+03  0.11138042769E+04  0.12699999809E+01 0. -1.
       -4    1    3    3    0  502 -0.67062137023E+03  0.56483965081E+03 -0.29242754163E+03  0.92427935892E+03  0.12699999809E+01 0.  1.
</event>
<event>
 5   0  0.2142551E-05  0.2000136E+04  0.7818609E-02  0.8606557E-01
        1   -1    0    0  501    0  0.00000000000E+00  0.00000000000E+00  0.98723581828E+03  0.98723581830E+03  0.50400001928E-02 0. -1.
       -1   -1    0    0    0  501  0.00000000000E+00  0.00000000000E+00 -0.10130669650E+04  0.10130669650E+04  0.50400001928E-02 0.  1.
    10030    2    1    2    0    0  0.00000000000E+00  0.00000000000E+00 -0.25831146693E+02  0.20003027833E+04  0.20001359895E+04 0.  0.
        3    1    3    3  502    0  0.78477600482E+03 -0.28230264171E+03  0.53900708735E+03  0.99302407305E+03  0.10100000352E+00 0. -1.
       -3    1    3    3    0  502 -0.78477600482E+03  0.28230264171E+03 -0.56483823404E+03  0.10072787102E+04  0.10100000352E+00 0.  1.
</event>
<event>
 5   0  0.4473361E-05  0.1991843E+04  0.7818609E-02  0.8610444E-01
        2   -1    0    0  501    0  0.00000000000E+00  0.00000000000E+00  0.18946805315E+04  0.18946805315E+04  0.25500000920E-02 0.  1.
       -2   -1    0    0    0  501  0.00000000000E+00  0.00000000000E+00 -0.52349727497E+03  0.52349727498E+03  0.25500000920E-02 0. -1.
    10030    2    1    2    0    0  0.00000000000E+00  0.00000000000E+00  0.13711832565E+04  0.24181778064E+04  0.19918434629E+04 0.  0.
        2    1    3    3  502    0  0.33399433556E+03  0.61090655952E+03  0.15501220560E+04  0.16993049842E+04  0.25500000920E-02 0.  1.
       -2    1    3    3    0  502 -0.33399433556E+03 -0.61090655952E+03 -0.17893879951E+03  0.71887282229E+03  0.25500000920E-02 0. -1.
</event>
<event>
 5   0  0.2142551E-05  0.2081771E+04  0.7818609E-02  0.8569316E-01
       -1   -1    0    0    0  501  0.00000000000E+00  0.00000000000E+00  0.44925496837E+03  0.44925496840E+03  0.50400001928E-02 0. -1.
        1   -1    0    0  501    0  0.00000000000E+00  0.00000000000E+00 -0.24116438289E+04  0.24116438289E+04  0.50400001928E-02 0.  1.
    10030    2    1    2    0    0  0.00000000000E+00  0.00000000000E+00 -0.19623888605E+04  0.28608987973E+04  0.20817713343E+04 0.  0.
        3    1    3    3  502    0 -0.62493673538E+03  0.24834536736E+03  0.11064909456E+03  0.68151638062E+03  0.10100000352E+00 0. -1.
       -3    1    3    3    0  502  0.62493673538E+03 -0.24834536736E+03 -0.20730379551E+04  0.21793824167E+04  0.10100000352E+00 0.  1.
</event>
<event>
 5   0  0.4412054E-05  0.1997567E+04  0.7818609E-02  0.8607759E-01
        2   -1    0    0  501    0  0.00000000000E+00  0.00000000000E+00  0.18786890269E+04  0.18786890269E+04  0.25500000920E-02 0.  1.
       -2   -1    0    0    0  501  0.00000000000E+00  0.00000000000E+00 -0.53099189533E+03  0.53099189534E+03  0.25500000920E-02 0. -1.
    10030    2    1    2    0    0  0.00000000000E+00  0.00000000000E+00  0.13476971316E+04  0.24096809223E+04  0.19975671675E+04 0.  0.
        4    1    3    3  502    0 -0.50291808419E+03  0.42754078572E+03 -0.23035887081E+03  0.69913127889E+03  0.12699999809E+01 0. -1.
       -4    1    3    3    0  502  0.50291808419E+03 -0.42754078572E+03  0.15780560024E+04  0.17105496434E+04  0.12699999809E+01 0.  1.
</event>
<event>
 5   0  0.4577279E-05  0.1997618E+04  0.7818609E-02  0.8607735E-01
       -2   -1    0    0    0  501  0.00000000000E+00  0.00000000000E+00  0.82901238372E+03  0.82901238372E+03  0.25500000920E-02 0. -1.
        2   -1    0    0  501    0  0.00000000000E+00  0.00000000000E+00 -0.12033825769E+04  0.12033825769E+04  0.25500000920E-02 0.  1.
    10030    2    1    2    0    0  0.00000000000E+00  0.00000000000E+00 -0.37437019322E+03  0.20323949607E+04  0.19976176397E+04 0.  0.
        1    1    3    3  502    0  0.22700882790E+02 -0.25422116932E+03  0.79527386711E+03  0.83522706897E+03  0.50400001928E-02 0. -1.
       -1    1    3    3    0  502 -0.22700882790E+02  0.25422116932E+03 -0.11696440603E+04  0.11971678917E+04  0.50400001928E-02 0.  1.
</event>
<event>
 5   0  0.4577279E-05  0.2024393E+04  0.7818609E-02  0.8595300E-01
       -2   -1    0    0    0  501  0.00000000000E+00  0.00000000000E+00  0.13311560313E+04  0.13311560313E+04  0.25500000920E-02 0.  1.
        2   -1    0    0  501    0  0.00000000000E+00  0.00000000000E+00 -0.76966329163E+03  0.76966329164E+03  0.25500000920E-02 0. -1.
    10030    2    1    2    0    0  0.00000000000E+00  0.00000000000E+00  0.56149273966E+03  0.21008193229E+04  0.20243931760E+04 0.  0.
        1    1    3    3  502    0 -0.21225673925E+02 -0.15725913581E+02  0.13307982441E+04  0.13310604043E+04  0.50400001928E-02 0.  1.
       -1    1    3    3    0  502  0.21225673925E+02  0.15725913581E+02 -0.76930550441E+03  0.76975891858E+03  0.50400001928E-02 0. -1.
</event>
<event>
 5   0  0.4514680E-05  0.2010299E+04  0.7818609E-02  0.8601821E-01
       -2   -1    0    0    0  501  0.00000000000E+00  0.00000000000E+00  0.88051953485E+03  0.88051953485E+03  0.25500000920E-02 0.  1.
        2   -1    0    0  501    0  0.00000000000E+00  0.00000000000E+00 -0.11474193983E+04  0.11474193983E+04  0.25500000920E-02 0. -1.
    10030    2    1    2    0    0  0.00000000000E+00  0.00000000000E+00 -0.26689986347E+03  0.20279389332E+04  0.20102986792E+04 0.  0.
        3    1    3    3  502    0 -0.74423822718E+03 -0.58082863755E+03 -0.48154707476E+03  0.10597830157E+04  0.10100000352E+00 0.  1.
       -3    1    3    3    0  502  0.74423822718E+03  0.58082863755E+03  0.21464721129E+03  0.96815591746E+03  0.10100000352E+00 0. -1.
</event>
<event>
 5   0  0.4447313E-05  0.1978776E+04  0.7818609E-02  0.8616608E-01
       -2   -1    0    0    0  501  0.00000000000E+00  0.00000000000E+00  0.63664693868E+03  0.63664693869E+03  0.25500000920E-02 0.  1.
        2   -1    0    0  501    0  0.00000000000E+00  0.00000000000E+00 -0.15375693624E+04  0.15375693624E+04  0.25500000920E-02 0. -1.
    10030    2    1    2    0    0  0.00000000000E+00  0.00000000000E+00 -0.90092242371E+03  0.21742163011E+04  0.19787762153E+04 0.  0.
        5    1    3    3  502    0  0.22643441743E+03  0.39513172866E+03 -0.14155432007E+04  0.14870058075E+04  0.46999998093E+01 0. -1.
       -5    1    3    3    0  502 -0.22643441743E+03 -0.39513172866E+03  0.51462077700E+03  0.68721049360E+03  0.46999998093E+01 0.  1.
</event>
<event>
 5   0  0.2142551E-05  0.2002033E+04  0.7818609E-02  0.8605671E-01
       -1   -1    0    0    0  501  0.00000000000E+00  0.00000000000E+00  0.81010269679E+03  0.81010269681E+03  0.50400001928E-02 0. -1.
        1   -1    0    0  501    0  0.00000000000E+00  0.00000000000E+00 -0.12369225158E+04  0.12369225158E+04  0.50400001928E-02 0.  1.
    10030    2    1    2    0    0  0.00000000000E+00  0.00000000000E+00 -0.42681981903E+03  0.20470252126E+04  0.20020332323E+04 0.  0.
        3    1    3    3  502    0 -0.13703586058E+03  0.75676616185E+03  0.44173963143E+03  0.88690910638E+03  0.10100000352E+00 0. -1.
       -3    1    3    3    0  502  0.13703586058E+03 -0.75676616185E+03 -0.86855945046E+03  0.11601161063E+04  0.10100000352E+00 0.  1.
</event>
<event>
 5   0  0.2110896E-05  0.1999152E+04  0.7818609E-02  0.8607017E-01
        1   -1    0    0  501    0  0.00000000000E+00  0.00000000000E+00  0.15401557793E+04  0.15401557793E+04  0.50400001928E-02 0.  1.
       -1   -1    0    0    0  501  0.00000000000E+00  0.00000000000E+00 -0.64873470816E+03  0.64873470818E+03  0.50400001928E-02 0. -1.
    10030    2    1    2    0    0  0.00000000000E+00  0.00000000000E+00  0.89142107114E+03  0.21888904875E+04  0.19991523304E+04 0.  0.
        4    1    3    3  502    0  0.54941825677E+03  0.49520257640E+03 -0.29046017245E+03  0.79464126322E+03  0.12699999809E+01 0. -1.
       -4    1    3    3    0  502 -0.54941825677E+03 -0.49520257640E+03  0.11818812436E+04  0.13942492243E+04  0.12699999809E+01 0.  1.
</event>
<event>
 5   0  0.4412054E-05  0.1974709E+04  0.7818609E-02  0.8618537E-01
        2   -1    0    0  501    0  0.00000000000E+00  0.00000000000E+00  0.72314053842E+03  0.72314053842E+03  0.25500000920E-02 0.  1.
       -2   -1    0    0    0  501  0.00000000000E+00  0.00000000000E+00 -0.13481048690E+04  0.13481048690E+04  0.25500000920E-02 0. -1.
    10030    2    1    2    0    0  0.00000000000E+00  0.00000000000E+00 -0.62496433054E+03  0.20712454074E+04  0.19747093769E+04 0.  0.
        4    1    3    3  502    0 -0.70953033745E+03 -0.67305466316E+03 -0.45488286048E+03  0.10785897779E+04  0.12699999809E+01 0. -1.
       -4    1    3    3    0  502  0.70953033745E+03  0.67305466316E+03 -0.17008147007E+03  0.99265562947E+03  0.12699999809E+01 0.  1.
</event>
<event>
 5   0  0.2142551E-05  0.2012101E+04  0.7818609E-02  0.8600984E-01
        1   -1    0    0  501    0  0.00000000000E+00  0.00000000000E+00  0.71811865089E+03  0.71811865091E+03  0.50400001928E-02 0. -1.
       -1   -1    0    0    0  501  0.00000000000E+00  0.00000000000E+00 -0.14094294996E+04  0.14094294996E+04  0.50400001928E-02 0.  1.
    10030    2    1    2    0    0  0.00000000000E+00  0.00000000000E+00 -0.69131084867E+03  0.21275481505E+04  0.20121010022E+04 0.  0.
        3    1    3    3  502    0 -0.98792167354E+03 -0.15008441916E+03 -0.46907002748E+03  0.11038755667E+04  0.10100000352E+00 0.  1.
       -3    1    3    3    0  502  0.98792167354E+03  0.15008441916E+03 -0.22224082120E+03  0.10236725838E+04  0.10100000352E+00 0. -1.
</event>
<event>
 5   0  0.2093980E-05  0.1989097E+04  0.7818609E-02  0.8611735E-01
       -1   -1    0    0    0  501  0.00000000000E+00  0.00000000000E+00  0.14823597477E+04  0.14823597477E+04  0.50400001928E-02 0.  1.
        1   -1    0    0  501    0  0.00000000000E+00  0.00000000000E+00 -0.66726467118E+03  0.66726467120E+03  0.50400001928E-02 0. -1.
    10030    2    1    2    0    0  0.00000000000E+00  0.00000000000E+00  0.81509507652E+03  0.21496244189E+04  0.19890965684E+04 0.  0.
        2    1    3    3  502    0  0.45045769768E+03  0.78712296896E+03  0.84872309422E+03  0.12420972572E+04  0.25500000920E-02 0.  1.
       -2    1    3    3    0  502 -0.45045769768E+03 -0.78712296896E+03 -0.33628017698E+02  0.90752716171E+03  0.25500000920E-02 0. -1.
</event>
<event>
 5   0  0.2142551E-05  0.2004919E+04  0.7818609E-02  0.8604324E-01
       -1   -1    0    0    0  501  0.00000000000E+00  0.00000000000E+00  0.62143985818E+03  0.62143985820E+03  0.50400001928E-02 0. -1.
        1   -1    0    0  501    0  0.00000000000E+00  0.00000000000E+00 -0.16170920526E+04  0.16170920526E+04  0.50400001928E-02 0.  1.
    10030    2    1    2    0    0  0.00000000000E+00  0.00000000000E+00 -0.99565219438E+03  0.22385319108E+04  0.20049194057E+04 0.  0.
        3    1    3    3  502    0  0.10065771203E+03 -0.13037305619E+03  0.60622855801E+03  0.62820552650E+03  0.10100000352E+00 0. -1.
       -3    1    3    3    0  502 -0.10065771203E+03  0.13037305619E+03 -0.16018807524E+04  0.16103263843E+04  0.10100000352E+00 0.  1.
</event>
<event>
 5   0  0.2142551E-05  0.1996947E+04  0.7818609E-02  0.8608049E-01
       -1   -1    0    0    0  501  0.00000000000E+00  0.00000000000E+00  0.11225380452E+04  0.11225380452E+04  0.50400001928E-02 0.  1.
        1   -1    0    0  501    0  0.00000000000E+00  0.00000000000E+00 -0.88812058692E+03  0.88812058694E+03  0.50400001928E-02 0. -1.
    10030    2    1    2    0    0  0.00000000000E+00  0.00000000000E+00  0.23441745824E+03  0.20106586321E+04  0.19969468171E+04 0.  0.
        3    1    3    3  502    0  0.71479465960E+03 -0.48001548282E+03  0.62625200526E+03  0.10646773471E+04  0.10100000352E+00 0. -1.
       -3    1    3    3    0  502 -0.71479465960E+03  0.48001548282E+03 -0.39183454702E+03  0.94598128501E+03  0.10100000352E+00 0.  1.
</event>
<event>
 5   0  0.2256868E-05  0.2011106E+04  0.7818609E-02  0.8601446E-01
       -1   -1    0    0    0  501  0.00000000000E+00  0.00000000000E+00  0.10572866904E+04  0.10572866904E+04  0.50400001928E-02 0. -1.
        1   -1    0    0  501    0  0.00000000000E+00  0.00000000000E+00 -0.95635034250E+03  0.95635034252E+03  0.50400001928E-02 0.  1.
    10030    2    1    2    0    0  0.00000000000E+00  0.00000000000E+00  0.10093634786E+03  0.20136370329E+04  0.20111056546E+04 0.  0.
        5    1    3    3  502    0 -0.84942701284E+03  0.32599846946E+03 -0.37822158466E+03  0.98532984799E+03  0.46999998093E+01 0.  1.
       -5    1    3    3    0  502  0.84942701284E+03 -0.32599846946E+03  0.47915793252E+03  0.10283071849E+04  0.46999998093E+01 0. -1.
</event>
<event>
 5   0  0.2093980E-05  0.1985481E+04  0.7818609E-02  0.8613439E-01
        1   -1    0    0  501    0  0.00000000000E+00  0.00000000000E+00  0.11105017813E+04  0.11105017813E+04  0.50400001928E-02 0.  1.
       -1   -1    0    0    0  501  0.00000000000E+00  0.00000000000E+00 -0.88746713447E+03  0.88746713449E+03  0.50400001928E-02 0. -1.
    10030    2    1    2    0    0  0.00000000000E+00  0.00000000000E+00  0.22303464685E+03  0.19979689158E+04  0.19854811344E+04 0.  0.
        2    1    3    3  502    0 -0.77383249352E+03 -0.61488977054E+03  0.18047833942E+02  0.98855039439E+03  0.25500000920E-02 0. -1.
       -2    1    3    3    0  502  0.77383249352E+03  0.61488977054E+03  0.20498681291E+03  0.10094185214E+04  0.25500000920E-02 0.  1.
</event>
<event>
 5   0  0.2093980E-05  0.1999478E+04  0.7818609E-02  0.8606865E-01
        1   -1    0    0  501    0  0.00000000000E+00  0.00000000000E+00  0.17958525313E+04  0.17958525313E+04  0.50400001928E-02 0.  1.
       -1   -1    0    0    0  501  0.00000000000E+00  0.00000000000E+00 -0.55654813282E+03  0.55654813284E+03  0.50400001928E-02 0. -1.
    10030    2    1    2    0    0  0.00000000000E+00  0.00000000000E+00  0.12393043985E+04  0.23524006641E+04  0.19994783051E+04 0.  0.
        2    1    3    3  502    0  0.52013187895E+03 -0.14526481529E+03 -0.37018083476E+03  0.65473115741E+03  0.25500000920E-02 0. -1.
       -2    1    3    3    0  502 -0.52013187895E+03  0.14526481529E+03  0.16094852332E+04  0.16976695067E+04  0.25500000920E-02 0.  1.
</event>
<event>
 5   0  0.4447313E-05  0.2003378E+04  0.7818609E-02  0.8605043E-01
        2   -1    0    0  501    0  0.00000000000E+00  0.00000000000E+00  0.16090238495E+04  0.16090238495E+04  0.25500000920E-02 0.  1.
       -2   -1    0    0    0  501  0.00000000000E+00  0.00000000000E+00 -0.62359585923E+03  0.62359585924E+03  0.25500000920E-02 0. -1.
    10030    2    1    2    0    0  0.00000000000E+00  0.00000000000E+00  0.98542799029E+03  0.22326197088E+04  0.20033777577E+04 0.  0.
        5    1    3    3  502    0 -0.92869911020E+03 -0.29707314540E+03  0.74836291026E+03  0.12291475202E+04  0.46999998093E+01 0.  1.
       -5    1    3    3    0  502  0.92869911020E+03  0.29707314540E+03  0.23706508002E+03  0.10034721885E+04  0.46999998093E+01 0. -1.
</event>
<event>
 5   0  0.2142551E-05  0.2012099E+04  0.7818609E-02  0.8600985E-01
       -1   -1    0    0    0  501  0.00000000000E+00  0.00000000000E+00  0.81069189409E+03  0.81069189411E+03  0.50400001928E-02 0. -1.
        1   -1    0    0  501    0  0.00000000000E+00  0.00000000000E+00 -0.12484836663E+04  0.12484836663E+04  0.50400001928E-02 0.  1.
    10030    2    1    2    0    0  0.00000000000E+00  0.00000000000E+00 -0.43779177223E+03  0.20591755604E+04  0.20120989918E+04 0.  0.
        3    1    3    3  502    0 -0.10045387713E+04 -0.33802488038E+02 -0.17434782700E+03  0.10201166238E+04  0.10100000352E+00 0.  1.
       -3    1    3    3    0  502  0.10045387713E+04  0.33802488038E+02 -0.26344394523E+03  0.10390589366E+04  0.10100000352E+00 0. -1.
</event>
<event>
 5   0  0.4447313E-05  0.2035091E+04  0.7818609E-02  0.8590388E-01
       -2   -1    0    0    0  501  0.00000000000E+00  0.00000000000E+00  0.53469012565E+03  0.53469012566E+03  0.25500000920E-02 0.  1.
        2   -1    0    0  501    0  0.00000000000E+00  0.00000000000E+00 -0.19364458142E+04  0.19364458142E+04  0.25500000920E-02 0. -1.
    10030    2    1    2    0    0  0.00000000000E+00  0.00000000000E+00 -0.14017556885E+04  0.24711359398E+04  0.20350906178E+04 0.  0.
        5    1    3    3  502    0 -0.71766140315E+03 -0.43302438355E+03 -0.14014018898E+04  0.16329413195E+04  0.46999998093E+01 0. -1.
       -5    1    3    3    0  502  0.71766140315E+03  0.43302438355E+03 -0.35379871950E+00  0.83819462030E+03  0.46999998093E+01 0.  1.
</event>
<event>
 5   0  0.2142551E-05  0.1977694E+04  0.7818609E-02  0.8617121E-01
       -1   -1    0    0    0  501  0.00000000000E+00  0.00000000000E+00  0.56708924797E+03  0.56708924799E+03  0.50400001928E-02 0.  1.
        1   -1    0    0  501    0  0.00000000000E+00  0.00000000000E+00 -0.17242763953E+04  0.17242763953E+04  0.50400001928E-02 0. -1.
    10030    2    1    2    0    0  0.00000000000E+00  0.00000000000E+00 -0.11571871473E+04  0.22913656433E+04  0.19776942174E+04 0.  0.
        3    1    3    3  502    0  0.70834590793E+03  0.42378910117E+03  0.52253037476E+02  0.82709220627E+03  0.10100000352E+00 0.  1.
       -3    1    3    3    0  502 -0.70834590793E+03 -0.42378910117E+03 -0.12094401848E+04  0.14642734370E+04  0.10100000352E+00 0. -1.
</event>
<event>
 5   0  0.4412054E-05  0.2000846E+04  0.7818609E-02  0.8606225E-01
       -2   -1    0    0    0  501  0.00000000000E+00  0.00000000000E+00  0.15222885518E+04  0.15222885518E+04  0.25500000920E-02 0.  1.
        2   -1    0    0  501    0  0.00000000000E+00  0.00000000000E+00 -0.65746147056E+03  0.65746147057E+03  0.25500000920E-02 0. -1.
    10030    2    1    2    0    0  0.00000000000E+00  0.00000000000E+00  0.86482708125E+03  0.21797500224E+04  0.20008458910E+04 0.  0.
        4    1    3    3  502    0 -0.59078855628E+03 -0.58542093310E+03 -0.17326126915E+03  0.84957040170E+03  0.12699999809E+01 0. -1.
       -4    1    3    3    0  502  0.59078855628E+03  0.58542093310E+03  0.10380883504E+04  0.13301796207E+04  0.12699999809E+01 0.  1.
</event>
<event>
 5   0  0.2110896E-05  0.2003046E+04  0.7818609E-02  0.8605198E-01
        1   -1    0    0  501    0  0.00000000000E+00  0.00000000000E+00  0.11872178720E+04  0.11872178720E+04  0.50400001928E-02 0. -1.
       -1   -1    0    0    0  501  0.00000000000E+00  0.00000000000E+00 -0.84487294813E+03  0.84487294815E+03  0.50400001928E-02 0.  1.
    10030    2    1    2    0    0  0.00000000000E+00  0.00000000000E+00  0.34234492388E+03  0.20320908202E+04  0.20030459442E+04 0.  0.
        4    1    3    3  502    0 -0.57771091221E+03  0.29081273961E+03  0.94693342918E+03  0.11467373194E+04  0.12699999809E+01 0. -1.
       -4    1    3    3    0  502  0.57771091221E+03 -0.29081273961E+03 -0.60458850530E+03  0.88535350073E+03  0.12699999809E+01 0.  1.
</event>
<event>
 5   0  0.4412054E-05  0.1997283E+04  0.7818609E-02  0.8607892E-01
        2   -1    0    0  501    0  0.00000000000E+00  0.00000000000E+00  0.90954331465E+03  0.90954331466E+03  0.25500000920E-02 0. -1.
       -2   -1    0    0    0  501  0.00000000000E+00  0.00000000000E+00 -0.10964674513E+04  0.10964674513E+04  0.25500000920E-02 0.  1.
    10030    2    1    2    0    0  0.00000000000E+00  0.00000000000E+00 -0.18692413669E+03  0.20060107660E+04  0.19972827943E+04 0.  0.
        4    1    3    3  502    0 -0.95688886493E+03  0.27627040466E+03 -0.16672870907E+03  0.10098325166E+04  0.12699999809E+01 0. -1.
       -4    1    3    3    0  502  0.95688886493E+03 -0.27627040466E+03 -0.20195427622E+02  0.99617824937E+03  0.12699999809E+01 0.  1.
</event>
<event>
 5   0  0.4473361E-05  0.1966637E+04  0.7818609E-02  0.8622380E-01
       -2   -1    0    0    0  501  0.00000000000E+00  0.00000000000E+00  0.98316838549E+03  0.98316838549E+03  0.25500000920E-02 0. -1.
        2   -1    0    0  501    0  0.00000000000E+00  0.00000000000E+00 -0.98346840312E+03  0.98346840312E+03  0.25500000920E-02 0.  1.
    10030    2    1    2    0    0  0.00000000000E+00  0.00000000000E+00 -0.30001763274E+00  0.19666367886E+04  0.19666367657E+04 0.  0.
        2    1    3    3  502    0  0.97374175006E+03  0.24530092210E+01  0.13672960780E+03  0.98329751282E+03  0.25500000920E-02 0.  1.
       -2    1    3    3    0  502 -0.97374175006E+03 -0.24530092210E+01 -0.13702962543E+03  0.98333927579E+03  0.25500000920E-02 0. -1.
</event>
<event>
 5   0  0.2007644E-05  0.1999887E+04  0.7818609E-02  0.8606674E-01
        1   -1    0    0  501    0  0.00000000000E+00  0.00000000000E+00  0.63513731417E+03  0.63513731419E+03  0.50400001928E-02 0.  1.
       -1   -1    0    0    0  501  0.00000000000E+00  0.00000000000E+00 -0.15742846066E+04  0.15742846066E+04  0.50400001928E-02 0. -1.
    10030    2    1    2    0    0  0.00000000000E+00  0.00000000000E+00 -0.93914729243E+03  0.22094219208E+04  0.19998868936E+04 0.  0.
        1    1    3    3  502    0 -0.36991789041E+03 -0.86041428879E+03 -0.82532385361E+02  0.94019337833E+03  0.50400001928E-02 0.  1.
       -1    1    3    3    0  502  0.36991789041E+03  0.86041428879E+03 -0.85661490707E+03  0.12692285425E+04  0.50400001928E-02 0. -1.
</event>
<event>
 5   0  0.1601500E-05  0.1990401E+04  0.7818609E-02  0.8611122E-01
       -3   -1    0    0    0  501  0.00000000000E+00  0.00000000000E+00  0.13755101666E+04  0.13755101703E+04  0.10100000352E+00 0. -1.
        3   -1    0    0  501    0  0.00000000000E+00  0.00000000000E+00 -0.72004109090E+03  0.72004109799E+03  0.10100000352E+00 0.  1.
    10030    2    1    2    0    0  0.00000000000E+00  0.00000000000E+00  0.65546907566E+03  0.20955512683E+04  0.19904008161E+04 0.  0.
        1    1    3    3  502    0 -0.77573273622E+03  0.40339024983E+03  0.82817594385E+03  0.12043090823E+04  0.50400001928E-02 0.  1.
       -1    1    3    3    0  502  0.77573273622E+03 -0.40339024983E+03 -0.17270686818E+03  0.89124218597E+03  0.50400001928E-02 0. -1.
</event>
<event>
 5   0  0.2007644E-05  0.1911294E+04  0.7818609E-02  0.8649255E-01
        1   -1    0    0  501    0  0.00000000000E+00  0.00000000000E+00  0.14121872409E+04  0.14121872409E+04  0.50400001928E-02 0. -1.
       -1   -1    0    0    0  501  0.00000000000E+00  0.00000000000E+00 -0.64669953641E+03  0.64669953643E+03  0.50400001928E-02 0.  1.
    10030    2    1    2    0    0  0.00000000000E+00  0.00000000000E+00  0.76548770446E+03  0.20588867773E+04  0.19112936290E+04 0.  0.
        1    1    3    3  502    0 -0.57884412089E+03  0.39699377261E+03  0.10813586119E+04  0.12891861849E+04  0.50400001928E-02 0. -1.
       -1    1    3    3    0  502  0.57884412089E+03 -0.39699377261E+03 -0.31587090743E+03  0.76970059242E+03  0.50400001928E-02 0.  1.
</event>
<event>
 5   0  0.4447313E-05  0.1980616E+04  0.7818609E-02  0.8615738E-01
        2   -1    0    0  501    0  0.00000000000E+00  0.00000000000E+00  0.23029710131E+04  0.23029710131E+04  0.25500000920E-02 0. -1.
       -2   -1    0    0    0  501  0.00000000000E+00  0.00000000000E+00 -0.42584533968E+03  0.42584533969E+03  0.25500000920E-02 0.  1.
    10030    2    1    2    0    0  0.00000000000E+00  0.00000000000E+00  0.18771256734E+04  0.27288163527E+04  0.19806155340E+04 0.  0.
        5    1    3    3  502    0 -0.24221423563E+03 -0.16290278977E+02  0.22613248307E+04  0.22743230177E+04  0.46999998093E+01 0. -1.
       -5    1    3    3    0  502  0.24221423563E+03  0.16290278977E+02 -0.38419915729E+03  0.45449333503E+03  0.46999998093E+01 0.  1.
</event>
<event>
 5   0  0.4514680E-05  0.1995758E+04  0.7818609E-02  0.8608607E-01
       -2   -1    0    0    0  501  0.00000000000E+00  0.00000000000E+00  0.90865603832E+03  0.90865603832E+03  0.25500000920E-02 0. -1.
        2   -1    0    0  501    0  0.00000000000E+00  0.00000000000E+00 -0.10958624679E+04  0.10958624679E+04  0.25500000920E-02 0.  1.
    10030    2    1    2    0    0  0.00000000000E+00  0.00000000000E+00 -0.18720642955E+03  0.20045185062E+04  0.19957575490E+04 0.  0.
        3    1    3    3  502    0 -0.53009831463E+03 -0.81145658711E+03 -0.33191259934E+03  0.10245154951E+04  0.10100000352E+00 0.  1.
       -3    1    3    3    0  502  0.53009831463E+03  0.81145658711E+03  0.14470616980E+03  0.98000301107E+03  0.10100000352E+00 0. -1.
</event>
<event>
 5   0  0.4447313E-05  0.1993427E+04  0.7818609E-02  0.8609700E-01
       -2   -1    0    0    0  501  0.00000000000E+00  0.00000000000E+00  0.15302046528E+04  0.15302046528E+04  0.25500000920E-02 0.  1.
        2   -1    0    0  501    0  0.00000000000E+00  0.00000000000E+00 -0.64921899426E+03  0.64921899426E+03  0.25500000920E-02 0. -1.
    10030    2    1    2    0    0  0.00000000000E+00  0.00000000000E+00  0.88098565853E+03  0.21794236471E+04  0.19934271250E+04 0.  0.
        5    1    3    3  502    0 -0.28959393378E+03  0.34686285080E+03  0.14117743154E+04  0.14823317076E+04  0.46999998093E+01 0.  1.
       -5    1    3    3    0  502  0.28959393378E+03 -0.34686285080E+03 -0.53078865689E+03  0.69709193944E+03  0.46999998093E+01 0. -1.
</event>
<event>
 5   0  0.2093980E-05  0.1983789E+04  0.7818609E-02  0.8614238E-01
       -1   -1    0    0    0  501  0.00000000000E+00  0.00000000000E+00  0.66896881634E+03  0.66896881636E+03  0.50400001928E-02 0. -1.
        1   -1    0    0  501    0  0.00000000000E+00  0.00000000000E+00 -0.14707027492E+04  0.14707027492E+04  0.50400001928E-02 0.  1.
    10030    2    1    2    0    0  0.00000000000E+00  0.00000000000E+00 -0.80173393290E+03  0.21396715656E+04  0.19837885748E+04 0.  0.
        2    1    3    3  502    0  0.97752316493E+03 -0.54156063111E+02 -0.22907186834E+03  0.10054642401E+04  0.25500000920E-02 0. -1.
       -2    1    3    3    0  502 -0.97752316493E+03  0.54156063111E+02 -0.57266206456E+03  0.11342073256E+04  0.25500000920E-02 0.  1.
</event>
<event>
 5   0  0.4412054E-05  0.2000532E+04  0.7818609E-02  0.8606372E-01
        2   -1    0    0  501    0  0.00000000000E+00  0.00000000000E+00  0.24352452706E+04  0.24352452706E+04  0.25500000920E-02 0.  1.
       -2   -1    0    0    0  501  0.00000000000E+00  0.00000000000E+00 -0.41085455865E+03  0.41085455866E+03  0.25500000920E-02 0. -1.
    10030    2    1    2    0    0  0.00000000000E+00  0.00000000000E+00  0.20243907119E+04  0.28460998292E+04  0.20005315502E+04 0.  0.
        4    1    3    3  502    0 -0.53499732243E+03  0.83257058985E+03  0.80537348720E+03  0.12759404331E+04  0.12699999809E+01 0. -1.
       -4    1    3    3    0  502  0.53499732243E+03 -0.83257058985E+03  0.12190172247E+04  0.15701593961E+04  0.12699999809E+01 0.  1.
</event>
<event>
 5   0  0.2007644E-05  0.2010703E+04  0.7818609E-02  0.8601633E-01
        1   -1    0    0  501    0  0.00000000000E+00  0.00000000000E+00  0.14744333098E+04  0.14744333098E+04  0.50400001928E-02 0. -1.
       -1   -1    0    0    0  501  0.00000000000E+00  0.00000000000E+00 -0.68550506909E+03  0.68550506910E+03  0.50400001928E-02 0.  1.
    10030    2    1    2    0    0  0.00000000000E+00  0.00000000000E+00  0.78892824075E+03  0.21599383790E+04  0.20107028701E+04 0.  0.
        1    1    3    3  502    0 -0.55257974528E+03 -0.83305713464E+03  0.27975394364E+03  0.10380707266E+04  0.50400001928E-02 0.  1.
       -1    1    3    3    0  502  0.55257974528E+03  0.83305713464E+03  0.50917429712E+03  0.11218676523E+04  0.50400001928E-02 0. -1.
</event>
<event>
 5   0  0.4514680E-05  0.2005248E+04  0.7818609E-02  0.8604171E-01
       -2   -1    0    0    0  501  0.00000000000E+00  0.00000000000E+00  0.77453080627E+03  0.77453080627E+03  0.25500000920E-02 0.  1.
        2   -1    0    0  501    0  0.00000000000E+00  0.00000000000E+00 -0.12978891809E+04  0.12978891809E+04  0.25500000920E-02 0. -1.
    10030    2    1    2    0    0  0.00000000000E+00  0.00000000000E+00 -0.52335837462E+03  0.20724199872E+04  0.20052482676E+04 0.  0.
        3    1    3    3  502    0 -0.78956505349E+03 -0.26078322977E+03 -0.84065418543E+03  0.11824213869E+04  0.10100000352E+00 0. -1.
       -3    1    3    3    0  502  0.78956505349E+03  0.26078322977E+03  0.31729581081E+03  0.88999860021E+03  0.10100000352E+00 0.  1.
</event>
<event>
 5   0  0.2007644E-05  0.2002124E+04  0.7818609E-02  0.8605628E-01
       -1   -1    0    0    0  501  0.00000000000E+00  0.00000000000E+00  0.72586031600E+03  0.72586031601E+03  0.50400001928E-02 0. -1.
        1   -1    0    0  501    0  0.00000000000E+00  0.00000000000E+00 -0.13806036057E+04  0.13806036058E+04  0.50400001928E-02 0.  1.
    10030    2    1    2    0    0  0.00000000000E+00  0.00000000000E+00 -0.65474328975E+03  0.21064639218E+04  0.20021242415E+04 0.  0.
        1    1    3    3  502    0  0.89517398124E+03 -0.22069863870E+03 -0.73767069806E+03  0.11807634838E+04  0.50400001928E-02 0.  1.
       -1    1    3    3    0  502 -0.89517398124E+03  0.22069863870E+03  0.82927408317E+02  0.92570043799E+03  0.50400001928E-02 0. -1.
</event>
<event>
 5   0  0.4447313E-05  0.1992386E+04  0.7818609E-02  0.8610189E-01
        2   -1    0    0  501    0  0.00000000000E+00  0.00000000000E+00  0.10925537524E+04  0.10925537524E+04  0.25500000920E-02 0. -1.
       -2   -1    0    0    0  501  0.00000000000E+00  0.00000000000E+00 -0.90833134674E+03  0.90833134674E+03  0.25500000920E-02 0.  1.
    10030    2    1    2    0    0  0.00000000000E+00  0.00000000000E+00  0.18422240568E+03  0.20008850992E+04  0.19923863293E+04 0.  0.
        5    1    3    3  502    0 -0.19192417042E+03 -0.32827998279E+03 -0.83256393469E+03  0.91530728700E+03  0.46999998093E+01 0.  1.
       -5    1    3    3    0  502  0.19192417042E+03  0.32827998279E+03  0.10167863404E+04  0.10855778122E+04  0.46999998093E+01 0. -1.
</event>
<event>
 5   0  0.1601500E-05  0.1999740E+04  0.7818609E-02  0.8606742E-01
       -3   -1    0    0    0  501  0.00000000000E+00  0.00000000000E+00  0.10369281011E+04  0.10369281060E+04  0.10100000352E+00 0.  1.
        3   -1    0    0  501    0  0.00000000000E+00  0.00000000000E+00 -0.96413581856E+03  0.96413582385E+03  0.10100000352E+00 0. -1.
    10030    2    1    2    0    0  0.00000000000E+00  0.00000000000E+00  0.72792282542E+02  0.20010639299E+04  0.19997395168E+04 0.  0.
        3    1    3    3  502    0 -0.86606196552E+03 -0.47037340985E+03  0.20510510554E+03  0.10066690555E+04  0.10100000352E+00 0. -1.
       -3    1    3    3    0  502  0.86606196552E+03  0.47037340985E+03 -0.13231282300E+03  0.99439487435E+03  0.10100000352E+00 0.  1.
</event>
<event>
 5   0  0.2110896E-05  0.2000609E+04  0.7818609E-02  0.8606336E-01
       -1   -1    0    0    0  501  0.00000000000E+00  0.00000000000E+00  0.10301235561E+04  0.10301235561E+04  0.50400001928E-02 0. -1.
        1   -1    0    0  501    0  0.00000000000E+00  0.00000000000E+00 -0.97134882823E+03  0.97134882825E+03  0.50400001928E-02 0.  1.
    10030    2    1    2    0    0  0.00000000000E+00  0.00000000000E+00  0.58774727851E+02  0.20014723843E+04  0.20006092164E+04 0.  0.
        4    1    3    3  502    0  0.62753062066E+03  0.69762641533E+03  0.37613523274E+03  0.10109187017E+04  0.12699999809E+01 0. -1.
       -4    1    3    3    0  502 -0.62753062066E+03 -0.69762641533E+03 -0.31736050489E+03  0.99055368264E+03  0.12699999809E+01 0.  1.
</event>
<event>
 5   0  0.4473361E-05  0.1995592E+04  0.7818609E-02  0.8608684E-01
        2   -1    0    0  501    0  0.00000000000E+00  0.00000000000E+00  0.18617892463E+04  0.18617892463E+04  0.25500000920E-02 0.  1.
       -2   -1    0    0    0  501  0.00000000000E+00  0.00000000000E+00 -0.53475253933E+03  0.53475253934E+03  0.25500000920E-02 0. -1.
    10030    2    1    2    0    0  0.00000000000E+00  0.00000000000E+00  0.13270367070E+04  0.23965417857E+04  0.19955916688E+04 0.  0.
        2    1    3    3  502    0  0.85488650496E+03 -0.11939197193E+03  0.62445862938E+02  0.86543911694E+03  0.25500000920E-02 0. -1.
       -2    1    3    3    0  502 -0.85488650496E+03  0.11939197193E+03  0.12645908440E+04  0.15311026687E+04  0.25500000920E-02 0.  1.
</event>
<event>
 5   0  0.4514680E-05  0.1995737E+04  0.7818609E-02  0.8608616E-01
       -2   -1    0    0    0  501  0.00000000000E+00  0.00000000000E+00  0.10162212068E+04  0.10162212068E+04  0.25500000920E-02 0. -1.
        2   -1    0    0  501    0  0.00000000000E+00  0.00000000000E+00 -0.97984695102E+03  0.97984695102E+03  0.25500000920E-02 0.  1.
    10030    2    1    2    0    0  0.00000000000E+00  0.00000000000E+00  0.36374255738E+02  0.19960681578E+04  0.19957367071E+04 0.  0.
        3    1    3    3  502    0 -0.41425694967E+03 -0.42558122905E+03 -0.78382698552E+03  0.98341901359E+03  0.10100000352E+00 0.  1.
       -3    1    3    3    0  502  0.41425694967E+03  0.42558122905E+03  0.82020124125E+03  0.10126491442E+04  0.10100000352E+00 0. -1.
</event>
<event>
 5   0  0.2256868E-05  0.1981950E+04  0.7818609E-02  0.8615106E-01
        1   -1    0    0  501    0  0.00000000000E+00  0.00000000000E+00  0.15865025132E+04  0.15865025132E+04  0.50400001928E-02 0.  1.
       -1   -1    0    0    0  501  0.00000000000E+00  0.00000000000E+00 -0.61899160943E+03  0.61899160945E+03  0.50400001928E-02 0. -1.
    10030    2    1    2    0    0  0.00000000000E+00  0.00000000000E+00  0.96751090378E+03  0.22054941227E+04  0.19819502961E+04 0.  0.
        5    1    3    3  502    0 -0.35572387855E+03 -0.45713664679E+03  0.13784940136E+04  0.14952528973E+04  0.46999998093E+01 0.  1.
       -5    1    3    3    0  502  0.35572387855E+03  0.45713664679E+03 -0.41098310978E+03  0.71024122531E+03  0.46999998093E+01 0. -1.
</event>
<event>
 5   0  0.1601500E-05  0.1994034E+04  0.7818609E-02  0.8609415E-01
       -4   -1    0    0    0  501  0.00000000000E+00  0.00000000000E+00  0.16288680543E+04  0.16288685494E+04  0.12699999809E+01 0. -1.
        4   -1    0    0  501    0  0.00000000000E+00  0.00000000000E+00 -0.61026480347E+03  0.61026612495E+03  0.12699999809E+01 0.  1.
    10030    2    1    2    0    0  0.00000000000E+00  0.00000000000E+00  0.10186032509E+04  0.22391346744E+04  0.19940339785E+04 0.  0.
        4    1    3    3  502    0 -0.36555233831E+03 -0.91405249153E+03  0.68656891482E+03  0.12002078808E+04  0.12699999809E+01 0. -1.
       -4    1    3    3    0  502  0.36555233831E+03  0.91405249153E+03  0.33203433605E+03  0.10389267936E+04  0.12699999809E+01 0.  1.
</event>
<event>
 5   0  0.4412054E-05  0.2004036E+04  0.7818609E-02  0.8604736E-01
       -2   -1    0    0    0  501  0.00000000000E+00  0.00000000000E+00  0.81057590852E+03  0.81057590852E+03  0.25500000920E-02 0.  1.
        2   -1    0    0  501    0  0.00000000000E+00  0.00000000000E+00 -0.12386749118E+04  0.12386749118E+04  0.25500000920E-02 0. -1.
    10030    2    1    2    0    0  0.00000000000E+00  0.00000000000E+00 -0.42809900327E+03  0.20492508203E+04  0.20040359697E+04 0.  0.
        4    1    3    3  502    0 -0.87131072951E+03 -0.28445659768E+03  0.19998135976E+03  0.93813224039E+03  0.12699999809E+01 0.  1.
       -4    1    3    3    0  502  0.87131072951E+03  0.28445659768E+03 -0.62808036303E+03  0.11111185799E+04  0.12699999809E+01 0. -1.
</event>
<event>
 5   0  0.4473361E-05  0.1976058E+04  0.7818609E-02  0.8617897E-01
        2   -1    0    0  501    0  0.00000000000E+00  0.00000000000E+00  0.11763020108E+04  0.11763020108E+04  0.25500000920E-02 0.  1.
       -2   -1    0    0    0  501  0.00000000000E+00  0.00000000000E+00 -0.82988967338E+03  0.82988967339E+03  0.25500000920E-02 0. -1.
    10030    2    1    2    0    0  0.00000000000E+00  0.00000000000E+00  0.34641233740E+03  0.20061916842E+04  0.19760575817E+04 0.  0.
        2    1    3    3  502    0 -0.56041976631E+03  0.80624995505E+03  0.61567542553E+02  0.98381902136E+03  0.25500000920E-02 0. -1.
       -2    1    3    3    0  502  0.56041976631E+03 -0.80624995505E+03  0.28484479485E+03  0.10223726628E+04  0.25500000920E-02 0.  1.
</event>
<event>
 5   0  0.2093980E-05  0.1998325E+04  0.7818609E-02  0.8607404E-01
       -1   -1    0    0    0  501  0.00000000000E+00  0.00000000000E+00  0.53047473738E+03  0.53047473741E+03  0.50400001928E-02 0. -1.
        1   -1    0    0  501    0  0.00000000000E+00  0.00000000000E+00 -0.18819474674E+04  0.18819474674E+04  0.50400001928E-02 0.  1.
    10030    2    1    2    0    0  0.00000000000E+00  0.00000000000E+00 -0.13514727300E+04  0.24124222048E+04  0.19983248871E+04 0.  0.
        2    1    3    3  502    0 -0.27205837606E+03 -0.81788051489E+03 -0.12858093020E+04  0.15479825121E+04  0.25500000920E-02 0.  1.
       -2    1    3    3    0  502  0.27205837606E+03  0.81788051489E+03 -0.65663428051E+02  0.86443969276E+03  0.25500000920E-02 0. -1.
</event>
<event>
 5   0  0.4473361E-05  0.1999885E+04  0.7818609E-02  0.8606675E-01
        2   -1    0    0  501    0  0.00000000000E+00  0.00000000000E+00  0.61136803380E+03  0.61136803381E+03  0.25500000920E-02 0.  1.
       -2   -1    0    0    0  501  0.00000000000E+00  0.00000000000E+00 -0.16354875983E+04  0.16354875983E+04  0.25500000920E-02 0. -1.
    10030    2    1    2    0    0  0.00000000000E+00  0.00000000000E+00 -0.10241195645E+04  0.22468556321E+04  0.19998848340E+04 0.  0.
        2    1    3    3  502    0 -0.19265173610E+03  0.97394970169E+03 -0.64590223504E+03  0.11844333709E+04  0.25500000920E-02 0.  1.
       -2    1    3    3    0  502  0.19265173610E+03 -0.97394970169E+03 -0.37821732948E+03  0.10624222612E+04  0.25500000920E-02 0. -1.
</event>
<event>
 5   0  0.4447313E-05  0.2005375E+04  0.7818609E-02  0.8604112E-01
       -2   -1    0    0    0  501  0.00000000000E+00  0.00000000000E+00  0.46816020032E+03  0.46816020033E+03  0.25500000920E-02 0. -1.
        2   -1    0    0  501    0  0.00000000000E+00  0.00000000000E+00 -0.21475170696E+04  0.21475170696E+04  0.25500000920E-02 0.  1.
    10030    2    1    2    0    0  0.00000000000E+00  0.00000000000E+00 -0.16793568693E+04  0.26156772699E+04  0.20053747994E+04 0.  0.
        5    1    3    3  502    0  0.46379261208E+03  0.40056678068E+03 -0.18747987436E+04  0.19724223057E+04  0.46999998093E+01 0.  1.
       -5    1    3    3    0  502 -0.46379261208E+03 -0.40056678068E+03  0.19544187435E+03  0.64325496426E+03  0.46999998093E+01 0. -1.
</event>
<event>
 5   0  0.4412054E-05  0.2007968E+04  0.7818609E-02  0.8602905E-01
       -2   -1    0    0    0  501  0.00000000000E+00  0.00000000000E+00  0.52866345292E+03  0.52866345293E+03  0.25500000920E-02 0.  1.
        2   -1    0    0  501    0  0.00000000000E+00  0.00000000000E+00 -0.19066638837E+04  0.19066638837E+04  0.25500000920E-02 0. -1.
    10030    2    1    2    0    0  0.00000000000E+00  0.00000000000E+00 -0.13780004308E+04  0.24353273367E+04  0.20079676415E+04 0.  0.
        4    1    3    3  502    0  0.67881093226E+03  0.52490984896E+03 -0.56851453483E+02  0.85996995991E+03  0.12699999809E+01 0.  1.
       -4    1    3    3    0  502 -0.67881093226E+03 -0.52490984896E+03 -0.13211489773E+04  0.15753573768E+04  0.12699999809E+01 0. -1.
</event>
<event>
 5   0  0.4473361E-05  0.1997668E+04  0.7818609E-02  0.8607712E-01
        2   -1    0    0  501    0  0.00000000000E+00  0.00000000000E+00  0.14205039184E+04  0.14205039184E+04  0.25500000920E-02 0. -1.
       -2   -1    0    0    0  501  0.00000000000E+00  0.00000000000E+00 -0.70233505743E+03  0.70233505744E+03  0.25500000920E-02 0.  1.
    10030    2    1    2    0    0  0.00000000000E+00  0.00000000000E+00  0.71816886096E+03  0.21228389758E+04  0.19976683420E+04 0.  0.
        2    1    3    3  502    0  0.59983635975E+03  0.75285514572E+03  0.75780483017E+02  0.96557610292E+03  0.25500000920E-02 0.  1.
       -2    1    3    3    0  502 -0.59983635975E+03 -0.75285514572E+03  0.64238837794E+03  0.11572628729E+04  0.25500000920E-02 0. -1.
</event>
<event>
 5   0  0.4447313E-05  0.1998609E+04  0.7818609E-02  0.8607271E-01
        2   -1    0    0  501    0  0.00000000000E+00  0.00000000000E+00  0.10572562409E+04  0.10572562409E+04  0.25500000920E-02 0.  1.
       -2   -1    0    0    0  501  0.00000000000E+00  0.00000000000E+00 -0.94452916238E+03  0.94452916238E+03  0.25500000920E-02 0. -1.
    10030    2    1    2    0    0  0.00000000000E+00  0.00000000000E+00  0.11272707851E+03  0.20017854033E+04  0.19986088678E+04 0.  0.
        5    1    3    3  502    0 -0.46693111644E+03 -0.61143847661E+02  0.93914058529E+03  0.10506047623E+04  0.46999998093E+01 0.  1.
       -5    1    3    3    0  502  0.46693111644E+03  0.61143847661E+02 -0.82641350678E+03  0.95118064099E+03  0.46999998093E+01 0. -1.
</event>
<event>
 5   0  0.2007644E-05  0.1984812E+04  0.7818609E-02  0.8613755E-01
        1   -1    0    0  501    0  0.00000000000E+00  0.00000000000E+00  0.56217185930E+03  0.56217185932E+03  0.50400001928E-02 0. -1.
       -1   -1    0    0    0  501  0.00000000000E+00  0.00000000000E+00 -0.17519018720E+04  0.17519018720E+04  0.50400001928E-02 0.  1.
    10030    2    1    2    0    0  0.00000000000E+00  0.00000000000E+00 -0.11897300127E+04  0.23140737313E+04  0.19848122659E+04 0.  0.
        1    1    3    3  502    0  0.80646994514E+03 -0.34043904418E+03 -0.49784811574E+02  0.87679589569E+03  0.50400001928E-02 0. -1.
       -1    1    3    3    0  502 -0.80646994514E+03  0.34043904418E+03 -0.11399452011E+04  0.14372778357E+04  0.50400001928E-02 0.  1.
</event>
<event>
 5   0  0.4514680E-05  0.2002942E+04  0.7818609E-02  0.8605247E-01
        2   -1    0    0  501    0  0.00000000000E+00  0.00000000000E+00  0.11550656623E+04  0.11550656623E+04  0.25500000920E-02 0. -1.
       -2   -1    0    0    0  501  0.00000000000E+00  0.00000000000E+00 -0.86830038308E+03  0.86830038308E+03  0.25500000920E-02 0.  1.
    10030    2    1    2    0    0  0.00000000000E+00  0.00000000000E+00  0.28676527918E+03  0.20233660453E+04  0.20029417935E+04 0.  0.
        3    1    3    3  502    0  0.39794129732E+02 -0.73457667345E+03 -0.54307398578E+03  0.91439369320E+03  0.10100000352E+00 0.  1.
       -3    1    3    3    0  502 -0.39794129732E+02  0.73457667345E+03  0.82983926496E+03  0.11089723521E+04  0.10100000352E+00 0. -1.
</event>
<event>
 5   0  0.2007644E-05  0.1988182E+04  0.7818609E-02  0.8612166E-01
       -1   -1    0    0    0  501  0.00000000000E+00  0.00000000000E+00  0.10667567969E+04  0.10667567969E+04  0.50400001928E-02 0.  1.
        1   -1    0    0  501    0  0.00000000000E+00  0.00000000000E+00 -0.92637498389E+03  0.92637498390E+03  0.50400001928E-02 0. -1.
    10030    2    1    2    0    0  0.00000000000E+00  0.00000000000E+00  0.14038181301E+03  0.19931317808E+04  0.19881818937E+04 0.  0.
        1    1    3    3  502    0  0.64514669177E+03 -0.35655281923E+03  0.73883921474E+03  0.10436606499E+04  0.50400001928E-02 0.  1.
       -1    1    3    3    0  502 -0.64514669177E+03  0.35655281923E+03 -0.59845740173E+03  0.94947113095E+03  0.50400001928E-02 0. -1.
</event>
<event>
 5   0  0.4473361E-05  0.1998192E+04  0.7818609E-02  0.8607466E-01
        2   -1    0    0  501    0  0.00000000000E+00  0.00000000000E+00  0.85723063142E+03  0.85723063143E+03  0.25500000920E-02 0.  1.
       -2   -1    0    0    0  501  0.00000000000E+00  0.00000000000E+00 -0.11644389443E+04  0.11644389443E+04  0.25500000920E-02 0. -1.
    10030    2    1    2    0    0  0.00000000000E+00  0.00000000000E+00 -0.30720831285E+03  0.20216695757E+04  0.19981919142E+04 0.  0.
        2    1    3    3  502    0  0.26523613264E+03 -0.40536917281E+03  0.73045783709E+03  0.87649473706E+03  0.25500000920E-02 0.  1.
       -2    1    3    3    0  502 -0.26523613264E+03  0.40536917281E+03 -0.10376661499E+04  0.11451748386E+04  0.25500000920E-02 0. -1.
</event>
<event>
 5   0  0.4447313E-05  0.1986348E+04  0.7818609E-02  0.8613030E-01
        2   -1    0    0  501    0  0.00000000000E+00  0.00000000000E+00  0.12609594336E+04  0.12609594336E+04  0.25500000920E-02 0.  1.
       -2   -1    0    0    0  501  0.00000000000E+00  0.00000000000E+00 -0.78225706906E+03  0.78225706906E+03  0.25500000920E-02 0. -1.
    10030    2    1    2    0    0  0.00000000000E+00  0.00000000000E+00  0.47870236449E+03  0.20432165026E+04  0.19863478353E+04 0.  0.
        5    1    3    3  502    0  0.75947843057E+02 -0.52651922791E+03 -0.62333857140E+03  0.81948986377E+03  0.46999998093E+01 0. -1.
       -5    1    3    3    0  502 -0.75947843057E+02  0.52651922791E+03  0.11020409359E+04  0.12237266388E+04  0.46999998093E+01 0.  1.
</event>
<event>
 5   0  0.2007644E-05  0.2004934E+04  0.7818609E-02  0.8604317E-01
       -1   -1    0    0    0  501  0.00000000000E+00  0.00000000000E+00  0.75935814661E+03  0.75935814662E+03  0.50400001928E-02 0. -1.
        1   -1    0    0  501    0  0.00000000000E+00  0.00000000000E+00 -0.13234070202E+04  0.13234070202E+04  0.50400001928E-02 0.  1.
    10030    2    1    2    0    0  0.00000000000E+00  0.00000000000E+00 -0.56404887361E+03  0.20827651668E+04  0.20049338165E+04 0.  0.
        1    1    3    3  502    0  0.16039230482E+03  0.96781895756E+03 -0.49628510661E+03  0.10994080831E+04  0.50400001928E-02 0.  1.
       -1    1    3    3    0  502 -0.16039230482E+03 -0.96781895756E+03 -0.67763766999E+02  0.98335708377E+03  0.50400001928E-02 0. -1.
</event>
<event>
 5   0  0.2110896E-05  0.1992387E+04  0.7818609E-02  0.8610188E-01
       -1   -1    0    0    0  501  0.00000000000E+00  0.00000000000E+00  0.42612444188E+03  0.42612444191E+03  0.50400001928E-02 0.  1.
        1   -1    0    0  501    0  0.00000000000E+00  0.00000000000E+00 -0.23289012774E+04  0.23289012774E+04  0.50400001928E-02 0. -1.
    10030    2    1    2    0    0  0.00000000000E+00  0.00000000000E+00 -0.19027768355E+04  0.27550257193E+04  0.19923872686E+04 0.  0.
        4    1    3    3  502    0 -0.12112481774E+03 -0.39565017311E+03  0.30167684145E+03  0.51207500478E+03  0.12699999809E+01 0.  1.
       -4    1    3    3    0  502  0.12112481774E+03  0.39565017311E+03 -0.22044536769E+04  0.22429507145E+04  0.12699999809E+01 0. -1.
</event>
<event>
 5   0  0.2142551E-05  0.2001951E+04  0.7818609E-02  0.8605709E-01
        1   -1    0    0  501    0  0.00000000000E+00  0.00000000000E+00  0.10998192903E+04  0.10998192903E+04  0.50400001928E-02 0. -1.
       -1   -1    0    0    0  501  0.00000000000E+00  0.00000000000E+00 -0.91101517272E+03  0.91101517273E+03  0.50400001928E-02 0.  1.
    10030    2    1    2    0    0  0.00000000000E+00  0.00000000000E+00  0.18880411755E+03  0.20108344630E+04  0.20019511090E+04 0.  0.
        3    1    3    3  502    0 -0.84803637802E+03  0.39964528632E+03 -0.25796795879E+03  0.97233200672E+03  0.10100000352E+00 0. -1.
       -3    1    3    3    0  502  0.84803637802E+03 -0.39964528632E+03  0.44677207635E+03  0.10385024563E+04  0.10100000352E+00 0.  1.
</event>
<event>
 5   0  0.1601500E-05  0.1999374E+04  0.7818609E-02  0.8606913E-01
        3   -1    0    0  501    0  0.00000000000E+00  0.00000000000E+00  0.87907770159E+03  0.87907770739E+03  0.10100000352E+00 0.  1.
       -3   -1    0    0    0  501  0.00000000000E+00  0.00000000000E+00 -0.11368440687E+04  0.11368440731E+04  0.10100000352E+00 0. -1.
    10030    2    1    2    0    0  0.00000000000E+00  0.00000000000E+00 -0.25776636707E+03  0.20159217805E+04  0.19993741834E+04 0.  0.
        3    1    3    3  502    0 -0.37714508742E+03 -0.19595692824E+03  0.78344635400E+03  0.89130563472E+03  0.10100000352E+00 0.  1.
       -3    1    3    3    0  502  0.37714508742E+03  0.19595692824E+03 -0.10412127211E+04  0.11246161458E+04  0.10100000352E+00 0. -1.
</event>
<event>
 5   0  0.1601500E-05  0.1996245E+04  0.7818609E-02  0.8608378E-01
        3   -1    0    0  501    0  0.00000000000E+00  0.00000000000E+00  0.86284509000E+03  0.86284509591E+03  0.10100000352E+00 0. -1.
       -3   -1    0    0    0  501  0.00000000000E+00  0.00000000000E+00 -0.11546084915E+04  0.11546084959E+04  0.10100000352E+00 0.  1.
    10030    2    1    2    0    0  0.00000000000E+00  0.00000000000E+00 -0.29176340150E+03  0.20174535918E+04  0.19962447527E+04 0.  0.
        4    1    3    3  502    0  0.19350935202E+03 -0.84950386581E+03 -0.63802980440E+03  0.10799010749E+04  0.12699999809E+01 0.  1.
       -4    1    3    3    0  502 -0.19350935202E+03  0.84950386581E+03  0.34626640289E+03  0.93755251694E+03  0.12699999809E+01 0. -1.
</event>
<event>
 5   0  0.2142551E-05  0.1998427E+04  0.7818609E-02  0.8607356E-01
        1   -1    0    0  501    0  0.00000000000E+00  0.00000000000E+00  0.10170255360E+04  0.10170255360E+04  0.50400001928E-02 0.  1.
       -1   -1    0    0    0  501  0.00000000000E+00  0.00000000000E+00 -0.98171380251E+03  0.98171380253E+03  0.50400001928E-02 0. -1.
    10030    2    1    2    0    0  0.00000000000E+00  0.00000000000E+00  0.35311733440E+02  0.19987393385E+04  0.19984273879E+04 0.  0.
        3    1    3    3  502    0 -0.50553550045E+03  0.73894460887E+03  0.46137218472E+03  0.10072088067E+04  0.10100000352E+00 0.  1.
       -3    1    3    3    0  502  0.50553550045E+03 -0.73894460887E+03 -0.42606045128E+03  0.99153053182E+03  0.10100000352E+00 0. -1.
</event>
<event>
 5   0  0.4447313E-05  0.2009712E+04  0.7818609E-02  0.8602093E-01
       -2   -1    0    0    0  501  0.00000000000E+00  0.00000000000E+00  0.18274051745E+04  0.18274051745E+04  0.25500000920E-02 0. -1.
        2   -1    0    0  501    0  0.00000000000E+00  0.00000000000E+00 -0.55255163055E+03  0.55255163055E+03  0.25500000920E-02 0.  1.
    10030    2    1    2    0    0  0.00000000000E+00  0.00000000000E+00  0.12748535439E+04  0.23799568050E+04  0.20097121275E+04 0.  0.
        5    1    3    3  502    0 -0.27319858057E+03 -0.34104507198E+03 -0.43412880464E+03  0.61598629414E+03  0.46999998093E+01 0.  1.
       -5    1    3    3    0  502  0.27319858057E+03  0.34104507198E+03  0.17089823486E+04  0.17639705109E+04  0.46999998093E+01 0. -1.
</event>
<event>
 5   0  0.1601500E-05  0.1999897E+04  0.7818609E-02  0.8606669E-01
        3   -1    0    0  501    0  0.00000000000E+00  0.00000000000E+00  0.87819124089E+03  0.87819124670E+03  0.10100000352E+00 0.  1.
       -3   -1    0    0    0  501  0.00000000000E+00  0.00000000000E+00 -0.11385864136E+04  0.11385864181E+04  0.10100000352E+00 0. -1.
    10030    2    1    2    0    0  0.00000000000E+00  0.00000000000E+00 -0.26039517275E+03  0.20167776648E+04  0.19998966232E+04 0.  0.
        4    1    3    3  502    0 -0.19140522890E+03  0.68479408407E+03  0.57881322867E+03  0.91684527910E+03  0.12699999809E+01 0.  1.
       -4    1    3    3    0  502  0.19140522890E+03 -0.68479408407E+03 -0.83920840142E+03  0.10999323857E+04  0.12699999809E+01 0. -1.
</event>
<event>
 5   0  0.4447313E-05  0.2003181E+04  0.7818609E-02  0.8605135E-01
        2   -1    0    0  501    0  0.00000000000E+00  0.00000000000E+00  0.15560090983E+04  0.15560090983E+04  0.25500000920E-02 0.  1.
       -2   -1    0    0    0  501  0.00000000000E+00  0.00000000000E+00 -0.64471564315E+03  0.64471564316E+03  0.25500000920E-02 0. -1.
    10030    2    1    2    0    0  0.00000000000E+00  0.00000000000E+00  0.91129345515E+03  0.22007247415E+04  0.20031808771E+04 0.  0.
        5    1    3    3  502    0  0.86317193974E+03 -0.34762820322E+03  0.48639635956E+02  0.93182566471E+03  0.46999998093E+01 0. -1.
       -5    1    3    3    0  502 -0.86317193974E+03  0.34762820322E+03  0.86265381919E+03  0.12688990768E+04  0.46999998093E+01 0.  1.
</event>
<event>
 5   0  0.2110896E-05  0.2007423E+04  0.7818609E-02  0.8603158E-01
        1   -1    0    0  501    0  0.00000000000E+00  0.00000000000E+00  0.11890130945E+04  0.11890130945E+04  0.50400001928E-02 0. -1.
       -1   -1    0    0    0  501  0.00000000000E+00  0.00000000000E+00 -0.84728862673E+03  0.84728862675E+03  0.50400001928E-02 0.  1.
    10030    2    1    2    0    0  0.00000000000E+00  0.00000000000E+00  0.34172446779E+03  0.20363017213E+04  0.20074234950E+04 0.  0.
        4    1    3    3  502    0 -0.64768247605E+03  0.36931261463E+03  0.85250472625E+03  0.11325415305E+04  0.12699999809E+01 0. -1.
       -4    1    3    3    0  502  0.64768247605E+03 -0.36931261463E+03 -0.51078025846E+03  0.90376019078E+03  0.12699999809E+01 0.  1.
</event>
<event>
 5   0  0.2256868E-05  0.2001236E+04  0.7818609E-02  0.8606043E-01
       -1   -1    0    0    0  501  0.00000000000E+00  0.00000000000E+00  0.92120116032E+03  0.92120116033E+03  0.50400001928E-02 0. -1.
        1   -1    0    0  501    0  0.00000000000E+00  0.00000000000E+00 -0.10868809584E+04  0.10868809584E+04  0.50400001928E-02 0.  1.
    10030    2    1    2    0    0  0.00000000000E+00  0.00000000000E+00 -0.16567979806E+03  0.20080821187E+04  0.20012356183E+04 0.  0.
        5    1    3    3  502    0  0.70568006120E+03 -0.47361623968E+02 -0.79306534740E+03  0.10626392650E+04  0.46999998093E+01 0.  1.
       -5    1    3    3    0  502 -0.70568006120E+03  0.47361623968E+02  0.62738554934E+03  0.94544285376E+03  0.46999998093E+01 0. -1.
</event>
<event>
 5   0  0.4514680E-05  0.1999877E+04  0.7818609E-02  0.8606678E-01
       -2   -1    0    0    0  501  0.00000000000E+00  0.00000000000E+00  0.93267342076E+03  0.93267342077E+03  0.25500000920E-02 0. -1.
        2   -1    0    0  501    0  0.00000000000E+00  0.00000000000E+00 -0.10720548106E+04  0.10720548106E+04  0.25500000920E-02 0.  1.
    10030    2    1    2    0    0  0.00000000000E+00  0.00000000000E+00 -0.13938138980E+03  0.20047282313E+04  0.19998770236E+04 0.  0.
        3    1    3    3  502    0  0.46139505809E+03  0.81589393513E+03  0.27944817134E+03  0.97808977281E+03  0.10100000352E+00 0. -1.
       -3    1    3    3    0  502 -0.46139505809E+03 -0.81589393513E+03 -0.41882956113E+03  0.10266384585E+04  0.10100000352E+00 0.  1.
</event>
<event>
 5   0  0.4447313E-05  0.2016228E+04  0.7818609E-02  0.8599071E-01
        2   -1    0    0  501    0  0.00000000000E+00  0.00000000000E+00  0.29677251766E+04  0.29677251766E+04  0.25500000920E-02 0.  1.
       -2   -1    0    0    0  501  0.00000000000E+00  0.00000000000E+00 -0.34244874864E+03  0.34244874865E+03  0.25500000920E-02 0. -1.
    10030    2    1    2    0    0  0.00000000000E+00  0.00000000000E+00  0.26252764280E+04  0.33101739253E+04  0.20162279366E+04 0.  0.
        5    1    3    3  502    0 -0.10026910615E+04 -0.94948157966E+02  0.12416963485E+04  0.15988234516E+04  0.46999998093E+01 0.  1.
       -5    1    3    3    0  502  0.10026910615E+04  0.94948157966E+02  0.13835800794E+04  0.17113504737E+04  0.46999998093E+01 0. -1.
</event>
<event>
 5   0  0.1601500E-05  0.1997271E+04  0.7818609E-02  0.8607897E-01
        3   -1    0    0  501    0  0.00000000000E+00  0.00000000000E+00  0.94977811709E+03  0.94977812246E+03  0.10100000352E+00 0.  1.
       -3   -1    0    0    0  501  0.00000000000E+00  0.00000000000E+00 -0.10500065090E+04  0.10500065139E+04  0.10100000352E+00 0. -1.
    10030    2    1    2    0    0  0.00000000000E+00  0.00000000000E+00 -0.10022839195E+03  0.19997846363E+04  0.19972713539E+04 0.  0.
        1    1    3    3  502    0 -0.48956161850E+03  0.40247947843E+03 -0.82284496287E+03  0.10386212697E+04  0.50400001928E-02 0. -1.
       -1    1    3    3    0  502  0.48956161850E+03 -0.40247947843E+03  0.72261657092E+03  0.96116336668E+03  0.50400001928E-02 0.  1.
</event>
<event>
 5   0  0.4412054E-05  0.1995351E+04  0.7818609E-02  0.8608797E-01
        2   -1    0    0  501    0  0.00000000000E+00  0.00000000000E+00  0.17755722464E+04  0.17755722464E+04  0.25500000920E-02 0. -1.
       -2   -1    0    0    0  501  0.00000000000E+00  0.00000000000E+00 -0.56058344984E+03  0.56058344984E+03  0.25500000920E-02 0.  1.
    10030    2    1    2    0    0  0.00000000000E+00  0.00000000000E+00  0.12149887966E+04  0.23361556963E+04  0.19953510121E+04 0.  0.
        4    1    3    3  502    0  0.99709444846E+03  0.22495793518E+01  0.64723959095E+03  0.11887485440E+04  0.12699999809E+01 0. -1.
       -4    1    3    3    0  502 -0.99709444846E+03 -0.22495793518E+01  0.56774920564E+03  0.11474071523E+04  0.12699999809E+01 0.  1.
</event>
<event>
 5   0  0.2007644E-05  0.2004979E+04  0.7818609E-02  0.8604296E-01
        1   -1    0    0  501    0  0.00000000000E+00  0.00000000000E+00  0.12659748723E+04  0.12659748723E+04  0.50400001928E-02 0.  1.
       -1   -1    0    0    0  501  0.00000000000E+00  0.00000000000E+00 -0.79384272031E+03  0.79384272033E+03  0.50400001928E-02 0. -1.
    10030    2    1    2    0    0  0.00000000000E+00  0.00000000000E+00  0.47213215200E+03  0.20598175927E+04  0.20049787395E+04 0.  0.
        1    1    3    3  502    0 -0.91931843032E+03 -0.36758624753E+03  0.74543342260E+02  0.99288606375E+03  0.50400001928E-02 0. -1.
       -1    1    3    3    0  502  0.91931843032E+03  0.36758624753E+03  0.39758880974E+03  0.10669315289E+04  0.50400001928E-02 0.  1.
</event>
<event>
 5   0  0.2110896E-05  0.2004064E+04  0.7818609E-02  0.8604723E-01
        1   -1    0    0  501    0  0.00000000000E+00  0.00000000000E+00  0.12044210754E+04  0.12044210754E+04  0.50400001928E-02 0.  1.
       -1   -1    0    0    0  501  0.00000000000E+00  0.00000000000E+00 -0.83365213973E+03  0.83365213975E+03  0.50400001928E-02 0. -1.
    10030    2    1    2    0    0  0.00000000000E+00  0.00000000000E+00  0.37076893569E+03  0.20380732152E+04  0.20040640775E+04 0.  0.
        4    1    3    3  502    0 -0.83399575464E+03 -0.26184750657E+03 -0.31277888449E+03  0.92841008124E+03  0.12699999809E+01 0. -1.
       -4    1    3    3    0  502  0.83399575464E+03  0.26184750657E+03  0.68354782018E+03  0.11096631339E+04  0.12699999809E+01 0.  1.
</event>
<event>
 5   0  0.2110896E-05  0.2002320E+04  0.7818609E-02  0.8605537E-01
       -1   -1    0    0    0  501  0.00000000000E+00  0.00000000000E+00  0.56929004523E+03  0.56929004525E+03  0.50400001928E-02 0.  1.
        1   -1    0    0  501    0  0.00000000000E+00  0.00000000000E+00 -0.17606520458E+04  0.17606520458E+04  0.50400001928E-02 0. -1.
    10030    2    1    2    0    0  0.00000000000E+00  0.00000000000E+00 -0.11913620005E+04  0.23299420910E+04  0.20023203368E+04 0.  0.
        4    1    3    3  502    0  0.92943872550E+03 -0.37210648620E+03 -0.59649418146E+03  0.11653868469E+04  0.12699999809E+01 0. -1.
       -4    1    3    3    0  502 -0.92943872550E+03  0.37210648620E+03 -0.59486781906E+03  0.11645552441E+04  0.12699999809E+01 0.  1.
</event>
<event>
 5   0  0.2110896E-05  0.1997855E+04  0.7818609E-02  0.8607624E-01
       -1   -1    0    0    0  501  0.00000000000E+00  0.00000000000E+00  0.73984636453E+03  0.73984636454E+03  0.50400001928E-02 0.  1.
        1   -1    0    0  501    0  0.00000000000E+00  0.00000000000E+00 -0.13487338704E+04  0.13487338704E+04  0.50400001928E-02 0. -1.
    10030    2    1    2    0    0  0.00000000000E+00  0.00000000000E+00 -0.60888750582E+03  0.20885802349E+04  0.19978547001E+04 0.  0.
        4    1    3    3  502    0  0.45128173793E+03 -0.80193864729E+03  0.10191541657E+03  0.92582350696E+03  0.12699999809E+01 0.  1.
       -4    1    3    3    0  502 -0.45128173793E+03  0.80193864729E+03 -0.71080292239E+03  0.11627567279E+04  0.12699999809E+01 0. -1.
</event>
<event>
 5   0  0.2007644E-05  0.2001761E+04  0.7818609E-02  0.8605798E-01
        1   -1    0    0  501    0  0.00000000000E+00  0.00000000000E+00  0.21320671256E+04  0.21320671256E+04  0.50400001928E-02 0. -1.
       -1   -1    0    0    0  501  0.00000000000E+00  0.00000000000E+00 -0.46985485577E+03  0.46985485580E+03  0.50400001928E-02 0.  1.
    10030    2    1    2    0    0  0.00000000000E+00  0.00000000000E+00  0.16622122698E+04  0.26019219814E+04  0.20017613163E+04 0.  0.
        1    1    3    3  502    0  0.22166624220E+03 -0.13015170588E+03 -0.42621786800E+03  0.49773191630E+03  0.50400001928E-02 0.  1.
       -1    1    3    3    0  502 -0.22166624220E+03  0.13015170588E+03  0.20884301378E+04  0.21041900651E+04  0.50400001928E-02 0. -1.
</event>
<event>
 5   0  0.2256868E-05  0.1997586E+04  0.7818609E-02  0.8607750E-01
        1   -1    0    0  501    0  0.00000000000E+00  0.00000000000E+00  0.77599718765E+03  0.77599718767E+03  0.50400001928E-02 0. -1.
       -1   -1    0    0    0  501  0.00000000000E+00  0.00000000000E+00 -0.12855554586E+04  0.12855554586E+04  0.50400001928E-02 0.  1.
    10030    2    1    2    0    0  0.00000000000E+00  0.00000000000E+00 -0.50955827097E+03  0.20615526463E+04  0.19975859636E+04 0.  0.
        5    1    3    3  502    0  0.31609996674E+03  0.76729048286E+03 -0.82837493165E+03  0.11725531934E+04  0.46999998093E+01 0.  1.
       -5    1    3    3    0  502 -0.31609996674E+03 -0.76729048286E+03  0.31881666068E+03  0.88899945286E+03  0.46999998093E+01 0. -1.
</event>
<event>
 5   0  0.4412054E-05  0.1996593E+04  0.7818609E-02  0.8608215E-01
       -2   -1    0    0    0  501  0.00000000000E+00  0.00000000000E+00  0.65573192078E+03  0.65573192078E+03  0.25500000920E-02 0. -1.
        2   -1    0    0  501    0  0.00000000000E+00  0.00000000000E+00 -0.15198220912E+04  0.15198220912E+04  0.25500000920E-02 0.  1.
    10030    2    1    2    0    0  0.00000000000E+00  0.00000000000E+00 -0.86409017045E+03  0.21755540120E+04  0.19965929571E+04 0.  0.
        4    1    3    3  502    0 -0.55113311344E+01  0.42294429836E+03 -0.14173543165E+04  0.14791237696E+04  0.12699999809E+01 0.  1.
       -4    1    3    3    0  502  0.55113311344E+01 -0.42294429836E+03  0.55326414609E+03  0.69643024240E+03  0.12699999809E+01 0. -1.
</event>
<event>
 5   0  0.2256868E-05  0.1991518E+04  0.7818609E-02  0.8610596E-01
       -1   -1    0    0    0  501  0.00000000000E+00  0.00000000000E+00  0.77569184515E+03  0.77569184517E+03  0.50400001928E-02 0.  1.
        1   -1    0    0  501    0  0.00000000000E+00  0.00000000000E+00 -0.12782603769E+04  0.12782603769E+04  0.50400001928E-02 0. -1.
    10030    2    1    2    0    0  0.00000000000E+00  0.00000000000E+00 -0.50256853176E+03  0.20539522221E+04  0.19915181650E+04 0.  0.
        5    1    3    3  502    0  0.11049725662E+03 -0.85196520780E+03  0.26794662757E+03  0.89992879954E+03  0.46999998093E+01 0.  1.
       -5    1    3    3    0  502 -0.11049725662E+03  0.85196520780E+03 -0.77051515932E+03  0.11540234225E+04  0.46999998093E+01 0. -1.
</event>
<event>
 5   0  0.4412054E-05  0.1994916E+04  0.7818609E-02  0.8609001E-01
       -2   -1    0    0    0  501  0.00000000000E+00  0.00000000000E+00  0.53068229114E+03  0.53068229114E+03  0.25500000920E-02 0.  1.
        2   -1    0    0  501    0  0.00000000000E+00  0.00000000000E+00 -0.18747982172E+04  0.18747982172E+04  0.25500000920E-02 0. -1.
    10030    2    1    2    0    0  0.00000000000E+00  0.00000000000E+00 -0.13441159260E+04  0.24054805083E+04  0.19949157509E+04 0.  0.
        4    1    3    3  502    0  0.15832952344E+03  0.98478134732E+03 -0.68124588378E+03  0.12078742100E+04  0.12699999809E+01 0. -1.
       -4    1    3    3    0  502 -0.15832952344E+03 -0.98478134732E+03 -0.66287004225E+03  0.11976062983E+04  0.12699999809E+01 0.  1.
</event>
<event>
 5   0  0.2007644E-05  0.1990799E+04  0.7818609E-02  0.8610934E-01
        1   -1    0    0  501    0  0.00000000000E+00  0.00000000000E+00  0.23158086876E+04  0.23158086876E+04  0.50400001928E-02 0.  1.
       -1   -1    0    0    0  501  0.00000000000E+00  0.00000000000E+00 -0.42785082244E+03  0.42785082247E+03  0.50400001928E-02 0. -1.
    10030    2    1    2    0    0  0.00000000000E+00  0.00000000000E+00  0.18879578652E+04  0.27436595101E+04  0.19907994893E+04 0.  0.
        1    1    3    3  502    0 -0.79651985106E+03  0.44168708137E+03  0.14974634449E+04  0.17526916785E+04  0.50400001928E-02 0.  1.
       -1    1    3    3    0  502  0.79651985106E+03 -0.44168708137E+03  0.39049442027E+03  0.99096783160E+03  0.50400001928E-02 0. -1.
</event>
<event>
 5   0  0.4577279E-05  0.1997828E+04  0.7818609E-02  0.8607637E-01
       -2   -1    0    0    0  501  0.00000000000E+00  0.00000000000E+00  0.54494443646E+03  0.54494443647E+03  0.25500000920E-02 0.  1.
        2   -1    0    0  501    0  0.00000000000E+00  0.00000000000E+00 -0.18310654253E+04  0.18310654253E+04  0.25500000920E-02 0. -1.
    10030    2    1    2    0    0  0.00000000000E+00  0.00000000000E+00 -0.12861209889E+04  0.23760098618E+04  0.19978277367E+04 0.  0.
        1    1    3    3  502    0  0.45081114353E+03  0.52077757601E+03  0.21734360988E+03  0.72227295089E+03  0.50400001928E-02 0.  1.
       -1    1    3    3    0  502 -0.45081114353E+03 -0.52077757601E+03 -0.15034645988E+04  0.16537369109E+04  0.50400001928E-02 0. -1.
</event>
<event>
 5   0  0.2142551E-05  0.2001349E+04  0.7818609E-02  0.8605990E-01
        1   -1    0    0  501    0  0.00000000000E+00  0.00000000000E+00  0.74968849317E+03  0.74968849318E+03  0.50400001928E-02 0. -1.
       -1   -1    0    0    0  501  0.00000000000E+00  0.00000000000E+00 -0.13356870292E+04  0.13356870292E+04  0.50400001928E-02 0.  1.
    10030    2    1    2    0    0  0.00000000000E+00  0.00000000000E+00 -0.58599853602E+03  0.20853755224E+04  0.20013487415E+04 0.  0.
        3    1    3    3  502    0  0.16811334329E+03  0.94375668641E+03 -0.59212414152E+03  0.11267430002E+04  0.10100000352E+00 0.  1.
       -3    1    3    3    0  502 -0.16811334329E+03 -0.94375668641E+03  0.61256055012E+01  0.95863252217E+03  0.10100000352E+00 0. -1.
</event>
<event>
 5   0  0.4473361E-05  0.1991186E+04  0.7818609E-02  0.8610752E-01
        2   -1    0    0  501    0  0.00000000000E+00  0.00000000000E+00  0.15297746571E+04  0.15297746571E+04  0.25500000920E-02 0. -1.
       -2   -1    0    0    0  501  0.00000000000E+00  0.00000000000E+00 -0.64794241545E+03  0.64794241546E+03  0.25500000920E-02 0.  1.
    10030    2    1    2    0    0  0.00000000000E+00  0.00000000000E+00  0.88183224168E+03  0.21777170726E+04  0.19911864669E+04 0.  0.
        2    1    3    3  502    0 -0.31444736851E+03  0.27233903678E+03 -0.54833988435E+03  0.68827489224E+03  0.25500000920E-02 0.  1.
       -2    1    3    3    0  502  0.31444736851E+03 -0.27233903678E+03  0.14301721260E+04  0.14894421803E+04  0.25500000920E-02 0. -1.
</event>
<event>
 5   0  0.2007644E-05  0.1993761E+04  0.7818609E-02  0.8609543E-01
        1   -1    0    0  501    0  0.00000000000E+00  0.00000000000E+00  0.15434726398E+04  0.15434726398E+04  0.50400001928E-02 0.  1.
       -1   -1    0    0    0  501  0.00000000000E+00  0.00000000000E+00 -0.64385349939E+03  0.64385349941E+03  0.50400001928E-02 0. -1.
    10030    2    1    2    0    0  0.00000000000E+00  0.00000000000E+00  0.89961914039E+03  0.21873261392E+04  0.19937605276E+04 0.  0.
        1    1    3    3  502    0 -0.23155517859E+03 -0.19314316168E+03  0.14922419971E+04  0.15224021346E+04  0.50400001928E-02 0.  1.
       -1    1    3    3    0  502  0.23155517859E+03  0.19314316168E+03 -0.59262285666E+03  0.66492400461E+03  0.50400001928E-02 0. -1.
</event>
<event>
 5   0  0.2142551E-05  0.2001366E+04  0.7818609E-02  0.8605982E-01
       -1   -1    0    0    0  501  0.00000000000E+00  0.00000000000E+00  0.92954713035E+03  0.92954713037E+03  0.50400001928E-02 0.  1.
        1   -1    0    0  501    0  0.00000000000E+00  0.00000000000E+00 -0.10772627944E+04  0.10772627944E+04  0.50400001928E-02 0. -1.
    10030    2    1    2    0    0  0.00000000000E+00  0.00000000000E+00 -0.14771566407E+03  0.20068099248E+04  0.20013660727E+04 0.  0.
        3    1    3    3  502    0  0.80997086667E+03 -0.20244589516E+03  0.47930329159E+03  0.96268831968E+03  0.10100000352E+00 0.  1.
       -3    1    3    3    0  502 -0.80997086667E+03  0.20244589516E+03 -0.62701895567E+03  0.10441216051E+04  0.10100000352E+00 0. -1.
</event>
<event>
 5   0  0.2007644E-05  0.1976036E+04  0.7818609E-02  0.8617907E-01
        1   -1    0    0  501    0  0.00000000000E+00  0.00000000000E+00  0.19155048919E+04  0.19155048919E+04  0.50400001928E-02 0. -1.
       -1   -1    0    0    0  501  0.00000000000E+00  0.00000000000E+00 -0.50962002411E+03  0.50962002414E+03  0.50400001928E-02 0.  1.
    10030    2    1    2    0    0  0.00000000000E+00  0.00000000000E+00  0.14058848678E+04  0.24251249161E+04  0.19760360819E+04 0.  0.
        1    1    3    3  502    0 -0.90729457084E+01 -0.97057982634E+03  0.92947930369E+03  0.13438896136E+04  0.50400001928E-02 0.  1.
       -1    1    3    3    0  502  0.90729457084E+01  0.97057982634E+03  0.47640556411E+03  0.10812353024E+04  0.50400001928E-02 0. -1.
</event>
<event>
 5   0  0.4447313E-05  0.2004122E+04  0.7818609E-02  0.8604696E-01
       -2   -1    0    0    0  501  0.00000000000E+00  0.00000000000E+00  0.65139498562E+03  0.65139498563E+03  0.25500000920E-02 0.  1.
        2   -1    0    0  501    0  0.00000000000E+00  0.00000000000E+00 -0.15415016851E+04  0.15415016851E+04  0.25500000920E-02 0. -1.
    10030    2    1    2    0    0  0.00000000000E+00  0.00000000000E+00 -0.89010669947E+03  0.21928966707E+04  0.20041222198E+04 0.  0.
        5    1    3    3  502    0  0.75574767477E+03  0.83305921491E+01 -0.11649629116E+04  0.13886628900E+04  0.46999998093E+01 0. -1.
       -5    1    3    3    0  502 -0.75574767477E+03 -0.83305921491E+01  0.27485621213E+03  0.80423378071E+03  0.46999998093E+01 0.  1.
</event>
<event>
 5   0  0.4514680E-05  0.1987379E+04  0.7818609E-02  0.8612544E-01
       -2   -1    0    0    0  501  0.00000000000E+00  0.00000000000E+00  0.57041717647E+03  0.57041717648E+03  0.25500000920E-02 0. -1.
        2   -1    0    0  501    0  0.00000000000E+00  0.00000000000E+00 -0.17310471289E+04  0.17310471289E+04  0.25500000920E-02 0.  1.
    10030    2    1    2    0    0  0.00000000000E+00  0.00000000000E+00 -0.11606299524E+04  0.23014643054E+04  0.19873791944E+04 0.  0.
        3    1    3    3  502    0  0.51256890424E+03  0.73762405517E+03 -0.10724517715E+04  0.13989170600E+04  0.10100000352E+00 0.  1.
       -3    1    3    3    0  502 -0.51256890424E+03 -0.73762405517E+03 -0.88178180930E+02  0.90254724538E+03  0.10100000352E+00 0. -1.
</event>
<event>
 5   0  0.4577279E-05  0.2006622E+04  0.7818609E-02  0.8603531E-01
       -2   -1    0    0    0  501  0.00000000000E+00  0.00000000000E+00  0.14467874042E+04  0.14467874042E+04  0.25500000920E-02 0. -1.
        2   -1    0    0  501    0  0.00000000000E+00  0.00000000000E+00 -0.69577120009E+03  0.69577120010E+03  0.25500000920E-02 0.  1.
    10030    2    1    2    0    0  0.00000000000E+00  0.00000000000E+00  0.75101620414E+03  0.21425586043E+04  0.20066220457E+04 0.  0.
        1    1    3    3  502    0 -0.97447045095E+03 -0.10011661942E+03  0.14398483629E+03  0.99012505795E+03  0.50400001928E-02 0.  1.
       -1    1    3    3    0  502  0.97447045095E+03  0.10011661942E+03  0.60703136785E+03  0.11524335464E+04  0.50400001928E-02 0. -1.
</event>
<event>
 5   0  0.2093980E-05  0.2001767E+04  0.7818609E-02  0.8605795E-01
       -1   -1    0    0    0  501  0.00000000000E+00  0.00000000000E+00  0.45890885305E+03  0.45890885308E+03  0.50400001928E-02 0. -1.
        1   -1    0    0  501    0  0.00000000000E+00  0.00000000000E+00 -0.21829341080E+04  0.21829341080E+04  0.50400001928E-02 0.  1.
    10030    2    1    2    0    0  0.00000000000E+00  0.00000000000E+00 -0.17240252549E+04  0.26418429611E+04  0.20017670072E+04 0.  0.
        2    1    3    3  502    0 -0.24067668516E+03 -0.67695150845E+03 -0.17816645822E+04  0.19210719131E+04  0.25500000920E-02 0.  1.
       -2    1    3    3    0  502  0.24067668516E+03  0.67695150845E+03  0.57639327305E+02  0.72077104800E+03  0.25500000920E-02 0. -1.
</event>
<event>
 5   0  0.2007644E-05  0.1995614E+04  0.7818609E-02  0.8608674E-01
       -1   -1    0    0    0  501  0.00000000000E+00  0.00000000000E+00  0.99750758765E+03  0.99750758767E+03  0.50400001928E-02 0.  1.
        1   -1    0    0  501    0  0.00000000000E+00  0.00000000000E+00 -0.99810695109E+03  0.99810695110E+03  0.50400001928E-02 0. -1.
    10030    2    1    2    0    0  0.00000000000E+00  0.00000000000E+00 -0.59936343346E+00  0.19956145388E+04  0.19956144488E+04 0.  0.
        1    1    3    3  502    0 -0.71493401091E+02  0.92001962366E+03  0.37926830386E+03  0.99769326983E+03  0.50400001928E-02 0.  1.
       -1    1    3    3    0  502  0.71493401091E+02 -0.92001962366E+03 -0.37986766729E+03  0.99792126894E+03  0.50400001928E-02 0. -1.
</event>
<event>
 5   0  0.4447313E-05  0.1997103E+04  0.7818609E-02  0.8607976E-01
       -2   -1    0    0    0  501  0.00000000000E+00  0.00000000000E+00  0.77144109709E+03  0.77144109709E+03  0.25500000920E-02 0. -1.
        2   -1    0    0  501    0  0.00000000000E+00  0.00000000000E+00 -0.12925223881E+04  0.12925223881E+04  0.25500000920E-02 0.  1.
    10030    2    1    2    0    0  0.00000000000E+00  0.00000000000E+00 -0.52108129099E+03  0.20639634852E+04  0.19971027906E+04 0.  0.
        5    1    3    3  502    0 -0.36107056156E+03  0.81597520993E+03 -0.72375977407E+03  0.11489289770E+04  0.46999998093E+01 0.  1.
       -5    1    3    3    0  502  0.36107056156E+03 -0.81597520993E+03  0.20267848308E+03  0.91503450817E+03  0.46999998093E+01 0. -1.
</event>
<event>
 5   0  0.2142551E-05  0.2000451E+04  0.7818609E-02  0.8606410E-01
        1   -1    0    0  501    0  0.00000000000E+00  0.00000000000E+00  0.18049523242E+04  0.18049523242E+04  0.50400001928E-02 0. -1.
       -1   -1    0    0    0  501  0.00000000000E+00  0.00000000000E+00 -0.55428102263E+03  0.55428102265E+03  0.50400001928E-02 0.  1.
    10030    2    1    2    0    0  0.00000000000E+00  0.00000000000E+00  0.12506713016E+04  0.23592333468E+04  0.20004507693E+04 0.  0.
        3    1    3    3  502    0 -0.26088215932E+03  0.48827848539E+03  0.16077961030E+04  0.17004363262E+04  0.10100000352E+00 0. -1.
       -3    1    3    3    0  502  0.26088215932E+03 -0.48827848539E+03 -0.35712480149E+03  0.65879702063E+03  0.10100000352E+00 0.  1.
</event>
<event>
 5   0  0.2110896E-05  0.2019519E+04  0.7818609E-02  0.8597549E-01
       -1   -1    0    0    0  501  0.00000000000E+00  0.00000000000E+00  0.10738662301E+04  0.10738662301E+04  0.50400001928E-02 0. -1.
        1   -1    0    0  501    0  0.00000000000E+00  0.00000000000E+00 -0.94947995876E+03  0.94947995877E+03  0.50400001928E-02 0.  1.
    10030    2    1    2    0    0  0.00000000000E+00  0.00000000000E+00  0.12438627129E+03  0.20233461888E+04  0.20195192139E+04 0.  0.
        4    1    3    3  502    0 -0.14128830052E+03 -0.13388277704E+03 -0.93050526866E+03  0.95064643783E+03  0.12699999809E+01 0.  1.
       -4    1    3    3    0  502  0.14128830052E+03  0.13388277704E+03  0.10548915400E+04  0.10726997510E+04  0.12699999809E+01 0. -1.
</event>
<event>
 5   0  0.4447313E-05  0.1970257E+04  0.7818609E-02  0.8620654E-01
       -2   -1    0    0    0  501  0.00000000000E+00  0.00000000000E+00  0.58715248802E+03  0.58715248802E+03  0.25500000920E-02 0. -1.
        2   -1    0    0  501    0  0.00000000000E+00  0.00000000000E+00 -0.16528557824E+04  0.16528557824E+04  0.25500000920E-02 0.  1.
    10030    2    1    2    0    0  0.00000000000E+00  0.00000000000E+00 -0.10657032944E+04  0.22400082705E+04  0.19702572269E+04 0.  0.
        5    1    3    3  502    0  0.78761487492E+03  0.53344089300E+02  0.13712940750E+03  0.80125485800E+03  0.46999998093E+01 0. -1.
       -5    1    3    3    0  502 -0.78761487492E+03 -0.53344089300E+02 -0.12028327019E+04  0.14387534125E+04  0.46999998093E+01 0.  1.
</event>
<event>
 5   0  0.2256868E-05  0.1996375E+04  0.7818609E-02  0.8608317E-01
       -1   -1    0    0    0  501  0.00000000000E+00  0.00000000000E+00  0.17751189750E+04  0.17751189750E+04  0.50400001928E-02 0. -1.
        1   -1    0    0  501    0  0.00000000000E+00  0.00000000000E+00 -0.56130248179E+03  0.56130248182E+03  0.50400001928E-02 0.  1.
    10030    2    1    2    0    0  0.00000000000E+00  0.00000000000E+00  0.12138164932E+04  0.23364214568E+04  0.19963754018E+04 0.  0.
        5    1    3    3  502    0  0.16163142013E+03 -0.95583006857E+03  0.88539005081E+03  0.13128874544E+04  0.46999998093E+01 0. -1.
       -5    1    3    3    0  502 -0.16163142013E+03  0.95583006857E+03  0.32842644239E+03  0.10235340024E+04  0.46999998093E+01 0.  1.
</event>
<event>
 5   0  0.4447313E-05  0.2002536E+04  0.7818609E-02  0.8605436E-01
       -2   -1    0    0    0  501  0.00000000000E+00  0.00000000000E+00  0.13029584533E+04  0.13029584533E+04  0.25500000920E-02 0. -1.
        2   -1    0    0  501    0  0.00000000000E+00  0.00000000000E+00 -0.76943209950E+03  0.76943209950E+03  0.25500000920E-02 0.  1.
    10030    2    1    2    0    0  0.00000000000E+00  0.00000000000E+00  0.53352635379E+03  0.20723905528E+04  0.20025364499E+04 0.  0.
        5    1    3    3  502    0  0.25897464342E+03  0.54310401617E+03  0.10949837967E+04  0.12494164411E+04  0.46999998093E+01 0. -1.
       -5    1    3    3    0  502 -0.25897464342E+03 -0.54310401617E+03 -0.56145744289E+03  0.82297411168E+03  0.46999998093E+01 0.  1.
</event>
<event>
 5   0  0.4412054E-05  0.1999853E+04  0.7818609E-02  0.8606690E-01
        2   -1    0    0  501    0  0.00000000000E+00  0.00000000000E+00  0.10354655230E+04  0.10354655230E+04  0.25500000920E-02 0.  1.
       -2   -1    0    0    0  501  0.00000000000E+00  0.00000000000E+00 -0.96560692079E+03  0.96560692080E+03  0.25500000920E-02 0. -1.
    10030    2    1    2    0    0  0.00000000000E+00  0.00000000000E+00  0.69858602156E+02  0.20010724438E+04  0.19998526698E+04 0.  0.
        4    1    3    3  502    0  0.64048911680E+03 -0.65060258762E+03 -0.37316872860E+03  0.98628928245E+03  0.12699999809E+01 0. -1.
       -4    1    3    3    0  502 -0.64048911680E+03  0.65060258762E+03  0.44302733076E+03  0.10147831613E+04  0.12699999809E+01 0.  1.
</event>
<event>
 5   0  0.4577279E-05  0.1999364E+04  0.7818609E-02  0.8606918E-01
        2   -1    0    0  501    0  0.00000000000E+00  0.00000000000E+00  0.94660711030E+03  0.94660711030E+03  0.25500000920E-02 0.  1.
       -2   -1    0    0    0  501  0.00000000000E+00  0.00000000000E+00 -0.10557325893E+04  0.10557325893E+04  0.25500000920E-02 0. -1.
    10030    2    1    2    0    0  0.00000000000E+00  0.00000000000E+00 -0.10912547902E+03  0.20023396996E+04  0.19993638745E+04 0.  0.
        1    1    3    3  502    0 -0.78084537708E+03 -0.36340037146E+03 -0.56284610938E+03  0.10288707770E+04  0.50400001928E-02 0. -1.
       -1    1    3    3    0  502  0.78084537708E+03  0.36340037146E+03  0.45372063036E+03  0.97346892263E+03  0.50400001928E-02 0.  1.
</event>
<event>
 5   0  0.4577279E-05  0.1983254E+04  0.7818609E-02  0.8614490E-01
        2   -1    0    0  501    0  0.00000000000E+00  0.00000000000E+00  0.11666093737E+04  0.11666093738E+04  0.25500000920E-02 0.  1.
       -2   -1    0    0    0  501  0.00000000000E+00  0.00000000000E+00 -0.84289048576E+03  0.84289048576E+03  0.25500000920E-02 0. -1.
    10030    2    1    2    0    0  0.00000000000E+00  0.00000000000E+00  0.32371888799E+03  0.20094998595E+04  0.19832538332E+04 0.  0.
        1    1    3    3  502    0  0.95900127334E+03 -0.22453348166E+03  0.27838228084E+03  0.10235210896E+04  0.50400001928E-02 0. -1.
       -1    1    3    3    0  502 -0.95900127334E+03  0.22453348166E+03  0.45336607156E+02  0.98597876986E+03  0.50400001928E-02 0.  1.
</event>
<event>
 5   0  0.2093980E-05  0.2003899E+04  0.7818609E-02  0.8604800E-01
       -1   -1    0    0    0  501  0.00000000000E+00  0.00000000000E+00  0.53625786509E+03  0.53625786511E+03  0.50400001928E-02 0.  1.
        1   -1    0    0  501    0  0.00000000000E+00  0.00000000000E+00 -0.18720521028E+04  0.18720521028E+04  0.50400001928E-02 0. -1.
    10030    2    1    2    0    0  0.00000000000E+00  0.00000000000E+00 -0.13357942377E+04  0.24083099679E+04  0.20038988637E+04 0.  0.
        2    1    3    3  502    0  0.38634487801E+03 -0.37964864707E+03 -0.16809236672E+04  0.17660407229E+04  0.25500000920E-02 0. -1.
       -2    1    3    3    0  502 -0.38634487801E+03  0.37964864707E+03  0.34512942949E+03  0.64226924502E+03  0.25500000920E-02 0.  1.
</event>
<event>
 5   0  0.4577279E-05  0.2002324E+04  0.7818609E-02  0.8605535E-01
        2   -1    0    0  501    0  0.00000000000E+00  0.00000000000E+00  0.21733557451E+04  0.21733557451E+04  0.25500000920E-02 0. -1.
       -2   -1    0    0    0  501  0.00000000000E+00  0.00000000000E+00 -0.46118796248E+03  0.46118796248E+03  0.25500000920E-02 0.  1.
    10030    2    1    2    0    0  0.00000000000E+00  0.00000000000E+00  0.17121677827E+04  0.26345437076E+04  0.20023241574E+04 0.  0.
        1    1    3    3  502    0  0.35774656624E+03 -0.26462597691E+03 -0.32392253785E+03  0.55039560669E+03  0.50400001928E-02 0.  1.
       -1    1    3    3    0  502 -0.35774656624E+03  0.26462597691E+03  0.20360903205E+04  0.20841481009E+04  0.50400001928E-02 0. -1.
</event>
<event>
 5   0  0.2256868E-05  0.2008189E+04  0.7818609E-02  0.8602802E-01
        1   -1    0    0  501    0  0.00000000000E+00  0.00000000000E+00  0.24101635368E+04  0.24101635368E+04  0.50400001928E-02 0.  1.
       -1   -1    0    0    0  501  0.00000000000E+00  0.00000000000E+00 -0.41831427214E+03  0.41831427217E+03  0.50400001928E-02 0. -1.
    10030    2    1    2    0    0  0.00000000000E+00  0.00000000000E+00  0.19918492647E+04  0.28284778090E+04  0.20081890406E+04 0.  0.
        5    1    3    3  502    0  0.47312030112E+03  0.17955860313E+03 -0.22555396944E+03  0.55405847563E+03  0.46999998093E+01 0. -1.
       -5    1    3    3    0  502 -0.47312030112E+03 -0.17955860313E+03  0.22174032341E+04  0.22744193334E+04  0.46999998093E+01 0.  1.
</event>
<event>
 5   0  0.2142551E-05  0.2005265E+04  0.7818609E-02  0.8604163E-01
       -1   -1    0    0    0  501  0.00000000000E+00  0.00000000000E+00  0.14336736240E+04  0.14336736240E+04  0.50400001928E-02 0. -1.
        1   -1    0    0  501    0  0.00000000000E+00  0.00000000000E+00 -0.70118612105E+03  0.70118612106E+03  0.50400001928E-02 0.  1.
    10030    2    1    2    0    0  0.00000000000E+00  0.00000000000E+00  0.73248750294E+03  0.21348597451E+04  0.20052651169E+04 0.  0.
        3    1    3    3  502    0  0.88362050117E+03 -0.37464470696E+03  0.57450128286E+02  0.96148030348E+03  0.10100000352E+00 0.  1.
       -3    1    3    3    0  502 -0.88362050117E+03  0.37464470696E+03  0.67503737465E+03  0.11733794416E+04  0.10100000352E+00 0. -1.
</event>
<event>
 5   0  0.4412054E-05  0.1970685E+04  0.7818609E-02  0.8620450E-01
        2   -1    0    0  501    0  0.00000000000E+00  0.00000000000E+00  0.12534417490E+04  0.12534417490E+04  0.25500000920E-02 0. -1.
       -2   -1    0    0    0  501  0.00000000000E+00  0.00000000000E+00 -0.77458692644E+03  0.77458692644E+03  0.25500000920E-02 0.  1.
    10030    2    1    2    0    0  0.00000000000E+00  0.00000000000E+00  0.47885482257E+03  0.20280286755E+04  0.19706847458E+04 0.  0.
        4    1    3    3  502    0 -0.92238880148E+02  0.86894981261E+03  0.70799640517E+03  0.11246520842E+04  0.12699999809E+01 0. -1.
       -4    1    3    3    0  502  0.92238880148E+02 -0.86894981261E+03 -0.22914158260E+03  0.90337659126E+03  0.12699999809E+01 0.  1.
</event>
<event>
 5   0  0.2110896E-05  0.1989796E+04  0.7818609E-02  0.8611406E-01
       -1   -1    0    0    0  501  0.00000000000E+00  0.00000000000E+00  0.13382735277E+04  0.13382735277E+04  0.50400001928E-02 0.  1.
        1   -1    0    0  501    0  0.00000000000E+00  0.00000000000E+00 -0.73962612326E+03  0.73962612328E+03  0.50400001928E-02 0. -1.
    10030    2    1    2    0    0  0.00000000000E+00  0.00000000000E+00  0.59864740446E+03  0.20778996510E+04  0.19897960310E+04 0.  0.
        4    1    3    3  502    0 -0.93688577885E+03  0.20369732566E+03  0.57674190022E+03  0.11188746111E+04  0.12699999809E+01 0.  1.
       -4    1    3    3    0  502  0.93688577885E+03 -0.20369732566E+03  0.21905504241E+02  0.95902503987E+03  0.12699999809E+01 0. -1.
</event>
<event>
 5   0  0.4514680E-05  0.2005706E+04  0.7818609E-02  0.8603958E-01
       -2   -1    0    0    0  501  0.00000000000E+00  0.00000000000E+00  0.69288938266E+03  0.69288938266E+03  0.25500000920E-02 0.  1.
        2   -1    0    0  501    0  0.00000000000E+00  0.00000000000E+00 -0.14514781625E+04  0.14514781625E+04  0.25500000920E-02 0. -1.
    10030    2    1    2    0    0  0.00000000000E+00  0.00000000000E+00 -0.75858877980E+03  0.21443675451E+04  0.20057056693E+04 0.  0.
        3    1    3    3  502    0  0.28468368141E+03  0.78935268740E+03 -0.96643409823E+03  0.12798895812E+04  0.10100000352E+00 0. -1.
       -3    1    3    3    0  502 -0.28468368141E+03 -0.78935268740E+03  0.20784531843E+03  0.86447796395E+03  0.10100000352E+00 0.  1.
</event>
<event>
 5   0  0.4514680E-05  0.2000187E+04  0.7818609E-02  0.8606533E-01
       -2   -1    0    0    0  501  0.00000000000E+00  0.00000000000E+00  0.39566419372E+03  0.39566419373E+03  0.25500000920E-02 0. -1.
        2   -1    0    0  501    0  0.00000000000E+00  0.00000000000E+00 -0.25278686687E+04  0.25278686687E+04  0.25500000920E-02 0.  1.
    10030    2    1    2    0    0  0.00000000000E+00  0.00000000000E+00 -0.21322044750E+04  0.29235328624E+04  0.20001871099E+04 0.  0.
        3    1    3    3  502    0  0.57524655377E+03  0.26120973841E+03  0.67059568714E+02  0.63532363487E+03  0.10100000352E+00 0. -1.
       -3    1    3    3    0  502 -0.57524655377E+03 -0.26120973841E+03 -0.21992640437E+04  0.22882092276E+04  0.10100000352E+00 0.  1.
</event>
<event>
 5   0  0.4514680E-05  0.1995283E+04  0.7818609E-02  0.8608829E-01
        2   -1    0    0  501    0  0.00000000000E+00  0.00000000000E+00  0.12795925536E+04  0.12795925536E+04  0.25500000920E-02 0. -1.
       -2   -1    0    0    0  501  0.00000000000E+00  0.00000000000E+00 -0.77781662813E+03  0.77781662814E+03  0.25500000920E-02 0.  1.
    10030    2    1    2    0    0  0.00000000000E+00  0.00000000000E+00  0.50177592542E+03  0.20574091817E+04  0.19952828024E+04 0.  0.
        3    1    3    3  502    0 -0.68420787352E+03  0.55388263879E+03 -0.23315569158E+03  0.91065250148E+03  0.10100000352E+00 0. -1.
       -3    1    3    3    0  502  0.68420787352E+03 -0.55388263879E+03  0.73493161700E+03  0.11467566802E+04  0.10100000352E+00 0.  1.
</event>
<event>
 5   0  0.2093980E-05  0.1999956E+04  0.7818609E-02  0.8606641E-01
        1   -1    0    0  501    0  0.00000000000E+00  0.00000000000E+00  0.85969130422E+03  0.85969130424E+03  0.50400001928E-02 0. -1.
       -1   -1    0    0    0  501  0.00000000000E+00  0.00000000000E+00 -0.11631574032E+04  0.11631574032E+04  0.50400001928E-02 0.  1.
    10030    2    1    2    0    0  0.00000000000E+00  0.00000000000E+00 -0.30346609899E+03  0.20228487075E+04  0.19999563045E+04 0.  0.
        2    1    3    3  502    0 -0.70794070927E+03 -0.83589013961E+02 -0.86103696863E+03  0.11178335442E+04  0.25500000920E-02 0.  1.
       -2    1    3    3    0  502  0.70794070927E+03  0.83589013961E+02  0.55757086965E+03  0.90501516329E+03  0.25500000920E-02 0. -1.
</event>
<event>
 5   0  0.4447313E-05  0.1961192E+04  0.7818609E-02  0.8624983E-01
       -2   -1    0    0    0  501  0.00000000000E+00  0.00000000000E+00  0.87220548485E+03  0.87220548485E+03  0.25500000920E-02 0.  1.
        2   -1    0    0  501    0  0.00000000000E+00  0.00000000000E+00 -0.11024561391E+04  0.11024561392E+04  0.25500000920E-02 0. -1.
    10030    2    1    2    0    0  0.00000000000E+00  0.00000000000E+00 -0.23025065430E+03  0.19746616240E+04  0.19611917717E+04 0.  0.
        5    1    3    3  502    0  0.83033818746E+03  0.49818399388E+03 -0.27077491932E+03  0.10054799572E+04  0.46999998093E+01 0. -1.
       -5    1    3    3    0  502 -0.83033818746E+03 -0.49818399388E+03  0.40524265022E+02  0.96918166685E+03  0.46999998093E+01 0.  1.
</event>
<event>
 5   0  0.4447313E-05  0.2001709E+04  0.7818609E-02  0.8605822E-01
       -2   -1    0    0    0  501  0.00000000000E+00  0.00000000000E+00  0.80339472542E+03  0.80339472542E+03  0.25500000920E-02 0.  1.
        2   -1    0    0  501    0  0.00000000000E+00  0.00000000000E+00 -0.12468460078E+04  0.12468460079E+04  0.25500000920E-02 0. -1.
    10030    2    1    2    0    0  0.00000000000E+00  0.00000000000E+00 -0.44345128243E+03  0.20502407333E+04  0.20017087761E+04 0.  0.
        5    1    3    3  502    0 -0.73499027785E+02  0.40913250579E+03 -0.11542366349E+04  0.12268153136E+04  0.46999998093E+01 0. -1.
       -5    1    3    3    0  502  0.73499027785E+02 -0.40913250579E+03  0.71078535250E+03  0.82342541963E+03  0.46999998093E+01 0.  1.
</event>
<event>
 5   0  0.4412054E-05  0.2002227E+04  0.7818609E-02  0.8605580E-01
        2   -1    0    0  501    0  0.00000000000E+00  0.00000000000E+00  0.18689507306E+04  0.18689507306E+04  0.25500000920E-02 0.  1.
       -2   -1    0    0    0  501  0.00000000000E+00  0.00000000000E+00 -0.53625182232E+03  0.53625182232E+03  0.25500000920E-02 0. -1.
    10030    2    1    2    0    0  0.00000000000E+00  0.00000000000E+00  0.13326989083E+04  0.24052025529E+04  0.20022269952E+04 0.  0.
        4    1    3    3  502    0 -0.69889967377E+03 -0.69478735222E+03  0.87797789756E+03  0.13198625005E+04  0.12699999809E+01 0.  1.
       -4    1    3    3    0  502  0.69889967377E+03  0.69478735222E+03  0.45472101069E+03  0.10853400524E+04  0.12699999809E+01 0. -1.
</event>
<event>
 5   0  0.4412054E-05  0.1999681E+04  0.7818609E-02  0.8606770E-01
        2   -1    0    0  501    0  0.00000000000E+00  0.00000000000E+00  0.17403467732E+04  0.17403467732E+04  0.25500000920E-02 0. -1.
       -2   -1    0    0    0  501  0.00000000000E+00  0.00000000000E+00 -0.57441465274E+03  0.57441465275E+03  0.25500000920E-02 0.  1.
    10030    2    1    2    0    0  0.00000000000E+00  0.00000000000E+00  0.11659321204E+04  0.23147614259E+04  0.19996806619E+04 0.  0.
        4    1    3    3  502    0 -0.45586857755E+03 -0.88881818732E+03  0.63295821043E+03  0.11825614737E+04  0.12699999809E+01 0.  1.
       -4    1    3    3    0  502  0.45586857755E+03  0.88881818732E+03  0.53297391000E+03  0.11321999522E+04  0.12699999809E+01 0. -1.
</event>
<event>
 5   0  0.2093980E-05  0.2004657E+04  0.7818609E-02  0.8604446E-01
       -1   -1    0    0    0  501  0.00000000000E+00  0.00000000000E+00  0.59484974475E+03  0.59484974477E+03  0.50400001928E-02 0. -1.
        1   -1    0    0  501    0  0.00000000000E+00  0.00000000000E+00 -0.16889353016E+04  0.16889353016E+04  0.50400001928E-02 0.  1.
    10030    2    1    2    0    0  0.00000000000E+00  0.00000000000E+00 -0.10940855568E+04  0.22837850463E+04  0.20046573104E+04 0.  0.
        2    1    3    3  502    0  0.78605320880E+03 -0.26893650513E+03 -0.11858873267E+04  0.14479417262E+04  0.25500000920E-02 0.  1.
       -2    1    3    3    0  502 -0.78605320880E+03  0.26893650513E+03  0.91801769884E+02  0.83584332014E+03  0.25500000920E-02 0. -1.
</event>
<event>
 5   0  0.4514680E-05  0.2007135E+04  0.7818609E-02  0.8603292E-01
       -2   -1    0    0    0  501  0.00000000000E+00  0.00000000000E+00  0.63876430032E+03  0.63876430032E+03  0.25500000920E-02 0. -1.
        2   -1    0    0  501    0  0.00000000000E+00  0.00000000000E+00 -0.15767118355E+04  0.15767118355E+04  0.25500000920E-02 0.  1.
    10030    2    1    2    0    0  0.00000000000E+00  0.00000000000E+00 -0.93794753514E+03  0.22154761358E+04  0.20071345071E+04 0.  0.
        3    1    3    3  502    0 -0.70922495190E+03  0.46180534883E+03 -0.10642928125E+04  0.13597732949E+04  0.10100000352E+00 0.  1.
       -3    1    3    3    0  502  0.70922495190E+03 -0.46180534883E+03  0.12634527733E+03  0.85570284089E+03  0.10100000352E+00 0. -1.
</event>
<event>
 5   0  0.2110896E-05  0.2026563E+04  0.7818609E-02  0.8594301E-01
       -1   -1    0    0    0  501  0.00000000000E+00  0.00000000000E+00  0.55700072689E+03  0.55700072692E+03  0.50400001928E-02 0. -1.
        1   -1    0    0  501    0  0.00000000000E+00  0.00000000000E+00 -0.18433361487E+04  0.18433361487E+04  0.50400001928E-02 0.  1.
    10030    2    1    2    0    0  0.00000000000E+00  0.00000000000E+00 -0.12863354218E+04  0.24003368756E+04  0.20265631742E+04 0.  0.
        4    1    3    3  502    0 -0.35690002113E+03 -0.35035790745E+03 -0.16869584719E+04  0.17595336846E+04  0.12699999809E+01 0.  1.
       -4    1    3    3    0  502  0.35690002113E+03  0.35035790745E+03  0.40062305013E+03  0.64080319100E+03  0.12699999809E+01 0. -1.
</event>
<event>
 5   0  0.4577279E-05  0.2008896E+04  0.7818609E-02  0.8602473E-01
       -2   -1    0    0    0  501  0.00000000000E+00  0.00000000000E+00  0.52038651843E+03  0.52038651843E+03  0.25500000920E-02 0.  1.
        2   -1    0    0  501    0  0.00000000000E+00  0.00000000000E+00 -0.19387812644E+04  0.19387812644E+04  0.25500000920E-02 0. -1.
    10030    2    1    2    0    0  0.00000000000E+00  0.00000000000E+00 -0.14183947460E+04  0.24591677828E+04  0.20088958481E+04 0.  0.
        1    1    3    3  502    0 -0.26777142274E+03 -0.83055971520E+03 -0.10033782684E+03  0.87840688458E+03  0.50400001928E-02 0.  1.
       -1    1    3    3    0  502  0.26777142274E+03  0.83055971520E+03 -0.13180569191E+04  0.15807608982E+04  0.50400001928E-02 0. -1.
</event>
<event>
 5   0  0.4473361E-05  0.1988237E+04  0.7818609E-02  0.8612140E-01
       -2   -1    0    0    0  501  0.00000000000E+00  0.00000000000E+00  0.65493929374E+03  0.65493929374E+03  0.25500000920E-02 0. -1.
        2   -1    0    0  501    0  0.00000000000E+00  0.00000000000E+00 -0.15089520166E+04  0.15089520166E+04  0.25500000920E-02 0.  1.
    10030    2    1    2    0    0  0.00000000000E+00  0.00000000000E+00 -0.85401272286E+03  0.21638913103E+04  0.19882373782E+04 0.  0.
        2    1    3    3  502    0  0.96275473707E+03  0.15556923122E+03 -0.21716846345E+03  0.99912992697E+03  0.25500000920E-02 0. -1.
       -2    1    3    3    0  502 -0.96275473707E+03 -0.15556923122E+03 -0.63684425940E+03  0.11647613834E+04  0.25500000920E-02 0.  1.
</event>
<event>
 5   0  0.2110896E-05  0.2002360E+04  0.7818609E-02  0.8605518E-01
       -1   -1    0    0    0  501  0.00000000000E+00  0.00000000000E+00  0.87506316946E+03  0.87506316947E+03  0.50400001928E-02 0. -1.
        1   -1    0    0  501    0  0.00000000000E+00  0.00000000000E+00 -0.11454731316E+04  0.11454731316E+04  0.50400001928E-02 0.  1.
    10030    2    1    2    0    0  0.00000000000E+00  0.00000000000E+00 -0.27040996217E+03  0.20205363011E+04  0.20023599568E+04 0.  0.
        4    1    3    3  502    0 -0.12447253723E+03 -0.75566299597E+03 -0.78591502705E+03  0.10973531877E+04  0.12699999809E+01 0.  1.
       -4    1    3    3    0  502  0.12447253723E+03  0.75566299597E+03  0.51550506488E+03  0.92318311337E+03  0.12699999809E+01 0. -1.
</event>
<event>
 5   0  0.2093980E-05  0.2002255E+04  0.7818609E-02  0.8605567E-01
       -1   -1    0    0    0  501  0.00000000000E+00  0.00000000000E+00  0.10987561383E+04  0.10987561383E+04  0.50400001928E-02 0. -1.
        1   -1    0    0  501    0  0.00000000000E+00  0.00000000000E+00 -0.91217323172E+03  0.91217323174E+03  0.50400001928E-02 0.  1.
    10030    2    1    2    0    0  0.00000000000E+00  0.00000000000E+00  0.18658290655E+03  0.20109293700E+04  0.20022546667E+04 0.  0.
        2    1    3    3  502    0  0.31660755364E+03 -0.93478271982E+03  0.26193816826E+03  0.10211124719E+04  0.25500000920E-02 0. -1.
       -2    1    3    3    0  502 -0.31660755364E+03  0.93478271982E+03 -0.75355261705E+02  0.98981689811E+03  0.25500000920E-02 0.  1.
</event>
<event>
 5   0  0.4412054E-05  0.1998357E+04  0.7818609E-02  0.8607389E-01
       -2   -1    0    0    0  501  0.00000000000E+00  0.00000000000E+00  0.73820553483E+03  0.73820553484E+03  0.25500000920E-02 0. -1.
        2   -1    0    0  501    0  0.00000000000E+00  0.00000000000E+00 -0.13524111697E+04  0.13524111697E+04  0.25500000920E-02 0.  1.
    10030    2    1    2    0    0  0.00000000000E+00  0.00000000000E+00 -0.61420563482E+03  0.20906167045E+04  0.19983567357E+04 0.  0.
        4    1    3    3  502    0  0.73502280885E+03  0.17001289240E+03  0.37827122844E+03  0.84395121202E+03  0.12699999809E+01 0. -1.
       -4    1    3    3    0  502 -0.73502280885E+03 -0.17001289240E+03 -0.99247686326E+03  0.12466654925E+04  0.12699999809E+01 0.  1.
</event>
<event>
 5   0  0.4412054E-05  0.1998902E+04  0.7818609E-02  0.8607134E-01
       -2   -1    0    0    0  501  0.00000000000E+00  0.00000000000E+00  0.43762829569E+03  0.43762829570E+03  0.25500000920E-02 0. -1.
        2   -1    0    0  501    0  0.00000000000E+00  0.00000000000E+00 -0.22825367932E+04  0.22825367932E+04  0.25500000920E-02 0.  1.
    10030    2    1    2    0    0  0.00000000000E+00  0.00000000000E+00 -0.18449084975E+04  0.27201650889E+04  0.19989023855E+04 0.  0.
        4    1    3    3  502    0 -0.73602081566E+03  0.54078607927E+03 -0.37014383040E+03  0.98548683031E+03  0.12699999809E+01 0. -1.
       -4    1    3    3    0  502  0.73602081566E+03 -0.54078607927E+03 -0.14747646671E+04  0.17346782586E+04  0.12699999809E+01 0.  1.
</event>
<event>
 5   0  0.2110896E-05  0.2002322E+04  0.7818609E-02  0.8605536E-01
        1   -1    0    0  501    0  0.00000000000E+00  0.00000000000E+00  0.14904320282E+04  0.14904320282E+04  0.50400001928E-02 0.  1.
       -1   -1    0    0    0  501  0.00000000000E+00  0.00000000000E+00 -0.67250531095E+03  0.67250531097E+03  0.50400001928E-02 0. -1.
    10030    2    1    2    0    0  0.00000000000E+00  0.00000000000E+00  0.81792671729E+03  0.21629373392E+04  0.20023221066E+04 0.  0.
        4    1    3    3  502    0 -0.46171889654E+02 -0.87952306777E+01 -0.67131196157E+03  0.67295658264E+03  0.12699999809E+01 0. -1.
       -4    1    3    3    0  502  0.46171889654E+02  0.87952306777E+01  0.14892386789E+04  0.14899807566E+04  0.12699999809E+01 0.  1.
</event>
<event>
 5   0  0.2093980E-05  0.2011675E+04  0.7818609E-02  0.8601182E-01
       -1   -1    0    0    0  501  0.00000000000E+00  0.00000000000E+00  0.14504535249E+04  0.14504535249E+04  0.50400001928E-02 0.  1.
        1   -1    0    0  501    0  0.00000000000E+00  0.00000000000E+00 -0.69751226935E+03  0.69751226937E+03  0.50400001928E-02 0. -1.
    10030    2    1    2    0    0  0.00000000000E+00  0.00000000000E+00  0.75294125554E+03  0.21479657943E+04  0.20116750530E+04 0.  0.
        2    1    3    3  502    0  0.56708087518E+02  0.64219719617E+03  0.12008372122E+04  0.13629537982E+04  0.25500000920E-02 0.  1.
       -2    1    3    3    0  502 -0.56708087518E+02 -0.64219719617E+03 -0.44789595662E+03  0.78501199604E+03  0.25500000920E-02 0. -1.
</event>
<event>
 5   0  0.4447313E-05  0.2045579E+04  0.7818609E-02  0.8585603E-01
       -2   -1    0    0    0  501  0.00000000000E+00  0.00000000000E+00  0.56109093886E+03  0.56109093887E+03  0.25500000920E-02 0.  1.
        2   -1    0    0  501    0  0.00000000000E+00  0.00000000000E+00 -0.18644004888E+04  0.18644004888E+04  0.25500000920E-02 0. -1.
    10030    2    1    2    0    0  0.00000000000E+00  0.00000000000E+00 -0.13033095499E+04  0.24254914276E+04  0.20455788625E+04 0.  0.
        5    1    3    3  502    0  0.23784097716E+03 -0.98040486242E+03 -0.85117408923E+03  0.13199550920E+04  0.46999998093E+01 0. -1.
       -5    1    3    3    0  502 -0.23784097716E+03  0.98040486242E+03 -0.45213546069E+03  0.11055363357E+04  0.46999998093E+01 0.  1.
</event>
<event>
 5   0  0.4447313E-05  0.1993417E+04  0.7818609E-02  0.8609705E-01
        2   -1    0    0  501    0  0.00000000000E+00  0.00000000000E+00  0.19788435799E+04  0.19788435799E+04  0.25500000920E-02 0. -1.
       -2   -1    0    0    0  501  0.00000000000E+00  0.00000000000E+00 -0.50202453145E+03  0.50202453145E+03  0.25500000920E-02 0.  1.
    10030    2    1    2    0    0  0.00000000000E+00  0.00000000000E+00  0.14768190485E+04  0.24808681114E+04  0.19934171877E+04 0.  0.
        5    1    3    3  502    0 -0.92165790400E+03 -0.23735953150E+03  0.11067843824E+04  0.14597214112E+04  0.46999998093E+01 0. -1.
       -5    1    3    3    0  502  0.92165790400E+03  0.23735953150E+03  0.37003466608E+03  0.10211467002E+04  0.46999998093E+01 0.  1.
</event>
<event>
 5   0  0.2256868E-05  0.2007940E+04  0.7818609E-02  0.8602917E-01
       -1   -1    0    0    0  501  0.00000000000E+00  0.00000000000E+00  0.67162107520E+03  0.67162107522E+03  0.50400001928E-02 0. -1.
        1   -1    0    0  501    0  0.00000000000E+00  0.00000000000E+00 -0.15007810660E+04  0.15007810660E+04  0.50400001928E-02 0.  1.
    10030    2    1    2    0    0  0.00000000000E+00  0.00000000000E+00 -0.82915999082E+03  0.21724021412E+04  0.20079404306E+04 0.  0.
        5    1    3    3  502    0 -0.32214797938E+03 -0.79116119533E+03  0.15608678451E+03  0.86838961988E+03  0.46999998093E+01 0. -1.
       -5    1    3    3    0  502  0.32214797938E+03  0.79116119533E+03 -0.98524677532E+03  0.13040125214E+04  0.46999998093E+01 0.  1.
</event>
<event>
 5   0  0.4473361E-05  0.1998723E+04  0.7818609E-02  0.8607218E-01
        2   -1    0    0  501    0  0.00000000000E+00  0.00000000000E+00  0.14764621911E+04  0.14764621911E+04  0.25500000920E-02 0. -1.
       -2   -1    0    0    0  501  0.00000000000E+00  0.00000000000E+00 -0.67642998415E+03  0.67642998415E+03  0.25500000920E-02 0.  1.
    10030    2    1    2    0    0  0.00000000000E+00  0.00000000000E+00  0.80003220697E+03  0.21528921753E+04  0.19987228888E+04 0.  0.
        2    1    3    3  502    0  0.13232407496E+03  0.13449055377E+01 -0.66695112529E+03  0.67995240504E+03  0.25500000920E-02 0.  1.
       -2    1    3    3    0  502 -0.13232407496E+03 -0.13449055377E+01  0.14669833323E+04  0.14729397702E+04  0.25500000920E-02 0. -1.
</event>
<event>
 5   0  0.2110896E-05  0.2001275E+04  0.7818609E-02  0.8606025E-01
        1   -1    0    0  501    0  0.00000000000E+00  0.00000000000E+00  0.11627836728E+04  0.11627836728E+04  0.50400001928E-02 0. -1.
       -1   -1    0    0    0  501  0.00000000000E+00  0.00000000000E+00 -0.86110227374E+03  0.86110227376E+03  0.50400001928E-02 0.  1.
    10030    2    1    2    0    0  0.00000000000E+00  0.00000000000E+00  0.30168139908E+03  0.20238859466E+04  0.20012752580E+04 0.  0.
        4    1    3    3  502    0 -0.96452097834E+03  0.23070201786E+03  0.16106662554E+02  0.99185945384E+03  0.12699999809E+01 0.  1.
       -4    1    3    3    0  502  0.96452097834E+03 -0.23070201786E+03  0.28557473653E+03  0.10320264928E+04  0.12699999809E+01 0. -1.
</event>
<event>
 5   0  0.4514680E-05  0.2000270E+04  0.7818609E-02  0.8606494E-01
        2   -1    0    0  501    0  0.00000000000E+00  0.00000000000E+00  0.14612669423E+04  0.14612669423E+04  0.25500000920E-02 0. -1.
       -2   -1    0    0    0  501  0.00000000000E+00  0.00000000000E+00 -0.68452248928E+03  0.68452248929E+03  0.25500000920E-02 0.  1.
    10030    2    1    2    0    0  0.00000000000E+00  0.00000000000E+00  0.77674445304E+03  0.21457894316E+04  0.20002700666E+04 0.  0.
        3    1    3    3  502    0  0.29918232805E+03  0.25526413186E+03  0.13748357089E+04  0.14299800974E+04  0.10100000352E+00 0. -1.
       -3    1    3    3    0  502 -0.29918232805E+03 -0.25526413186E+03 -0.59809125582E+03  0.71580933420E+03  0.10100000352E+00 0.  1.
</event>
<event>
 5   0  0.1601500E-05  0.1996028E+04  0.7818609E-02  0.8608480E-01
       -4   -1    0    0    0  501  0.00000000000E+00  0.00000000000E+00  0.88762879569E+03  0.88762970423E+03  0.12699999809E+01 0.  1.
        4   -1    0    0  501    0  0.00000000000E+00  0.00000000000E+00 -0.11221250991E+04  0.11221258178E+04  0.12699999809E+01 0. -1.
    10030    2    1    2    0    0  0.00000000000E+00  0.00000000000E+00 -0.23449630344E+03  0.20097555220E+04  0.19960282418E+04 0.  0.
        4    1    3    3  502    0  0.69538544584E+03  0.30096378291E+03  0.53674981646E+03  0.92856991943E+03  0.12699999809E+01 0.  1.
       -4    1    3    3    0  502 -0.69538544584E+03 -0.30096378291E+03 -0.77124611990E+03  0.10811856026E+04  0.12699999809E+01 0. -1.
</event>
<event>
 5   0  0.4473361E-05  0.2004899E+04  0.7818609E-02  0.8604334E-01
        2   -1    0    0  501    0  0.00000000000E+00  0.00000000000E+00  0.76763144435E+03  0.76763144435E+03  0.25500000920E-02 0.  1.
       -2   -1    0    0    0  501  0.00000000000E+00  0.00000000000E+00 -0.13090982690E+04  0.13090982690E+04  0.25500000920E-02 0. -1.
    10030    2    1    2    0    0  0.00000000000E+00  0.00000000000E+00 -0.54146682467E+03  0.20767297134E+04  0.20048989950E+04 0.  0.
        2    1    3    3  502    0 -0.78733648440E+03  0.36885836415E+03 -0.78755820226E+03  0.11731168546E+04  0.25500000920E-02 0. -1.
       -2    1    3    3    0  502  0.78733648440E+03 -0.36885836415E+03  0.24609137759E+03  0.90361285881E+03  0.25500000920E-02 0.  1.
</event>
<event>
 5   0  0.2142551E-05  0.1971047E+04  0.7818609E-02  0.8620278E-01
        1   -1    0    0  501    0  0.00000000000E+00  0.00000000000E+00  0.12170962410E+04  0.12170962410E+04  0.50400001928E-02 0.  1.
       -1   -1    0    0    0  501  0.00000000000E+00  0.00000000000E+00 -0.79801157906E+03  0.79801157908E+03  0.50400001928E-02 0. -1.
    10030    2    1    2    0    0  0.00000000000E+00  0.00000000000E+00  0.41908466193E+03  0.20151078201E+04  0.19710473289E+04 0.  0.
        3    1    3    3  502    0 -0.40382827633E+03  0.54792360965E+03  0.93818685273E+03  0.11590910834E+04  0.10100000352E+00 0.  1.
       -3    1    3    3    0  502  0.40382827633E+03 -0.54792360965E+03 -0.51910219080E+03  0.85601673668E+03  0.10100000352E+00 0. -1.
</event>
<event>
 5   0  0.4473361E-05  0.1982070E+04  0.7818609E-02  0.8615050E-01
       -2   -1    0    0    0  501  0.00000000000E+00  0.00000000000E+00  0.46295727199E+03  0.46295727200E+03  0.25500000920E-02 0. -1.
        2   -1    0    0  501    0  0.00000000000E+00  0.00000000000E+00 -0.21214715149E+04  0.21214715149E+04  0.25500000920E-02 0.  1.
    10030    2    1    2    0    0  0.00000000000E+00  0.00000000000E+00 -0.16585142429E+04  0.25844287869E+04  0.19820702966E+04 0.  0.
        2    1    3    3  502    0  0.10188997610E+03 -0.62059870878E+03 -0.18279369923E+04  0.19331006111E+04  0.25500000920E-02 0.  1.
       -2    1    3    3    0  502 -0.10188997610E+03  0.62059870878E+03  0.16942274944E+03  0.65132817581E+03  0.25500000920E-02 0. -1.
</event>
<event>
 5   0  0.2256868E-05  0.1999116E+04  0.7818609E-02  0.8607034E-01
       -1   -1    0    0    0  501  0.00000000000E+00  0.00000000000E+00  0.20015540738E+04  0.20015540738E+04  0.50400001928E-02 0. -1.
        1   -1    0    0  501    0  0.00000000000E+00  0.00000000000E+00 -0.49917046045E+03  0.49917046048E+03  0.50400001928E-02 0.  1.
    10030    2    1    2    0    0  0.00000000000E+00  0.00000000000E+00  0.15023836134E+04  0.25007245343E+04  0.19991164735E+04 0.  0.
        5    1    3    3  502    0  0.41111402748E+03  0.43042622886E+03 -0.25329602907E+03  0.64688673694E+03  0.46999998093E+01 0.  1.
       -5    1    3    3    0  502 -0.41111402748E+03 -0.43042622886E+03  0.17556796424E+04  0.18538377974E+04  0.46999998093E+01 0. -1.
</event>
<event>
 5   0  0.2110896E-05  0.1985630E+04  0.7818609E-02  0.8613369E-01
        1   -1    0    0  501    0  0.00000000000E+00  0.00000000000E+00  0.95898012138E+03  0.95898012139E+03  0.50400001928E-02 0. -1.
       -1   -1    0    0    0  501  0.00000000000E+00  0.00000000000E+00 -0.10278439175E+04  0.10278439175E+04  0.50400001928E-02 0.  1.
    10030    2    1    2    0    0  0.00000000000E+00  0.00000000000E+00 -0.68863796135E+02  0.19868240389E+04  0.19856302625E+04 0.  0.
        4    1    3    3  502    0  0.71657188071E+03 -0.15672576132E+03  0.63503091720E+03  0.97020827825E+03  0.12699999809E+01 0. -1.
       -4    1    3    3    0  502 -0.71657188071E+03  0.15672576132E+03 -0.70389471333E+03  0.10166157607E+04  0.12699999809E+01 0.  1.
</event>
<event>
 5   0  0.4514680E-05  0.1983486E+04  0.7818609E-02  0.8614381E-01
        2   -1    0    0  501    0  0.00000000000E+00  0.00000000000E+00  0.30457324854E+04  0.30457324854E+04  0.25500000920E-02 0.  1.
       -2   -1    0    0    0  501  0.00000000000E+00  0.00000000000E+00 -0.32292845523E+03  0.32292845524E+03  0.25500000920E-02 0. -1.
    10030    2    1    2    0    0  0.00000000000E+00  0.00000000000E+00  0.27228040302E+04  0.33686609407E+04  0.19834855044E+04 0.  0.
        3    1    3    3  502    0  0.55776393227E+03 -0.14415581797E+03  0.27324190727E+04  0.27924891232E+04  0.10100000352E+00 0.  1.
       -3    1    3    3    0  502 -0.55776393227E+03  0.14415581797E+03 -0.96150425200E+01  0.57617181747E+03  0.10100000352E+00 0. -1.
</event>
<event>
 5   0  0.2142551E-05  0.2006086E+04  0.7818609E-02  0.8603781E-01
       -1   -1    0    0    0  501  0.00000000000E+00  0.00000000000E+00  0.11250287469E+04  0.11250287469E+04  0.50400001928E-02 0. -1.
        1   -1    0    0  501    0  0.00000000000E+00  0.00000000000E+00 -0.89428370240E+03  0.89428370241E+03  0.50400001928E-02 0.  1.
    10030    2    1    2    0    0  0.00000000000E+00  0.00000000000E+00  0.23074504452E+03  0.20193124493E+04  0.20060856145E+04 0.  0.
        3    1    3    3  502    0  0.78180461295E+03  0.38119096853E+03  0.61823603293E+03  0.10671179925E+04  0.10100000352E+00 0.  1.
       -3    1    3    3    0  502 -0.78180461295E+03 -0.38119096853E+03 -0.38749098841E+03  0.95219445683E+03  0.10100000352E+00 0. -1.
</event>
<event>
 5   0  0.2093980E-05  0.1994679E+04  0.7818609E-02  0.8609113E-01
       -1   -1    0    0    0  501  0.00000000000E+00  0.00000000000E+00  0.65437397031E+03  0.65437397033E+03  0.50400001928E-02 0.  1.
        1   -1    0    0  501    0  0.00000000000E+00  0.00000000000E+00 -0.15200568214E+04  0.15200568214E+04  0.50400001928E-02 0. -1.
    10030    2    1    2    0    0  0.00000000000E+00  0.00000000000E+00 -0.86568285106E+03  0.21744307917E+04  0.19946785378E+04 0.  0.
        2    1    3    3  502    0  0.57271263424E+03 -0.48765275645E+03 -0.11467472057E+04  0.13714350609E+04  0.25500000920E-02 0. -1.
       -2    1    3    3    0  502 -0.57271263424E+03  0.48765275645E+03  0.28106435467E+03  0.80299573085E+03  0.25500000920E-02 0.  1.
</event>
<event>
 5   0  0.2093980E-05  0.2003467E+04  0.7818609E-02  0.8605001E-01
        1   -1    0    0  501    0  0.00000000000E+00  0.00000000000E+00  0.12952653211E+04  0.12952653211E+04  0.50400001928E-02 0.  1.
       -1   -1    0    0    0  501  0.00000000000E+00  0.00000000000E+00 -0.77472160808E+03  0.77472160809E+03  0.50400001928E-02 0. -1.
    10030    2    1    2    0    0  0.00000000000E+00  0.00000000000E+00  0.52054371300E+03  0.20699869292E+04  0.20034670274E+04 0.  0.
        2    1    3    3  502    0  0.81407027922E+03 -0.26283799104E+03  0.79880307446E+03  0.11704189766E+04  0.25500000920E-02 0.  1.
       -2    1    3    3    0  502 -0.81407027922E+03  0.26283799104E+03 -0.27825936146E+03  0.89956795257E+03  0.25500000920E-02 0. -1.
</event>
<event>
 5   0  0.4412054E-05  0.2000672E+04  0.7818609E-02  0.8606306E-01
        2   -1    0    0  501    0  0.00000000000E+00  0.00000000000E+00  0.17776124796E+04  0.17776124796E+04  0.25500000920E-02 0. -1.
       -2   -1    0    0    0  501  0.00000000000E+00  0.00000000000E+00 -0.56293046965E+03  0.56293046965E+03  0.25500000920E-02 0.  1.
    10030    2    1    2    0    0  0.00000000000E+00  0.00000000000E+00  0.12146820099E+04  0.23405429492E+04  0.20006721151E+04 0.  0.
        4    1    3    3  502    0 -0.60648383864E+03 -0.52589452989E+03  0.13056348152E+04  0.15326681267E+04  0.12699999809E+01 0. -1.
       -4    1    3    3    0  502  0.60648383864E+03  0.52589452989E+03 -0.90952805301E+02  0.80787482248E+03  0.12699999809E+01 0.  1.
</event>
<event>
 5   0  0.2007644E-05  0.1994841E+04  0.7818609E-02  0.8609037E-01
       -1   -1    0    0    0  501  0.00000000000E+00  0.00000000000E+00  0.61496211732E+03  0.61496211734E+03  0.50400001928E-02 0.  1.
        1   -1    0    0  501    0  0.00000000000E+00  0.00000000000E+00 -0.16177378590E+04  0.16177378590E+04  0.50400001928E-02 0. -1.
    10030    2    1    2    0    0  0.00000000000E+00  0.00000000000E+00 -0.10027757417E+04  0.22326999764E+04  0.19948408449E+04 0.  0.
        1    1    3    3  502    0 -0.10810201480E+03  0.98737482799E+03 -0.60306243448E+03  0.11620152307E+04  0.50400001928E-02 0.  1.
       -1    1    3    3    0  502  0.10810201480E+03 -0.98737482799E+03 -0.39971330722E+03  0.10706847456E+04  0.50400001928E-02 0. -1.
</event>
<event>
 5   0  0.2007644E-05  0.2007113E+04  0.7818609E-02  0.8603302E-01
        1   -1    0    0  501    0  0.00000000000E+00  0.00000000000E+00  0.56642143704E+03  0.56642143706E+03  0.50400001928E-02 0. -1.
       -1   -1    0    0    0  501  0.00000000000E+00  0.00000000000E+00 -0.17780501333E+04  0.17780501333E+04  0.50400001928E-02 0.  1.
    10030    2    1    2    0    0  0.00000000000E+00  0.00000000000E+00 -0.12116286963E+04  0.23444715704E+04  0.20071130628E+04 0.  0.
        1    1    3    3  502    0 -0.32041364436E+03  0.29596846501E+03  0.44990352058E+03  0.62663818398E+03  0.50400001928E-02 0. -1.
       -1    1    3    3    0  502  0.32041364436E+03 -0.29596846501E+03 -0.16615322169E+04  0.17178333864E+04  0.50400001928E-02 0.  1.
</event>
<event>
 5   0  0.4447313E-05  0.1978544E+04  0.7818609E-02  0.8616718E-01
       -2   -1    0    0    0  501  0.00000000000E+00  0.00000000000E+00  0.56887797057E+03  0.56887797058E+03  0.25500000920E-02 0.  1.
        2   -1    0    0  501    0  0.00000000000E+00  0.00000000000E+00 -0.17203319476E+04  0.17203319476E+04  0.25500000920E-02 0. -1.
    10030    2    1    2    0    0  0.00000000000E+00  0.00000000000E+00 -0.11514539770E+04  0.22892099181E+04  0.19785438555E+04 0.  0.
        5    1    3    3  502    0 -0.56594265937E+03  0.77584367918E+03 -0.30092047060E+03  0.10063795148E+04  0.46999998093E+01 0.  1.
       -5    1    3    3    0  502  0.56594265937E+03 -0.77584367918E+03 -0.85053350638E+03  0.12828304033E+04  0.46999998093E+01 0. -1.
</event>
<event>
 5   0  0.4577279E-05  0.1999847E+04  0.7818609E-02  0.8606692E-01
       -2   -1    0    0    0  501  0.00000000000E+00  0.00000000000E+00  0.18731412798E+04  0.18731412798E+04  0.25500000920E-02 0.  1.
        2   -1    0    0  501    0  0.00000000000E+00  0.00000000000E+00 -0.53378090658E+03  0.53378090659E+03  0.25500000920E-02 0. -1.
    10030    2    1    2    0    0  0.00000000000E+00  0.00000000000E+00  0.13393603732E+04  0.24069221864E+04  0.19998470446E+04 0.  0.
        1    1    3    3  502    0 -0.25576734690E+03  0.30975356467E+03  0.17717582554E+04  0.18167254945E+04  0.50400001928E-02 0.  1.
       -1    1    3    3    0  502  0.25576734690E+03 -0.30975356467E+03 -0.43239788222E+03  0.59019669191E+03  0.50400001928E-02 0. -1.
</event>
<event>
 5   0  0.4577279E-05  0.1997606E+04  0.7818609E-02  0.8607741E-01
       -2   -1    0    0    0  501  0.00000000000E+00  0.00000000000E+00  0.92966032781E+03  0.92966032781E+03  0.25500000920E-02 0. -1.
        2   -1    0    0  501    0  0.00000000000E+00  0.00000000000E+00 -0.10730880960E+04  0.10730880960E+04  0.25500000920E-02 0.  1.
    10030    2    1    2    0    0  0.00000000000E+00  0.00000000000E+00 -0.14342776818E+03  0.20027484238E+04  0.19976059983E+04 0.  0.
        1    1    3    3  502    0  0.66856406441E+03 -0.70718953717E+03  0.15361450753E+03  0.98523721340E+03  0.50400001928E-02 0. -1.
       -1    1    3    3    0  502 -0.66856406441E+03  0.70718953717E+03 -0.29704227572E+03  0.10175112104E+04  0.50400001928E-02 0.  1.
</event>
<event>
 5   0  0.2142551E-05  0.1996512E+04  0.7818609E-02  0.8608253E-01
        1   -1    0    0  501    0  0.00000000000E+00  0.00000000000E+00  0.94085729585E+03  0.94085729587E+03  0.50400001928E-02 0.  1.
       -1   -1    0    0    0  501  0.00000000000E+00  0.00000000000E+00 -0.10591568529E+04  0.10591568529E+04  0.50400001928E-02 0. -1.
    10030    2    1    2    0    0  0.00000000000E+00  0.00000000000E+00 -0.11829955702E+03  0.20000141488E+04  0.19965124117E+04 0.  0.
        3    1    3    3  502    0  0.48383429582E+02 -0.39195071295E+03  0.85927290961E+03  0.94568296010E+03  0.10100000352E+00 0.  1.
       -3    1    3    3    0  502 -0.48383429582E+02  0.39195071295E+03 -0.97757246663E+03  0.10543311887E+04  0.10100000352E+00 0. -1.
</event>
<event>
 5   0  0.4447313E-05  0.1975551E+04  0.7818609E-02  0.8618138E-01
        2   -1    0    0  501    0  0.00000000000E+00  0.00000000000E+00  0.10886819239E+04  0.10886819239E+04  0.25500000920E-02 0.  1.
       -2   -1    0    0    0  501  0.00000000000E+00  0.00000000000E+00 -0.89622148112E+03  0.89622148112E+03  0.25500000920E-02 0. -1.
    10030    2    1    2    0    0  0.00000000000E+00  0.00000000000E+00  0.19246044276E+03  0.19849034050E+04  0.19755506840E+04 0.  0.
        5    1    3    3  502    0 -0.90130108807E+03  0.30332213769E+03 -0.17211107440E+03  0.96643276150E+03  0.46999998093E+01 0.  1.
       -5    1    3    3    0  502  0.90130108807E+03 -0.30332213769E+03  0.36457151716E+03  0.10184706435E+04  0.46999998093E+01 0. -1.
</event>
<event>
 5   0  0.4473361E-05  0.1999551E+04  0.7818609E-02  0.8606831E-01
       -2   -1    0    0    0  501  0.00000000000E+00  0.00000000000E+00  0.84060349698E+03  0.84060349698E+03  0.25500000920E-02 0. -1.
        2   -1    0    0  501    0  0.00000000000E+00  0.00000000000E+00 -0.11890875649E+04  0.11890875649E+04  0.25500000920E-02 0.  1.
    10030    2    1    2    0    0  0.00000000000E+00  0.00000000000E+00 -0.34848406793E+03  0.20296910619E+04  0.19995511149E+04 0.  0.
        2    1    3    3  502    0  0.23296841148E+03  0.22914907304E+03 -0.11333480956E+04  0.11795174794E+04  0.25500000920E-02 0.  1.
       -2    1    3    3    0  502 -0.23296841148E+03 -0.22914907304E+03  0.78486402767E+03  0.85017358248E+03  0.25500000920E-02 0. -1.
</event>
<event>
 5   0  0.2256868E-05  0.1997960E+04  0.7818609E-02  0.8607575E-01
       -1   -1    0    0    0  501  0.00000000000E+00  0.00000000000E+00  0.87271490190E+03  0.87271490192E+03  0.50400001928E-02 0. -1.
        1   -1    0    0  501    0  0.00000000000E+00  0.00000000000E+00 -0.11435134076E+04  0.11435134076E+04  0.50400001928E-02 0.  1.
    10030    2    1    2    0    0  0.00000000000E+00  0.00000000000E+00 -0.27079850570E+03  0.20162283095E+04  0.19979601511E+04 0.  0.
        5    1    3    3  502    0  0.69861734244E+03  0.80927775035E+02 -0.85133910168E+03  0.11042716387E+04  0.46999998093E+01 0.  1.
       -5    1    3    3    0  502 -0.69861734244E+03 -0.80927775035E+02  0.58054059598E+03  0.91195667086E+03  0.46999998093E+01 0. -1.
</event>
<event>
 5   0  0.4577279E-05  0.1995400E+04  0.7818609E-02  0.8608775E-01
        2   -1    0    0  501    0  0.00000000000E+00  0.00000000000E+00  0.15402761028E+04  0.15402761028E+04  0.25500000920E-02 0.  1.
       -2   -1    0    0    0  501  0.00000000000E+00  0.00000000000E+00 -0.64625089875E+03  0.64625089875E+03  0.25500000920E-02 0. -1.
    10030    2    1    2    0    0  0.00000000000E+00  0.00000000000E+00  0.89402520403E+03  0.21865270015E+04  0.19953995247E+04 0.  0.
        1    1    3    3  502    0 -0.63016521583E+02  0.96573767979E+03  0.71269101899E+03  0.12018938542E+04  0.50400001928E-02 0.  1.
       -1    1    3    3    0  502  0.63016521583E+02 -0.96573767979E+03  0.18133418504E+03  0.98463314734E+03  0.50400001928E-02 0. -1.
</event>
<event>
 5   0  0.4412054E-05  0.1997135E+04  0.7818609E-02  0.8607961E-01
        2   -1    0    0  501    0  0.00000000000E+00  0.00000000000E+00  0.15574356409E+04  0.15574356409E+04  0.25500000920E-02 0.  1.
       -2   -1    0    0    0  501  0.00000000000E+00  0.00000000000E+00 -0.64024306060E+03  0.64024306060E+03  0.25500000920E-02 0. -1.
    10030    2    1    2    0    0  0.00000000000E+00  0.00000000000E+00  0.91719258026E+03  0.21976787015E+04  0.19971353098E+04 0.  0.
        4    1    3    3  502    0  0.62890878967E+03 -0.10383090572E+03 -0.38724225761E+03  0.74583195271E+03  0.12699999809E+01 0. -1.
       -4    1    3    3    0  502 -0.62890878967E+03  0.10383090572E+03  0.13044348379E+04  0.14518467487E+04  0.12699999809E+01 0.  1.
</event>
<event>
 5   0  0.4577279E-05  0.1985498E+04  0.7818609E-02  0.8613431E-01
       -2   -1    0    0    0  501  0.00000000000E+00  0.00000000000E+00  0.15301429648E+04  0.15301429648E+04  0.25500000920E-02 0.  1.
        2   -1    0    0  501    0  0.00000000000E+00  0.00000000000E+00 -0.64409076180E+03  0.64409076180E+03  0.25500000920E-02 0. -1.
    10030    2    1    2    0    0  0.00000000000E+00  0.00000000000E+00  0.88605220297E+03  0.21742337266E+04  0.19854983735E+04 0.  0.
        1    1    3    3  502    0  0.97193498616E+03  0.15291125076E+02  0.66383561119E+03  0.11771020153E+04  0.50400001928E-02 0.  1.
       -1    1    3    3    0  502 -0.97193498616E+03 -0.15291125076E+02  0.22221659179E+03  0.99713171122E+03  0.50400001928E-02 0. -1.
</event>
<event>
 5   0  0.4473361E-05  0.2009810E+04  0.7818609E-02  0.8602048E-01
        2   -1    0    0  501    0  0.00000000000E+00  0.00000000000E+00  0.88207844573E+03  0.88207844574E+03  0.25500000920E-02 0. -1.
       -2   -1    0    0    0  501  0.00000000000E+00  0.00000000000E+00 -0.11448344785E+04  0.11448344785E+04  0.25500000920E-02 0.  1.
    10030    2    1    2    0    0  0.00000000000E+00  0.00000000000E+00 -0.26275603273E+03  0.20269129242E+04  0.20098097595E+04 0.  0.
        2    1    3    3  502    0  0.85178028034E+03 -0.59666504249E+02 -0.66573986595E+03  0.10827277159E+04  0.25500000920E-02 0.  1.
       -2    1    3    3    0  502 -0.85178028034E+03  0.59666504249E+02  0.40298383322E+03  0.94418520828E+03  0.25500000920E-02 0. -1.
</event>
<event>
 5   0  0.2093980E-05  0.2003090E+04  0.7818609E-02  0.8605177E-01
       -1   -1    0    0    0  501  0.00000000000E+00  0.00000000000E+00  0.69195714044E+03  0.69195714046E+03  0.50400001928E-02 0. -1.
        1   -1    0    0  501    0  0.00000000000E+00  0.00000000000E+00 -0.14496456354E+04  0.14496456354E+04  0.50400001928E-02 0.  1.
    10030    2    1    2    0    0  0.00000000000E+00  0.00000000000E+00 -0.75768849499E+03  0.21416027759E+04  0.20030902612E+04 0.  0.
        2    1    3    3  502    0  0.40026766704E+03  0.64609050497E+03  0.31852111124E+03  0.82407696498E+03  0.25500000920E-02 0. -1.
       -2    1    3    3    0  502 -0.40026766704E+03 -0.64609050497E+03 -0.10762096062E+04  0.13175258109E+04  0.25500000920E-02 0.  1.
</event>
<event>
 5   0  0.2093980E-05  0.1998316E+04  0.7818609E-02  0.8607409E-01
        1   -1    0    0  501    0  0.00000000000E+00  0.00000000000E+00  0.21055442860E+04  0.21055442860E+04  0.50400001928E-02 0.  1.
       -1   -1    0    0    0  501  0.00000000000E+00  0.00000000000E+00 -0.47413694819E+03  0.47413694822E+03  0.50400001928E-02 0. -1.
    10030    2    1    2    0    0  0.00000000000E+00  0.00000000000E+00  0.16314073378E+04  0.25796812342E+04  0.19983156328E+04 0.  0.
        2    1    3    3  502    0 -0.52353123699E+03  0.40898272579E+02 -0.28162956132E+03  0.59587988271E+03  0.25500000920E-02 0. -1.
       -2    1    3    3    0  502  0.52353123699E+03 -0.40898272579E+02  0.19130368991E+04  0.19838013515E+04  0.25500000920E-02 0.  1.
</event>
<event>
 5   0  0.4577279E-05  0.2009376E+04  0.7818609E-02  0.8602249E-01
        2   -1    0    0  501    0  0.00000000000E+00  0.00000000000E+00  0.15829916248E+04  0.15829916248E+04  0.25500000920E-02 0. -1.
       -2   -1    0    0    0  501  0.00000000000E+00  0.00000000000E+00 -0.63765232872E+03  0.63765232873E+03  0.25500000920E-02 0.  1.
    10030    2    1    2    0    0  0.00000000000E+00  0.00000000000E+00  0.94533929605E+03  0.22206439535E+04  0.20093763171E+04 0.  0.
        1    1    3    3  502    0  0.29123144285E+03  0.93197030643E+03  0.73422615049E+03  0.12216678949E+04  0.50400001928E-02 0.  1.
       -1    1    3    3    0  502 -0.29123144285E+03 -0.93197030643E+03  0.21111314555E+03  0.99897605858E+03  0.50400001928E-02 0. -1.
</event>
<event>
 5   0  0.2007644E-05  0.1999490E+04  0.7818609E-02  0.8606859E-01
       -1   -1    0    0    0  501  0.00000000000E+00  0.00000000000E+00  0.11162438379E+04  0.11162438380E+04  0.50400001928E-02 0.  1.
        1   -1    0    0  501    0  0.00000000000E+00  0.00000000000E+00 -0.89540485530E+03  0.89540485531E+03  0.50400001928E-02 0. -1.
    10030    2    1    2    0    0  0.00000000000E+00  0.00000000000E+00  0.22083898265E+03  0.20116486933E+04  0.19994900872E+04 0.  0.
        1    1    3    3  502    0 -0.73968832687E+03  0.28957916002E+03  0.72114888984E+03  0.10728702774E+04  0.50400001928E-02 0.  1.
       -1    1    3    3    0  502  0.73968832687E+03 -0.28957916002E+03 -0.50030990719E+03  0.93877841586E+03  0.50400001928E-02 0. -1.
</event>
<event>
 5   0  0.2256868E-05  0.1975004E+04  0.7818609E-02  0.8618397E-01
       -1   -1    0    0    0  501  0.00000000000E+00  0.00000000000E+00  0.48361549894E+03  0.48361549897E+03  0.50400001928E-02 0. -1.
        1   -1    0    0  501    0  0.00000000000E+00  0.00000000000E+00 -0.20163952635E+04  0.20163952635E+04  0.50400001928E-02 0.  1.
    10030    2    1    2    0    0  0.00000000000E+00  0.00000000000E+00 -0.15327797646E+04  0.25000107625E+04  0.19750037990E+04 0.  0.
        5    1    3    3  502    0 -0.33199697051E+03 -0.77754266838E+03 -0.12051683135E+03  0.85401462880E+03  0.46999998093E+01 0.  1.
       -5    1    3    3    0  502  0.33199697051E+03  0.77754266838E+03 -0.14122629332E+04  0.16459961337E+04  0.46999998093E+01 0. -1.
</event>
<event>
 5   0  0.4577279E-05  0.1979477E+04  0.7818609E-02  0.8616276E-01
        2   -1    0    0  501    0  0.00000000000E+00  0.00000000000E+00  0.99832727586E+03  0.99832727587E+03  0.25500000920E-02 0. -1.
       -2   -1    0    0    0  501  0.00000000000E+00  0.00000000000E+00 -0.98122348884E+03  0.98122348884E+03  0.25500000920E-02 0.  1.
    10030    2    1    2    0    0  0.00000000000E+00  0.00000000000E+00  0.17103787026E+02  0.19795507647E+04  0.19794768729E+04 0.  0.
        1    1    3    3  502    0 -0.43800312448E+03  0.41840084739E+03  0.79131744488E+03  0.99653866194E+03  0.50400001928E-02 0. -1.
       -1    1    3    3    0  502  0.43800312448E+03 -0.41840084739E+03 -0.77421365786E+03  0.98301210277E+03  0.50400001928E-02 0.  1.
</event>
<event>
 5   0  0.2110896E-05  0.2003727E+04  0.7818609E-02  0.8604880E-01
       -1   -1    0    0    0  501  0.00000000000E+00  0.00000000000E+00  0.10358755197E+04  0.10358755197E+04  0.50400001928E-02 0.  1.
        1   -1    0    0  501    0  0.00000000000E+00  0.00000000000E+00 -0.96896868149E+03  0.96896868150E+03  0.50400001928E-02 0. -1.
    10030    2    1    2    0    0  0.00000000000E+00  0.00000000000E+00  0.66906838244E+02  0.20048442013E+04  0.20037274631E+04 0.  0.
        4    1    3    3  502    0  0.65102414392E+03 -0.25078396617E+03  0.75288426013E+03  0.10264313692E+04  0.12699999809E+01 0.  1.
       -4    1    3    3    0  502 -0.65102414392E+03  0.25078396617E+03 -0.68597742189E+03  0.97841283204E+03  0.12699999809E+01 0. -1.
</event>
<event>
 5   0  0.4473361E-05  0.2001320E+04  0.7818609E-02  0.8606004E-01
       -2   -1    0    0    0  501  0.00000000000E+00  0.00000000000E+00  0.42743407394E+03  0.42743407394E+03  0.25500000920E-02 0. -1.
        2   -1    0    0  501    0  0.00000000000E+00  0.00000000000E+00 -0.23426308216E+04  0.23426308216E+04  0.25500000920E-02 0.  1.
    10030    2    1    2    0    0  0.00000000000E+00  0.00000000000E+00 -0.19151967477E+04  0.27700648955E+04  0.20013198003E+04 0.  0.
        2    1    3    3  502    0  0.34949699257E+03 -0.92878429191E+03 -0.77963366895E+03  0.12619893290E+04  0.25500000920E-02 0.  1.
       -2    1    3    3    0  502 -0.34949699257E+03  0.92878429191E+03 -0.11355630787E+04  0.15080755666E+04  0.25500000920E-02 0. -1.
</event>
<event>
 5   0  0.2110896E-05  0.2000395E+04  0.7818609E-02  0.8606436E-01
       -1   -1    0    0    0  501  0.00000000000E+00  0.00000000000E+00  0.17229697983E+04  0.17229697984E+04  0.50400001928E-02 0. -1.
        1   -1    0    0  501    0  0.00000000000E+00  0.00000000000E+00 -0.58062279273E+03  0.58062279275E+03  0.50400001928E-02 0.  1.
    10030    2    1    2    0    0  0.00000000000E+00  0.00000000000E+00  0.11423470056E+04  0.23035925911E+04  0.20003954970E+04 0.  0.
        4    1    3    3  502    0  0.84549620143E+03  0.31318343055E+03  0.10697458259E+04  0.13990373236E+04  0.12699999809E+01 0. -1.
       -4    1    3    3    0  502 -0.84549620143E+03 -0.31318343055E+03  0.72601179710E+02  0.90455526752E+03  0.12699999809E+01 0.  1.
</event>
<event>
 5   0  0.2007644E-05  0.2035645E+04  0.7818609E-02  0.8590134E-01
       -1   -1    0    0    0  501  0.00000000000E+00  0.00000000000E+00  0.10333378341E+04  0.10333378341E+04  0.50400001928E-02 0.  1.
        1   -1    0    0  501    0  0.00000000000E+00  0.00000000000E+00 -0.10025402305E+04  0.10025402305E+04  0.50400001928E-02 0. -1.
    10030    2    1    2    0    0  0.00000000000E+00  0.00000000000E+00  0.30797603561E+02  0.20358780646E+04  0.20356451069E+04 0.  0.
        1    1    3    3  502    0 -0.45262864504E+03 -0.80664949014E+02 -0.89277076726E+03  0.10042007604E+04  0.50400001928E-02 0. -1.
       -1    1    3    3    0  502  0.45262864504E+03  0.80664949014E+02  0.92356837082E+03  0.10316773042E+04  0.50400001928E-02 0.  1.
</event>
<event>
 5   0  0.4447313E-05  0.2025439E+04  0.7818609E-02  0.8594819E-01
        2   -1    0    0  501    0  0.00000000000E+00  0.00000000000E+00  0.13598608465E+04  0.13598608465E+04  0.25500000920E-02 0.  1.
       -2   -1    0    0    0  501  0.00000000000E+00  0.00000000000E+00 -0.75419522295E+03  0.75419522296E+03  0.25500000920E-02 0. -1.
    10030    2    1    2    0    0  0.00000000000E+00  0.00000000000E+00  0.60566562353E+03  0.21140560694E+04  0.20254387715E+04 0.  0.
        5    1    3    3  502    0 -0.92303302971E+03  0.16828615458E+03  0.70064927372E+03  0.11710002983E+04  0.46999998093E+01 0. -1.
       -5    1    3    3    0  502  0.92303302971E+03 -0.16828615458E+03 -0.94983650188E+02  0.94305577119E+03  0.46999998093E+01 0.  1.
</event>
<event>
 5   0  0.2142551E-05  0.1995924E+04  0.7818609E-02  0.8608529E-01
        1   -1    0    0  501    0  0.00000000000E+00  0.00000000000E+00  0.10734949587E+04  0.10734949587E+04  0.50400001928E-02 0. -1.
       -1   -1    0    0    0  501  0.00000000000E+00  0.00000000000E+00 -0.92774386476E+03  0.92774386478E+03  0.50400001928E-02 0.  1.
    10030    2    1    2    0    0  0.00000000000E+00  0.00000000000E+00  0.14575109391E+03  0.20012388235E+04  0.19959242088E+04 0.  0.
        3    1    3    3  502    0 -0.85804638954E+03 -0.16669152480E+03  0.55571640439E+03  0.10357849214E+04  0.10100000352E+00 0. -1.
       -3    1    3    3    0  502  0.85804638954E+03  0.16669152480E+03 -0.40996531048E+03  0.96545390208E+03  0.10100000352E+00 0.  1.
</event>
<event>
 5   0  0.2142551E-05  0.1986040E+04  0.7818609E-02  0.8613175E-01
       -1   -1    0    0    0  501  0.00000000000E+00  0.00000000000E+00  0.62702488522E+03  0.62702488524E+03  0.50400001928E-02 0. -1.
        1   -1    0    0  501    0  0.00000000000E+00  0.00000000000E+00 -0.15726466561E+04  0.15726466561E+04  0.50400001928E-02 0.  1.
    10030    2    1    2    0    0  0.00000000000E+00  0.00000000000E+00 -0.94562177088E+03  0.21996715414E+04  0.19860398677E+04 0.  0.
        3    1    3    3  502    0  0.54926665380E+03  0.13102741364E+03  0.43189315475E+03  0.71091050591E+03  0.10100000352E+00 0. -1.
       -3    1    3    3    0  502 -0.54926665380E+03 -0.13102741364E+03 -0.13775149256E+04  0.14887610354E+04  0.10100000352E+00 0.  1.
</event>
<event>
 5   0  0.4473361E-05  0.2014650E+04  0.7818609E-02  0.8599802E-01
       -2   -1    0    0    0  501  0.00000000000E+00  0.00000000000E+00  0.73908578274E+03  0.73908578275E+03  0.25500000920E-02 0. -1.
        2   -1    0    0  501    0  0.00000000000E+00  0.00000000000E+00 -0.13729172883E+04  0.13729172883E+04  0.25500000920E-02 0.  1.
    10030    2    1    2    0    0  0.00000000000E+00  0.00000000000E+00 -0.63383150559E+03  0.21120030711E+04  0.20146499931E+04 0.  0.
        2    1    3    3  502    0 -0.23358242264E+03 -0.51746956611E+02  0.70886944317E+03  0.74815398358E+03  0.25500000920E-02 0. -1.
       -2    1    3    3    0  502  0.23358242264E+03  0.51746956611E+02 -0.13427009488E+04  0.13638490875E+04  0.25500000920E-02 0.  1.
</event>
<event>
 5   0  0.4412054E-05  0.2000315E+04  0.7818609E-02  0.8606473E-01
       -2   -1    0    0    0  501  0.00000000000E+00  0.00000000000E+00  0.10049151399E+04  0.10049151399E+04  0.25500000920E-02 0.  1.
        2   -1    0    0  501    0  0.00000000000E+00  0.00000000000E+00 -0.99542237891E+03  0.99542237892E+03  0.25500000920E-02 0. -1.
    10030    2    1    2    0    0  0.00000000000E+00  0.00000000000E+00  0.94927610314E+01  0.20003375189E+04  0.20003149944E+04 0.  0.
        4    1    3    3  502    0  0.18683916730E+03 -0.98164099503E+03 -0.37509139345E+02  0.99996823250E+03  0.12699999809E+01 0.  1.
       -4    1    3    3    0  502 -0.18683916730E+03  0.98164099503E+03  0.47001900376E+02  0.10003692864E+04  0.12699999809E+01 0. -1.
</event>
<event>
 5   0  0.2142551E-05  0.2000829E+04  0.7818609E-02  0.8606233E-01
        1   -1    0    0  501    0  0.00000000000E+00  0.00000000000E+00  0.12050153910E+04  0.12050153910E+04  0.50400001928E-02 0.  1.
       -1   -1    0    0    0  501  0.00000000000E+00  0.00000000000E+00 -0.83055321606E+03  0.83055321607E+03  0.50400001928E-02 0. -1.
    10030    2    1    2    0    0  0.00000000000E+00  0.00000000000E+00  0.37446217494E+03  0.20355686071E+04  0.20008292365E+04 0.  0.
        3    1    3    3  502    0 -0.17535499680E+03 -0.79124986530E+03  0.78393276687E+03  0.11275532437E+04  0.10100000352E+00 0.  1.
       -3    1    3    3    0  502  0.17535499680E+03  0.79124986530E+03 -0.40947059193E+03  0.90801536336E+03  0.10100000352E+00 0. -1.
</event>
<event>
 5   0  0.4473361E-05  0.2002601E+04  0.7818609E-02  0.8605406E-01
        2   -1    0    0  501    0  0.00000000000E+00  0.00000000000E+00  0.82485059449E+03  0.82485059450E+03  0.25500000920E-02 0. -1.
       -2   -1    0    0    0  501  0.00000000000E+00  0.00000000000E+00 -0.12154959621E+04  0.12154959621E+04  0.25500000920E-02 0.  1.
    10030    2    1    2    0    0  0.00000000000E+00  0.00000000000E+00 -0.39064536764E+03  0.20403465566E+04  0.20026008758E+04 0.  0.
        2    1    3    3  502    0  0.42990037215E+03  0.15826548039E+03 -0.11024641076E+04  0.11938548492E+04  0.25500000920E-02 0.  1.
       -2    1    3    3    0  502 -0.42990037215E+03 -0.15826548039E+03  0.71181873997E+03  0.84649170748E+03  0.25500000920E-02 0. -1.
</event>
<event>
 5   0  0.4412054E-05  0.1991445E+04  0.7818609E-02  0.8610631E-01
       -2   -1    0    0    0  501  0.00000000000E+00  0.00000000000E+00  0.12643572042E+04  0.12643572042E+04  0.25500000920E-02 0. -1.
        2   -1    0    0  501    0  0.00000000000E+00  0.00000000000E+00 -0.78416373666E+03  0.78416373666E+03  0.25500000920E-02 0.  1.
    10030    2    1    2    0    0  0.00000000000E+00  0.00000000000E+00  0.48019346753E+03  0.20485209409E+04  0.19914447717E+04 0.  0.
        4    1    3    3  502    0  0.69570857513E+03 -0.29819417670E+03  0.90557840084E+03  0.11802559220E+04  0.12699999809E+01 0. -1.
       -4    1    3    3    0  502 -0.69570857513E+03  0.29819417670E+03 -0.42538493331E+03  0.86826501882E+03  0.12699999809E+01 0.  1.
</event>
<event>
 5   0  0.4514680E-05  0.1999042E+04  0.7818609E-02  0.8607069E-01
        2   -1    0    0  501    0  0.00000000000E+00  0.00000000000E+00  0.91245952115E+03  0.91245952116E+03  0.25500000920E-02 0.  1.
       -2   -1    0    0    0  501  0.00000000000E+00  0.00000000000E+00 -0.10948896177E+04  0.10948896177E+04  0.25500000920E-02 0. -1.
    10030    2    1    2    0    0  0.00000000000E+00  0.00000000000E+00 -0.18243009657E+03  0.20073491389E+04  0.19990422270E+04 0.  0.
        3    1    3    3  502    0  0.29354473027E+03 -0.92814128968E+03  0.13650403695E+03  0.98297920863E+03  0.10100000352E+00 0.  1.
       -3    1    3    3    0  502 -0.29354473027E+03  0.92814128968E+03 -0.31893413352E+03  0.10243699303E+04  0.10100000352E+00 0. -1.
</event>
<event>
 5   0  0.2142551E-05  0.1998414E+04  0.7818609E-02  0.8607363E-01
       -1   -1    0    0    0  501  0.00000000000E+00  0.00000000000E+00  0.80558342877E+03  0.80558342879E+03  0.50400001928E-02 0. -1.
        1   -1    0    0  501    0  0.00000000000E+00  0.00000000000E+00 -0.12393677656E+04  0.12393677656E+04  0.50400001928E-02 0.  1.
    10030    2    1    2    0    0  0.00000000000E+00  0.00000000000E+00 -0.43378433685E+03  0.20449511944E+04  0.19984135049E+04 0.  0.
        3    1    3    3  502    0  0.27413648153E+03  0.51905847891E+03 -0.10443271331E+04  0.11979948607E+04  0.10100000352E+00 0.  1.
       -3    1    3    3    0  502 -0.27413648153E+03 -0.51905847891E+03  0.61054279625E+03  0.84695633376E+03  0.10100000352E+00 0. -1.
</event>
<event>
 5   0  0.4473361E-05  0.1938819E+04  0.7818609E-02  0.8635771E-01
        2   -1    0    0  501    0  0.00000000000E+00  0.00000000000E+00  0.57755305043E+03  0.57755305043E+03  0.25500000920E-02 0.  1.
       -2   -1    0    0    0  501  0.00000000000E+00  0.00000000000E+00 -0.16271322454E+04  0.16271322454E+04  0.25500000920E-02 0. -1.
    10030    2    1    2    0    0  0.00000000000E+00  0.00000000000E+00 -0.10495791949E+04  0.22046852958E+04  0.19388194261E+04 0.  0.
        2    1    3    3  502    0  0.28921111393E+02  0.86839325493E+03 -0.10136380308E+04  0.13350675389E+04  0.25500000920E-02 0. -1.
       -2    1    3    3    0  502 -0.28921111393E+02 -0.86839325493E+03 -0.35941164172E+02  0.86961775694E+03  0.25500000920E-02 0.  1.
</event>
<event>
 5   0  0.1601500E-05  0.1998680E+04  0.7818609E-02  0.8607238E-01
        3   -1    0    0  501    0  0.00000000000E+00  0.00000000000E+00  0.12695256713E+04  0.12695256754E+04  0.10100000352E+00 0.  1.
       -3   -1    0    0    0  501  0.00000000000E+00  0.00000000000E+00 -0.78665618084E+03  0.78665618733E+03  0.10100000352E+00 0. -1.
    10030    2    1    2    0    0  0.00000000000E+00  0.00000000000E+00  0.48286949050E+03  0.20561818627E+04  0.19986797912E+04 0.  0.
        2    1    3    3  502    0  0.91726811929E+03  0.26184048848E+03 -0.65026474519E+02  0.95612221314E+03  0.25500000920E-02 0.  1.
       -2    1    3    3    0  502 -0.91726811929E+03 -0.26184048848E+03  0.54789596502E+03  0.11000596495E+04  0.25500000920E-02 0. -1.
</event>
<event>
 5   0  0.2110896E-05  0.1965573E+04  0.7818609E-02  0.8622888E-01
        1   -1    0    0  501    0  0.00000000000E+00  0.00000000000E+00  0.96235467529E+03  0.96235467531E+03  0.50400001928E-02 0.  1.
       -1   -1    0    0    0  501  0.00000000000E+00  0.00000000000E+00 -0.10036519907E+04  0.10036519907E+04  0.50400001928E-02 0. -1.
    10030    2    1    2    0    0  0.00000000000E+00  0.00000000000E+00 -0.41297315437E+02  0.19660066660E+04  0.19655728790E+04 0.  0.
        4    1    3    3  502    0 -0.21236534927E+03  0.47321435151E+03 -0.85560034245E+03  0.10005420646E+04  0.12699999809E+01 0. -1.
       -4    1    3    3    0  502  0.21236534927E+03 -0.47321435151E+03  0.81430302701E+03  0.96546460150E+03  0.12699999809E+01 0.  1.
</event>
<event>
 5   0  0.4473361E-05  0.2002071E+04  0.7818609E-02  0.8605653E-01
        2   -1    0    0  501    0  0.00000000000E+00  0.00000000000E+00  0.14614615407E+04  0.14614615407E+04  0.25500000920E-02 0. -1.
       -2   -1    0    0    0  501  0.00000000000E+00  0.00000000000E+00 -0.68566461171E+03  0.68566461172E+03  0.25500000920E-02 0.  1.
    10030    2    1    2    0    0  0.00000000000E+00  0.00000000000E+00  0.77579692897E+03  0.21471261524E+04  0.20020713872E+04 0.  0.
        2    1    3    3  502    0 -0.45453497476E+03 -0.40571596556E+03 -0.46391835273E+03  0.76578569195E+03  0.25500000920E-02 0.  1.
       -2    1    3    3    0  502  0.45453497476E+03  0.40571596556E+03  0.12397152817E+04  0.13813404605E+04  0.25500000920E-02 0. -1.
</event>
<event>
 5   0  0.2256868E-05  0.2002042E+04  0.7818609E-02  0.8605666E-01
       -1   -1    0    0    0  501  0.00000000000E+00  0.00000000000E+00  0.14648663107E+04  0.14648663107E+04  0.50400001928E-02 0. -1.
        1   -1    0    0  501    0  0.00000000000E+00  0.00000000000E+00 -0.68405098758E+03  0.68405098760E+03  0.50400001928E-02 0.  1.
    10030    2    1    2    0    0  0.00000000000E+00  0.00000000000E+00  0.78081532310E+03  0.21489172983E+04  0.20020422039E+04 0.  0.
        5    1    3    3  502    0 -0.92970007926E+03  0.90290992689E+02  0.41067663334E+01  0.93409510023E+03  0.46999998093E+01 0.  1.
       -5    1    3    3    0  502  0.92970007926E+03 -0.90290992689E+02  0.77670855677E+03  0.12148221981E+04  0.46999998093E+01 0. -1.
</event>
<event>
 5   0  0.2142551E-05  0.2000984E+04  0.7818609E-02  0.8606161E-01
        1   -1    0    0  501    0  0.00000000000E+00  0.00000000000E+00  0.71627532675E+03  0.71627532677E+03  0.50400001928E-02 0.  1.
       -1   -1    0    0    0  501  0.00000000000E+00  0.00000000000E+00 -0.13974850836E+04  0.13974850836E+04  0.50400001928E-02 0. -1.
    10030    2    1    2    0    0  0.00000000000E+00  0.00000000000E+00 -0.68120975685E+03  0.21137604104E+04  0.20009838429E+04 0.  0.
        3    1    3    3  502    0 -0.46751740512E+03 -0.87688487950E+03 -0.21793754152E+03  0.10173477273E+04  0.10100000352E+00 0. -1.
       -3    1    3    3    0  502  0.46751740512E+03  0.87688487950E+03 -0.46327221532E+03  0.10964126831E+04  0.10100000352E+00 0.  1.
</event>
<event>
 5   0  0.2142551E-05  0.2021668E+04  0.7818609E-02  0.8596557E-01
       -1   -1    0    0    0  501  0.00000000000E+00  0.00000000000E+00  0.68098148846E+03  0.68098148848E+03  0.50400001928E-02 0.  1.
        1   -1    0    0  501    0  0.00000000000E+00  0.00000000000E+00 -0.15004595647E+04  0.15004595647E+04  0.50400001928E-02 0. -1.
    10030    2    1    2    0    0  0.00000000000E+00  0.00000000000E+00 -0.81947807625E+03  0.21814410532E+04  0.20216678142E+04 0.  0.
        3    1    3    3  502    0  0.66615852585E+03  0.37796355253E+03 -0.11215406088E+04  0.13581152293E+04  0.10100000352E+00 0. -1.
       -3    1    3    3    0  502 -0.66615852585E+03 -0.37796355253E+03  0.30206253253E+03  0.82332582394E+03  0.10100000352E+00 0.  1.
</event>
<event>
 5   0  0.2093980E-05  0.2011900E+04  0.7818609E-02  0.8601077E-01
        1   -1    0    0  501    0  0.00000000000E+00  0.00000000000E+00  0.12619643073E+04  0.12619643073E+04  0.50400001928E-02 0. -1.
       -1   -1    0    0    0  501  0.00000000000E+00  0.00000000000E+00 -0.80187311605E+03  0.80187311606E+03  0.50400001928E-02 0.  1.
    10030    2    1    2    0    0  0.00000000000E+00  0.00000000000E+00  0.46009119127E+03  0.20638374234E+04  0.20118998499E+04 0.  0.
        2    1    3    3  502    0  0.67807000073E+02 -0.99273140583E+03  0.38158116686E+03  0.10657005303E+04  0.25500000920E-02 0.  1.
       -2    1    3    3    0  502 -0.67807000073E+02  0.99273140583E+03  0.78510024404E+02  0.99813689308E+03  0.25500000920E-02 0. -1.
</event>
<event>
 5   0  0.4447313E-05  0.2044379E+04  0.7818609E-02  0.8586149E-01
       -2   -1    0    0    0  501  0.00000000000E+00  0.00000000000E+00  0.56429348882E+03  0.56429348883E+03  0.25500000920E-02 0. -1.
        2   -1    0    0  501    0  0.00000000000E+00  0.00000000000E+00 -0.18516446486E+04  0.18516446486E+04  0.25500000920E-02 0.  1.
    10030    2    1    2    0    0  0.00000000000E+00  0.00000000000E+00 -0.12873511598E+04  0.24159381374E+04  0.20443786526E+04 0.  0.
        5    1    3    3  502    0 -0.93805233059E+03 -0.36417990363E+03 -0.43135623537E+03  0.10948330781E+04  0.46999998093E+01 0. -1.
       -5    1    3    3    0  502  0.93805233059E+03  0.36417990363E+03 -0.85599492440E+03  0.13211050593E+04  0.46999998093E+01 0.  1.
</event>
<event>
 5   0  0.2110896E-05  0.1963877E+04  0.7818609E-02  0.8623698E-01
        1   -1    0    0  501    0  0.00000000000E+00  0.00000000000E+00  0.82681628239E+03  0.82681628241E+03  0.50400001928E-02 0. -1.
       -1   -1    0    0    0  501  0.00000000000E+00  0.00000000000E+00 -0.11661634030E+04  0.11661634030E+04  0.50400001928E-02 0.  1.
    10030    2    1    2    0    0  0.00000000000E+00  0.00000000000E+00 -0.33934712057E+03  0.19929796854E+04  0.19638766657E+04 0.  0.
        4    1    3    3  502    0  0.81042959945E+03 -0.10369824362E+03  0.38305533246E+03  0.90237600922E+03  0.12699999809E+01 0. -1.
       -4    1    3    3    0  502 -0.81042959945E+03  0.10369824362E+03 -0.72240245303E+03  0.10906036762E+04  0.12699999809E+01 0.  1.
</event>
<event>
 5   0  0.2142551E-05  0.2000269E+04  0.7818609E-02  0.8606495E-01
       -1   -1    0    0    0  501  0.00000000000E+00  0.00000000000E+00  0.89053785928E+03  0.89053785929E+03  0.50400001928E-02 0.  1.
        1   -1    0    0  501    0  0.00000000000E+00  0.00000000000E+00 -0.11232190640E+04  0.11232190641E+04  0.50400001928E-02 0. -1.
    10030    2    1    2    0    0  0.00000000000E+00  0.00000000000E+00 -0.23268120476E+03  0.20137569233E+04  0.20002690827E+04 0.  0.
        3    1    3    3  502    0 -0.69359733873E+03 -0.29508741309E+03  0.54544667910E+03  0.93041170436E+03  0.10100000352E+00 0.  1.
       -3    1    3    3    0  502  0.69359733873E+03  0.29508741309E+03 -0.77812788387E+03  0.10833452190E+04  0.10100000352E+00 0. -1.
</event>
<event>
 5   0  0.4473361E-05  0.2001244E+04  0.7818609E-02  0.8606039E-01
       -2   -1    0    0    0  501  0.00000000000E+00  0.00000000000E+00  0.83904632608E+03  0.83904632609E+03  0.25500000920E-02 0.  1.
        2   -1    0    0  501    0  0.00000000000E+00  0.00000000000E+00 -0.11933129311E+04  0.11933129311E+04  0.25500000920E-02 0. -1.
    10030    2    1    2    0    0  0.00000000000E+00  0.00000000000E+00 -0.35426660498E+03  0.20323592572E+04  0.20012444435E+04 0.  0.
        2    1    3    3  502    0  0.50801953318E+03 -0.52040776408E+03  0.52081974279E+03  0.89451735114E+03  0.25500000920E-02 0. -1.
       -2    1    3    3    0  502 -0.50801953318E+03  0.52040776408E+03 -0.87508634778E+03  0.11378419060E+04  0.25500000920E-02 0.  1.
</event>
<event>
 5   0  0.2093980E-05  0.2013801E+04  0.7818609E-02  0.8600196E-01
        1   -1    0    0  501    0  0.00000000000E+00  0.00000000000E+00  0.77088746871E+03  0.77088746872E+03  0.50400001928E-02 0. -1.
       -1   -1    0    0    0  501  0.00000000000E+00  0.00000000000E+00 -0.13151701537E+04  0.13151701537E+04  0.50400001928E-02 0.  1.
    10030    2    1    2    0    0  0.00000000000E+00  0.00000000000E+00 -0.54428268500E+03  0.20860576224E+04  0.20138005768E+04 0.  0.
        2    1    3    3  502    0 -0.56968619985E+03  0.78248558889E+03  0.15345249953E+02  0.96801939021E+03  0.25500000920E-02 0. -1.
       -2    1    3    3    0  502  0.56968619985E+03 -0.78248558889E+03 -0.55962793495E+03  0.11180382322E+04  0.25500000920E-02 0.  1.
</event>
<event>
 5   0  0.4447313E-05  0.1997743E+04  0.7818609E-02  0.8607677E-01
        2   -1    0    0  501    0  0.00000000000E+00  0.00000000000E+00  0.17602113115E+04  0.17602113115E+04  0.25500000920E-02 0.  1.
       -2   -1    0    0    0  501  0.00000000000E+00  0.00000000000E+00 -0.56683209562E+03  0.56683209563E+03  0.25500000920E-02 0. -1.
    10030    2    1    2    0    0  0.00000000000E+00  0.00000000000E+00  0.11933792158E+04  0.23270434071E+04  0.19977429929E+04 0.  0.
        5    1    3    3  502    0 -0.94691072635E+03 -0.27007286490E+03  0.40127847837E+03  0.10633088842E+04  0.46999998093E+01 0. -1.
       -5    1    3    3    0  502  0.94691072635E+03  0.27007286490E+03  0.79210073747E+03  0.12637345229E+04  0.46999998093E+01 0.  1.
</event>
<event>
 5   0  0.2007644E-05  0.1996857E+04  0.7818609E-02  0.8608091E-01
        1   -1    0    0  501    0  0.00000000000E+00  0.00000000000E+00  0.10614583685E+04  0.10614583685E+04  0.50400001928E-02 0. -1.
       -1   -1    0    0    0  501  0.00000000000E+00  0.00000000000E+00 -0.93914145079E+03  0.93914145080E+03  0.50400001928E-02 0.  1.
    10030    2    1    2    0    0  0.00000000000E+00  0.00000000000E+00  0.12231691774E+03  0.20005998193E+04  0.19968570827E+04 0.  0.
        1    1    3    3  502    0 -0.22073896125E+02 -0.32868400816E+03 -0.88312555097E+03  0.94256626977E+03  0.50400001928E-02 0.  1.
       -1    1    3    3    0  502  0.22073896125E+02  0.32868400816E+03  0.10054424687E+04  0.10580335496E+04  0.50400001928E-02 0. -1.
</event>
<event>
 5   0  0.4514680E-05  0.1995040E+04  0.7818609E-02  0.8608943E-01
       -2   -1    0    0    0  501  0.00000000000E+00  0.00000000000E+00  0.63866089695E+03  0.63866089696E+03  0.25500000920E-02 0.  1.
        2   -1    0    0  501    0  0.00000000000E+00  0.00000000000E+00 -0.15580190765E+04  0.15580190765E+04  0.25500000920E-02 0. -1.
    10030    2    1    2    0    0  0.00000000000E+00  0.00000000000E+00 -0.91935817956E+03  0.21966799735E+04  0.19950397098E+04 0.  0.
        3    1    3    3  502    0 -0.61216166022E+03  0.38528936060E+03  0.29666604092E+03  0.78179315658E+03  0.10100000352E+00 0.  1.
       -3    1    3    3    0  502  0.61216166022E+03 -0.38528936060E+03 -0.12160242205E+04  0.14148868169E+04  0.10100000352E+00 0. -1.
</event>
<event>
 5   0  0.4447313E-05  0.2000678E+04  0.7818609E-02  0.8606304E-01
       -2   -1    0    0    0  501  0.00000000000E+00  0.00000000000E+00  0.58159703339E+03  0.58159703339E+03  0.25500000920E-02 0. -1.
        2   -1    0    0  501    0  0.00000000000E+00  0.00000000000E+00 -0.17205702221E+04  0.17205702221E+04  0.25500000920E-02 0.  1.
    10030    2    1    2    0    0  0.00000000000E+00  0.00000000000E+00 -0.11389731888E+04  0.23021672555E+04  0.20006784219E+04 0.  0.
        5    1    3    3  502    0  0.28165898749E+02  0.62425701696E+02  0.57888350458E+03  0.58293952341E+03  0.46999998093E+01 0. -1.
       -5    1    3    3    0  502 -0.28165898749E+02 -0.62425701696E+02 -0.17178566933E+04  0.17192277321E+04  0.46999998093E+01 0.  1.
</event>
<event>
 5   0  0.2007644E-05  0.2009538E+04  0.7818609E-02  0.8602174E-01
       -1   -1    0    0    0  501  0.00000000000E+00  0.00000000000E+00  0.12424235535E+04  0.12424235535E+04  0.50400001928E-02 0.  1.
        1   -1    0    0  501    0  0.00000000000E+00  0.00000000000E+00 -0.81257343804E+03  0.81257343806E+03  0.50400001928E-02 0. -1.
    10030    2    1    2    0    0  0.00000000000E+00  0.00000000000E+00  0.42985011547E+03  0.20549969916E+04  0.20095376368E+04 0.  0.
        1    1    3    3  502    0  0.79249182424E+03  0.49039170267E+03 -0.16911410818E+03  0.94716782840E+03  0.50400001928E-02 0. -1.
       -1    1    3    3    0  502 -0.79249182424E+03 -0.49039170267E+03  0.59896422365E+03  0.11078291632E+04  0.50400001928E-02 0.  1.
</event>
<event>
 5   0  0.4473361E-05  0.2002420E+04  0.7818609E-02  0.8605490E-01
        2   -1    0    0  501    0  0.00000000000E+00  0.00000000000E+00  0.20508579094E+04  0.20508579094E+04  0.25500000920E-02 0. -1.
       -2   -1    0    0    0  501  0.00000000000E+00  0.00000000000E+00 -0.48878153794E+03  0.48878153794E+03  0.25500000920E-02 0.  1.
    10030    2    1    2    0    0  0.00000000000E+00  0.00000000000E+00  0.15620763715E+04  0.25396394473E+04  0.20024200189E+04 0.  0.
        2    1    3    3  502    0  0.59778629233E+03  0.59704547555E+03  0.14623914979E+04  0.16889051614E+04  0.25500000920E-02 0. -1.
       -2    1    3    3    0  502 -0.59778629233E+03 -0.59704547555E+03  0.99684873538E+02  0.85073428589E+03  0.25500000920E-02 0.  1.
</event>
<event>
 5   0  0.4447313E-05  0.1988655E+04  0.7818609E-02  0.8611943E-01
        2   -1    0    0  501    0  0.00000000000E+00  0.00000000000E+00  0.95146517314E+03  0.95146517315E+03  0.25500000920E-02 0. -1.
       -2   -1    0    0    0  501  0.00000000000E+00  0.00000000000E+00 -0.10391205197E+04  0.10391205197E+04  0.25500000920E-02 0.  1.
    10030    2    1    2    0    0  0.00000000000E+00  0.00000000000E+00 -0.87655346542E+02  0.19905856928E+04  0.19886548068E+04 0.  0.
        5    1    3    3  502    0  0.57842181144E+03 -0.81986701217E+02 -0.84920275714E+03  0.10307575000E+04  0.46999998093E+01 0.  1.
       -5    1    3    3    0  502 -0.57842181144E+03  0.81986701217E+02  0.76154741060E+03  0.95982819281E+03  0.46999998093E+01 0. -1.
</event>
<event>
 5   0  0.2093980E-05  0.2012196E+04  0.7818609E-02  0.8600940E-01
       -1   -1    0    0    0  501  0.00000000000E+00  0.00000000000E+00  0.10130820102E+04  0.10130820103E+04  0.50400001928E-02 0.  1.
        1   -1    0    0  501    0  0.00000000000E+00  0.00000000000E+00 -0.99916222985E+03  0.99916222987E+03  0.50400001928E-02 0. -1.
    10030    2    1    2    0    0  0.00000000000E+00  0.00000000000E+00  0.13919780395E+02  0.20122442401E+04  0.20121960942E+04 0.  0.
        2    1    3    3  502    0 -0.12997928184E+03 -0.17002157604E+03  0.99005580546E+03  0.10129227256E+04  0.25500000920E-02 0.  1.
       -2    1    3    3    0  502  0.12997928184E+03  0.17002157604E+03 -0.97613602507E+03  0.99932151456E+03  0.25500000920E-02 0. -1.
</event>
<event>
 5   0  0.4447313E-05  0.2002780E+04  0.7818609E-02  0.8605322E-01
       -2   -1    0    0    0  501  0.00000000000E+00  0.00000000000E+00  0.51086933088E+03  0.51086933089E+03  0.25500000920E-02 0.  1.
        2   -1    0    0  501    0  0.00000000000E+00  0.00000000000E+00 -0.19628927328E+04  0.19628927328E+04  0.25500000920E-02 0. -1.
    10030    2    1    2    0    0  0.00000000000E+00  0.00000000000E+00 -0.14520234019E+04  0.24737620636E+04  0.20027797652E+04 0.  0.
        5    1    3    3  502    0  0.53609786640E+03  0.39826382360E+03  0.19561010411E+03  0.69591694790E+03  0.46999998093E+01 0.  1.
       -5    1    3    3    0  502 -0.53609786640E+03 -0.39826382360E+03 -0.16476335060E+04  0.17778451158E+04  0.46999998093E+01 0. -1.
</event>
<event>
 5   0  0.2110896E-05  0.2000831E+04  0.7818609E-02  0.8606232E-01
        1   -1    0    0  501    0  0.00000000000E+00  0.00000000000E+00  0.11864379416E+04  0.11864379416E+04  0.50400001928E-02 0. -1.
       -1   -1    0    0    0  501  0.00000000000E+00  0.00000000000E+00 -0.84355929217E+03  0.84355929218E+03  0.50400001928E-02 0.  1.
    10030    2    1    2    0    0  0.00000000000E+00  0.00000000000E+00  0.34287864941E+03  0.20299972338E+04  0.20008305778E+04 0.  0.
        4    1    3    3  502    0 -0.37301042418E+03  0.62061164284E+03  0.87181631742E+03  0.11332964714E+04  0.12699999809E+01 0. -1.
       -4    1    3    3    0  502  0.37301042418E+03 -0.62061164284E+03 -0.52893766800E+03  0.89670076241E+03  0.12699999809E+01 0.  1.
</event>
<event>
 5   0  0.2256868E-05  0.1999703E+04  0.7818609E-02  0.8606760E-01
        1   -1    0    0  501    0  0.00000000000E+00  0.00000000000E+00  0.14596056325E+04  0.14596056325E+04  0.50400001928E-02 0.  1.
       -1   -1    0    0    0  501  0.00000000000E+00  0.00000000000E+00 -0.68491280710E+03  0.68491280712E+03  0.50400001928E-02 0. -1.
    10030    2    1    2    0    0  0.00000000000E+00  0.00000000000E+00  0.77469282537E+03  0.21445184396E+04  0.19997025689E+04 0.  0.
        5    1    3    3  502    0  0.96007088284E+03  0.27876238495E+03  0.40381890645E+03  0.10782097971E+04  0.46999998093E+01 0. -1.
       -5    1    3    3    0  502 -0.96007088284E+03 -0.27876238495E+03  0.37087391892E+03  0.10663086425E+04  0.46999998093E+01 0.  1.
</event>
<event>
 5   0  0.2256868E-05  0.2011205E+04  0.7818609E-02  0.8601400E-01
        1   -1    0    0  501    0  0.00000000000E+00  0.00000000000E+00  0.16598177819E+04  0.16598177819E+04  0.50400001928E-02 0. -1.
       -1   -1    0    0    0  501  0.00000000000E+00  0.00000000000E+00 -0.60924532533E+03  0.60924532535E+03  0.50400001928E-02 0.  1.
    10030    2    1    2    0    0  0.00000000000E+00  0.00000000000E+00  0.10505724566E+04  0.22690631073E+04  0.20112048375E+04 0.  0.
        5    1    3    3  502    0  0.96610897202E+03  0.57493186852E+02  0.83331490225E+03  0.12771483190E+04  0.46999998093E+01 0. -1.
       -5    1    3    3    0  502 -0.96610897202E+03 -0.57493186852E+02  0.21725755434E+03  0.99191478831E+03  0.46999998093E+01 0.  1.
</event>
<event>
 5   0  0.1601500E-05  0.1981468E+04  0.7818609E-02  0.8615334E-01
       -3   -1    0    0    0  501  0.00000000000E+00  0.00000000000E+00  0.17979718133E+04  0.17979718161E+04  0.10100000352E+00 0. -1.
        3   -1    0    0  501    0  0.00000000000E+00  0.00000000000E+00 -0.54592278831E+03  0.54592279766E+03  0.10100000352E+00 0.  1.
    10030    2    1    2    0    0  0.00000000000E+00  0.00000000000E+00  0.12520490250E+04  0.23438946138E+04  0.19814679406E+04 0.  0.
        4    1    3    3  502    0 -0.80454599060E+03  0.55303026376E+03  0.42662302108E+03  0.10654320901E+04  0.12699999809E+01 0.  1.
       -4    1    3    3    0  502  0.80454599060E+03 -0.55303026376E+03  0.82542600391E+03  0.12784625237E+04  0.12699999809E+01 0. -1.
</event>
<event>
 5   0  0.4514680E-05  0.1999240E+04  0.7818609E-02  0.8606976E-01
       -2   -1    0    0    0  501  0.00000000000E+00  0.00000000000E+00  0.12874682982E+04  0.12874682982E+04  0.25500000920E-02 0. -1.
        2   -1    0    0  501    0  0.00000000000E+00  0.00000000000E+00 -0.77612774807E+03  0.77612774807E+03  0.25500000920E-02 0.  1.
    10030    2    1    2    0    0  0.00000000000E+00  0.00000000000E+00  0.51134055011E+03  0.20635960462E+04  0.19992397265E+04 0.  0.
        3    1    3    3  502    0  0.57285943699E+03  0.40724846867E+03 -0.47799902050E+03  0.85000136681E+03  0.10100000352E+00 0.  1.
       -3    1    3    3    0  502 -0.57285943699E+03 -0.40724846867E+03  0.98933957061E+03  0.12135946794E+04  0.10100000352E+00 0. -1.
</event>
<event>
 5   0  0.2256868E-05  0.1966401E+04  0.7818609E-02  0.8622492E-01
       -1   -1    0    0    0  501  0.00000000000E+00  0.00000000000E+00  0.66618668154E+03  0.66618668156E+03  0.50400001928E-02 0. -1.
        1   -1    0    0  501    0  0.00000000000E+00  0.00000000000E+00 -0.14510693862E+04  0.14510693863E+04  0.50400001928E-02 0.  1.
    10030    2    1    2    0    0  0.00000000000E+00  0.00000000000E+00 -0.78488270471E+03  0.21172560678E+04  0.19664008738E+04 0.  0.
        5    1    3    3  502    0  0.37334004880E+03 -0.12592432147E+03  0.57745321080E+03  0.69908084470E+03  0.46999998093E+01 0. -1.
       -5    1    3    3    0  502 -0.37334004880E+03  0.12592432147E+03 -0.13623359155E+04  0.14181752231E+04  0.46999998093E+01 0.  1.
</event>
<event>
 5   0  0.2256868E-05  0.2000961E+04  0.7818609E-02  0.8606171E-01
       -1   -1    0    0    0  501  0.00000000000E+00  0.00000000000E+00  0.16225125329E+04  0.16225125329E+04  0.50400001928E-02 0.  1.
        1   -1    0    0  501    0  0.00000000000E+00  0.00000000000E+00 -0.61692057853E+03  0.61692057855E+03  0.50400001928E-02 0. -1.
    10030    2    1    2    0    0  0.00000000000E+00  0.00000000000E+00  0.10055919544E+04  0.22394331115E+04  0.20009611396E+04 0.  0.
        5    1    3    3  502    0  0.57573492225E+03  0.32605228422E+03 -0.33707922363E+03  0.74258015443E+03  0.46999998093E+01 0. -1.
       -5    1    3    3    0  502 -0.57573492225E+03 -0.32605228422E+03  0.13426711780E+04  0.14968529570E+04  0.46999998093E+01 0.  1.
</event>
<event>
 5   0  0.4514680E-05  0.2007061E+04  0.7818609E-02  0.8603327E-01
       -2   -1    0    0    0  501  0.00000000000E+00  0.00000000000E+00  0.35409374938E+03  0.35409374939E+03  0.25500000920E-02 0. -1.
        2   -1    0    0  501    0  0.00000000000E+00  0.00000000000E+00 -0.28440871154E+04  0.28440871154E+04  0.25500000920E-02 0.  1.
    10030    2    1    2    0    0  0.00000000000E+00  0.00000000000E+00 -0.24899933660E+04  0.31981808648E+04  0.20070610058E+04 0.  0.
        3    1    3    3  502    0 -0.70843544648E+02  0.71461660178E+03 -0.23619890294E+04  0.24687421657E+04  0.10100000352E+00 0.  1.
       -3    1    3    3    0  502  0.70843544648E+02 -0.71461660178E+03 -0.12800433659E+03  0.72943869910E+03  0.10100000352E+00 0. -1.
</event>
<event>
 5   0  0.4577279E-05  0.2004158E+04  0.7818609E-02  0.8604679E-01
       -2   -1    0    0    0  501  0.00000000000E+00  0.00000000000E+00  0.22663438852E+04  0.22663438852E+04  0.25500000920E-02 0. -1.
        2   -1    0    0  501    0  0.00000000000E+00  0.00000000000E+00 -0.44307604853E+03  0.44307604853E+03  0.25500000920E-02 0.  1.
    10030    2    1    2    0    0  0.00000000000E+00  0.00000000000E+00  0.18232678366E+04  0.27094199337E+04  0.20041583702E+04 0.  0.
        1    1    3    3  502    0  0.78963188140E+03 -0.14335318909E+03  0.17228793355E+04  0.19006266992E+04  0.50400001928E-02 0.  1.
       -1    1    3    3    0  502 -0.78963188140E+03  0.14335318909E+03  0.10038850108E+03  0.80879323446E+03  0.50400001928E-02 0. -1.
</event>
<event>
 5   0  0.4412054E-05  0.1997789E+04  0.7818609E-02  0.8607655E-01
       -2   -1    0    0    0  501  0.00000000000E+00  0.00000000000E+00  0.68626773669E+03  0.68626773669E+03  0.25500000920E-02 0. -1.
        2   -1    0    0  501    0  0.00000000000E+00  0.00000000000E+00 -0.14539368063E+04  0.14539368063E+04  0.25500000920E-02 0.  1.
    10030    2    1    2    0    0  0.00000000000E+00  0.00000000000E+00 -0.76766906957E+03  0.21402045430E+04  0.19977886989E+04 0.  0.
        4    1    3    3  502    0  0.60518683086E+03  0.45005317430E+03  0.31782912453E+03  0.81842282791E+03  0.12699999809E+01 0. -1.
       -4    1    3    3    0  502 -0.60518683086E+03 -0.45005317430E+03 -0.10854981941E+04  0.13217817150E+04  0.12699999809E+01 0.  1.
</event>
<event>
 5   0  0.2093980E-05  0.2005349E+04  0.7818609E-02  0.8604124E-01
        1   -1    0    0  501    0  0.00000000000E+00  0.00000000000E+00  0.14091223371E+04  0.14091223371E+04  0.50400001928E-02 0. -1.
       -1   -1    0    0    0  501  0.00000000000E+00  0.00000000000E+00 -0.71346247167E+03  0.71346247169E+03  0.50400001928E-02 0.  1.
    10030    2    1    2    0    0  0.00000000000E+00  0.00000000000E+00  0.69565986543E+03  0.21225848088E+04  0.20053487532E+04 0.  0.
        2    1    3    3  502    0  0.88700058174E+03  0.27970417494E+03 -0.48706950042E+02  0.93133067408E+03  0.25500000920E-02 0.  1.
       -2    1    3    3    0  502 -0.88700058174E+03 -0.27970417494E+03  0.74436681547E+03  0.11912541347E+04  0.25500000920E-02 0. -1.
</event>
<event>
 5   0  0.4447313E-05  0.1985475E+04  0.7818609E-02  0.8613442E-01
        2   -1    0    0  501    0  0.00000000000E+00  0.00000000000E+00  0.12066591098E+04  0.12066591098E+04  0.25500000920E-02 0. -1.
       -2   -1    0    0    0  501  0.00000000000E+00  0.00000000000E+00 -0.81674121208E+03  0.81674121208E+03  0.25500000920E-02 0.  1.
    10030    2    1    2    0    0  0.00000000000E+00  0.00000000000E+00  0.38991789770E+03  0.20234003219E+04  0.19854754835E+04 0.  0.
        5    1    3    3  502    0 -0.78434694370E+03  0.58806183416E+03  0.35479275054E+02  0.98096774557E+03  0.46999998093E+01 0. -1.
       -5    1    3    3    0  502  0.78434694370E+03 -0.58806183416E+03  0.35443862264E+03  0.10424325763E+04  0.46999998093E+01 0.  1.
</event>
<event>
 5   0  0.2110896E-05  0.2013533E+04  0.7818609E-02  0.8600319E-01
        1   -1    0    0  501    0  0.00000000000E+00  0.00000000000E+00  0.13552832999E+04  0.13552832999E+04  0.50400001928E-02 0.  1.
       -1   -1    0    0    0  501  0.00000000000E+00  0.00000000000E+00 -0.74787259590E+03  0.74787259592E+03  0.50400001928E-02 0. -1.
    10030    2    1    2    0    0  0.00000000000E+00  0.00000000000E+00  0.60741070395E+03  0.21031558958E+04  0.20135334511E+04 0.  0.
        4    1    3    3  502    0 -0.62036494880E+03  0.68848165204E+03 -0.10714437124E+03  0.93292078125E+03  0.12699999809E+01 0. -1.
       -4    1    3    3    0  502  0.62036494880E+03 -0.68848165204E+03  0.71455507519E+03  0.11702351145E+04  0.12699999809E+01 0.  1.
</event>
<event>
 5   0  0.4577279E-05  0.1999052E+04  0.7818609E-02  0.8607064E-01
        2   -1    0    0  501    0  0.00000000000E+00  0.00000000000E+00  0.14549261974E+04  0.14549261974E+04  0.25500000920E-02 0. -1.
       -2   -1    0    0    0  501  0.00000000000E+00  0.00000000000E+00 -0.68666872255E+03  0.68666872256E+03  0.25500000920E-02 0.  1.
    10030    2    1    2    0    0  0.00000000000E+00  0.00000000000E+00  0.76825747481E+03  0.21415949199E+04  0.19990520887E+04 0.  0.
        1    1    3    3  502    0  0.25060017916E+03 -0.60817897237E+03 -0.42210954377E+03  0.78157442332E+03  0.50400001928E-02 0.  1.
       -1    1    3    3    0  502 -0.25060017916E+03  0.60817897237E+03  0.11903670186E+04  0.13600204966E+04  0.50400001928E-02 0. -1.
</event>
<event>
 5   0  0.4447313E-05  0.1998100E+04  0.7818609E-02  0.8607509E-01
       -2   -1    0    0    0  501  0.00000000000E+00  0.00000000000E+00  0.81147116618E+03  0.81147116619E+03  0.25500000920E-02 0. -1.
        2   -1    0    0  501    0  0.00000000000E+00  0.00000000000E+00 -0.12299894227E+04  0.12299894227E+04  0.25500000920E-02 0.  1.
    10030    2    1    2    0    0  0.00000000000E+00  0.00000000000E+00 -0.41851825648E+03  0.20414605889E+04  0.19981000488E+04 0.  0.
        5    1    3    3  502    0  0.24946608869E+03  0.95357362706E+03 -0.42803798199E+02  0.98660541595E+03  0.46999998093E+01 0. -1.
       -5    1    3    3    0  502 -0.24946608869E+03 -0.95357362706E+03 -0.37571445828E+03  0.10548551729E+04  0.46999998093E+01 0.  1.
</event>
<event>
 5   0  0.4473361E-05  0.2033644E+04  0.7818609E-02  0.8591050E-01
        2   -1    0    0  501    0  0.00000000000E+00  0.00000000000E+00  0.71113897375E+03  0.71113897375E+03  0.25500000920E-02 0. -1.
       -2   -1    0    0    0  501  0.00000000000E+00  0.00000000000E+00 -0.14539032764E+04  0.14539032764E+04  0.25500000920E-02 0.  1.
    10030    2    1    2    0    0  0.00000000000E+00  0.00000000000E+00 -0.74276430269E+03  0.21650422502E+04  0.20336442992E+04 0.  0.
        2    1    3    3  502    0  0.18111719918E+02 -0.80247547713E+03  0.29315442667E+03  0.85453756130E+03  0.25500000920E-02 0. -1.
       -2    1    3    3    0  502 -0.18111719918E+02  0.80247547713E+03 -0.10359187294E+04  0.13105046889E+04  0.25500000920E-02 0.  1.
</event>
<event>
 5   0  0.2007644E-05  0.2004194E+04  0.7818609E-02  0.8604662E-01
       -1   -1    0    0    0  501  0.00000000000E+00  0.00000000000E+00  0.10627137078E+04  0.10627137078E+04  0.50400001928E-02 0.  1.
        1   -1    0    0  501    0  0.00000000000E+00  0.00000000000E+00 -0.94493752663E+03  0.94493752664E+03  0.50400001928E-02 0. -1.
    10030    2    1    2    0    0  0.00000000000E+00  0.00000000000E+00  0.11777618114E+03  0.20076512344E+04  0.20041936658E+04 0.  0.
        1    1    3    3  502    0 -0.16608169465E+03  0.12495968274E+03  0.10408853624E+04  0.10614331770E+04  0.50400001928E-02 0.  1.
       -1    1    3    3    0  502  0.16608169465E+03 -0.12495968274E+03 -0.92310918125E+03  0.94621805740E+03  0.50400001928E-02 0. -1.
</event>
<event>
 5   0  0.2110896E-05  0.1991516E+04  0.7818609E-02  0.8610598E-01
       -1   -1    0    0    0  501  0.00000000000E+00  0.00000000000E+00  0.12715037920E+04  0.12715037920E+04  0.50400001928E-02 0. -1.
        1   -1    0    0  501    0  0.00000000000E+00  0.00000000000E+00 -0.77981185118E+03  0.77981185120E+03  0.50400001928E-02 0.  1.
    10030    2    1    2    0    0  0.00000000000E+00  0.00000000000E+00  0.49169194080E+03  0.20513156432E+04  0.19915157301E+04 0.  0.
        4    1    3    3  502    0 -0.44817631011E+03  0.63426909519E+03 -0.39606258901E+03  0.87179497439E+03  0.12699999809E+01 0.  1.
       -4    1    3    3    0  502  0.44817631011E+03 -0.63426909519E+03  0.88775452981E+03  0.11795206688E+04  0.12699999809E+01 0. -1.
</event>
<event>
 5   0  0.4473361E-05  0.2001295E+04  0.7818609E-02  0.8606015E-01
       -2   -1    0    0    0  501  0.00000000000E+00  0.00000000000E+00  0.12190878740E+04  0.12190878740E+04  0.25500000920E-02 0. -1.
        2   -1    0    0  501    0  0.00000000000E+00  0.00000000000E+00 -0.82134840253E+03  0.82134840253E+03  0.25500000920E-02 0.  1.
    10030    2    1    2    0    0  0.00000000000E+00  0.00000000000E+00  0.39773947146E+03  0.20404362765E+04  0.20012954583E+04 0.  0.
        2    1    3    3  502    0 -0.26754094880E+03 -0.43284173703E+03  0.10773273056E+04  0.11914546790E+04  0.25500000920E-02 0. -1.
       -2    1    3    3    0  502  0.26754094880E+03  0.43284173703E+03 -0.67958783418E+03  0.84898159754E+03  0.25500000920E-02 0.  1.
</event>
<event>
 5   0  0.4447313E-05  0.2003420E+04  0.7818609E-02  0.8605024E-01
       -2   -1    0    0    0  501  0.00000000000E+00  0.00000000000E+00  0.79469616746E+03  0.79469616747E+03  0.25500000920E-02 0.  1.
        2   -1    0    0  501    0  0.00000000000E+00  0.00000000000E+00 -0.12626492344E+04  0.12626492344E+04  0.25500000920E-02 0. -1.
    10030    2    1    2    0    0  0.00000000000E+00  0.00000000000E+00 -0.46795306698E+03  0.20573454019E+04  0.20034195841E+04 0.  0.
        5    1    3    3  502    0  0.22824922307E+02  0.66469894815E+03  0.53522105982E+03  0.85371502366E+03  0.46999998093E+01 0.  1.
       -5    1    3    3    0  502 -0.22824922307E+02 -0.66469894815E+03 -0.10031741268E+04  0.12036303782E+04  0.46999998093E+01 0. -1.
</event>
<event>
 5   0  0.2110896E-05  0.2002474E+04  0.7818609E-02  0.8605465E-01
        1   -1    0    0  501    0  0.00000000000E+00  0.00000000000E+00  0.16877403651E+04  0.16877403651E+04  0.50400001928E-02 0.  1.
       -1   -1    0    0    0  501  0.00000000000E+00  0.00000000000E+00 -0.59397470975E+03  0.59397470977E+03  0.50400001928E-02 0. -1.
    10030    2    1    2    0    0  0.00000000000E+00  0.00000000000E+00  0.10937656553E+04  0.22817150749E+04  0.20024735639E+04 0.  0.
        4    1    3    3  502    0 -0.58890610004E+03  0.64045051299E+03 -0.17674677613E+02  0.87023057943E+03  0.12699999809E+01 0.  1.
       -4    1    3    3    0  502  0.58890610004E+03 -0.64045051299E+03  0.11114403329E+04  0.14114844954E+04  0.12699999809E+01 0. -1.
</event>
<event>
 5   0  0.2093980E-05  0.1995442E+04  0.7818609E-02  0.8608755E-01
       -1   -1    0    0    0  501  0.00000000000E+00  0.00000000000E+00  0.12244475694E+04  0.12244475694E+04  0.50400001928E-02 0.  1.
        1   -1    0    0  501    0  0.00000000000E+00  0.00000000000E+00 -0.81297654652E+03  0.81297654654E+03  0.50400001928E-02 0. -1.
    10030    2    1    2    0    0  0.00000000000E+00  0.00000000000E+00  0.41147102287E+03  0.20374241159E+04  0.19954419625E+04 0.  0.
        2    1    3    3  502    0  0.13552813498E+03 -0.77629268682E+03  0.83053209689E+03  0.11448937833E+04  0.25500000920E-02 0.  1.
       -2    1    3    3    0  502 -0.13552813498E+03  0.77629268682E+03 -0.41906107403E+03  0.89253033267E+03  0.25500000920E-02 0. -1.
</event>
<event>
 5   0  0.4412054E-05  0.2001536E+04  0.7818609E-02  0.8605903E-01
        2   -1    0    0  501    0  0.00000000000E+00  0.00000000000E+00  0.14158795749E+04  0.14158795749E+04  0.25500000920E-02 0. -1.
       -2   -1    0    0    0  501  0.00000000000E+00  0.00000000000E+00 -0.70736011258E+03  0.70736011259E+03  0.25500000920E-02 0.  1.
    10030    2    1    2    0    0  0.00000000000E+00  0.00000000000E+00  0.70851946228E+03  0.21232396874E+04  0.20015361455E+04 0.  0.
        4    1    3    3  502    0 -0.86490398748E+03 -0.26031407237E+02  0.88762275192E+03  0.12396016716E+04  0.12699999809E+01 0. -1.
       -4    1    3    3    0  502  0.86490398748E+03  0.26031407237E+02 -0.17910328965E+03  0.88363801581E+03  0.12699999809E+01 0.  1.
</event>
<event>
 5   0  0.2256868E-05  0.1998768E+04  0.7818609E-02  0.8607197E-01
        1   -1    0    0  501    0  0.00000000000E+00  0.00000000000E+00  0.24153144352E+04  0.24153144352E+04  0.50400001928E-02 0. -1.
       -1   -1    0    0    0  501  0.00000000000E+00  0.00000000000E+00 -0.41351471314E+03  0.41351471317E+03  0.50400001928E-02 0.  1.
    10030    2    1    2    0    0  0.00000000000E+00  0.00000000000E+00  0.20017997220E+04  0.28288291484E+04  0.19987676762E+04 0.  0.
        5    1    3    3  502    0 -0.71793011988E+03  0.64469525248E+03  0.13691201797E+04  0.16749829199E+04  0.46999998093E+01 0. -1.
       -5    1    3    3    0  502  0.71793011988E+03 -0.64469525248E+03  0.63267954237E+03  0.11538462285E+04  0.46999998093E+01 0.  1.
</event>
<event>
 5   0  0.4412054E-05  0.2002426E+04  0.7818609E-02  0.8605487E-01
        2   -1    0    0  501    0  0.00000000000E+00  0.00000000000E+00  0.94332629209E+03  0.94332629209E+03  0.25500000920E-02 0. -1.
       -2   -1    0    0    0  501  0.00000000000E+00  0.00000000000E+00 -0.10626516280E+04  0.10626516280E+04  0.25500000920E-02 0.  1.
    10030    2    1    2    0    0  0.00000000000E+00  0.00000000000E+00 -0.11932533592E+03  0.20059779201E+04  0.20024257490E+04 0.  0.
        4    1    3    3  502    0 -0.71634021373E+03 -0.61100136901E+03  0.28146986754E+03  0.98269673551E+03  0.12699999809E+01 0.  1.
       -4    1    3    3    0  502  0.71634021373E+03  0.61100136901E+03 -0.40079520346E+03  0.10232811846E+04  0.12699999809E+01 0. -1.
</event>
<event>
 5   0  0.4412054E-05  0.2001090E+04  0.7818609E-02  0.8606111E-01
        2   -1    0    0  501    0  0.00000000000E+00  0.00000000000E+00  0.23271435398E+04  0.23271435398E+04  0.25500000920E-02 0. -1.
       -2   -1    0    0    0  501  0.00000000000E+00  0.00000000000E+00 -0.43018003684E+03  0.43018003685E+03  0.25500000920E-02 0.  1.
    10030    2    1    2    0    0  0.00000000000E+00  0.00000000000E+00  0.18969635029E+04  0.27573235766E+04  0.20010903964E+04 0.  0.
        4    1    3    3  502    0  0.18317795510E+03 -0.24069138276E+03 -0.36567408239E+03  0.47455837618E+03  0.12699999809E+01 0.  1.
       -4    1    3    3    0  502 -0.18317795510E+03  0.24069138276E+03  0.22626375853E+04  0.22827652004E+04  0.12699999809E+01 0. -1.
</event>
<event>
 5   0  0.4514680E-05  0.2008481E+04  0.7818609E-02  0.8602666E-01
        2   -1    0    0  501    0  0.00000000000E+00  0.00000000000E+00  0.16054393345E+04  0.16054393345E+04  0.25500000920E-02 0. -1.
       -2   -1    0    0    0  501  0.00000000000E+00  0.00000000000E+00 -0.62817627633E+03  0.62817627634E+03  0.25500000920E-02 0.  1.
    10030    2    1    2    0    0  0.00000000000E+00  0.00000000000E+00  0.97726305814E+03  0.22336156108E+04  0.20084809215E+04 0.  0.
        3    1    3    3  502    0  0.76731831943E+03  0.53074976616E+03  0.75468500425E+02  0.93603857953E+03  0.10100000352E+00 0.  1.
       -3    1    3    3    0  502 -0.76731831943E+03 -0.53074976616E+03  0.90179455772E+03  0.12975770313E+04  0.10100000352E+00 0. -1.
</event>
<event>
 5   0  0.2093980E-05  0.2003038E+04  0.7818609E-02  0.8605201E-01
       -1   -1    0    0    0  501  0.00000000000E+00  0.00000000000E+00  0.14205587810E+04  0.14205587810E+04  0.50400001928E-02 0.  1.
        1   -1    0    0  501    0  0.00000000000E+00  0.00000000000E+00 -0.70608882050E+03  0.70608882052E+03  0.50400001928E-02 0. -1.
    10030    2    1    2    0    0  0.00000000000E+00  0.00000000000E+00  0.71446996046E+03  0.21266476015E+04  0.20030383662E+04 0.  0.
        2    1    3    3  502    0  0.92744745550E+03  0.37766250353E+03  0.34034994369E+03  0.10576510925E+04  0.25500000920E-02 0.  1.
       -2    1    3    3    0  502 -0.92744745550E+03 -0.37766250353E+03  0.37412001677E+03  0.10689965090E+04  0.25500000920E-02 0. -1.
</event>
<event>
 5   0  0.2007644E-05  0.1996915E+04  0.7818609E-02  0.8608064E-01
        1   -1    0    0  501    0  0.00000000000E+00  0.00000000000E+00  0.15522565102E+04  0.15522565103E+04  0.50400001928E-02 0. -1.
       -1   -1    0    0    0  501  0.00000000000E+00  0.00000000000E+00 -0.64223783219E+03  0.64223783221E+03  0.50400001928E-02 0.  1.
    10030    2    1    2    0    0  0.00000000000E+00  0.00000000000E+00  0.91001867806E+03  0.21944943425E+04  0.19969154776E+04 0.  0.
        1    1    3    3  502    0 -0.83991980944E+03  0.52732937589E+03  0.32791015294E+03  0.10445413469E+04  0.50400001928E-02 0. -1.
       -1    1    3    3    0  502  0.83991980944E+03 -0.52732937589E+03  0.58210852511E+03  0.11499529956E+04  0.50400001928E-02 0.  1.
</event>
<event>
 5   0  0.2256868E-05  0.1992281E+04  0.7818609E-02  0.8610238E-01
       -1   -1    0    0    0  501  0.00000000000E+00  0.00000000000E+00  0.10283804620E+04  0.10283804620E+04  0.50400001928E-02 0.  1.
        1   -1    0    0  501    0  0.00000000000E+00  0.00000000000E+00 -0.96491120005E+03  0.96491120006E+03  0.50400001928E-02 0. -1.
    10030    2    1    2    0    0  0.00000000000E+00  0.00000000000E+00  0.63469261963E+02  0.19932916621E+04  0.19922809297E+04 0.  0.
        5    1    3    3  502    0 -0.32742923964E+02 -0.33400710561E+03  0.97010217236E+03  0.10265247978E+04  0.46999998093E+01 0.  1.
       -5    1    3    3    0  502  0.32742923964E+02  0.33400710561E+03 -0.90663291040E+03  0.96676686429E+03  0.46999998093E+01 0. -1.
</event>
<event>
 5   0  0.4577279E-05  0.2007820E+04  0.7818609E-02  0.8602973E-01
       -2   -1    0    0    0  501  0.00000000000E+00  0.00000000000E+00  0.63288589539E+03  0.63288589540E+03  0.25500000920E-02 0. -1.
        2   -1    0    0  501    0  0.00000000000E+00  0.00000000000E+00 -0.15924432717E+04  0.15924432717E+04  0.25500000920E-02 0.  1.
    10030    2    1    2    0    0  0.00000000000E+00  0.00000000000E+00 -0.95955737627E+03  0.22253291671E+04  0.20078195993E+04 0.  0.
        1    1    3    3  502    0 -0.89785026616E+03  0.41713044025E+03 -0.29530901170E+03  0.10331216371E+04  0.50400001928E-02 0. -1.
       -1    1    3    3    0  502  0.89785026616E+03 -0.41713044025E+03 -0.66424836457E+03  0.11922075300E+04  0.50400001928E-02 0.  1.
</event>
<event>
 5   0  0.4447313E-05  0.2011010E+04  0.7818609E-02  0.8601490E-01
       -2   -1    0    0    0  501  0.00000000000E+00  0.00000000000E+00  0.37855348483E+03  0.37855348484E+03  0.25500000920E-02 0. -1.
        2   -1    0    0  501    0  0.00000000000E+00  0.00000000000E+00 -0.26707994047E+04  0.26707994047E+04  0.25500000920E-02 0.  1.
    10030    2    1    2    0    0  0.00000000000E+00  0.00000000000E+00 -0.22922459199E+04  0.30493528895E+04  0.20110101163E+04 0.  0.
        5    1    3    3  502    0  0.43768710892E+03 -0.13172048950E+03 -0.25041460635E+04  0.25455235002E+04  0.46999998093E+01 0.  1.
       -5    1    3    3    0  502 -0.43768710892E+03  0.13172048950E+03  0.21190014365E+03  0.50382938933E+03  0.46999998093E+01 0. -1.
</event>
<event>
 5   0  0.4412054E-05  0.1989149E+04  0.7818609E-02  0.8611711E-01
        2   -1    0    0  501    0  0.00000000000E+00  0.00000000000E+00  0.18700628029E+04  0.18700628029E+04  0.25500000920E-02 0. -1.
       -2   -1    0    0    0  501  0.00000000000E+00  0.00000000000E+00 -0.52895465249E+03  0.52895465250E+03  0.25500000920E-02 0.  1.
    10030    2    1    2    0    0  0.00000000000E+00  0.00000000000E+00  0.13411081504E+04  0.23990174554E+04  0.19891489839E+04 0.  0.
        4    1    3    3  502    0 -0.42434505677E+02  0.22393517539E+03  0.18381403769E+04  0.18522174031E+04  0.12699999809E+01 0. -1.
       -4    1    3    3    0  502  0.42434505677E+02 -0.22393517539E+03 -0.49703222656E+03  0.54680005229E+03  0.12699999809E+01 0.  1.
</event>
<event>
 5   0  0.2256868E-05  0.2010197E+04  0.7818609E-02  0.8601868E-01
        1   -1    0    0  501    0  0.00000000000E+00  0.00000000000E+00  0.92858416462E+03  0.92858416463E+03  0.50400001928E-02 0.  1.
       -1   -1    0    0    0  501  0.00000000000E+00  0.00000000000E+00 -0.10879173917E+04  0.10879173917E+04  0.50400001928E-02 0. -1.
    10030    2    1    2    0    0  0.00000000000E+00  0.00000000000E+00 -0.15933322705E+03  0.20165015563E+04  0.20101968683E+04 0.  0.
        5    1    3    3  502    0 -0.21557070196E+03  0.96152887349E+03 -0.27825789578E+03  0.10239424050E+04  0.46999998093E+01 0. -1.
       -5    1    3    3    0  502  0.21557070196E+03 -0.96152887349E+03  0.11892466873E+03  0.99255915135E+03  0.46999998093E+01 0.  1.
</event>
<event>
 5   0  0.2007644E-05  0.2016091E+04  0.7818609E-02  0.8599134E-01
       -1   -1    0    0    0  501  0.00000000000E+00  0.00000000000E+00  0.12126222797E+04  0.12126222797E+04  0.50400001928E-02 0.  1.
        1   -1    0    0  501    0  0.00000000000E+00  0.00000000000E+00 -0.83798187607E+03  0.83798187608E+03  0.50400001928E-02 0. -1.
    10030    2    1    2    0    0  0.00000000000E+00  0.00000000000E+00  0.37464040362E+03  0.20506041558E+04  0.20160907647E+04 0.  0.
        1    1    3    3  502    0 -0.16553886711E+03 -0.37663160945E+03 -0.74870615450E+03  0.85429233379E+03  0.50400001928E-02 0. -1.
       -1    1    3    3    0  502  0.16553886711E+03  0.37663160945E+03  0.11233465581E+04  0.11963118220E+04  0.50400001928E-02 0.  1.
</event>
<event>
 5   0  0.2093980E-05  0.1983110E+04  0.7818609E-02  0.8614558E-01
       -1   -1    0    0    0  501  0.00000000000E+00  0.00000000000E+00  0.15135928744E+04  0.15135928744E+04  0.50400001928E-02 0.  1.
        1   -1    0    0  501    0  0.00000000000E+00  0.00000000000E+00 -0.64956767199E+03  0.64956767201E+03  0.50400001928E-02 0. -1.
    10030    2    1    2    0    0  0.00000000000E+00  0.00000000000E+00  0.86402520244E+03  0.21631605464E+04  0.19831096791E+04 0.  0.
        2    1    3    3  502    0  0.72613363398E+03 -0.38542140364E+03  0.10367496861E+04  0.13231287256E+04  0.25500000920E-02 0.  1.
       -2    1    3    3    0  502 -0.72613363398E+03  0.38542140364E+03 -0.17272448369E+03  0.84003182085E+03  0.25500000920E-02 0. -1.
</event>
<event>
 5   0  0.2093980E-05  0.2004676E+04  0.7818609E-02  0.8604438E-01
        1   -1    0    0  501    0  0.00000000000E+00  0.00000000000E+00  0.18267550843E+04  0.18267550844E+04  0.50400001928E-02 0.  1.
       -1   -1    0    0    0  501  0.00000000000E+00  0.00000000000E+00 -0.54998134860E+03  0.54998134863E+03  0.50400001928E-02 0. -1.
    10030    2    1    2    0    0  0.00000000000E+00  0.00000000000E+00  0.12767737357E+04  0.23767364330E+04  0.20046757592E+04 0.  0.
        2    1    3    3  502    0  0.69905251299E+03  0.48390393919E+03  0.89660293886E+01  0.85024574563E+03  0.25500000920E-02 0. -1.
       -2    1    3    3    0  502 -0.69905251299E+03 -0.48390393919E+03  0.12678077064E+04  0.15264906874E+04  0.25500000920E-02 0.  1.
</event>
<event>
 5   0  0.2256868E-05  0.1998144E+04  0.7818609E-02  0.8607489E-01
       -1   -1    0    0    0  501  0.00000000000E+00  0.00000000000E+00  0.18620827595E+04  0.18620827595E+04  0.50400001928E-02 0.  1.
        1   -1    0    0  501    0  0.00000000000E+00  0.00000000000E+00 -0.53603655018E+03  0.53603655020E+03  0.50400001928E-02 0. -1.
    10030    2    1    2    0    0  0.00000000000E+00  0.00000000000E+00  0.13260462093E+04  0.23981193097E+04  0.19981435570E+04 0.  0.
        5    1    3    3  502    0  0.55768066798E+03  0.78993137820E+02 -0.32730178185E+03  0.65145697453E+03  0.46999998093E+01 0. -1.
       -5    1    3    3    0  502 -0.55768066798E+03 -0.78993137820E+02  0.16533479912E+04  0.17466623352E+04  0.46999998093E+01 0.  1.
</event>
<event>
 5   0  0.4577279E-05  0.2004944E+04  0.7818609E-02  0.8604313E-01
        2   -1    0    0  501    0  0.00000000000E+00  0.00000000000E+00  0.14377068627E+04  0.14377068627E+04  0.25500000920E-02 0.  1.
       -2   -1    0    0    0  501  0.00000000000E+00  0.00000000000E+00 -0.69899531512E+03  0.69899531512E+03  0.25500000920E-02 0. -1.
    10030    2    1    2    0    0  0.00000000000E+00  0.00000000000E+00  0.73871154762E+03  0.21367021779E+04  0.20049442502E+04 0.  0.
        1    1    3    3  502    0  0.21877511945E+03  0.53270801020E+03 -0.50512289253E+03  0.76602187541E+03  0.50400001928E-02 0. -1.
       -1    1    3    3    0  502 -0.21877511945E+03 -0.53270801020E+03  0.12438344401E+04  0.13706803025E+04  0.50400001928E-02 0.  1.
</event>
<event>
 5   0  0.2093980E-05  0.2049025E+04  0.7818609E-02  0.8584037E-01
        1   -1    0    0  501    0  0.00000000000E+00  0.00000000000E+00  0.13637485860E+04  0.13637485860E+04  0.50400001928E-02 0. -1.
       -1   -1    0    0    0  501  0.00000000000E+00  0.00000000000E+00 -0.76966216335E+03  0.76966216336E+03  0.50400001928E-02 0.  1.
    10030    2    1    2    0    0  0.00000000000E+00  0.00000000000E+00  0.59408642265E+03  0.21334107494E+04  0.20490248285E+04 0.  0.
        2    1    3    3  502    0 -0.94984353519E+02 -0.94584865051E+03  0.69484341161E+03  0.11774799632E+04  0.25500000920E-02 0. -1.
       -2    1    3    3    0  502  0.94984353519E+02  0.94584865051E+03 -0.10075698896E+03  0.95593078616E+03  0.25500000920E-02 0.  1.
</event>
<event>
 5   0  0.2007644E-05  0.1994377E+04  0.7818609E-02  0.8609254E-01
       -1   -1    0    0    0  501  0.00000000000E+00  0.00000000000E+00  0.11603113097E+04  0.11603113097E+04  0.50400001928E-02 0. -1.
        1   -1    0    0  501    0  0.00000000000E+00  0.00000000000E+00 -0.85699850678E+03  0.85699850680E+03  0.50400001928E-02 0.  1.
    10030    2    1    2    0    0  0.00000000000E+00  0.00000000000E+00  0.30331280290E+03  0.20173098165E+04  0.19943771557E+04 0.  0.
        1    1    3    3  502    0 -0.33861759715E+03  0.79642629598E+03 -0.34944736137E+03  0.93331140592E+03  0.50400001928E-02 0.  1.
       -1    1    3    3    0  502  0.33861759715E+03 -0.79642629598E+03  0.65276016427E+03  0.10839984106E+04  0.50400001928E-02 0. -1.
</event>
<event>
 5   0  0.4412054E-05  0.1995695E+04  0.7818609E-02  0.8608636E-01
       -2   -1    0    0    0  501  0.00000000000E+00  0.00000000000E+00  0.78442534170E+03  0.78442534170E+03  0.25500000920E-02 0.  1.
        2   -1    0    0  501    0  0.00000000000E+00  0.00000000000E+00 -0.12693361589E+04  0.12693361589E+04  0.25500000920E-02 0. -1.
    10030    2    1    2    0    0  0.00000000000E+00  0.00000000000E+00 -0.48491081723E+03  0.20537615006E+04  0.19956948165E+04 0.  0.
        4    1    3    3  502    0 -0.51784195167E+02  0.93875388014E+03 -0.58648357323E+03  0.11081087694E+04  0.12699999809E+01 0.  1.
       -4    1    3    3    0  502  0.51784195167E+02 -0.93875388014E+03  0.10157275600E+03  0.94565273119E+03  0.12699999809E+01 0. -1.
</event>
<event>
 5   0  0.2256868E-05  0.1988695E+04  0.7818609E-02  0.8611924E-01
        1   -1    0    0  501    0  0.00000000000E+00  0.00000000000E+00  0.20208021679E+04  0.20208021679E+04  0.50400001928E-02 0.  1.
       -1   -1    0    0    0  501  0.00000000000E+00  0.00000000000E+00 -0.48927450814E+03  0.48927450817E+03  0.50400001928E-02 0. -1.
    10030    2    1    2    0    0  0.00000000000E+00  0.00000000000E+00  0.15315276597E+04  0.25100766761E+04  0.19886950362E+04 0.  0.
        5    1    3    3  502    0 -0.79211985357E+03 -0.59987929319E+03  0.71860739440E+03  0.12262657567E+04  0.46999998093E+01 0. -1.
       -5    1    3    3    0  502  0.79211985357E+03  0.59987929319E+03  0.81292026535E+03  0.12838109193E+04  0.46999998093E+01 0.  1.
</event>
<event>
 5   0  0.2256868E-05  0.1993859E+04  0.7818609E-02  0.8609497E-01
       -1   -1    0    0    0  501  0.00000000000E+00  0.00000000000E+00  0.61173067894E+03  0.61173067897E+03  0.50400001928E-02 0. -1.
        1   -1    0    0  501    0  0.00000000000E+00  0.00000000000E+00 -0.16246822166E+04  0.16246822166E+04  0.50400001928E-02 0.  1.
    10030    2    1    2    0    0  0.00000000000E+00  0.00000000000E+00 -0.10129515376E+04  0.22364128955E+04  0.19938585260E+04 0.  0.
        5    1    3    3  502    0  0.61672149129E+03  0.77381949831E+03 -0.37046502851E+03  0.10566023098E+04  0.46999998093E+01 0.  1.
       -5    1    3    3    0  502 -0.61672149129E+03 -0.77381949831E+03 -0.64248650911E+03  0.11798105857E+04  0.46999998093E+01 0. -1.
</event>
<event>
 5   0  0.2093980E-05  0.1999376E+04  0.7818609E-02  0.8606913E-01
       -1   -1    0    0    0  501  0.00000000000E+00  0.00000000000E+00  0.11351682815E+04  0.11351682815E+04  0.50400001928E-02 0.  1.
        1   -1    0    0  501    0  0.00000000000E+00  0.00000000000E+00 -0.88037667717E+03  0.88037667718E+03  0.50400001928E-02 0. -1.
    10030    2    1    2    0    0  0.00000000000E+00  0.00000000000E+00  0.25479160432E+03  0.20155449587E+04  0.19993755822E+04 0.  0.
        2    1    3    3  502    0  0.19288814225E+03  0.58718719845E+03  0.91948620161E+03  0.11079032071E+04  0.25500000920E-02 0.  1.
       -2    1    3    3    0  502 -0.19288814225E+03 -0.58718719845E+03 -0.66469459730E+03  0.90764175153E+03  0.25500000920E-02 0. -1.
</event>
<event>
 5   0  0.4577279E-05  0.1987927E+04  0.7818609E-02  0.8612286E-01
        2   -1    0    0  501    0  0.00000000000E+00  0.00000000000E+00  0.97532999121E+03  0.97532999122E+03  0.25500000920E-02 0.  1.
       -2   -1    0    0    0  501  0.00000000000E+00  0.00000000000E+00 -0.10129525579E+04  0.10129525579E+04  0.25500000920E-02 0. -1.
    10030    2    1    2    0    0  0.00000000000E+00  0.00000000000E+00 -0.37622566698E+02  0.19882825491E+04  0.19879265675E+04 0.  0.
        1    1    3    3  502    0 -0.37282720775E+03  0.11601261630E+03 -0.93303402024E+03  0.10114403279E+04  0.50400001928E-02 0. -1.
       -1    1    3    3    0  502  0.37282720775E+03 -0.11601261630E+03  0.89541145354E+03  0.97684222121E+03  0.50400001928E-02 0.  1.
</event>
<event>
 5   0  0.2110896E-05  0.1998247E+04  0.7818609E-02  0.8607441E-01
       -1   -1    0    0    0  501  0.00000000000E+00  0.00000000000E+00  0.12975818715E+04  0.12975818715E+04  0.50400001928E-02 0. -1.
        1   -1    0    0  501    0  0.00000000000E+00  0.00000000000E+00 -0.76931393572E+03  0.76931393573E+03  0.50400001928E-02 0.  1.
    10030    2    1    2    0    0  0.00000000000E+00  0.00000000000E+00  0.52826793582E+03  0.20668958073E+04  0.19982470483E+04 0.  0.
        4    1    3    3  502    0  0.13911794051E+03  0.38244730546E+02 -0.75848108043E+03  0.77208265300E+03  0.12699999809E+01 0.  1.
       -4    1    3    3    0  502 -0.13911794051E+03 -0.38244730546E+02  0.12867490162E+04  0.12948131543E+04  0.12699999809E+01 0. -1.
</event>
<event>
 5   0  0.4577279E-05  0.1978066E+04  0.7818609E-02  0.8616944E-01
        2   -1    0    0  501    0  0.00000000000E+00  0.00000000000E+00  0.87066882801E+03  0.87066882801E+03  0.25500000920E-02 0.  1.
       -2   -1    0    0    0  501  0.00000000000E+00  0.00000000000E+00 -0.11234888865E+04  0.11234888865E+04  0.25500000920E-02 0. -1.
    10030    2    1    2    0    0  0.00000000000E+00  0.00000000000E+00 -0.25282005852E+03  0.19941577145E+04  0.19780664823E+04 0.  0.
        1    1    3    3  502    0 -0.44399575688E+03 -0.29982697750E+03  0.71171224715E+03  0.89082140260E+03  0.50400001928E-02 0.  1.
       -1    1    3    3    0  502  0.44399575688E+03  0.29982697750E+03 -0.96453230566E+03  0.11033363119E+04  0.50400001928E-02 0. -1.
</event>
<event>
 5   0  0.4514680E-05  0.2002929E+04  0.7818609E-02  0.8605252E-01
        2   -1    0    0  501    0  0.00000000000E+00  0.00000000000E+00  0.15097551993E+04  0.15097551993E+04  0.25500000920E-02 0. -1.
       -2   -1    0    0    0  501  0.00000000000E+00  0.00000000000E+00 -0.66430070181E+03  0.66430070182E+03  0.25500000920E-02 0.  1.
    10030    2    1    2    0    0  0.00000000000E+00  0.00000000000E+00  0.84545449749E+03  0.21740559011E+04  0.20029292933E+04 0.  0.
        3    1    3    3  502    0 -0.36477197940E+03  0.66307289075E+03 -0.28921360025E+03  0.81016589176E+03  0.10100000352E+00 0.  1.
       -3    1    3    3    0  502  0.36477197940E+03 -0.66307289075E+03  0.11346680977E+04  0.13638900094E+04  0.10100000352E+00 0. -1.
</event>
<event>
 5   0  0.4514680E-05  0.2000290E+04  0.7818609E-02  0.8606485E-01
        2   -1    0    0  501    0  0.00000000000E+00  0.00000000000E+00  0.29006894408E+04  0.29006894408E+04  0.25500000920E-02 0. -1.
       -2   -1    0    0    0  501  0.00000000000E+00  0.00000000000E+00 -0.34484569263E+03  0.34484569264E+03  0.25500000920E-02 0.  1.
    10030    2    1    2    0    0  0.00000000000E+00  0.00000000000E+00  0.25558437482E+04  0.32455351334E+04  0.20002902383E+04 0.  0.
        3    1    3    3  502    0 -0.62549677256E+02  0.62690104701E+03  0.17586323851E+02  0.63025921164E+03  0.10100000352E+00 0.  1.
       -3    1    3    3    0  502  0.62549677256E+02 -0.62690104701E+03  0.25382574243E+04  0.26152759218E+04  0.10100000352E+00 0. -1.
</event>
<event>
 5   0  0.2007644E-05  0.1966105E+04  0.7818609E-02  0.8622634E-01
       -1   -1    0    0    0  501  0.00000000000E+00  0.00000000000E+00  0.99166947920E+03  0.99166947921E+03  0.50400001928E-02 0.  1.
        1   -1    0    0  501    0  0.00000000000E+00  0.00000000000E+00 -0.97451057234E+03  0.97451057236E+03  0.50400001928E-02 0. -1.
    10030    2    1    2    0    0  0.00000000000E+00  0.00000000000E+00  0.17158906856E+02  0.19661800516E+04  0.19661051770E+04 0.  0.
        1    1    3    3  502    0  0.68270702811E+03  0.62364092455E+03 -0.32516294102E+03  0.98017744682E+03  0.50400001928E-02 0. -1.
       -1    1    3    3    0  502 -0.68270702811E+03 -0.62364092455E+03  0.34232184787E+03  0.98600260475E+03  0.50400001928E-02 0.  1.
</event>
<event>
 5   0  0.2256868E-05  0.1998403E+04  0.7818609E-02  0.8607368E-01
       -1   -1    0    0    0  501  0.00000000000E+00  0.00000000000E+00  0.11495374939E+04  0.11495374939E+04  0.50400001928E-02 0.  1.
        1   -1    0    0  501    0  0.00000000000E+00  0.00000000000E+00 -0.86852614760E+03  0.86852614761E+03  0.50400001928E-02 0. -1.
    10030    2    1    2    0    0  0.00000000000E+00  0.00000000000E+00  0.28101134628E+03  0.20180636415E+04  0.19984027333E+04 0.  0.
        5    1    3    3  502    0 -0.53640343505E+03 -0.45102803372E+03  0.85971075228E+03  0.11091796969E+04  0.46999998093E+01 0.  1.
       -5    1    3    3    0  502  0.53640343505E+03  0.45102803372E+03 -0.57869940600E+03  0.90888394464E+03  0.46999998093E+01 0. -1.
</event>
<event>
 5   0  0.4514680E-05  0.1999370E+04  0.7818609E-02  0.8606915E-01
        2   -1    0    0  501    0  0.00000000000E+00  0.00000000000E+00  0.13432071747E+04  0.13432071748E+04  0.25500000920E-02 0. -1.
       -2   -1    0    0    0  501  0.00000000000E+00  0.00000000000E+00 -0.74401803579E+03  0.74401803579E+03  0.25500000920E-02 0.  1.
    10030    2    1    2    0    0  0.00000000000E+00  0.00000000000E+00  0.59918913896E+03  0.20872252105E+04  0.19993702647E+04 0.  0.
        3    1    3    3  502    0 -0.26423368501E+03 -0.36939777870E+03  0.12292864025E+04  0.13105034257E+04  0.10100000352E+00 0. -1.
       -3    1    3    3    0  502  0.26423368501E+03  0.36939777870E+03 -0.63009726359E+03  0.77672178480E+03  0.10100000352E+00 0.  1.
</event>
<event>
 5   0  0.2256868E-05  0.1989193E+04  0.7818609E-02  0.8611690E-01
       -1   -1    0    0    0  501  0.00000000000E+00  0.00000000000E+00  0.19030472357E+04  0.19030472357E+04  0.50400001928E-02 0. -1.
        1   -1    0    0  501    0  0.00000000000E+00  0.00000000000E+00 -0.51980938049E+03  0.51980938051E+03  0.50400001928E-02 0.  1.
    10030    2    1    2    0    0  0.00000000000E+00  0.00000000000E+00  0.13832378552E+04  0.24228566162E+04  0.19891926047E+04 0.  0.
        5    1    3    3  502    0  0.73106904514E+02 -0.87335791710E+03  0.12643441031E+04  0.15384039690E+04  0.46999998093E+01 0.  1.
       -5    1    3    3    0  502 -0.73106904514E+02  0.87335791710E+03  0.11889375212E+03  0.88445264720E+03  0.46999998093E+01 0. -1.
</event>
<event>
 5   0  0.4473361E-05  0.2026986E+04  0.7818609E-02  0.8594107E-01
        2   -1    0    0  501    0  0.00000000000E+00  0.00000000000E+00  0.20301663196E+04  0.20301663196E+04  0.25500000920E-02 0.  1.
       -2   -1    0    0    0  501  0.00000000000E+00  0.00000000000E+00 -0.50595283238E+03  0.50595283238E+03  0.25500000920E-02 0. -1.
    10030    2    1    2    0    0  0.00000000000E+00  0.00000000000E+00  0.15242134872E+04  0.25361191520E+04  0.20269863340E+04 0.  0.
        2    1    3    3  502    0  0.57892842505E+03 -0.67023226585E+03  0.14559370030E+03  0.89753380833E+03  0.25500000920E-02 0. -1.
       -2    1    3    3    0  502 -0.57892842505E+03  0.67023226585E+03  0.13786197869E+04  0.16385853436E+04  0.25500000920E-02 0.  1.
</event>
<event>
 5   0  0.2007644E-05  0.1999268E+04  0.7818609E-02  0.8606963E-01
        1   -1    0    0  501    0  0.00000000000E+00  0.00000000000E+00  0.12890798316E+04  0.12890798316E+04  0.50400001928E-02 0. -1.
       -1   -1    0    0    0  501  0.00000000000E+00  0.00000000000E+00 -0.77517977113E+03  0.77517977114E+03  0.50400001928E-02 0.  1.
    10030    2    1    2    0    0  0.00000000000E+00  0.00000000000E+00  0.51390006051E+03  0.20642596028E+04  0.19992684751E+04 0.  0.
        1    1    3    3  502    0  0.58862639901E+03 -0.52331415188E+03 -0.37863347211E+03  0.87390047797E+03  0.50400001928E-02 0.  1.
       -1    1    3    3    0  502 -0.58862639901E+03  0.52331415188E+03  0.89253353261E+03  0.11903591248E+04  0.50400001928E-02 0. -1.
</event>
<event>
 5   0  0.2007644E-05  0.1996926E+04  0.7818609E-02  0.8608059E-01
       -1   -1    0    0    0  501  0.00000000000E+00  0.00000000000E+00  0.14428241595E+04  0.14428241595E+04  0.50400001928E-02 0. -1.
        1   -1    0    0  501    0  0.00000000000E+00  0.00000000000E+00 -0.69095598394E+03  0.69095598396E+03  0.50400001928E-02 0.  1.
    10030    2    1    2    0    0  0.00000000000E+00  0.00000000000E+00  0.75186817552E+03  0.21337801434E+04  0.19969256238E+04 0.  0.
        1    1    3    3  502    0  0.81959165592E+03 -0.38866642638E+03 -0.69960246097E+02  0.90977277905E+03  0.50400001928E-02 0.  1.
       -1    1    3    3    0  502 -0.81959165592E+03  0.38866642638E+03  0.82182842162E+03  0.12240073644E+04  0.50400001928E-02 0. -1.
</event>
<event>
 5   0  0.2110896E-05  0.2011242E+04  0.7818609E-02  0.8601383E-01
        1   -1    0    0  501    0  0.00000000000E+00  0.00000000000E+00  0.84862884014E+03  0.84862884016E+03  0.50400001928E-02 0. -1.
       -1   -1    0    0    0  501  0.00000000000E+00  0.00000000000E+00 -0.11916558114E+04  0.11916558114E+04  0.50400001928E-02 0.  1.
    10030    2    1    2    0    0  0.00000000000E+00  0.00000000000E+00 -0.34302697125E+03  0.20402846516E+04  0.20112418941E+04 0.  0.
        4    1    3    3  502    0 -0.24900443545E+03  0.96687856821E+03 -0.29330759169E+03  0.10406192055E+04  0.12699999809E+01 0. -1.
       -4    1    3    3    0  502  0.24900443545E+03 -0.96687856821E+03 -0.49719379560E+02  0.99966544610E+03  0.12699999809E+01 0.  1.
</event>
<event>
 5   0  0.4412054E-05  0.2005420E+04  0.7818609E-02  0.8604091E-01
        2   -1    0    0  501    0  0.00000000000E+00  0.00000000000E+00  0.21280029672E+04  0.21280029672E+04  0.25500000920E-02 0. -1.
       -2   -1    0    0    0  501  0.00000000000E+00  0.00000000000E+00 -0.47247451612E+03  0.47247451613E+03  0.25500000920E-02 0.  1.
    10030    2    1    2    0    0  0.00000000000E+00  0.00000000000E+00  0.16555284511E+04  0.26004774834E+04  0.20054198286E+04 0.  0.
        4    1    3    3  502    0  0.33462653440E+03 -0.69427492200E+03  0.16595229037E+04  0.18297569417E+04  0.12699999809E+01 0. -1.
       -4    1    3    3    0  502 -0.33462653440E+03  0.69427492200E+03 -0.39944525598E+01  0.77072054170E+03  0.12699999809E+01 0.  1.
</event>
<event>
 5   0  0.2142551E-05  0.2003403E+04  0.7818609E-02  0.8605031E-01
        1   -1    0    0  501    0  0.00000000000E+00  0.00000000000E+00  0.16091812085E+04  0.16091812085E+04  0.50400001928E-02 0.  1.
       -1   -1    0    0    0  501  0.00000000000E+00  0.00000000000E+00 -0.62355049324E+03  0.62355049326E+03  0.50400001928E-02 0. -1.
    10030    2    1    2    0    0  0.00000000000E+00  0.00000000000E+00  0.98563071522E+03  0.22327317017E+04  0.20034028415E+04 0.  0.
        3    1    3    3  502    0 -0.28822066096E+03 -0.36029115614E+03  0.14837066665E+04  0.15537909605E+04  0.10100000352E+00 0.  1.
       -3    1    3    3    0  502  0.28822066096E+03  0.36029115614E+03 -0.49807595129E+03  0.67894074119E+03  0.10100000352E+00 0. -1.
</event>
<event>
 5   0  0.2256868E-05  0.1997585E+04  0.7818609E-02  0.8607750E-01
       -1   -1    0    0    0  501  0.00000000000E+00  0.00000000000E+00  0.84945163519E+03  0.84945163521E+03  0.50400001928E-02 0.  1.
        1   -1    0    0  501    0  0.00000000000E+00  0.00000000000E+00 -0.11743892027E+04  0.11743892027E+04  0.50400001928E-02 0. -1.
    10030    2    1    2    0    0  0.00000000000E+00  0.00000000000E+00 -0.32493756746E+03  0.20238408379E+04  0.19975853710E+04 0.  0.
        5    1    3    3  502    0 -0.29836773366E+03  0.39832239333E+03  0.71486953020E+03  0.87105945189E+03  0.46999998093E+01 0.  1.
       -5    1    3    3    0  502  0.29836773366E+03 -0.39832239333E+03 -0.10398070977E+04  0.11527813860E+04  0.46999998093E+01 0. -1.
</event>
<event>
 5   0  0.2110896E-05  0.2007365E+04  0.7818609E-02  0.8603185E-01
        1   -1    0    0  501    0  0.00000000000E+00  0.00000000000E+00  0.28844696608E+04  0.28844696608E+04  0.50400001928E-02 0.  1.
       -1   -1    0    0    0  501  0.00000000000E+00  0.00000000000E+00 -0.34924204593E+03  0.34924204597E+03  0.50400001928E-02 0. -1.
    10030    2    1    2    0    0  0.00000000000E+00  0.00000000000E+00  0.25352276149E+04  0.32337117068E+04  0.20073645268E+04 0.  0.
        4    1    3    3  502    0 -0.77751837366E+02  0.36061221441E+03  0.27712972145E+04  0.27957425456E+04  0.12699999809E+01 0.  1.
       -4    1    3    3    0  502  0.77751837366E+02 -0.36061221441E+03 -0.23606959960E+03  0.43796916119E+03  0.12699999809E+01 0. -1.
</event>
<event>
 5   0  0.4473361E-05  0.2000639E+04  0.7818609E-02  0.8606322E-01
        2   -1    0    0  501    0  0.00000000000E+00  0.00000000000E+00  0.12215677665E+04  0.12215677665E+04  0.25500000920E-02 0.  1.
       -2   -1    0    0    0  501  0.00000000000E+00  0.00000000000E+00 -0.81914339408E+03  0.81914339408E+03  0.25500000920E-02 0. -1.
    10030    2    1    2    0    0  0.00000000000E+00  0.00000000000E+00  0.40242437243E+03  0.20407111606E+04  0.20006390643E+04 0.  0.
        2    1    3    3  502    0 -0.89386831551E+03 -0.44699482673E+03  0.15752649728E+03  0.10117408453E+04  0.25500000920E-02 0.  1.
       -2    1    3    3    0  502  0.89386831551E+03  0.44699482673E+03  0.24489787516E+03  0.10289703153E+04  0.25500000920E-02 0. -1.
</event>
<event>
 5   0  0.4412054E-05  0.2016891E+04  0.7818609E-02  0.8598764E-01
       -2   -1    0    0    0  501  0.00000000000E+00  0.00000000000E+00  0.71827659804E+03  0.71827659804E+03  0.25500000920E-02 0.  1.
        2   -1    0    0  501    0  0.00000000000E+00  0.00000000000E+00 -0.14158364460E+04  0.14158364460E+04  0.25500000920E-02 0. -1.
    10030    2    1    2    0    0  0.00000000000E+00  0.00000000000E+00 -0.69755984791E+03  0.21341130440E+04  0.20168908605E+04 0.  0.
        4    1    3    3  502    0  0.62870481063E+03  0.35038566946E+03 -0.10961759615E+04  0.13113516720E+04  0.12699999809E+01 0. -1.
       -4    1    3    3    0  502 -0.62870481063E+03 -0.35038566946E+03  0.39861611360E+03  0.82276137196E+03  0.12699999809E+01 0.  1.
</event>
<event>
 5   0  0.4412054E-05  0.1986594E+04  0.7818609E-02  0.8612914E-01
       -2   -1    0    0    0  501  0.00000000000E+00  0.00000000000E+00  0.51398411544E+03  0.51398411545E+03  0.25500000920E-02 0.  1.
        2   -1    0    0  501    0  0.00000000000E+00  0.00000000000E+00 -0.19195901511E+04  0.19195901511E+04  0.25500000920E-02 0. -1.
    10030    2    1    2    0    0  0.00000000000E+00  0.00000000000E+00 -0.14056060357E+04  0.24335742666E+04  0.19865939151E+04 0.  0.
        4    1    3    3  502    0 -0.47095329760E+03 -0.80573670801E+03 -0.28625209307E+03  0.97619184838E+03  0.12699999809E+01 0.  1.
       -4    1    3    3    0  502  0.47095329760E+03  0.80573670801E+03 -0.11193539426E+04  0.14573824182E+04  0.12699999809E+01 0. -1.
</event>
<event>
 5   0  0.2110896E-05  0.1996654E+04  0.7818609E-02  0.8608187E-01
        1   -1    0    0  501    0  0.00000000000E+00  0.00000000000E+00  0.16672936307E+04  0.16672936307E+04  0.50400001928E-02 0. -1.
       -1   -1    0    0    0  501  0.00000000000E+00  0.00000000000E+00 -0.59776896452E+03  0.59776896454E+03  0.50400001928E-02 0.  1.
    10030    2    1    2    0    0  0.00000000000E+00  0.00000000000E+00  0.10695246661E+04  0.22650625952E+04  0.19966535876E+04 0.  0.
        4    1    3    3  502    0  0.59070835864E+03  0.74522843346E+03  0.19001336984E+03  0.96974660434E+03  0.12699999809E+01 0.  1.
       -4    1    3    3    0  502 -0.59070835864E+03 -0.74522843346E+03  0.87951129630E+03  0.12953159909E+04  0.12699999809E+01 0. -1.
</event>
<event>
 5   0  0.4473361E-05  0.2006901E+04  0.7818609E-02  0.8603401E-01
        2   -1    0    0  501    0  0.00000000000E+00  0.00000000000E+00  0.15751316347E+04  0.15751316347E+04  0.25500000920E-02 0. -1.
       -2   -1    0    0    0  501  0.00000000000E+00  0.00000000000E+00 -0.63925643957E+03  0.63925643957E+03  0.25500000920E-02 0.  1.
    10030    2    1    2    0    0  0.00000000000E+00  0.00000000000E+00  0.93587519510E+03  0.22143880742E+04  0.20069011342E+04 0.  0.
        2    1    3    3  502    0  0.21798379366E+03  0.71656221887E+03 -0.26888576206E+03  0.79578759782E+03  0.25500000920E-02 0.  1.
       -2    1    3    3    0  502 -0.21798379366E+03 -0.71656221887E+03  0.12047609572E+04  0.14186004764E+04  0.25500000920E-02 0. -1.
</event>
<event>
 5   0  0.4412054E-05  0.1995737E+04  0.7818609E-02  0.8608616E-01
        2   -1    0    0  501    0  0.00000000000E+00  0.00000000000E+00  0.87559983272E+03  0.87559983272E+03  0.25500000920E-02 0.  1.
       -2   -1    0    0    0  501  0.00000000000E+00  0.00000000000E+00 -0.11372112418E+04  0.11372112418E+04  0.25500000920E-02 0. -1.
    10030    2    1    2    0    0  0.00000000000E+00  0.00000000000E+00 -0.26161140910E+03  0.20128110745E+04  0.19957374307E+04 0.  0.
        4    1    3    3  502    0 -0.59853778393E+03  0.74919168368E+03 -0.40921933700E+03  0.10425918359E+04  0.12699999809E+01 0. -1.
       -4    1    3    3    0  502  0.59853778393E+03 -0.74919168368E+03  0.14760792790E+03  0.97021923861E+03  0.12699999809E+01 0.  1.
</event>
<event>
 5   0  0.4447313E-05  0.1993472E+04  0.7818609E-02  0.8609679E-01
       -2   -1    0    0    0  501  0.00000000000E+00  0.00000000000E+00  0.10121825836E+04  0.10121825836E+04  0.25500000920E-02 0. -1.
        2   -1    0    0  501    0  0.00000000000E+00  0.00000000000E+00 -0.98152519752E+03  0.98152519753E+03  0.25500000920E-02 0.  1.
    10030    2    1    2    0    0  0.00000000000E+00  0.00000000000E+00  0.30657386042E+02  0.19937077811E+04  0.19934720568E+04 0.  0.
        5    1    3    3  502    0  0.45216452221E+03  0.61861028553E+03  0.65284361894E+03  0.10066570028E+04  0.46999998093E+01 0. -1.
       -5    1    3    3    0  502 -0.45216452221E+03 -0.61861028553E+03 -0.62218623290E+03  0.98705077829E+03  0.46999998093E+01 0.  1.
</event>
<event>
 5   0  0.1601500E-05  0.2004376E+04  0.7818609E-02  0.8604578E-01
        4   -1    0    0  501    0  0.00000000000E+00  0.00000000000E+00  0.13200406591E+04  0.13200412701E+04  0.12699999809E+01 0.  1.
       -4   -1    0    0    0  501  0.00000000000E+00  0.00000000000E+00 -0.76086954434E+03  0.76087060425E+03  0.12699999809E+01 0. -1.
    10030    2    1    2    0    0  0.00000000000E+00  0.00000000000E+00  0.55917111479E+03  0.20809118743E+04  0.20043756866E+04 0.  0.
        5    1    3    3  502    0 -0.59671388261E+03 -0.10508792193E+03 -0.54917412817E+03  0.81775622411E+03  0.46999998093E+01 0. -1.
       -5    1    3    3    0  502  0.59671388261E+03  0.10508792193E+03  0.11083452430E+04  0.12631556502E+04  0.46999998093E+01 0.  1.
</event>
<event>
 5   0  0.4447313E-05  0.1997192E+04  0.7818609E-02  0.8607935E-01
       -2   -1    0    0    0  501  0.00000000000E+00  0.00000000000E+00  0.62219914440E+03  0.62219914441E+03  0.25500000920E-02 0. -1.
        2   -1    0    0  501    0  0.00000000000E+00  0.00000000000E+00 -0.16026924541E+04  0.16026924541E+04  0.25500000920E-02 0.  1.
    10030    2    1    2    0    0  0.00000000000E+00  0.00000000000E+00 -0.98049330974E+03  0.22248915986E+04  0.19971919024E+04 0.  0.
        5    1    3    3  502    0  0.98004429448E+03 -0.16340952919E+03 -0.37894434986E+03  0.10633956948E+04  0.46999998093E+01 0. -1.
       -5    1    3    3    0  502 -0.98004429448E+03  0.16340952919E+03 -0.60154895988E+03  0.11614959038E+04  0.46999998093E+01 0.  1.
</event>
<event>
 5   0  0.2256868E-05  0.2001817E+04  0.7818609E-02  0.8605772E-01
       -1   -1    0    0    0  501  0.00000000000E+00  0.00000000000E+00  0.64371152629E+03  0.64371152631E+03  0.50400001928E-02 0. -1.
        1   -1    0    0  501    0  0.00000000000E+00  0.00000000000E+00 -0.15563145638E+04  0.15563145638E+04  0.50400001928E-02 0.  1.
    10030    2    1    2    0    0  0.00000000000E+00  0.00000000000E+00 -0.91260303753E+03  0.22000260901E+04  0.20018167981E+04 0.  0.
        5    1    3    3  502    0  0.24929139117E+03  0.43970463914E+03 -0.14057313859E+04  0.14938504566E+04  0.46999998093E+01 0.  1.
       -5    1    3    3    0  502 -0.24929139117E+03 -0.43970463914E+03  0.49312834839E+03  0.70617563352E+03  0.46999998093E+01 0. -1.
</event>
<event>
 5   0  0.2093980E-05  0.1982381E+04  0.7818609E-02  0.8614903E-01
       -1   -1    0    0    0  501  0.00000000000E+00  0.00000000000E+00  0.13288343446E+04  0.13288343446E+04  0.50400001928E-02 0. -1.
        1   -1    0    0  501    0  0.00000000000E+00  0.00000000000E+00 -0.73933843155E+03  0.73933843157E+03  0.50400001928E-02 0.  1.
    10030    2    1    2    0    0  0.00000000000E+00  0.00000000000E+00  0.58949591303E+03  0.20681727762E+04  0.19823806901E+04 0.  0.
        2    1    3    3  502    0  0.97551391461E+03  0.27291732463E+02  0.11378801590E+03  0.98250697139E+03  0.25500000920E-02 0.  1.
       -2    1    3    3    0  502 -0.97551391461E+03 -0.27291732463E+02  0.47570789713E+03  0.10856658048E+04  0.25500000920E-02 0. -1.
</event>
<event>
 5   0  0.4577279E-05  0.2001613E+04  0.7818609E-02  0.8605867E-01
       -2   -1    0    0    0  501  0.00000000000E+00  0.00000000000E+00  0.67733660537E+03  0.67733660537E+03  0.25500000920E-02 0. -1.
        2   -1    0    0  501    0  0.00000000000E+00  0.00000000000E+00 -0.14787527452E+04  0.14787527452E+04  0.25500000920E-02 0.  1.
    10030    2    1    2    0    0  0.00000000000E+00  0.00000000000E+00 -0.80141613980E+03  0.21560893506E+04  0.20016127144E+04 0.  0.
        1    1    3    3  502    0 -0.36619560395E+03  0.59524723146E+02 -0.14019436489E+04  0.14502028850E+04  0.50400001928E-02 0.  1.
       -1    1    3    3    0  502  0.36619560395E+03 -0.59524723146E+02  0.60052750909E+03  0.70588646553E+03  0.50400001928E-02 0. -1.
</event>
<event>
 5   0  0.2110896E-05  0.2002475E+04  0.7818609E-02  0.8605465E-01
        1   -1    0    0  501    0  0.00000000000E+00  0.00000000000E+00  0.23809555894E+04  0.23809555894E+04  0.50400001928E-02 0. -1.
       -1   -1    0    0    0  501  0.00000000000E+00  0.00000000000E+00 -0.42103944212E+03  0.42103944215E+03  0.50400001928E-02 0.  1.
    10030    2    1    2    0    0  0.00000000000E+00  0.00000000000E+00  0.19599161473E+04  0.28019950315E+04  0.20024746821E+04 0.  0.
        4    1    3    3  502    0 -0.41715967205E+03  0.43002180273E+03 -0.14254091897E+03  0.61584126955E+03  0.12699999809E+01 0.  1.
       -4    1    3    3    0  502  0.41715967205E+03 -0.43002180273E+03  0.21024570662E+04  0.21861537620E+04  0.12699999809E+01 0. -1.
</event>
<event>
 5   0  0.4514680E-05  0.1999267E+04  0.7818609E-02  0.8606963E-01
       -2   -1    0    0    0  501  0.00000000000E+00  0.00000000000E+00  0.42273626096E+03  0.42273626097E+03  0.25500000920E-02 0. -1.
        2   -1    0    0  501    0  0.00000000000E+00  0.00000000000E+00 -0.23638086360E+04  0.23638086360E+04  0.25500000920E-02 0.  1.
    10030    2    1    2    0    0  0.00000000000E+00  0.00000000000E+00 -0.19410723750E+04  0.27865448969E+04  0.19992674903E+04 0.  0.
        3    1    3    3  502    0 -0.54144707858E+03  0.66331747697E+02 -0.21380761047E+04  0.22065661738E+04  0.10100000352E+00 0.  1.
       -3    1    3    3    0  502  0.54144707858E+03 -0.66331747697E+02  0.19700372965E+03  0.57997872319E+03  0.10100000352E+00 0. -1.
</event>
<event>
 5   0  0.2256868E-05  0.2058504E+04  0.7818609E-02  0.8579746E-01
       -1   -1    0    0    0  501  0.00000000000E+00  0.00000000000E+00  0.95485938587E+03  0.95485938589E+03  0.50400001928E-02 0. -1.
        1   -1    0    0  501    0  0.00000000000E+00  0.00000000000E+00 -0.11094405801E+04  0.11094405801E+04  0.50400001928E-02 0.  1.
    10030    2    1    2    0    0  0.00000000000E+00  0.00000000000E+00 -0.15458119424E+03  0.20642999660E+04  0.20585040695E+04 0.  0.
        5    1    3    3  502    0  0.73719465356E+03  0.66213602520E+03 -0.35638624211E+03  0.10530495319E+04  0.46999998093E+01 0.  1.
       -5    1    3    3    0  502 -0.73719465356E+03 -0.66213602520E+03  0.20180504787E+03  0.10112504341E+04  0.46999998093E+01 0. -1.
</event>
<event>
 5   0  0.2142551E-05  0.2000813E+04  0.7818609E-02  0.8606241E-01
       -1   -1    0    0    0  501  0.00000000000E+00  0.00000000000E+00  0.50530391053E+03  0.50530391056E+03  0.50400001928E-02 0. -1.
        1   -1    0    0  501    0  0.00000000000E+00  0.00000000000E+00 -0.19806156312E+04  0.19806156313E+04  0.50400001928E-02 0.  1.
    10030    2    1    2    0    0  0.00000000000E+00  0.00000000000E+00 -0.14753117207E+04  0.24859195418E+04  0.20008126587E+04 0.  0.
        3    1    3    3  502    0 -0.70625419898E+03 -0.21222251107E+03  0.10224681717E+03  0.74450507695E+03  0.10100000352E+00 0. -1.
       -3    1    3    3    0  502  0.70625419898E+03  0.21222251107E+03 -0.15775585379E+04  0.17414144649E+04  0.10100000352E+00 0.  1.
</event>
<event>
 5   0  0.1601500E-05  0.2013517E+04  0.7818609E-02  0.8600327E-01
       -3   -1    0    0    0  501  0.00000000000E+00  0.00000000000E+00  0.54618286065E+03  0.54618286999E+03  0.10100000352E+00 0. -1.
        3   -1    0    0  501    0  0.00000000000E+00  0.00000000000E+00 -0.18557202826E+04  0.18557202853E+04  0.10100000352E+00 0.  1.
    10030    2    1    2    0    0  0.00000000000E+00  0.00000000000E+00 -0.13095374219E+04  0.24019031553E+04  0.20135169500E+04 0.  0.
        4    1    3    3  502    0  0.37353462796E+03  0.92154682746E+03 -0.84256581353E+03  0.13033401078E+04  0.12699999809E+01 0.  1.
       -4    1    3    3    0  502 -0.37353462796E+03 -0.92154682746E+03 -0.46697160839E+03  0.10985630475E+04  0.12699999809E+01 0. -1.
</event>
<event>
 5   0  0.4473361E-05  0.1998807E+04  0.7818609E-02  0.8607179E-01
       -2   -1    0    0    0  501  0.00000000000E+00  0.00000000000E+00  0.25854566170E+04  0.25854566170E+04  0.25500000920E-02 0.  1.
        2   -1    0    0  501    0  0.00000000000E+00  0.00000000000E+00 -0.38631749519E+03  0.38631749520E+03  0.25500000920E-02 0. -1.
    10030    2    1    2    0    0  0.00000000000E+00  0.00000000000E+00  0.21991391218E+04  0.29717741122E+04  0.19988067683E+04 0.  0.
        2    1    3    3  502    0 -0.38142883704E+03  0.56662969733E+03  0.21842524757E+04  0.22885620047E+04  0.25500000920E-02 0.  1.
       -2    1    3    3    0  502  0.38142883704E+03 -0.56662969733E+03  0.14886646088E+02  0.68321210751E+03  0.25500000920E-02 0. -1.
</event>
<event>
 5   0  0.4447313E-05  0.2000237E+04  0.7818609E-02  0.8606510E-01
        2   -1    0    0  501    0  0.00000000000E+00  0.00000000000E+00  0.96166972130E+03  0.96166972130E+03  0.25500000920E-02 0.  1.
       -2   -1    0    0    0  501  0.00000000000E+00  0.00000000000E+00 -0.10401040063E+04  0.10401040063E+04  0.25500000920E-02 0. -1.
    10030    2    1    2    0    0  0.00000000000E+00  0.00000000000E+00 -0.78434285039E+02  0.20017737276E+04  0.20002365159E+04 0.  0.
        5    1    3    3  502    0  0.82479657083E+01  0.41765481906E+02 -0.10391857515E+04  0.10400680269E+04  0.46999998093E+01 0. -1.
       -5    1    3    3    0  502 -0.82479657083E+01 -0.41765481906E+02  0.96075146650E+03  0.96170570072E+03  0.46999998093E+01 0.  1.
</event>
<event>
 5   0  0.2110896E-05  0.1996942E+04  0.7818609E-02  0.8608052E-01
        1   -1    0    0  501    0  0.00000000000E+00  0.00000000000E+00  0.13243371978E+04  0.13243371978E+04  0.50400001928E-02 0. -1.
       -1   -1    0    0    0  501  0.00000000000E+00  0.00000000000E+00 -0.75278761639E+03  0.75278761641E+03  0.50400001928E-02 0.  1.
    10030    2    1    2    0    0  0.00000000000E+00  0.00000000000E+00  0.57154958140E+03  0.20771248142E+04  0.19969423051E+04 0.  0.
        4    1    3    3  502    0 -0.10972757997E+03  0.19728707249E+03  0.12974432591E+04  0.13169369591E+04  0.12699999809E+01 0. -1.
       -4    1    3    3    0  502  0.10972757997E+03 -0.19728707249E+03 -0.72589367771E+03  0.76018785509E+03  0.12699999809E+01 0.  1.
</event>
<event>
 5   0  0.4412054E-05  0.1987968E+04  0.7818609E-02  0.8612267E-01
        2   -1    0    0  501    0  0.00000000000E+00  0.00000000000E+00  0.13987403473E+04  0.13987403473E+04  0.25500000920E-02 0. -1.
       -2   -1    0    0    0  501  0.00000000000E+00  0.00000000000E+00 -0.70635287439E+03  0.70635287439E+03  0.25500000920E-02 0.  1.
    10030    2    1    2    0    0  0.00000000000E+00  0.00000000000E+00  0.69238747292E+03  0.21050932217E+04  0.19879680730E+04 0.  0.
        4    1    3    3  502    0  0.72829190997E+03 -0.34531622639E+03  0.96214333735E+03  0.12551389632E+04  0.12699999809E+01 0.  1.
       -4    1    3    3    0  502 -0.72829190997E+03  0.34531622639E+03 -0.26975586442E+03  0.84995425855E+03  0.12699999809E+01 0. -1.
</event>
<event>
 5   0  0.2256868E-05  0.1994775E+04  0.7818609E-02  0.8609067E-01
       -1   -1    0    0    0  501  0.00000000000E+00  0.00000000000E+00  0.11492741567E+04  0.11492741567E+04  0.50400001928E-02 0.  1.
        1   -1    0    0  501    0  0.00000000000E+00  0.00000000000E+00 -0.86557416439E+03  0.86557416440E+03  0.50400001928E-02 0. -1.
    10030    2    1    2    0    0  0.00000000000E+00  0.00000000000E+00  0.28369999228E+03  0.20148483211E+04  0.19947751932E+04 0.  0.
        5    1    3    3  502    0  0.40393354063E+03 -0.20220226423E+02  0.10627197977E+04  0.11370869013E+04  0.46999998093E+01 0.  1.
       -5    1    3    3    0  502 -0.40393354063E+03  0.20220226423E+02 -0.77901980540E+03  0.87776141975E+03  0.46999998093E+01 0. -1.
</event>
<event>
 5   0  0.4473361E-05  0.2004111E+04  0.7818609E-02  0.8604701E-01
        2   -1    0    0  501    0  0.00000000000E+00  0.00000000000E+00  0.13461647282E+04  0.13461647282E+04  0.25500000920E-02 0.  1.
       -2   -1    0    0    0  501  0.00000000000E+00  0.00000000000E+00 -0.74590777665E+03  0.74590777666E+03  0.25500000920E-02 0. -1.
    10030    2    1    2    0    0  0.00000000000E+00  0.00000000000E+00  0.60025695158E+03  0.20920725049E+04  0.20041105154E+04 0.  0.
        2    1    3    3  502    0  0.46909002242E+02  0.15587400502E+03 -0.73201379874E+03  0.74989423353E+03  0.25500000920E-02 0. -1.
       -2    1    3    3    0  502 -0.46909002242E+02 -0.15587400502E+03  0.13322707503E+04  0.13421782714E+04  0.25500000920E-02 0.  1.
</event>
<event>
 5   0  0.4514680E-05  0.2020165E+04  0.7818609E-02  0.8597250E-01
       -2   -1    0    0    0  501  0.00000000000E+00  0.00000000000E+00  0.13041186915E+04  0.13041186915E+04  0.25500000920E-02 0.  1.
        2   -1    0    0  501    0  0.00000000000E+00  0.00000000000E+00 -0.78234222805E+03  0.78234222805E+03  0.25500000920E-02 0. -1.
    10030    2    1    2    0    0  0.00000000000E+00  0.00000000000E+00  0.52177646349E+03  0.20864609196E+04  0.20201654613E+04 0.  0.
        3    1    3    3  502    0  0.95636246138E+03 -0.15248607707E+03 -0.35560702530E+02  0.96909531781E+03  0.10100000352E+00 0. -1.
       -3    1    3    3    0  502 -0.95636246138E+03  0.15248607707E+03  0.55733716601E+03  0.11173656018E+04  0.10100000352E+00 0.  1.
</event>
<event>
 5   0  0.2093980E-05  0.2001909E+04  0.7818609E-02  0.8605729E-01
       -1   -1    0    0    0  501  0.00000000000E+00  0.00000000000E+00  0.67545608174E+03  0.67545608176E+03  0.50400001928E-02 0. -1.
        1   -1    0    0  501    0  0.00000000000E+00  0.00000000000E+00 -0.14833091851E+04  0.14833091851E+04  0.50400001928E-02 0.  1.
    10030    2    1    2    0    0  0.00000000000E+00  0.00000000000E+00 -0.80785310336E+03  0.21587652669E+04  0.20019092989E+04 0.  0.
        2    1    3    3  502    0 -0.89796369891E+03 -0.31141030270E+03 -0.65325319121E+02  0.95267128565E+03  0.25500000920E-02 0.  1.
       -2    1    3    3    0  502  0.89796369891E+03  0.31141030270E+03 -0.74252778424E+03  0.12060939812E+04  0.25500000920E-02 0. -1.
</event>
<event>
 5   0  0.2256868E-05  0.2001291E+04  0.7818609E-02  0.8606017E-01
       -1   -1    0    0    0  501  0.00000000000E+00  0.00000000000E+00  0.16700359117E+04  0.16700359117E+04  0.50400001928E-02 0.  1.
        1   -1    0    0  501    0  0.00000000000E+00  0.00000000000E+00 -0.59956274148E+03  0.59956274150E+03  0.50400001928E-02 0. -1.
    10030    2    1    2    0    0  0.00000000000E+00  0.00000000000E+00  0.10704731702E+04  0.22695986532E+04  0.20012908930E+04 0.  0.
        5    1    3    3  502    0  0.66084205211E+03 -0.49183567423E+03 -0.10894428631E+03  0.83096660330E+03  0.46999998093E+01 0. -1.
       -5    1    3    3    0  502 -0.66084205211E+03  0.49183567423E+03  0.11794174565E+04  0.14386320499E+04  0.46999998093E+01 0.  1.
</event>
<event>
 5   0  0.4514680E-05  0.2002336E+04  0.7818609E-02  0.8605529E-01
        2   -1    0    0  501    0  0.00000000000E+00  0.00000000000E+00  0.63711238448E+03  0.63711238449E+03  0.25500000920E-02 0. -1.
       -2   -1    0    0    0  501  0.00000000000E+00  0.00000000000E+00 -0.15732501963E+04  0.15732501963E+04  0.25500000920E-02 0.  1.
    10030    2    1    2    0    0  0.00000000000E+00  0.00000000000E+00 -0.93613781182E+03  0.22103625808E+04  0.20023358199E+04 0.  0.
        3    1    3    3  502    0  0.75999410552E+03 -0.78621402297E+02  0.24611154632E+03  0.80270995307E+03  0.10100000352E+00 0. -1.
       -3    1    3    3    0  502 -0.75999410552E+03  0.78621402297E+02 -0.11822493581E+04  0.14076526277E+04  0.10100000352E+00 0.  1.
</event>
<event>
 5   0  0.4514680E-05  0.1999748E+04  0.7818609E-02  0.8606738E-01
        2   -1    0    0  501    0  0.00000000000E+00  0.00000000000E+00  0.85496594062E+03  0.85496594062E+03  0.25500000920E-02 0. -1.
       -2   -1    0    0    0  501  0.00000000000E+00  0.00000000000E+00 -0.11693429261E+04  0.11693429261E+04  0.25500000920E-02 0.  1.
    10030    2    1    2    0    0  0.00000000000E+00  0.00000000000E+00 -0.31437698550E+03  0.20243088667E+04  0.19997483589E+04 0.  0.
        3    1    3    3  502    0  0.87714390461E+03  0.42395961923E+03  0.70575308926E+02  0.97678251037E+03  0.10100000352E+00 0. -1.
       -3    1    3    3    0  502 -0.87714390461E+03 -0.42395961923E+03 -0.38495229443E+03  0.10475263564E+04  0.10100000352E+00 0.  1.
</event>
<event>
 5   0  0.4473361E-05  0.2013895E+04  0.7818609E-02  0.8600152E-01
       -2   -1    0    0    0  501  0.00000000000E+00  0.00000000000E+00  0.67117125253E+03  0.67117125253E+03  0.25500000920E-02 0. -1.
        2   -1    0    0  501    0  0.00000000000E+00  0.00000000000E+00 -0.15107068592E+04  0.15107068592E+04  0.25500000920E-02 0.  1.
    10030    2    1    2    0    0  0.00000000000E+00  0.00000000000E+00 -0.83953560667E+03  0.21818781117E+04  0.20138947489E+04 0.  0.
        2    1    3    3  502    0 -0.96482280714E+03 -0.95535728900E+02 -0.12518149493E+03  0.97758914241E+03  0.25500000920E-02 0. -1.
       -2    1    3    3    0  502  0.96482280714E+03  0.95535728900E+02 -0.71435411175E+03  0.12042889693E+04  0.25500000920E-02 0.  1.
</event>
<event>
 5   0  0.2007644E-05  0.2011711E+04  0.7818609E-02  0.8601165E-01
       -1   -1    0    0    0  501  0.00000000000E+00  0.00000000000E+00  0.49159818337E+03  0.49159818340E+03  0.50400001928E-02 0. -1.
        1   -1    0    0  501    0  0.00000000000E+00  0.00000000000E+00 -0.20580741368E+04  0.20580741368E+04  0.50400001928E-02 0.  1.
    10030    2    1    2    0    0  0.00000000000E+00  0.00000000000E+00 -0.15664759535E+04  0.25496723202E+04  0.20117112188E+04 0.  0.
        1    1    3    3  502    0  0.39831504108E+03  0.72735719925E+03 -0.61765983487E+02  0.83157585583E+03  0.50400001928E-02 0. -1.
       -1    1    3    3    0  502 -0.39831504108E+03 -0.72735719925E+03 -0.15047099700E+04  0.17180964644E+04  0.50400001928E-02 0.  1.
</event>
<event>
 5   0  0.4412054E-05  0.1999088E+04  0.7818609E-02  0.8607047E-01
       -2   -1    0    0    0  501  0.00000000000E+00  0.00000000000E+00  0.80449619691E+03  0.80449619692E+03  0.25500000920E-02 0.  1.
        2   -1    0    0  501    0  0.00000000000E+00  0.00000000000E+00 -0.12418801939E+04  0.12418801939E+04  0.25500000920E-02 0. -1.
    10030    2    1    2    0    0  0.00000000000E+00  0.00000000000E+00 -0.43738399701E+03  0.20463763908E+04  0.19990876850E+04 0.  0.
        4    1    3    3  502    0 -0.34182473159E+03  0.27103991769E+03 -0.11392872686E+04  0.12199524078E+04  0.12699999809E+01 0. -1.
       -4    1    3    3    0  502  0.34182473159E+03 -0.27103991769E+03  0.70190327159E+03  0.82642398300E+03  0.12699999809E+01 0.  1.
</event>
<event>
 5   0  0.4514680E-05  0.2000719E+04  0.7818609E-02  0.8606285E-01
       -2   -1    0    0    0  501  0.00000000000E+00  0.00000000000E+00  0.91358582103E+03  0.91358582103E+03  0.25500000920E-02 0. -1.
        2   -1    0    0  501    0  0.00000000000E+00  0.00000000000E+00 -0.10953748209E+04  0.10953748209E+04  0.25500000920E-02 0.  1.
    10030    2    1    2    0    0  0.00000000000E+00  0.00000000000E+00 -0.18178899991E+03  0.20089606420E+04  0.20007187760E+04 0.  0.
        3    1    3    3  502    0 -0.76803225861E+03  0.47103042182E+03 -0.52739861907E+03  0.10439791771E+04  0.10100000352E+00 0.  1.
       -3    1    3    3    0  502  0.76803225861E+03 -0.47103042182E+03  0.34560961916E+03  0.96498146490E+03  0.10100000352E+00 0. -1.
</event>
<event>
 5   0  0.2093980E-05  0.1997018E+04  0.7818609E-02  0.8608016E-01
        1   -1    0    0  501    0  0.00000000000E+00  0.00000000000E+00  0.15988385898E+04  0.15988385898E+04  0.50400001928E-02 0. -1.
       -1   -1    0    0    0  501  0.00000000000E+00  0.00000000000E+00 -0.62359040596E+03  0.62359040598E+03  0.50400001928E-02 0.  1.
    10030    2    1    2    0    0  0.00000000000E+00  0.00000000000E+00  0.97524818386E+03  0.22224289958E+04  0.19970181825E+04 0.  0.
        2    1    3    3  502    0 -0.41196792927E+03  0.46044801814E+03 -0.38531906303E+03  0.72814883952E+03  0.25500000920E-02 0.  1.
       -2    1    3    3    0  502  0.41196792927E+03 -0.46044801814E+03  0.13605672469E+04  0.14942801563E+04  0.25500000920E-02 0. -1.
</event>
<event>
 5   0  0.2007644E-05  0.1994588E+04  0.7818609E-02  0.8609155E-01
       -1   -1    0    0    0  501  0.00000000000E+00  0.00000000000E+00  0.77155315635E+03  0.77155315637E+03  0.50400001928E-02 0.  1.
        1   -1    0    0  501    0  0.00000000000E+00  0.00000000000E+00 -0.12890815674E+04  0.12890815674E+04  0.50400001928E-02 0. -1.
    10030    2    1    2    0    0  0.00000000000E+00  0.00000000000E+00 -0.51752841105E+03  0.20606347238E+04  0.19945876287E+04 0.  0.
        1    1    3    3  502    0  0.98653901851E+02  0.61177167163E+03 -0.10660466419E+04  0.12330663458E+04  0.50400001928E-02 0. -1.
       -1    1    3    3    0  502 -0.98653901851E+02 -0.61177167163E+03  0.54851823084E+03  0.82756837793E+03  0.50400001928E-02 0.  1.
</event>
<event>
 5   0  0.4577279E-05  0.2005543E+04  0.7818609E-02  0.8604034E-01
        2   -1    0    0  501    0  0.00000000000E+00  0.00000000000E+00  0.16375375097E+04  0.16375375097E+04  0.25500000920E-02 0. -1.
       -2   -1    0    0    0  501  0.00000000000E+00  0.00000000000E+00 -0.61406247733E+03  0.61406247734E+03  0.25500000920E-02 0.  1.
    10030    2    1    2    0    0  0.00000000000E+00  0.00000000000E+00  0.10234750323E+04  0.22515999870E+04  0.20055426597E+04 0.  0.
        1    1    3    3  502    0 -0.29624698160E+03  0.42523089037E+03  0.14755294382E+04  0.15638960027E+04  0.50400001928E-02 0. -1.
       -1    1    3    3    0  502  0.29624698160E+03 -0.42523089037E+03 -0.45205440583E+03  0.68770398434E+03  0.50400001928E-02 0.  1.
</event>
<event>
 5   0  0.2256868E-05  0.2004320E+04  0.7818609E-02  0.8604604E-01
       -1   -1    0    0    0  501  0.00000000000E+00  0.00000000000E+00  0.54461548625E+03  0.54461548628E+03  0.50400001928E-02 0. -1.
        1   -1    0    0  501    0  0.00000000000E+00  0.00000000000E+00 -0.18440982948E+04  0.18440982948E+04  0.50400001928E-02 0.  1.
    10030    2    1    2    0    0  0.00000000000E+00  0.00000000000E+00 -0.12994828085E+04  0.23887137810E+04  0.20043198243E+04 0.  0.
        5    1    3    3  502    0  0.78365233290E+03  0.20949726156E+03  0.51592432361E+02  0.81282467392E+03  0.46999998093E+01 0. -1.
       -5    1    3    3    0  502 -0.78365233290E+03 -0.20949726156E+03 -0.13510752409E+04  0.15758891071E+04  0.46999998093E+01 0.  1.
</event>
<event>
 5   0  0.2007644E-05  0.2041738E+04  0.7818609E-02  0.8587352E-01
        1   -1    0    0  501    0  0.00000000000E+00  0.00000000000E+00  0.75460965048E+03  0.75460965049E+03  0.50400001928E-02 0. -1.
       -1   -1    0    0    0  501  0.00000000000E+00  0.00000000000E+00 -0.13810762355E+04  0.13810762355E+04  0.50400001928E-02 0.  1.
    10030    2    1    2    0    0  0.00000000000E+00  0.00000000000E+00 -0.62646658499E+03  0.21356858860E+04  0.20417379414E+04 0.  0.
        1    1    3    3  502    0 -0.47981570725E+03  0.49377905990E+03  0.47519504763E+03  0.83657110053E+03  0.50400001928E-02 0. -1.
       -1    1    3    3    0  502  0.47981570725E+03 -0.49377905990E+03 -0.11016616326E+04  0.12991147854E+04  0.50400001928E-02 0.  1.
</event>
<event>
 5   0  0.4514680E-05  0.1991847E+04  0.7818609E-02  0.8610442E-01
       -2   -1    0    0    0  501  0.00000000000E+00  0.00000000000E+00  0.34130000855E+03  0.34130000856E+03  0.25500000920E-02 0. -1.
        2   -1    0    0  501    0  0.00000000000E+00  0.00000000000E+00 -0.29061348527E+04  0.29061348527E+04  0.25500000920E-02 0.  1.
    10030    2    1    2    0    0  0.00000000000E+00  0.00000000000E+00 -0.25648348441E+04  0.32474348612E+04  0.19918472332E+04 0.  0.
        3    1    3    3  502    0 -0.36409957724E+03  0.31244423290E+03 -0.27052996991E+04  0.27475145811E+04  0.10100000352E+00 0.  1.
       -3    1    3    3    0  502  0.36409957724E+03 -0.31244423290E+03  0.14046485502E+03  0.49992028017E+03  0.10100000352E+00 0. -1.
</event>
<event>
 5   0  0.2007644E-05  0.1999223E+04  0.7818609E-02  0.8606984E-01
        1   -1    0    0  501    0  0.00000000000E+00  0.00000000000E+00  0.15886415081E+04  0.15886415081E+04  0.50400001928E-02 0.  1.
       -1   -1    0    0    0  501  0.00000000000E+00  0.00000000000E+00 -0.62897988952E+03  0.62897988954E+03  0.50400001928E-02 0. -1.
    10030    2    1    2    0    0  0.00000000000E+00  0.00000000000E+00  0.95966161859E+03  0.22176213977E+04  0.19992234095E+04 0.  0.
        1    1    3    3  502    0 -0.57139370079E+03 -0.57388167779E+03  0.11298430766E+04  0.13900993919E+04  0.50400001928E-02 0.  1.
       -1    1    3    3    0  502  0.57139370079E+03  0.57388167779E+03 -0.17018145804E+03  0.82752200580E+03  0.50400001928E-02 0. -1.
</event>
<event>
 5   0  0.2007644E-05  0.1998227E+04  0.7818609E-02  0.8607450E-01
        1   -1    0    0  501    0  0.00000000000E+00  0.00000000000E+00  0.14634295169E+04  0.14634295169E+04  0.50400001928E-02 0.  1.
       -1   -1    0    0    0  501  0.00000000000E+00  0.00000000000E+00 -0.68211532187E+03  0.68211532188E+03  0.50400001928E-02 0. -1.
    10030    2    1    2    0    0  0.00000000000E+00  0.00000000000E+00  0.78131419507E+03  0.21455448388E+04  0.19982269100E+04 0.  0.
        1    1    3    3  502    0  0.13646715561E+03 -0.17770943885E+03 -0.65479082603E+03  0.69206571588E+03  0.50400001928E-02 0. -1.
       -1    1    3    3    0  502 -0.13646715561E+03  0.17770943885E+03  0.14361050211E+04  0.14534791230E+04  0.50400001928E-02 0.  1.
</event>
<event>
 5   0  0.2093980E-05  0.1989934E+04  0.7818609E-02  0.8611341E-01
        1   -1    0    0  501    0  0.00000000000E+00  0.00000000000E+00  0.18844389241E+04  0.18844389241E+04  0.50400001928E-02 0. -1.
       -1   -1    0    0    0  501  0.00000000000E+00  0.00000000000E+00 -0.52533364563E+03  0.52533364566E+03  0.50400001928E-02 0.  1.
    10030    2    1    2    0    0  0.00000000000E+00  0.00000000000E+00  0.13591052785E+04  0.24097725698E+04  0.19899338381E+04 0.  0.
        2    1    3    3  502    0 -0.12620077748E+03 -0.43375623601E+03  0.17530914881E+04  0.18103593218E+04  0.25500000920E-02 0. -1.
       -2    1    3    3    0  502  0.12620077748E+03  0.43375623601E+03 -0.39398620958E+03  0.59941324798E+03  0.25500000920E-02 0.  1.
</event>
<event>
 5   0  0.4577279E-05  0.2005908E+04  0.7818609E-02  0.8603863E-01
        2   -1    0    0  501    0  0.00000000000E+00  0.00000000000E+00  0.16019815965E+04  0.16019815965E+04  0.25500000920E-02 0. -1.
       -2   -1    0    0    0  501  0.00000000000E+00  0.00000000000E+00 -0.62792044549E+03  0.62792044549E+03  0.25500000920E-02 0.  1.
    10030    2    1    2    0    0  0.00000000000E+00  0.00000000000E+00  0.97406115104E+03  0.22299020420E+04  0.20059082708E+04 0.  0.
        1    1    3    3  502    0  0.67753914604E+03  0.34772615069E+03 -0.23849225730E+03  0.79802965302E+03  0.50400001928E-02 0.  1.
       -1    1    3    3    0  502 -0.67753914604E+03 -0.34772615069E+03  0.12125534083E+04  0.14318723890E+04  0.50400001928E-02 0. -1.
</event>
<event>
 5   0  0.1601500E-05  0.2000786E+04  0.7818609E-02  0.8606253E-01
        3   -1    0    0  501    0  0.00000000000E+00  0.00000000000E+00  0.99279514194E+03  0.99279514708E+03  0.10100000352E+00 0. -1.
       -3   -1    0    0    0  501  0.00000000000E+00  0.00000000000E+00 -0.10080488337E+04  0.10080488387E+04  0.10100000352E+00 0.  1.
    10030    2    1    2    0    0  0.00000000000E+00  0.00000000000E+00 -0.15253691745E+02  0.20008439858E+04  0.20007858407E+04 0.  0.
        4    1    3    3  502    0  0.19028907533E+03  0.32126489084E+03 -0.93575042872E+03  0.10074976625E+04  0.12699999809E+01 0.  1.
       -4    1    3    3    0  502 -0.19028907533E+03 -0.32126489084E+03  0.92049673698E+03  0.99334632328E+03  0.12699999809E+01 0. -1.
</event>
<event>
 5   0  0.4514680E-05  0.1997044E+04  0.7818609E-02  0.8608004E-01
        2   -1    0    0  501    0  0.00000000000E+00  0.00000000000E+00  0.18388295311E+04  0.18388295311E+04  0.25500000920E-02 0. -1.
       -2   -1    0    0    0  501  0.00000000000E+00  0.00000000000E+00 -0.54221787989E+03  0.54221787990E+03  0.25500000920E-02 0.  1.
    10030    2    1    2    0    0  0.00000000000E+00  0.00000000000E+00  0.12966116512E+04  0.23810474110E+04  0.19970440654E+04 0.  0.
        3    1    3    3  502    0  0.53563238256E+03  0.82736991018E+03  0.45752808236E+03  0.10866347012E+04  0.10100000352E+00 0.  1.
       -3    1    3    3    0  502 -0.53563238256E+03 -0.82736991018E+03  0.83908356880E+03  0.12944127097E+04  0.10100000352E+00 0. -1.
</event>
<event>
 5   0  0.4473361E-05  0.2002496E+04  0.7818609E-02  0.8605455E-01
       -2   -1    0    0    0  501  0.00000000000E+00  0.00000000000E+00  0.16985118360E+04  0.16985118360E+04  0.25500000920E-02 0.  1.
        2   -1    0    0  501    0  0.00000000000E+00  0.00000000000E+00 -0.59022083431E+03  0.59022083432E+03  0.25500000920E-02 0. -1.
    10030    2    1    2    0    0  0.00000000000E+00  0.00000000000E+00  0.11082910016E+04  0.22887326703E+04  0.20024955160E+04 0.  0.
        2    1    3    3  502    0 -0.16074439564E+03  0.52288716850E+03 -0.40432237139E+03  0.68023990748E+03  0.25500000920E-02 0. -1.
       -2    1    3    3    0  502  0.16074439564E+03 -0.52288716850E+03  0.15126133730E+04  0.16084927628E+04  0.25500000920E-02 0.  1.
</event>
<event>
 5   0  0.4412054E-05  0.2007864E+04  0.7818609E-02  0.8602953E-01
       -2   -1    0    0    0  501  0.00000000000E+00  0.00000000000E+00  0.86163294095E+03  0.86163294095E+03  0.25500000920E-02 0.  1.
        2   -1    0    0  501    0  0.00000000000E+00  0.00000000000E+00 -0.11697315650E+04  0.11697315650E+04  0.25500000920E-02 0. -1.
    10030    2    1    2    0    0  0.00000000000E+00  0.00000000000E+00 -0.30809862403E+03  0.20313645059E+04  0.20078637887E+04 0.  0.
        4    1    3    3  502    0 -0.55243125311E+03  0.81899393274E+03  0.26777900833E+02  0.98825604989E+03  0.12699999809E+01 0.  1.
       -4    1    3    3    0  502  0.55243125311E+03 -0.81899393274E+03 -0.33487652487E+03  0.10431084560E+04  0.12699999809E+01 0. -1.
</event>
<event>
 5   0  0.4514680E-05  0.1997662E+04  0.7818609E-02  0.8607715E-01
        2   -1    0    0  501    0  0.00000000000E+00  0.00000000000E+00  0.62254690942E+03  0.62254690943E+03  0.25500000920E-02 0.  1.
       -2   -1    0    0    0  501  0.00000000000E+00  0.00000000000E+00 -0.16025512115E+04  0.16025512115E+04  0.25500000920E-02 0. -1.
    10030    2    1    2    0    0  0.00000000000E+00  0.00000000000E+00 -0.98000430206E+03  0.22250981209E+04  0.19976619373E+04 0.  0.
        3    1    3    3  502    0  0.14963148008E+03  0.45829969085E+03  0.48436944493E+03  0.68340467942E+03  0.10100000352E+00 0.  1.
       -3    1    3    3    0  502 -0.14963148008E+03 -0.45829969085E+03 -0.14643737470E+04  0.15416934415E+04  0.10100000352E+00 0. -1.
</event>
<event>
 5   0  0.2007644E-05  0.2018355E+04  0.7818609E-02  0.8598087E-01
        1   -1    0    0  501    0  0.00000000000E+00  0.00000000000E+00  0.32988276415E+04  0.32988276415E+04  0.50400001928E-02 0.  1.
       -1   -1    0    0    0  501  0.00000000000E+00  0.00000000000E+00 -0.30872753893E+03  0.30872753897E+03  0.50400001928E-02 0. -1.
    10030    2    1    2    0    0  0.00000000000E+00  0.00000000000E+00  0.29901001026E+04  0.36075551805E+04  0.20183547153E+04 0.  0.
        1    1    3    3  502    0  0.53970142048E+02 -0.10043797207E+04  0.13482290405E+04  0.16820858911E+04  0.50400001928E-02 0.  1.
       -1    1    3    3    0  502 -0.53970142048E+02  0.10043797207E+04  0.16418710621E+04  0.19254692894E+04  0.50400001928E-02 0. -1.
</event>
<event>
 5   0  0.1601500E-05  0.2000611E+04  0.7818609E-02  0.8606335E-01
       -3   -1    0    0    0  501  0.00000000000E+00  0.00000000000E+00  0.23506428868E+04  0.23506428890E+04  0.10100000352E+00 0.  1.
        3   -1    0    0  501    0  0.00000000000E+00  0.00000000000E+00 -0.42567563956E+03  0.42567565154E+03  0.10100000352E+00 0. -1.
    10030    2    1    2    0    0  0.00000000000E+00  0.00000000000E+00  0.19249672473E+04  0.27763185406E+04  0.20006113404E+04 0.  0.
        2    1    3    3  502    0  0.74713861698E+03 -0.65200886934E+03  0.11449048452E+04  0.15146414702E+04  0.25500000920E-02 0. -1.
       -2    1    3    3    0  502 -0.74713861698E+03  0.65200886934E+03  0.78006240206E+03  0.12616770703E+04  0.25500000920E-02 0.  1.
</event>
<event>
 5   0  0.1601500E-05  0.1916333E+04  0.7818609E-02  0.8646769E-01
       -3   -1    0    0    0  501  0.00000000000E+00  0.00000000000E+00  0.65689097464E+03  0.65689098240E+03  0.10100000352E+00 0.  1.
        3   -1    0    0  501    0  0.00000000000E+00  0.00000000000E+00 -0.13976186558E+04  0.13976186595E+04  0.10100000352E+00 0. -1.
    10030    2    1    2    0    0  0.00000000000E+00  0.00000000000E+00 -0.74072768118E+03  0.20545096419E+04  0.19163330532E+04 0.  0.
        3    1    3    3  502    0  0.59212315740E+03  0.29351316036E+03  0.37343521783E+03  0.75908740007E+03  0.10100000352E+00 0.  1.
       -3    1    3    3    0  502 -0.59212315740E+03 -0.29351316036E+03 -0.11141628990E+04  0.12954222418E+04  0.10100000352E+00 0. -1.
</event>
<event>
 5   0  0.4412054E-05  0.1995723E+04  0.7818609E-02  0.8608623E-01
       -2   -1    0    0    0  501  0.00000000000E+00  0.00000000000E+00  0.19369676538E+04  0.19369676538E+04  0.25500000920E-02 0.  1.
        2   -1    0    0  501    0  0.00000000000E+00  0.00000000000E+00 -0.51406538680E+03  0.51406538681E+03  0.25500000920E-02 0. -1.
    10030    2    1    2    0    0  0.00000000000E+00  0.00000000000E+00  0.14229022670E+04  0.24510330407E+04  0.19957234540E+04 0.  0.
        4    1    3    3  502    0 -0.57101758667E+03 -0.74323845024E+03  0.11320105223E+04  0.14696645583E+04  0.12699999809E+01 0.  1.
       -4    1    3    3    0  502  0.57101758667E+03  0.74323845024E+03  0.29089174470E+03  0.98136848239E+03  0.12699999809E+01 0. -1.
</event>
<event>
 5   0  0.4473361E-05  0.2014674E+04  0.7818609E-02  0.8599791E-01
        2   -1    0    0  501    0  0.00000000000E+00  0.00000000000E+00  0.13917288789E+04  0.13917288789E+04  0.25500000920E-02 0.  1.
       -2   -1    0    0    0  501  0.00000000000E+00  0.00000000000E+00 -0.72911322343E+03  0.72911322344E+03  0.25500000920E-02 0. -1.
    10030    2    1    2    0    0  0.00000000000E+00  0.00000000000E+00  0.66261565550E+03  0.21208421024E+04  0.20146740968E+04 0.  0.
        2    1    3    3  502    0  0.50123535232E+02  0.48912976388E+03 -0.59420872073E+03  0.77126149812E+03  0.25500000920E-02 0. -1.
       -2    1    3    3    0  502 -0.50123535232E+02 -0.48912976388E+03  0.12568243762E+04  0.13495806042E+04  0.25500000920E-02 0.  1.
</event>
<event>
 5   0  0.2093980E-05  0.1994236E+04  0.7818609E-02  0.8609320E-01
       -1   -1    0    0    0  501  0.00000000000E+00  0.00000000000E+00  0.87253533326E+03  0.87253533327E+03  0.50400001928E-02 0.  1.
        1   -1    0    0  501    0  0.00000000000E+00  0.00000000000E+00 -0.11394884093E+04  0.11394884093E+04  0.50400001928E-02 0. -1.
    10030    2    1    2    0    0  0.00000000000E+00  0.00000000000E+00 -0.26695307604E+03  0.20120237426E+04  0.19942355919E+04 0.  0.
        2    1    3    3  502    0  0.41251037102E+03 -0.69454248745E+03 -0.72323293729E+03  0.10842600955E+04  0.25500000920E-02 0. -1.
       -2    1    3    3    0  502 -0.41251037102E+03  0.69454248745E+03  0.45627986126E+03  0.92776364709E+03  0.25500000920E-02 0.  1.
</event>
<event>
 5   0  0.1601500E-05  0.2007631E+04  0.7818609E-02  0.8603061E-01
        4   -1    0    0  501    0  0.00000000000E+00  0.00000000000E+00  0.10931040892E+04  0.10931048270E+04  0.12699999809E+01 0.  1.
       -4   -1    0    0    0  501  0.00000000000E+00  0.00000000000E+00 -0.92181924525E+03  0.92182012010E+03  0.12699999809E+01 0. -1.
    10030    2    1    2    0    0  0.00000000000E+00  0.00000000000E+00  0.17128484396E+03  0.20149249471E+04  0.20076314514E+04 0.  0.
        5    1    3    3  502    0 -0.68633481697E+02  0.43811205056E+03 -0.81816852727E+03  0.93063126568E+03  0.46999998093E+01 0. -1.
       -5    1    3    3    0  502  0.68633481697E+02 -0.43811205056E+03  0.98945337123E+03  0.10842936814E+04  0.46999998093E+01 0.  1.
</event>
<event>
 5   0  0.4577279E-05  0.1991781E+04  0.7818609E-02  0.8610473E-01
        2   -1    0    0  501    0  0.00000000000E+00  0.00000000000E+00  0.20159743563E+04  0.20159743563E+04  0.25500000920E-02 0. -1.
       -2   -1    0    0    0  501  0.00000000000E+00  0.00000000000E+00 -0.49196968442E+03  0.49196968443E+03  0.25500000920E-02 0.  1.
    10030    2    1    2    0    0  0.00000000000E+00  0.00000000000E+00  0.15240046719E+04  0.25079440408E+04  0.19917813815E+04 0.  0.
        1    1    3    3  502    0 -0.42084427495E+03 -0.47688968433E+03  0.17269262777E+04  0.18403282434E+04  0.50400001928E-02 0. -1.
       -1    1    3    3    0  502  0.42084427495E+03  0.47688968433E+03 -0.20292160579E+03  0.66761579737E+03  0.50400001928E-02 0.  1.
</event>
<event>
 5   0  0.2007644E-05  0.2004794E+04  0.7818609E-02  0.8604383E-01
       -1   -1    0    0    0  501  0.00000000000E+00  0.00000000000E+00  0.85491718382E+03  0.85491718384E+03  0.50400001928E-02 0.  1.
        1   -1    0    0  501    0  0.00000000000E+00  0.00000000000E+00 -0.11753184403E+04  0.11753184403E+04  0.50400001928E-02 0. -1.
    10030    2    1    2    0    0  0.00000000000E+00  0.00000000000E+00 -0.32040125650E+03  0.20302356242E+04  0.20047941851E+04 0.  0.
        1    1    3    3  502    0 -0.23572606944E+03  0.87356986830E+03 -0.59707859975E+03  0.10840636277E+04  0.50400001928E-02 0. -1.
       -1    1    3    3    0  502  0.23572606944E+03 -0.87356986830E+03  0.27667734324E+03  0.94617199647E+03  0.50400001928E-02 0.  1.
</event>
<event>
 5   0  0.2256868E-05  0.1993037E+04  0.7818609E-02  0.8609883E-01
        1   -1    0    0  501    0  0.00000000000E+00  0.00000000000E+00  0.12462402388E+04  0.12462402388E+04  0.50400001928E-02 0. -1.
       -1   -1    0    0    0  501  0.00000000000E+00  0.00000000000E+00 -0.79683626228E+03  0.79683626229E+03  0.50400001928E-02 0.  1.
    10030    2    1    2    0    0  0.00000000000E+00  0.00000000000E+00  0.44940397654E+03  0.20430765011E+04  0.19930372940E+04 0.  0.
        5    1    3    3  502    0 -0.67828200423E+03  0.72304697324E+03  0.32804945721E+03  0.10442710085E+04  0.46999998093E+01 0.  1.
       -5    1    3    3    0  502  0.67828200423E+03 -0.72304697324E+03  0.12135451933E+03  0.99880549264E+03  0.46999998093E+01 0. -1.
</event>
<event>
 5   0  0.2007644E-05  0.2000852E+04  0.7818609E-02  0.8606222E-01
        1   -1    0    0  501    0  0.00000000000E+00  0.00000000000E+00  0.15509978464E+04  0.15509978464E+04  0.50400001928E-02 0. -1.
       -1   -1    0    0    0  501  0.00000000000E+00  0.00000000000E+00 -0.64529564952E+03  0.64529564954E+03  0.50400001928E-02 0.  1.
    10030    2    1    2    0    0  0.00000000000E+00  0.00000000000E+00  0.90570219690E+03  0.21962934960E+04  0.20008519813E+04 0.  0.
        1    1    3    3  502    0  0.51149533659E+03 -0.14384066271E+03 -0.47761218587E+03  0.71444455049E+03  0.50400001928E-02 0.  1.
       -1    1    3    3    0  502 -0.51149533659E+03  0.14384066271E+03  0.13833143828E+04  0.14818489455E+04  0.50400001928E-02 0. -1.
</event>
<event>
 5   0  0.2142551E-05  0.2012760E+04  0.7818609E-02  0.8600678E-01
        1   -1    0    0  501    0  0.00000000000E+00  0.00000000000E+00  0.12066227233E+04  0.12066227233E+04  0.50400001928E-02 0. -1.
       -1   -1    0    0    0  501  0.00000000000E+00  0.00000000000E+00 -0.83936826241E+03  0.83936826243E+03  0.50400001928E-02 0.  1.
    10030    2    1    2    0    0  0.00000000000E+00  0.00000000000E+00  0.36725446087E+03  0.20459909857E+04  0.20127601135E+04 0.  0.
        3    1    3    3  502    0  0.10442183821E+03 -0.99633429458E+03  0.28120617293E+03  0.10405108691E+04  0.10100000352E+00 0. -1.
       -3    1    3    3    0  502 -0.10442183821E+03  0.99633429458E+03  0.86048287942E+02  0.10054801166E+04  0.10100000352E+00 0.  1.
</event>
<event>
 5   0  0.4514680E-05  0.1999496E+04  0.7818609E-02  0.8606856E-01
       -2   -1    0    0    0  501  0.00000000000E+00  0.00000000000E+00  0.70781390289E+03  0.70781390290E+03  0.25500000920E-02 0.  1.
        2   -1    0    0  501    0  0.00000000000E+00  0.00000000000E+00 -0.14120892402E+04  0.14120892402E+04  0.25500000920E-02 0. -1.
    10030    2    1    2    0    0  0.00000000000E+00  0.00000000000E+00 -0.70427533730E+03  0.21199031431E+04  0.19994963329E+04 0.  0.
        3    1    3    3  502    0 -0.49819315996E+03  0.13561638608E+03 -0.12597913731E+04  0.13614927627E+04  0.10100000352E+00 0. -1.
       -3    1    3    3    0  502  0.49819315996E+03 -0.13561638608E+03  0.55551603585E+03  0.75841038040E+03  0.10100000352E+00 0.  1.
</event>
<event>
 5   0  0.4577279E-05  0.2000518E+04  0.7818609E-02  0.8606379E-01
        2   -1    0    0  501    0  0.00000000000E+00  0.00000000000E+00  0.13333041548E+04  0.13333041548E+04  0.25500000920E-02 0. -1.
       -2   -1    0    0    0  501  0.00000000000E+00  0.00000000000E+00 -0.75040491581E+03  0.75040491581E+03  0.25500000920E-02 0.  1.
    10030    2    1    2    0    0  0.00000000000E+00  0.00000000000E+00  0.58289923902E+03  0.20837090707E+04  0.20005179250E+04 0.  0.
        1    1    3    3  502    0  0.65126327448E+03 -0.41906817042E+03 -0.36792868893E+03  0.85739926773E+03  0.50400001928E-02 0.  1.
       -1    1    3    3    0  502 -0.65126327448E+03  0.41906817042E+03  0.95082792795E+03  0.12263098029E+04  0.50400001928E-02 0. -1.
</event>
<event>
 5   0  0.1601500E-05  0.1999759E+04  0.7818609E-02  0.8606734E-01
        3   -1    0    0  501    0  0.00000000000E+00  0.00000000000E+00  0.69991249695E+03  0.69991250424E+03  0.10100000352E+00 0.  1.
       -3   -1    0    0    0  501  0.00000000000E+00  0.00000000000E+00 -0.14284051241E+04  0.14284051277E+04  0.10100000352E+00 0. -1.
    10030    2    1    2    0    0  0.00000000000E+00  0.00000000000E+00 -0.72849262714E+03  0.21283176319E+04  0.19997585940E+04 0.  0.
        1    1    3    3  502    0 -0.72446724319E+03 -0.85111867758E+00  0.36918979401E+03  0.81311414628E+03  0.50400001928E-02 0.  1.
       -1    1    3    3    0  502  0.72446724319E+03  0.85111867758E+00 -0.10976824211E+04  0.13152034856E+04  0.50400001928E-02 0. -1.
</event>
<event>
 5   0  0.4412054E-05  0.2016255E+04  0.7818609E-02  0.8599058E-01
       -2   -1    0    0    0  501  0.00000000000E+00  0.00000000000E+00  0.10195256299E+04  0.10195256299E+04  0.25500000920E-02 0.  1.
        2   -1    0    0  501    0  0.00000000000E+00  0.00000000000E+00 -0.99685720460E+03  0.99685720460E+03  0.25500000920E-02 0. -1.
    10030    2    1    2    0    0  0.00000000000E+00  0.00000000000E+00  0.22668425257E+02  0.20163828345E+04  0.20162554098E+04 0.  0.
        4    1    3    3  502    0  0.70912058113E+03 -0.24272318133E+03 -0.66291408831E+03  0.10006114344E+04  0.12699999809E+01 0. -1.
       -4    1    3    3    0  502 -0.70912058113E+03  0.24272318133E+03  0.68558251356E+03  0.10157714000E+04  0.12699999809E+01 0.  1.
</event>
<event>
 5   0  0.2093980E-05  0.1992947E+04  0.7818609E-02  0.8609925E-01
       -1   -1    0    0    0  501  0.00000000000E+00  0.00000000000E+00  0.10614677157E+04  0.10614677157E+04  0.50400001928E-02 0.  1.
        1   -1    0    0  501    0  0.00000000000E+00  0.00000000000E+00 -0.93545910240E+03  0.93545910242E+03  0.50400001928E-02 0. -1.
    10030    2    1    2    0    0  0.00000000000E+00  0.00000000000E+00  0.12600861326E+03  0.19969268181E+04  0.19929472011E+04 0.  0.
        2    1    3    3  502    0 -0.24744642871E+03  0.89912179310E+03  0.41486060845E+03  0.10206659877E+04  0.25500000920E-02 0.  1.
       -2    1    3    3    0  502  0.24744642871E+03 -0.89912179310E+03 -0.28885199519E+03  0.97626083043E+03  0.25500000920E-02 0. -1.
</event>
<event>
 5   0  0.4447313E-05  0.1994445E+04  0.7818609E-02  0.8609222E-01
       -2   -1    0    0    0  501  0.00000000000E+00  0.00000000000E+00  0.12228311673E+04  0.12228311673E+04  0.25500000920E-02 0.  1.
        2   -1    0    0  501    0  0.00000000000E+00  0.00000000000E+00 -0.81323786507E+03  0.81323786508E+03  0.25500000920E-02 0. -1.
    10030    2    1    2    0    0  0.00000000000E+00  0.00000000000E+00  0.40959330222E+03  0.20360690324E+04  0.19944448930E+04 0.  0.
        5    1    3    3  502    0 -0.85351423835E+03 -0.45499747253E+03  0.45259960573E+03  0.10678847073E+04  0.46999998093E+01 0. -1.
       -5    1    3    3    0  502  0.85351423835E+03  0.45499747253E+03 -0.43006303512E+02  0.96818432502E+03  0.46999998093E+01 0.  1.
</event>
<event>
 5   0  0.4447313E-05  0.2006124E+04  0.7818609E-02  0.8603763E-01
       -2   -1    0    0    0  501  0.00000000000E+00  0.00000000000E+00  0.75000787290E+03  0.75000787290E+03  0.25500000920E-02 0. -1.
        2   -1    0    0  501    0  0.00000000000E+00  0.00000000000E+00 -0.13414967435E+04  0.13414967435E+04  0.25500000920E-02 0.  1.
    10030    2    1    2    0    0  0.00000000000E+00  0.00000000000E+00 -0.59148887060E+03  0.20915046164E+04  0.20061237440E+04 0.  0.
        5    1    3    3  502    0 -0.43550880653E+03 -0.88967096475E+03 -0.13113649643E+03  0.99920028862E+03  0.46999998093E+01 0. -1.
       -5    1    3    3    0  502  0.43550880653E+03  0.88967096475E+03 -0.46035237417E+03  0.10923043278E+04  0.46999998093E+01 0.  1.
</event>
<event>
 5   0  0.4514680E-05  0.1982977E+04  0.7818609E-02  0.8614621E-01
        2   -1    0    0  501    0  0.00000000000E+00  0.00000000000E+00  0.13889323988E+04  0.13889323988E+04  0.25500000920E-02 0.  1.
       -2   -1    0    0    0  501  0.00000000000E+00  0.00000000000E+00 -0.70777316766E+03  0.70777316767E+03  0.25500000920E-02 0. -1.
    10030    2    1    2    0    0  0.00000000000E+00  0.00000000000E+00  0.68115923109E+03  0.20967055664E+04  0.19829766348E+04 0.  0.
        3    1    3    3  502    0 -0.60762012418E+01  0.20950376162E+03  0.13652412406E+04  0.13812358240E+04  0.10100000352E+00 0.  1.
       -3    1    3    3    0  502  0.60762012418E+01 -0.20950376162E+03 -0.68408200950E+03  0.71546974240E+03  0.10100000352E+00 0. -1.
</event>
<event>
 5   0  0.4447313E-05  0.1978545E+04  0.7818609E-02  0.8616718E-01
       -2   -1    0    0    0  501  0.00000000000E+00  0.00000000000E+00  0.55488447154E+03  0.55488447155E+03  0.25500000920E-02 0. -1.
        2   -1    0    0  501    0  0.00000000000E+00  0.00000000000E+00 -0.17637185510E+04  0.17637185510E+04  0.25500000920E-02 0.  1.
    10030    2    1    2    0    0  0.00000000000E+00  0.00000000000E+00 -0.12088340794E+04  0.23186030225E+04  0.19785449564E+04 0.  0.
        5    1    3    3  502    0 -0.44944760496E+03 -0.48586716243E+03  0.25718278148E+03  0.71009515012E+03  0.46999998093E+01 0. -1.
       -5    1    3    3    0  502  0.44944760496E+03  0.48586716243E+03 -0.14660168609E+04  0.16085078724E+04  0.46999998093E+01 0.  1.
</event>
<event>
 5   0  0.4473361E-05  0.1993329E+04  0.7818609E-02  0.8609746E-01
       -2   -1    0    0    0  501  0.00000000000E+00  0.00000000000E+00  0.59625563680E+03  0.59625563680E+03  0.25500000920E-02 0. -1.
        2   -1    0    0  501    0  0.00000000000E+00  0.00000000000E+00 -0.16659629049E+04  0.16659629049E+04  0.25500000920E-02 0.  1.
    10030    2    1    2    0    0  0.00000000000E+00  0.00000000000E+00 -0.10697072681E+04  0.22622185417E+04  0.19933286460E+04 0.  0.
        2    1    3    3  502    0  0.69102349358E+03 -0.70627104568E+03 -0.38684874239E+03  0.10611240305E+04  0.25500000920E-02 0. -1.
       -2    1    3    3    0  502 -0.69102349358E+03  0.70627104568E+03 -0.68285852571E+03  0.12010945112E+04  0.25500000920E-02 0.  1.
</event>
<event>
 5   0  0.4447313E-05  0.2012882E+04  0.7818609E-02  0.8600621E-01
       -2   -1    0    0    0  501  0.00000000000E+00  0.00000000000E+00  0.64841508015E+03  0.64841508015E+03  0.25500000920E-02 0.  1.
        2   -1    0    0  501    0  0.00000000000E+00  0.00000000000E+00 -0.15621533514E+04  0.15621533514E+04  0.25500000920E-02 0. -1.
    10030    2    1    2    0    0  0.00000000000E+00  0.00000000000E+00 -0.91373827123E+03  0.22105684315E+04  0.20128823021E+04 0.  0.
        5    1    3    3  502    0  0.18828475615E+03  0.33170616297E+03 -0.14796926215E+04  0.15280682158E+04  0.46999998093E+01 0. -1.
       -5    1    3    3    0  502 -0.18828475615E+03 -0.33170616297E+03  0.56595435025E+03  0.68250021577E+03  0.46999998093E+01 0.  1.
</event>
<event>
 5   0  0.4473361E-05  0.1970478E+04  0.7818609E-02  0.8620549E-01
       -2   -1    0    0    0  501  0.00000000000E+00  0.00000000000E+00  0.45358809243E+03  0.45358809243E+03  0.25500000920E-02 0.  1.
        2   -1    0    0  501    0  0.00000000000E+00  0.00000000000E+00 -0.21400390696E+04  0.21400390696E+04  0.25500000920E-02 0. -1.
    10030    2    1    2    0    0  0.00000000000E+00  0.00000000000E+00 -0.16864509772E+04  0.25936271621E+04  0.19704783575E+04 0.  0.
        2    1    3    3  502    0 -0.64179201634E+03  0.25387371978E+03 -0.17686734340E+04  0.18985664523E+04  0.25500000920E-02 0. -1.
       -2    1    3    3    0  502  0.64179201634E+03 -0.25387371978E+03  0.82222456760E+02  0.69506070975E+03  0.25500000920E-02 0.  1.
</event>
<event>
 5   0  0.4412054E-05  0.1998630E+04  0.7818609E-02  0.8607262E-01
        2   -1    0    0  501    0  0.00000000000E+00  0.00000000000E+00  0.16222280084E+04  0.16222280084E+04  0.25500000920E-02 0. -1.
       -2   -1    0    0    0  501  0.00000000000E+00  0.00000000000E+00 -0.61559177886E+03  0.61559177887E+03  0.25500000920E-02 0.  1.
    10030    2    1    2    0    0  0.00000000000E+00  0.00000000000E+00  0.10066362295E+04  0.22378197872E+04  0.19986297560E+04 0.  0.
        4    1    3    3  502    0  0.15180813166E+03 -0.78504753103E+03  0.11744552390E+04  0.14208068328E+04  0.12699999809E+01 0. -1.
       -4    1    3    3    0  502 -0.15180813166E+03  0.78504753103E+03 -0.16781900952E+03  0.81701295441E+03  0.12699999809E+01 0.  1.
</event>
<event>
 5   0  0.4577279E-05  0.1997196E+04  0.7818609E-02  0.8607933E-01
       -2   -1    0    0    0  501  0.00000000000E+00  0.00000000000E+00  0.64677920084E+03  0.64677920085E+03  0.25500000920E-02 0. -1.
        2   -1    0    0  501    0  0.00000000000E+00  0.00000000000E+00 -0.15417910235E+04  0.15417910235E+04  0.25500000920E-02 0.  1.
    10030    2    1    2    0    0  0.00000000000E+00  0.00000000000E+00 -0.89501182267E+03  0.21885702244E+04  0.19971964010E+04 0.  0.
        1    1    3    3  502    0 -0.37401692687E+03 -0.92026442367E+03 -0.55938220208E+03  0.11400367183E+04  0.50400001928E-02 0.  1.
       -1    1    3    3    0  502  0.37401692687E+03  0.92026442367E+03 -0.33562962059E+03  0.10485335060E+04  0.50400001928E-02 0. -1.
</event>
<event>
 5   0  0.2007644E-05  0.2008060E+04  0.7818609E-02  0.8602862E-01
       -1   -1    0    0    0  501  0.00000000000E+00  0.00000000000E+00  0.10156101972E+04  0.10156101972E+04  0.50400001928E-02 0.  1.
        1   -1    0    0  501    0  0.00000000000E+00  0.00000000000E+00 -0.99258150771E+03  0.99258150772E+03  0.50400001928E-02 0. -1.
    10030    2    1    2    0    0  0.00000000000E+00  0.00000000000E+00  0.23028689512E+02  0.20081917050E+04  0.20080596613E+04 0.  0.
        1    1    3    3  502    0  0.47828740654E+03  0.68528369461E+03 -0.54503219149E+03  0.99771372404E+03  0.50400001928E-02 0. -1.
       -1    1    3    3    0  502 -0.47828740654E+03 -0.68528369461E+03  0.56806088101E+03  0.10104779809E+04  0.50400001928E-02 0.  1.
</event>
<event>
 5   0  0.2256868E-05  0.1998455E+04  0.7818609E-02  0.8607344E-01
       -1   -1    0    0    0  501  0.00000000000E+00  0.00000000000E+00  0.61462498852E+03  0.61462498854E+03  0.50400001928E-02 0. -1.
        1   -1    0    0  501    0  0.00000000000E+00  0.00000000000E+00 -0.16244948048E+04  0.16244948048E+04  0.50400001928E-02 0.  1.
    10030    2    1    2    0    0  0.00000000000E+00  0.00000000000E+00 -0.10098698162E+04  0.22391197933E+04  0.19984545036E+04 0.  0.
        5    1    3    3  502    0  0.74790069120E+03  0.65585409456E+03 -0.39903853483E+03  0.10717993653E+04  0.46999998093E+01 0. -1.
       -5    1    3    3    0  502 -0.74790069120E+03 -0.65585409456E+03 -0.61083128140E+03  0.11673204280E+04  0.46999998093E+01 0.  1.
</event>
<event>
 5   0  0.2093980E-05  0.2005705E+04  0.7818609E-02  0.8603958E-01
       -1   -1    0    0    0  501  0.00000000000E+00  0.00000000000E+00  0.77541489553E+03  0.77541489555E+03  0.50400001928E-02 0. -1.
        1   -1    0    0  501    0  0.00000000000E+00  0.00000000000E+00 -0.12970004710E+04  0.12970004711E+04  0.50400001928E-02 0.  1.
    10030    2    1    2    0    0  0.00000000000E+00  0.00000000000E+00 -0.52158557552E+03  0.20724153666E+04  0.20057053470E+04 0.  0.
        2    1    3    3  502    0 -0.22480894927E+03  0.56108107568E+03  0.56604934689E+03  0.82810802452E+03  0.25500000920E-02 0. -1.
       -2    1    3    3    0  502  0.22480894927E+03 -0.56108107568E+03 -0.10876349224E+04  0.12443073421E+04  0.25500000920E-02 0.  1.
</event>
<event>
 5   0  0.2256868E-05  0.1999873E+04  0.7818609E-02  0.8606680E-01
       -1   -1    0    0    0  501  0.00000000000E+00  0.00000000000E+00  0.73573526463E+03  0.73573526465E+03  0.50400001928E-02 0. -1.
        1   -1    0    0  501    0  0.00000000000E+00  0.00000000000E+00 -0.13590121870E+04  0.13590121870E+04  0.50400001928E-02 0.  1.
    10030    2    1    2    0    0  0.00000000000E+00  0.00000000000E+00 -0.62327692237E+03  0.20947474517E+04  0.19998731870E+04 0.  0.
        5    1    3    3  502    0 -0.82898099214E+03  0.98925835464E+02 -0.88806875731E+03  0.12188863827E+04  0.46999998093E+01 0.  1.
       -5    1    3    3    0  502  0.82898099214E+03 -0.98925835464E+02  0.26479183494E+03  0.87586106895E+03  0.46999998093E+01 0. -1.
</event>
<event>
 5   0  0.4577279E-05  0.2016773E+04  0.7818609E-02  0.8598819E-01
        2   -1    0    0  501    0  0.00000000000E+00  0.00000000000E+00  0.15113356001E+04  0.15113356001E+04  0.25500000920E-02 0.  1.
       -2   -1    0    0    0  501  0.00000000000E+00  0.00000000000E+00 -0.67281112144E+03  0.67281112144E+03  0.25500000920E-02 0. -1.
    10030    2    1    2    0    0  0.00000000000E+00  0.00000000000E+00  0.83852447871E+03  0.21841467216E+04  0.20167730661E+04 0.  0.
        1    1    3    3  502    0  0.82208725857E+02  0.71229433531E+03 -0.34860949435E+03  0.79727666108E+03  0.50400001928E-02 0. -1.
       -1    1    3    3    0  502 -0.82208725857E+02 -0.71229433531E+03  0.11871339731E+04  0.13868700605E+04  0.50400001928E-02 0.  1.
</event>
<event>
 5   0  0.4412054E-05  0.2001068E+04  0.7818609E-02  0.8606121E-01
       -2   -1    0    0    0  501  0.00000000000E+00  0.00000000000E+00  0.89318757910E+03  0.89318757911E+03  0.25500000920E-02 0. -1.
        2   -1    0    0  501    0  0.00000000000E+00  0.00000000000E+00 -0.11207817479E+04  0.11207817479E+04  0.25500000920E-02 0.  1.
    10030    2    1    2    0    0  0.00000000000E+00  0.00000000000E+00 -0.22759416883E+03  0.20139693270E+04  0.20010680510E+04 0.  0.
        4    1    3    3  502    0 -0.82669707355E+03 -0.45754613852E+02 -0.67915278303E+03  0.10708742464E+04  0.12699999809E+01 0.  1.
       -4    1    3    3    0  502  0.82669707355E+03  0.45754613852E+02  0.45155861420E+03  0.94309508060E+03  0.12699999809E+01 0. -1.
</event>
<event>
 5   0  0.2110896E-05  0.1984339E+04  0.7818609E-02  0.8613978E-01
       -1   -1    0    0    0  501  0.00000000000E+00  0.00000000000E+00  0.66638144198E+03  0.66638144200E+03  0.50400001928E-02 0. -1.
        1   -1    0    0  501    0  0.00000000000E+00  0.00000000000E+00 -0.14772330853E+04  0.14772330853E+04  0.50400001928E-02 0.  1.
    10030    2    1    2    0    0  0.00000000000E+00  0.00000000000E+00 -0.81085164335E+03  0.21436145273E+04  0.19843394000E+04 0.  0.
        4    1    3    3  502    0  0.70557897804E+03 -0.64852920874E+02 -0.11556871386E+04  0.13556039137E+04  0.12699999809E+01 0.  1.
       -4    1    3    3    0  502 -0.70557897804E+03  0.64852920874E+02  0.34483549523E+03  0.78801061367E+03  0.12699999809E+01 0. -1.
</event>
<event>
 5   0  0.2093980E-05  0.1971345E+04  0.7818609E-02  0.8620136E-01
       -1   -1    0    0    0  501  0.00000000000E+00  0.00000000000E+00  0.31026024979E+03  0.31026024983E+03  0.50400001928E-02 0. -1.
        1   -1    0    0  501    0  0.00000000000E+00  0.00000000000E+00 -0.31314043693E+04  0.31314043693E+04  0.50400001928E-02 0.  1.
    10030    2    1    2    0    0  0.00000000000E+00  0.00000000000E+00 -0.28211441195E+04  0.34416646191E+04  0.19713450250E+04 0.  0.
        2    1    3    3  502    0  0.58987726043E+03 -0.55003910801E+03 -0.23997938242E+04  0.25317007330E+04  0.25500000920E-02 0. -1.
       -2    1    3    3    0  502 -0.58987726043E+03  0.55003910801E+03 -0.42135029528E+03  0.90996388612E+03  0.25500000920E-02 0.  1.
</event>
<event>
 5   0  0.2093980E-05  0.1975292E+04  0.7818609E-02  0.8618260E-01
        1   -1    0    0  501    0  0.00000000000E+00  0.00000000000E+00  0.14426068387E+04  0.14426068387E+04  0.50400001928E-02 0.  1.
       -1   -1    0    0    0  501  0.00000000000E+00  0.00000000000E+00 -0.67616823661E+03  0.67616823663E+03  0.50400001928E-02 0. -1.
    10030    2    1    2    0    0  0.00000000000E+00  0.00000000000E+00  0.76643860206E+03  0.21187750753E+04  0.19752923047E+04 0.  0.
        2    1    3    3  502    0 -0.50644706001E+03  0.31174563738E+03 -0.46258268202E+03  0.75342996006E+03  0.25500000920E-02 0. -1.
       -2    1    3    3    0  502  0.50644706001E+03 -0.31174563738E+03  0.12290212841E+04  0.13653451152E+04  0.25500000920E-02 0.  1.
</event>
<event>
 5   0  0.4473361E-05  0.2002619E+04  0.7818609E-02  0.8605397E-01
        2   -1    0    0  501    0  0.00000000000E+00  0.00000000000E+00  0.13804626606E+04  0.13804626606E+04  0.25500000920E-02 0.  1.
       -2   -1    0    0    0  501  0.00000000000E+00  0.00000000000E+00 -0.72629310915E+03  0.72629310915E+03  0.25500000920E-02 0. -1.
    10030    2    1    2    0    0  0.00000000000E+00  0.00000000000E+00  0.65416955143E+03  0.21067557697E+04  0.20026188033E+04 0.  0.
        2    1    3    3  502    0 -0.47476198050E+03 -0.61966526625E+03  0.98677923137E+03  0.12582198662E+04  0.25500000920E-02 0.  1.
       -2    1    3    3    0  502  0.47476198050E+03  0.61966526625E+03 -0.33260967995E+03  0.84853590349E+03  0.25500000920E-02 0. -1.
</event>
<event>
 5   0  0.2007644E-05  0.2001387E+04  0.7818609E-02  0.8605973E-01
        1   -1    0    0  501    0  0.00000000000E+00  0.00000000000E+00  0.15948629224E+04  0.15948629224E+04  0.50400001928E-02 0. -1.
       -1   -1    0    0    0  501  0.00000000000E+00  0.00000000000E+00 -0.62788294751E+03  0.62788294753E+03  0.50400001928E-02 0.  1.
    10030    2    1    2    0    0  0.00000000000E+00  0.00000000000E+00  0.96697997490E+03  0.22227458699E+04  0.20013867518E+04 0.  0.
        1    1    3    3  502    0  0.20947270597E+03  0.81422068856E+03  0.10862446543E+04  0.13735944064E+04  0.50400001928E-02 0. -1.
       -1    1    3    3    0  502 -0.20947270597E+03 -0.81422068856E+03 -0.11926467944E+03  0.84915146353E+03  0.50400001928E-02 0.  1.
</event>
<event>
 5   0  0.2093980E-05  0.2011588E+04  0.7818609E-02  0.8601222E-01
       -1   -1    0    0    0  501  0.00000000000E+00  0.00000000000E+00  0.55058259665E+03  0.55058259667E+03  0.50400001928E-02 0. -1.
        1   -1    0    0  501    0  0.00000000000E+00  0.00000000000E+00 -0.18373661489E+04  0.18373661489E+04  0.50400001928E-02 0.  1.
    10030    2    1    2    0    0  0.00000000000E+00  0.00000000000E+00 -0.12867835523E+04  0.23879487456E+04  0.20115882534E+04 0.  0.
        2    1    3    3  502    0  0.55936924335E+03 -0.80228432971E+03 -0.36482168002E+03  0.10438625170E+04  0.25500000920E-02 0. -1.
       -2    1    3    3    0  502 -0.55936924335E+03  0.80228432971E+03 -0.92196187224E+03  0.13440862286E+04  0.25500000920E-02 0.  1.
</event>
<event>
 5   0  0.2142551E-05  0.1994155E+04  0.7818609E-02  0.8609358E-01
       -1   -1    0    0    0  501  0.00000000000E+00  0.00000000000E+00  0.99656705234E+03  0.99656705236E+03  0.50400001928E-02 0. -1.
        1   -1    0    0  501    0  0.00000000000E+00  0.00000000000E+00 -0.99758859733E+03  0.99758859734E+03  0.50400001928E-02 0.  1.
    10030    2    1    2    0    0  0.00000000000E+00  0.00000000000E+00 -0.10215449862E+01  0.19941556497E+04  0.19941553880E+04 0.  0.
        3    1    3    3  502    0  0.57274276351E+02 -0.91655582097E+03  0.38783062577E+03  0.99687888942E+03  0.10100000352E+00 0. -1.
       -3    1    3    3    0  502 -0.57274276351E+02  0.91655582097E+03 -0.38885217076E+03  0.99727676028E+03  0.10100000352E+00 0.  1.
</event>
<event>
 5   0  0.2110896E-05  0.1991618E+04  0.7818609E-02  0.8610549E-01
       -1   -1    0    0    0  501  0.00000000000E+00  0.00000000000E+00  0.56686100773E+03  0.56686100775E+03  0.50400001928E-02 0.  1.
        1   -1    0    0  501    0  0.00000000000E+00  0.00000000000E+00 -0.17493454180E+04  0.17493454180E+04  0.50400001928E-02 0. -1.
    10030    2    1    2    0    0  0.00000000000E+00  0.00000000000E+00 -0.11824844103E+04  0.23162064258E+04  0.19916181427E+04 0.  0.
        4    1    3    3  502    0  0.47707869447E+03 -0.65286658780E+03 -0.12671663271E+04  0.15031802871E+04  0.12699999809E+01 0. -1.
       -4    1    3    3    0  502 -0.47707869447E+03  0.65286658780E+03  0.84681916810E+02  0.81302613865E+03  0.12699999809E+01 0.  1.
</event>
<event>
 5   0  0.4412054E-05  0.1909340E+04  0.7818609E-02  0.8650221E-01
        2   -1    0    0  501    0  0.00000000000E+00  0.00000000000E+00  0.28345359041E+04  0.28345359041E+04  0.25500000920E-02 0.  1.
       -2   -1    0    0    0  501  0.00000000000E+00  0.00000000000E+00 -0.32153228241E+03  0.32153228242E+03  0.25500000920E-02 0. -1.
    10030    2    1    2    0    0  0.00000000000E+00  0.00000000000E+00  0.25130036217E+04  0.31560681866E+04  0.19093399895E+04 0.  0.
        4    1    3    3  502    0 -0.78360971441E+03 -0.54391201169E+03  0.13207067069E+04  0.16291569229E+04  0.12699999809E+01 0.  1.
       -4    1    3    3    0  502  0.78360971441E+03  0.54391201169E+03  0.11922969148E+04  0.15269112636E+04  0.12699999809E+01 0. -1.
</event>
<event>
 5   0  0.4473361E-05  0.1997338E+04  0.7818609E-02  0.8607866E-01
       -2   -1    0    0    0  501  0.00000000000E+00  0.00000000000E+00  0.64538650312E+03  0.64538650312E+03  0.25500000920E-02 0.  1.
        2   -1    0    0  501    0  0.00000000000E+00  0.00000000000E+00 -0.15453366748E+04  0.15453366748E+04  0.25500000920E-02 0. -1.
    10030    2    1    2    0    0  0.00000000000E+00  0.00000000000E+00 -0.89995017170E+03  0.21907231779E+04  0.19973376607E+04 0.  0.
        2    1    3    3  502    0  0.72223258704E+03 -0.67287716833E+03 -0.61615655719E+03  0.11636290201E+04  0.25500000920E-02 0. -1.
       -2    1    3    3    0  502 -0.72223258704E+03  0.67287716833E+03 -0.28379361452E+03  0.10270941579E+04  0.25500000920E-02 0.  1.
</event>
<event>
 5   0  0.4447313E-05  0.2014722E+04  0.7818609E-02  0.8599768E-01
        2   -1    0    0  501    0  0.00000000000E+00  0.00000000000E+00  0.18422515431E+04  0.18422515431E+04  0.25500000920E-02 0. -1.
       -2   -1    0    0    0  501  0.00000000000E+00  0.00000000000E+00 -0.55083501035E+03  0.55083501035E+03  0.25500000920E-02 0.  1.
    10030    2    1    2    0    0  0.00000000000E+00  0.00000000000E+00  0.12914165328E+04  0.23930865535E+04  0.20147224601E+04 0.  0.
        5    1    3    3  502    0 -0.92940868476E+03 -0.36147202477E+03  0.47650609794E+03  0.11052342192E+04  0.46999998093E+01 0.  1.
       -5    1    3    3    0  502  0.92940868476E+03  0.36147202477E+03  0.81491043483E+03  0.12878523342E+04  0.46999998093E+01 0. -1.
</event>
<event>
 5   0  0.4514680E-05  0.1869330E+04  0.7818609E-02  0.8670275E-01
        2   -1    0    0  501    0  0.00000000000E+00  0.00000000000E+00  0.69378189161E+03  0.69378189161E+03  0.25500000920E-02 0. -1.
       -2   -1    0    0    0  501  0.00000000000E+00  0.00000000000E+00 -0.12591834028E+04  0.12591834028E+04  0.25500000920E-02 0.  1.
    10030    2    1    2    0    0  0.00000000000E+00  0.00000000000E+00 -0.56540151121E+03  0.19529652944E+04  0.18693299795E+04 0.  0.
        3    1    3    3  502    0  0.45411925387E+03 -0.75515122518E+03 -0.60828624802E+03  0.10707426579E+04  0.10100000352E+00 0.  1.
       -3    1    3    3    0  502 -0.45411925387E+03  0.75515122518E+03  0.42884736808E+02  0.88222263657E+03  0.10100000352E+00 0. -1.
</event>
<event>
 5   0  0.4577279E-05  0.1998926E+04  0.7818609E-02  0.8607123E-01
       -2   -1    0    0    0  501  0.00000000000E+00  0.00000000000E+00  0.14589396811E+04  0.14589396811E+04  0.25500000920E-02 0.  1.
        2   -1    0    0  501    0  0.00000000000E+00  0.00000000000E+00 -0.68469362722E+03  0.68469362723E+03  0.25500000920E-02 0. -1.
    10030    2    1    2    0    0  0.00000000000E+00  0.00000000000E+00  0.77424605385E+03  0.21436333083E+04  0.19989264140E+04 0.  0.
        1    1    3    3  502    0 -0.62958032799E+02  0.19687727388E+03 -0.66152220850E+03  0.69306277294E+03  0.50400001928E-02 0. -1.
       -1    1    3    3    0  502  0.62958032799E+02 -0.19687727388E+03  0.14357682624E+04  0.14505705354E+04  0.50400001928E-02 0.  1.
</event>
<event>
 5   0  0.2142551E-05  0.2010053E+04  0.7818609E-02  0.8601935E-01
       -1   -1    0    0    0  501  0.00000000000E+00  0.00000000000E+00  0.94615899940E+03  0.94615899942E+03  0.50400001928E-02 0.  1.
        1   -1    0    0  501    0  0.00000000000E+00  0.00000000000E+00 -0.10675568117E+04  0.10675568117E+04  0.50400001928E-02 0. -1.
    10030    2    1    2    0    0  0.00000000000E+00  0.00000000000E+00 -0.12139781233E+03  0.20137158112E+04  0.20100532180E+04 0.  0.
        3    1    3    3  502    0  0.59725490889E+03 -0.61236722437E+03  0.46787163519E+03  0.97499277991E+03  0.10100000352E+00 0.  1.
       -3    1    3    3    0  502 -0.59725490889E+03  0.61236722437E+03 -0.58926944752E+03  0.10387230313E+04  0.10100000352E+00 0. -1.
</event>
<event>
 5   0  0.2142551E-05  0.1988878E+04  0.7818609E-02  0.8611838E-01
       -1   -1    0    0    0  501  0.00000000000E+00  0.00000000000E+00  0.10132365218E+04  0.10132365219E+04  0.50400001928E-02 0.  1.
        1   -1    0    0  501    0  0.00000000000E+00  0.00000000000E+00 -0.97599025839E+03  0.97599025840E+03  0.50400001928E-02 0. -1.
    10030    2    1    2    0    0  0.00000000000E+00  0.00000000000E+00  0.37246263458E+02  0.19892267803E+04  0.19888780504E+04 0.  0.
        3    1    3    3  502    0  0.68658748325E+03  0.41580683038E+03 -0.56851580509E+03  0.98361980622E+03  0.10100000352E+00 0. -1.
       -3    1    3    3    0  502 -0.68658748325E+03 -0.41580683038E+03  0.60576206855E+03  0.10056069740E+04  0.10100000352E+00 0.  1.
</event>
<event>
 5   0  0.4447313E-05  0.2006472E+04  0.7818609E-02  0.8603601E-01
        2   -1    0    0  501    0  0.00000000000E+00  0.00000000000E+00  0.10347375248E+04  0.10347375248E+04  0.25500000920E-02 0.  1.
       -2   -1    0    0    0  501  0.00000000000E+00  0.00000000000E+00 -0.97269370055E+03  0.97269370055E+03  0.25500000920E-02 0. -1.
    10030    2    1    2    0    0  0.00000000000E+00  0.00000000000E+00  0.62043824243E+02  0.20074312254E+04  0.20064721998E+04 0.  0.
        5    1    3    3  502    0  0.11827458728E+03 -0.43098289138E+03 -0.86758635097E+03  0.97594226112E+03  0.46999998093E+01 0. -1.
       -5    1    3    3    0  502 -0.11827458728E+03  0.43098289138E+03  0.92963017522E+03  0.10314889642E+04  0.46999998093E+01 0.  1.
</event>
<event>
 5   0  0.2110896E-05  0.1998302E+04  0.7818609E-02  0.8607415E-01
       -1   -1    0    0    0  501  0.00000000000E+00  0.00000000000E+00  0.78027120938E+03  0.78027120940E+03  0.50400001928E-02 0. -1.
        1   -1    0    0  501    0  0.00000000000E+00  0.00000000000E+00 -0.12794307304E+04  0.12794307304E+04  0.50400001928E-02 0.  1.
    10030    2    1    2    0    0  0.00000000000E+00  0.00000000000E+00 -0.49915952102E+03  0.20597019398E+04  0.19983022428E+04 0.  0.
        4    1    3    3  502    0  0.12643030877E+03  0.92457754295E+02  0.76753748148E+03  0.78335717120E+03  0.12699999809E+01 0. -1.
       -4    1    3    3    0  502 -0.12643030877E+03 -0.92457754295E+02 -0.12666970025E+04  0.12763447686E+04  0.12699999809E+01 0.  1.
</event>
<event>
 5   0  0.4577279E-05  0.1998173E+04  0.7818609E-02  0.8607475E-01
        2   -1    0    0  501    0  0.00000000000E+00  0.00000000000E+00  0.17087061147E+04  0.17087061147E+04  0.25500000920E-02 0. -1.
       -2   -1    0    0    0  501  0.00000000000E+00  0.00000000000E+00 -0.58416939149E+03  0.58416939149E+03  0.25500000920E-02 0.  1.
    10030    2    1    2    0    0  0.00000000000E+00  0.00000000000E+00  0.11245367232E+04  0.22928755062E+04  0.19981729767E+04 0.  0.
        1    1    3    3  502    0  0.20559036777E+03  0.80343868982E+03 -0.77029323041E+02  0.83289533812E+03  0.50400001928E-02 0. -1.
       -1    1    3    3    0  502 -0.20559036777E+03 -0.80343868982E+03  0.12015660462E+04  0.14599801680E+04  0.50400001928E-02 0.  1.
</event>
<event>
 5   0  0.4514680E-05  0.1983753E+04  0.7818609E-02  0.8614254E-01
        2   -1    0    0  501    0  0.00000000000E+00  0.00000000000E+00  0.85760286015E+03  0.85760286016E+03  0.25500000920E-02 0. -1.
       -2   -1    0    0    0  501  0.00000000000E+00  0.00000000000E+00 -0.11471733109E+04  0.11471733109E+04  0.25500000920E-02 0.  1.
    10030    2    1    2    0    0  0.00000000000E+00  0.00000000000E+00 -0.28957045076E+03  0.20047761711E+04  0.19837531223E+04 0.  0.
        3    1    3    3  502    0 -0.70533531419E+02 -0.97330141453E+03 -0.32422957326E+03  0.10283070791E+04  0.10100000352E+00 0.  1.
       -3    1    3    3    0  502  0.70533531419E+02  0.97330141453E+03  0.34659122504E+02  0.97646909196E+03  0.10100000352E+00 0. -1.
</event>
<event>
 5   0  0.2007644E-05  0.2007620E+04  0.7818609E-02  0.8603066E-01
        1   -1    0    0  501    0  0.00000000000E+00  0.00000000000E+00  0.11571744589E+04  0.11571744589E+04  0.50400001928E-02 0.  1.
       -1   -1    0    0    0  501  0.00000000000E+00  0.00000000000E+00 -0.87077181366E+03  0.87077181367E+03  0.50400001928E-02 0. -1.
    10030    2    1    2    0    0  0.00000000000E+00  0.00000000000E+00  0.28640264527E+03  0.20279462726E+04  0.20076203848E+04 0.  0.
        1    1    3    3  502    0 -0.88199944780E+03 -0.35510135896E+03 -0.18195032337E+03  0.96805264384E+03  0.50400001928E-02 0. -1.
       -1    1    3    3    0  502  0.88199944780E+03  0.35510135896E+03  0.46835296864E+03  0.10598936288E+04  0.50400001928E-02 0.  1.
</event>
<event>
 5   0  0.4514680E-05  0.2004035E+04  0.7818609E-02  0.8604736E-01
       -2   -1    0    0    0  501  0.00000000000E+00  0.00000000000E+00  0.83420345218E+03  0.83420345218E+03  0.25500000920E-02 0. -1.
        2   -1    0    0  501    0  0.00000000000E+00  0.00000000000E+00 -0.12035904352E+04  0.12035904352E+04  0.25500000920E-02 0.  1.
    10030    2    1    2    0    0  0.00000000000E+00  0.00000000000E+00 -0.36938698305E+03  0.20377938874E+04  0.20040352253E+04 0.  0.
        3    1    3    3  502    0 -0.17841391919E+03 -0.37972849063E+03 -0.11099747226E+04  0.11866208948E+04  0.10100000352E+00 0.  1.
       -3    1    3    3    0  502  0.17841391919E+03  0.37972849063E+03  0.74058773952E+03  0.85117299257E+03  0.10100000352E+00 0. -1.
</event>
<event>
 5   0  0.4577279E-05  0.2009920E+04  0.7818609E-02  0.8601997E-01
       -2   -1    0    0    0  501  0.00000000000E+00  0.00000000000E+00  0.14282140816E+04  0.14282140816E+04  0.25500000920E-02 0. -1.
        2   -1    0    0  501    0  0.00000000000E+00  0.00000000000E+00 -0.70713803092E+03  0.70713803092E+03  0.25500000920E-02 0.  1.
    10030    2    1    2    0    0  0.00000000000E+00  0.00000000000E+00  0.72107605065E+03  0.21353521125E+04  0.20099198923E+04 0.  0.
        1    1    3    3  502    0  0.69426291970E+02 -0.63521206103E+03 -0.46351571729E+03  0.78940559454E+03  0.50400001928E-02 0.  1.
       -1    1    3    3    0  502 -0.69426291970E+02  0.63521206103E+03  0.11845917679E+04  0.13459465180E+04  0.50400001928E-02 0. -1.
</event>
<event>
 5   0  0.2093980E-05  0.1984956E+04  0.7818609E-02  0.8613687E-01
       -1   -1    0    0    0  501  0.00000000000E+00  0.00000000000E+00  0.13351528915E+04  0.13351528915E+04  0.50400001928E-02 0. -1.
        1   -1    0    0  501    0  0.00000000000E+00  0.00000000000E+00 -0.73775274589E+03  0.73775274591E+03  0.50400001928E-02 0.  1.
    10030    2    1    2    0    0  0.00000000000E+00  0.00000000000E+00  0.59740014560E+03  0.20729056374E+04  0.19849561324E+04 0.  0.
        2    1    3    3  502    0 -0.40299530207E+03  0.26793402604E+03  0.12035909396E+04  0.12972374516E+04  0.25500000920E-02 0. -1.
       -2    1    3    3    0  502  0.40299530207E+03 -0.26793402604E+03 -0.60619079402E+03  0.77566818586E+03  0.25500000920E-02 0.  1.
</event>
<event>
 5   0  0.4412054E-05  0.2004279E+04  0.7818609E-02  0.8604623E-01
        2   -1    0    0  501    0  0.00000000000E+00  0.00000000000E+00  0.12286843931E+04  0.12286843931E+04  0.25500000920E-02 0.  1.
       -2   -1    0    0    0  501  0.00000000000E+00  0.00000000000E+00 -0.81736503264E+03  0.81736503264E+03  0.25500000920E-02 0. -1.
    10030    2    1    2    0    0  0.00000000000E+00  0.00000000000E+00  0.41131936050E+03  0.20460494258E+04  0.20042790815E+04 0.  0.
        4    1    3    3  502    0 -0.80722762608E+03  0.29326276599E+03  0.73281542734E+03  0.11289993595E+04  0.12699999809E+01 0.  1.
       -4    1    3    3    0  502  0.80722762608E+03 -0.29326276599E+03 -0.32149606684E+03  0.91705006631E+03  0.12699999809E+01 0. -1.
</event>
<event>
 5   0  0.4473361E-05  0.1997872E+04  0.7818609E-02  0.8607616E-01
       -2   -1    0    0    0  501  0.00000000000E+00  0.00000000000E+00  0.10634111459E+04  0.10634111459E+04  0.25500000920E-02 0. -1.
        2   -1    0    0  501    0  0.00000000000E+00  0.00000000000E+00 -0.93836954750E+03  0.93836954750E+03  0.25500000920E-02 0.  1.
    10030    2    1    2    0    0  0.00000000000E+00  0.00000000000E+00  0.12504159838E+03  0.20017806934E+04  0.19978715031E+04 0.  0.
        2    1    3    3  502    0 -0.34412937222E+02 -0.14778717824E+03 -0.92675468897E+03  0.93909507177E+03  0.25500000920E-02 0.  1.
       -2    1    3    3    0  502  0.34412937222E+02  0.14778717824E+03  0.10517962873E+04  0.10626856216E+04  0.25500000920E-02 0. -1.
</event>
<event>
 5   0  0.2142551E-05  0.2032273E+04  0.7818609E-02  0.8591679E-01
        1   -1    0    0  501    0  0.00000000000E+00  0.00000000000E+00  0.93601138152E+03  0.93601138154E+03  0.50400001928E-02 0. -1.
       -1   -1    0    0    0  501  0.00000000000E+00  0.00000000000E+00 -0.11031207013E+04  0.11031207013E+04  0.50400001928E-02 0.  1.
    10030    2    1    2    0    0  0.00000000000E+00  0.00000000000E+00 -0.16710931979E+03  0.20391320829E+04  0.20322731427E+04 0.  0.
        3    1    3    3  502    0  0.14992817464E+03  0.37284218991E+03  0.85289248127E+03  0.94282307510E+03  0.10100000352E+00 0. -1.
       -3    1    3    3    0  502 -0.14992817464E+03 -0.37284218991E+03 -0.10200018011E+04  0.10963090078E+04  0.10100000352E+00 0.  1.
</event>
<event>
 5   0  0.2110896E-05  0.2007412E+04  0.7818609E-02  0.8603163E-01
        1   -1    0    0  501    0  0.00000000000E+00  0.00000000000E+00  0.22190429169E+04  0.22190429169E+04  0.50400001928E-02 0.  1.
       -1   -1    0    0    0  501  0.00000000000E+00  0.00000000000E+00 -0.45399107771E+03  0.45399107774E+03  0.50400001928E-02 0. -1.
    10030    2    1    2    0    0  0.00000000000E+00  0.00000000000E+00  0.17650518392E+04  0.26730339946E+04  0.20074119511E+04 0.  0.
        4    1    3    3  502    0  0.58529828853E+03  0.75767376874E+03  0.48132295564E+03  0.10715955519E+04  0.12699999809E+01 0. -1.
       -4    1    3    3    0  502 -0.58529828853E+03 -0.75767376874E+03  0.12837288835E+04  0.16014384427E+04  0.12699999809E+01 0.  1.
</event>
<event>
 5   0  0.2256868E-05  0.2009522E+04  0.7818609E-02  0.8602182E-01
       -1   -1    0    0    0  501  0.00000000000E+00  0.00000000000E+00  0.69647371648E+03  0.69647371650E+03  0.50400001928E-02 0. -1.
        1   -1    0    0  501    0  0.00000000000E+00  0.00000000000E+00 -0.14495089285E+04  0.14495089285E+04  0.50400001928E-02 0.  1.
    10030    2    1    2    0    0  0.00000000000E+00  0.00000000000E+00 -0.75303521204E+03  0.21459826450E+04  0.20095222025E+04 0.  0.
        5    1    3    3  502    0 -0.89195386550E+03  0.34598802329E+03 -0.48697370371E+02  0.95795768921E+03  0.46999998093E+01 0.  1.
       -5    1    3    3    0  502  0.89195386550E+03 -0.34598802329E+03 -0.70433784167E+03  0.11880249558E+04  0.46999998093E+01 0. -1.
</event>
<event>
 5   0  0.2110896E-05  0.1975322E+04  0.7818609E-02  0.8618246E-01
       -1   -1    0    0    0  501  0.00000000000E+00  0.00000000000E+00  0.61252350103E+03  0.61252350105E+03  0.50400001928E-02 0.  1.
        1   -1    0    0  501    0  0.00000000000E+00  0.00000000000E+00 -0.15925502537E+04  0.15925502538E+04  0.50400001928E-02 0. -1.
    10030    2    1    2    0    0  0.00000000000E+00  0.00000000000E+00 -0.98002675271E+03  0.22050737548E+04  0.19753222087E+04 0.  0.
        4    1    3    3  502    0 -0.43343685998E+03 -0.42153960512E+03 -0.13618155383E+04  0.14900021220E+04  0.12699999809E+01 0. -1.
       -4    1    3    3    0  502  0.43343685998E+03  0.42153960512E+03  0.38178878563E+03  0.71507163278E+03  0.12699999809E+01 0.  1.
</event>
<event>
 5   0  0.2007644E-05  0.2001727E+04  0.7818609E-02  0.8605814E-01
        1   -1    0    0  501    0  0.00000000000E+00  0.00000000000E+00  0.83021244272E+03  0.83021244274E+03  0.50400001928E-02 0.  1.
       -1   -1    0    0    0  501  0.00000000000E+00  0.00000000000E+00 -0.12065921872E+04  0.12065921872E+04  0.50400001928E-02 0. -1.
    10030    2    1    2    0    0  0.00000000000E+00  0.00000000000E+00 -0.37637974445E+03  0.20368046299E+04  0.20017271014E+04 0.  0.
        1    1    3    3  502    0 -0.90559717472E+03  0.39984570088E+03 -0.33823586703E+03  0.10461292125E+04  0.50400001928E-02 0.  1.
       -1    1    3    3    0  502  0.90559717472E+03 -0.39984570088E+03 -0.38143877424E+02  0.99067541747E+03  0.50400001928E-02 0. -1.
</event>
<event>
 5   0  0.4447313E-05  0.1991575E+04  0.7818609E-02  0.8610570E-01
       -2   -1    0    0    0  501  0.00000000000E+00  0.00000000000E+00  0.13155972213E+04  0.13155972213E+04  0.25500000920E-02 0.  1.
        2   -1    0    0  501    0  0.00000000000E+00  0.00000000000E+00 -0.75372026650E+03  0.75372026650E+03  0.25500000920E-02 0. -1.
    10030    2    1    2    0    0  0.00000000000E+00  0.00000000000E+00  0.56187695484E+03  0.20693174878E+04  0.19915745412E+04 0.  0.
        5    1    3    3  502    0 -0.38413260873E+03  0.66991820650E+03  0.93414585541E+03  0.12120226209E+04  0.46999998093E+01 0.  1.
       -5    1    3    3    0  502  0.38413260873E+03 -0.66991820650E+03 -0.37226890058E+03  0.85729486690E+03  0.46999998093E+01 0. -1.
</event>
<event>
 5   0  0.2110896E-05  0.1968488E+04  0.7818609E-02  0.8621497E-01
        1   -1    0    0  501    0  0.00000000000E+00  0.00000000000E+00  0.87863604726E+03  0.87863604728E+03  0.50400001928E-02 0.  1.
       -1   -1    0    0    0  501  0.00000000000E+00  0.00000000000E+00 -0.11025460586E+04  0.11025460586E+04  0.50400001928E-02 0. -1.
    10030    2    1    2    0    0  0.00000000000E+00  0.00000000000E+00 -0.22391001136E+03  0.19811821059E+04  0.19684884667E+04 0.  0.
        4    1    3    3  502    0 -0.15969801328E+03  0.64182534560E+03  0.62164294014E+03  0.90768099442E+03  0.12699999809E+01 0.  1.
       -4    1    3    3    0  502  0.15969801328E+03 -0.64182534560E+03 -0.84555295150E+03  0.10735011115E+04  0.12699999809E+01 0. -1.
</event>
<event>
 5   0  0.1601500E-05  0.1999430E+04  0.7818609E-02  0.8606887E-01
        4   -1    0    0  501    0  0.00000000000E+00  0.00000000000E+00  0.64935055156E+03  0.64935179349E+03  0.12699999809E+01 0. -1.
       -4   -1    0    0    0  501  0.00000000000E+00  0.00000000000E+00 -0.15391200429E+04  0.15391205669E+04  0.12699999809E+01 0.  1.
    10030    2    1    2    0    0  0.00000000000E+00  0.00000000000E+00 -0.88976949133E+03  0.21884723604E+04  0.19994302999E+04 0.  0.
        4    1    3    3  502    0  0.41379304724E+03  0.40109107058E+03 -0.13390239407E+04  0.14577672858E+04  0.12699999809E+01 0.  1.
       -4    1    3    3    0  502 -0.41379304724E+03 -0.40109107058E+03  0.44925444936E+03  0.73070507457E+03  0.12699999809E+01 0. -1.
</event>
<event>
 5   0  0.4514680E-05  0.2003552E+04  0.7818609E-02  0.8604962E-01
        2   -1    0    0  501    0  0.00000000000E+00  0.00000000000E+00  0.79888618237E+03  0.79888618237E+03  0.25500000920E-02 0. -1.
       -2   -1    0    0    0  501  0.00000000000E+00  0.00000000000E+00 -0.12561926377E+04  0.12561926377E+04  0.25500000920E-02 0.  1.
    10030    2    1    2    0    0  0.00000000000E+00  0.00000000000E+00 -0.45730645536E+03  0.20550788201E+04  0.20035517869E+04 0.  0.
        3    1    3    3  502    0 -0.18557363492E+03  0.68551924013E+03  0.49604436059E+03  0.86627606479E+03  0.10100000352E+00 0. -1.
       -3    1    3    3    0  502  0.18557363492E+03 -0.68551924013E+03 -0.95335081594E+03  0.11888027553E+04  0.10100000352E+00 0.  1.
</event>
<event>
 5   0  0.4514680E-05  0.2003306E+04  0.7818609E-02  0.8605077E-01
       -2   -1    0    0    0  501  0.00000000000E+00  0.00000000000E+00  0.16326795830E+04  0.16326795830E+04  0.25500000920E-02 0.  1.
        2   -1    0    0  501    0  0.00000000000E+00  0.00000000000E+00 -0.61451639048E+03  0.61451639048E+03  0.25500000920E-02 0. -1.
    10030    2    1    2    0    0  0.00000000000E+00  0.00000000000E+00  0.10181631926E+04  0.22471959735E+04  0.20033056324E+04 0.  0.
        3    1    3    3  502    0 -0.87411076728E+03  0.48669559237E+03  0.45451684262E+03  0.10988756998E+04  0.10100000352E+00 0. -1.
       -3    1    3    3    0  502  0.87411076728E+03 -0.48669559237E+03  0.56364634995E+03  0.11483202738E+04  0.10100000352E+00 0.  1.
</event>
<event>
 5   0  0.2256868E-05  0.1989442E+04  0.7818609E-02  0.8611573E-01
        1   -1    0    0  501    0  0.00000000000E+00  0.00000000000E+00  0.19447316556E+04  0.19447316556E+04  0.50400001928E-02 0.  1.
       -1   -1    0    0    0  501  0.00000000000E+00  0.00000000000E+00 -0.50879498777E+03  0.50879498780E+03  0.50400001928E-02 0. -1.
    10030    2    1    2    0    0  0.00000000000E+00  0.00000000000E+00  0.14359366678E+04  0.24535266434E+04  0.19894418503E+04 0.  0.
        5    1    3    3  502    0 -0.18391618922E+03  0.25495128233E+03 -0.44590659549E+03  0.54560068082E+03  0.46999998093E+01 0. -1.
       -5    1    3    3    0  502  0.18391618922E+03 -0.25495128233E+03  0.18818432633E+04  0.19079259625E+04  0.46999998093E+01 0.  1.
</event>
<event>
 5   0  0.4447313E-05  0.2002146E+04  0.7818609E-02  0.8605618E-01
       -2   -1    0    0    0  501  0.00000000000E+00  0.00000000000E+00  0.10729375973E+04  0.10729375973E+04  0.25500000920E-02 0.  1.
        2   -1    0    0  501    0  0.00000000000E+00  0.00000000000E+00 -0.93402185309E+03  0.93402185309E+03  0.25500000920E-02 0. -1.
    10030    2    1    2    0    0  0.00000000000E+00  0.00000000000E+00  0.13891574423E+03  0.20069594504E+04  0.20021460116E+04 0.  0.
        5    1    3    3  502    0  0.29210387352E+03  0.16636296517E+03  0.10146584109E+04  0.10689036859E+04  0.46999998093E+01 0.  1.
       -5    1    3    3    0  502 -0.29210387352E+03 -0.16636296517E+03 -0.87574266662E+03  0.93805576447E+03  0.46999998093E+01 0. -1.
</event>
<event>
 5   0  0.4514680E-05  0.1984433E+04  0.7818609E-02  0.8613934E-01
       -2   -1    0    0    0  501  0.00000000000E+00  0.00000000000E+00  0.11932216925E+04  0.11932216925E+04  0.25500000920E-02 0. -1.
        2   -1    0    0  501    0  0.00000000000E+00  0.00000000000E+00 -0.82507146428E+03  0.82507146428E+03  0.25500000920E-02 0.  1.
    10030    2    1    2    0    0  0.00000000000E+00  0.00000000000E+00  0.36815022819E+03  0.20182931568E+04  0.19844325829E+04 0.  0.
        3    1    3    3  502    0  0.84379564806E+03 -0.49381801665E+03  0.11936381767E+02  0.97774731739E+03  0.10100000352E+00 0.  1.
       -3    1    3    3    0  502 -0.84379564806E+03  0.49381801665E+03  0.35621384643E+03  0.10405458394E+04  0.10100000352E+00 0. -1.
</event>
<event>
 5   0  0.2142551E-05  0.2001366E+04  0.7818609E-02  0.8605982E-01
       -1   -1    0    0    0  501  0.00000000000E+00  0.00000000000E+00  0.77239735847E+03  0.77239735848E+03  0.50400001928E-02 0.  1.
        1   -1    0    0  501    0  0.00000000000E+00  0.00000000000E+00 -0.12964392839E+04  0.12964392839E+04  0.50400001928E-02 0. -1.
    10030    2    1    2    0    0  0.00000000000E+00  0.00000000000E+00 -0.52404192545E+03  0.20688366424E+04  0.20013658120E+04 0.  0.
        3    1    3    3  502    0 -0.33593978678E+03 -0.90754418202E+03 -0.52531196438E+03  0.11011106451E+04  0.10100000352E+00 0.  1.
       -3    1    3    3    0  502  0.33593978678E+03  0.90754418202E+03  0.12700389306E+01  0.96772599730E+03  0.10100000352E+00 0. -1.
</event>
<event>
 5   0  0.2142551E-05  0.2001808E+04  0.7818609E-02  0.8605776E-01
        1   -1    0    0  501    0  0.00000000000E+00  0.00000000000E+00  0.15603551861E+04  0.15603551861E+04  0.50400001928E-02 0. -1.
       -1   -1    0    0    0  501  0.00000000000E+00  0.00000000000E+00 -0.64203913959E+03  0.64203913961E+03  0.50400001928E-02 0.  1.
    10030    2    1    2    0    0  0.00000000000E+00  0.00000000000E+00  0.91831604647E+03  0.22023943257E+04  0.20018082837E+04 0.  0.
        3    1    3    3  502    0  0.22687482045E+03  0.96595695906E+03  0.31459937919E+03  0.10409216159E+04  0.10100000352E+00 0.  1.
       -3    1    3    3    0  502 -0.22687482045E+03 -0.96595695906E+03  0.60371666729E+03  0.11614727097E+04  0.10100000352E+00 0. -1.
</event>
<event>
 5   0  0.2110896E-05  0.1989990E+04  0.7818609E-02  0.8611315E-01
       -1   -1    0    0    0  501  0.00000000000E+00  0.00000000000E+00  0.81897834994E+03  0.81897834995E+03  0.50400001928E-02 0. -1.
        1   -1    0    0  501    0  0.00000000000E+00  0.00000000000E+00 -0.12088414649E+04  0.12088414649E+04  0.50400001928E-02 0.  1.
    10030    2    1    2    0    0  0.00000000000E+00  0.00000000000E+00 -0.38986311497E+03  0.20278198149E+04  0.19899899380E+04 0.  0.
        4    1    3    3  502    0 -0.19555929458E+03 -0.79483291701E+03  0.38151711693E+03  0.90308345521E+03  0.12699999809E+01 0. -1.
       -4    1    3    3    0  502  0.19555929458E+03  0.79483291701E+03 -0.77138023190E+03  0.11247363597E+04  0.12699999809E+01 0.  1.
</event>
<event>
 5   0  0.4577279E-05  0.2000206E+04  0.7818609E-02  0.8606525E-01
       -2   -1    0    0    0  501  0.00000000000E+00  0.00000000000E+00  0.48439064568E+03  0.48439064569E+03  0.25500000920E-02 0. -1.
        2   -1    0    0  501    0  0.00000000000E+00  0.00000000000E+00 -0.20648740084E+04  0.20648740084E+04  0.25500000920E-02 0.  1.
    10030    2    1    2    0    0  0.00000000000E+00  0.00000000000E+00 -0.15804833627E+04  0.25492646541E+04  0.20002056436E+04 0.  0.
        1    1    3    3  502    0  0.25412765061E+02  0.29830176368E+03 -0.20064230693E+04  0.20286358184E+04  0.50400001928E-02 0.  1.
       -1    1    3    3    0  502 -0.25412765061E+02 -0.29830176368E+03  0.42593970658E+03  0.52062883564E+03  0.50400001928E-02 0. -1.
</event>
<event>
 5   0  0.4447313E-05  0.1998168E+04  0.7818609E-02  0.8607478E-01
       -2   -1    0    0    0  501  0.00000000000E+00  0.00000000000E+00  0.89816841549E+03  0.89816841549E+03  0.25500000920E-02 0. -1.
        2   -1    0    0  501    0  0.00000000000E+00  0.00000000000E+00 -0.11113376946E+04  0.11113376946E+04  0.25500000920E-02 0.  1.
    10030    2    1    2    0    0  0.00000000000E+00  0.00000000000E+00 -0.21316927916E+03  0.20095061101E+04  0.19981675768E+04 0.  0.
        5    1    3    3  502    0  0.18318876354E+03 -0.38386177495E+03 -0.10157267833E+04  0.11011952477E+04  0.46999998093E+01 0.  1.
       -5    1    3    3    0  502 -0.18318876354E+03  0.38386177495E+03  0.80255750412E+03  0.90831086241E+03  0.46999998093E+01 0. -1.
</event>
<event>
 5   0  0.4473361E-05  0.2005161E+04  0.7818609E-02  0.8604211E-01
       -2   -1    0    0    0  501  0.00000000000E+00  0.00000000000E+00  0.14140807223E+04  0.14140807223E+04  0.25500000920E-02 0.  1.
        2   -1    0    0  501    0  0.00000000000E+00  0.00000000000E+00 -0.71082779990E+03  0.71082779991E+03  0.25500000920E-02 0. -1.
    10030    2    1    2    0    0  0.00000000000E+00  0.00000000000E+00  0.70325292241E+03  0.21249085222E+04  0.20051612292E+04 0.  0.
        2    1    3    3  502    0 -0.12070964182E+03  0.67619693613E+03 -0.42229881931E+03  0.80631842771E+03  0.25500000920E-02 0. -1.
       -2    1    3    3    0  502  0.12070964182E+03 -0.67619693613E+03  0.11255517417E+04  0.13185900945E+04  0.25500000920E-02 0.  1.
</event>
<event>
 5   0  0.4514680E-05  0.1997985E+04  0.7818609E-02  0.8607563E-01
        2   -1    0    0  501    0  0.00000000000E+00  0.00000000000E+00  0.98438701699E+03  0.98438701700E+03  0.25500000920E-02 0.  1.
       -2   -1    0    0    0  501  0.00000000000E+00  0.00000000000E+00 -0.10138149798E+04  0.10138149798E+04  0.25500000920E-02 0. -1.
    10030    2    1    2    0    0  0.00000000000E+00  0.00000000000E+00 -0.29427962839E+02  0.19982019968E+04  0.19979852890E+04 0.  0.
        3    1    3    3  502    0  0.87605545351E+03 -0.31088062942E+03 -0.38063120010E+03  0.10044899422E+04  0.10100000352E+00 0. -1.
       -3    1    3    3    0  502 -0.87605545351E+03  0.31088062942E+03  0.35120323726E+03  0.99371205459E+03  0.10100000352E+00 0.  1.
</event>
<event>
 5   0  0.2093980E-05  0.1999476E+04  0.7818609E-02  0.8606866E-01
       -1   -1    0    0    0  501  0.00000000000E+00  0.00000000000E+00  0.99477875012E+03  0.99477875013E+03  0.50400001928E-02 0.  1.
        1   -1    0    0  501    0  0.00000000000E+00  0.00000000000E+00 -0.10047222517E+04  0.10047222517E+04  0.50400001928E-02 0. -1.
    10030    2    1    2    0    0  0.00000000000E+00  0.00000000000E+00 -0.99435016162E+01  0.19995010019E+04  0.19994762772E+04 0.  0.
        2    1    3    3  502    0  0.83414732595E+03  0.26107831577E+03 -0.49027425645E+03  0.10021639062E+04  0.25500000920E-02 0. -1.
       -2    1    3    3    0  502 -0.83414732595E+03 -0.26107831577E+03  0.48033075483E+03  0.99733709567E+03  0.25500000920E-02 0.  1.
</event>
<event>
 5   0  0.2007644E-05  0.1934235E+04  0.7818609E-02  0.8638001E-01
        1   -1    0    0  501    0  0.00000000000E+00  0.00000000000E+00  0.10528215879E+04  0.10528215880E+04  0.50400001928E-02 0.  1.
       -1   -1    0    0    0  501  0.00000000000E+00  0.00000000000E+00 -0.88839024188E+03  0.88839024190E+03  0.50400001928E-02 0. -1.
    10030    2    1    2    0    0  0.00000000000E+00  0.00000000000E+00  0.16443134606E+03  0.19412118299E+04  0.19342351720E+04 0.  0.
        1    1    3    3  502    0  0.46118653897E+03 -0.18471404629E+03  0.91497005294E+03  0.10411448028E+04  0.50400001928E-02 0.  1.
       -1    1    3    3    0  502 -0.46118653897E+03  0.18471404629E+03 -0.75053870687E+03  0.90006702704E+03  0.50400001928E-02 0. -1.
</event>
<event>
 5   0  0.4514680E-05  0.1957184E+04  0.7818609E-02  0.8626904E-01
        2   -1    0    0  501    0  0.00000000000E+00  0.00000000000E+00  0.88115896121E+03  0.88115896121E+03  0.25500000920E-02 0. -1.
       -2   -1    0    0    0  501  0.00000000000E+00  0.00000000000E+00 -0.10867985401E+04  0.10867985401E+04  0.25500000920E-02 0.  1.
    10030    2    1    2    0    0  0.00000000000E+00  0.00000000000E+00 -0.20563957885E+03  0.19679575013E+04  0.19571839695E+04 0.  0.
        3    1    3    3  502    0  0.15672405883E+03 -0.12053150908E+03 -0.10665066464E+04  0.10846781607E+04  0.10100000352E+00 0.  1.
       -3    1    3    3    0  502 -0.15672405883E+03  0.12053150908E+03  0.86086706754E+03  0.88327934057E+03  0.10100000352E+00 0. -1.
</event>
<event>
 5   0  0.4447313E-05  0.1999118E+04  0.7818609E-02  0.8607033E-01
        2   -1    0    0  501    0  0.00000000000E+00  0.00000000000E+00  0.15591608004E+04  0.15591608004E+04  0.25500000920E-02 0.  1.
       -2   -1    0    0    0  501  0.00000000000E+00  0.00000000000E+00 -0.64080503251E+03  0.64080503251E+03  0.25500000920E-02 0. -1.
    10030    2    1    2    0    0  0.00000000000E+00  0.00000000000E+00  0.91835576787E+03  0.21999658329E+04  0.19991178929E+04 0.  0.
        5    1    3    3  502    0 -0.52565905339E+02 -0.24883756617E+03  0.15229458140E+04  0.15440431830E+04  0.46999998093E+01 0.  1.
       -5    1    3    3    0  502  0.52565905339E+02  0.24883756617E+03 -0.60459004612E+03  0.65592264986E+03  0.46999998093E+01 0. -1.
</event>
<event>
 5   0  0.2142551E-05  0.1995069E+04  0.7818609E-02  0.8608929E-01
       -1   -1    0    0    0  501  0.00000000000E+00  0.00000000000E+00  0.14583570111E+04  0.14583570111E+04  0.50400001928E-02 0.  1.
        1   -1    0    0  501    0  0.00000000000E+00  0.00000000000E+00 -0.68232641461E+03  0.68232641462E+03  0.50400001928E-02 0. -1.
    10030    2    1    2    0    0  0.00000000000E+00  0.00000000000E+00  0.77603059645E+03  0.21406834257E+04  0.19950694330E+04 0.  0.
        3    1    3    3  502    0  0.60047400247E+03  0.35449575669E+03  0.11534087207E+04  0.13478085755E+04  0.10100000352E+00 0.  1.
       -3    1    3    3    0  502 -0.60047400247E+03 -0.35449575669E+03 -0.37737812423E+03  0.79287485015E+03  0.10100000352E+00 0. -1.
</event>
<event>
 5   0  0.2093980E-05  0.1972274E+04  0.7818609E-02  0.8619694E-01
        1   -1    0    0  501    0  0.00000000000E+00  0.00000000000E+00  0.10725195061E+04  0.10725195061E+04  0.50400001928E-02 0.  1.
       -1   -1    0    0    0  501  0.00000000000E+00  0.00000000000E+00 -0.90671183558E+03  0.90671183559E+03  0.50400001928E-02 0. -1.
    10030    2    1    2    0    0  0.00000000000E+00  0.00000000000E+00  0.16580767055E+03  0.19792313417E+04  0.19722739466E+04 0.  0.
        2    1    3    3  502    0 -0.20257407497E+03  0.48972899341E+03 -0.75165193777E+03  0.91970178775E+03  0.25500000920E-02 0. -1.
       -2    1    3    3    0  502  0.20257407497E+03 -0.48972899341E+03  0.91745960832E+03  0.10595295540E+04  0.25500000920E-02 0.  1.
</event>
<event>
 5   0  0.2093980E-05  0.2000053E+04  0.7818609E-02  0.8606596E-01
       -1   -1    0    0    0  501  0.00000000000E+00  0.00000000000E+00  0.98450311476E+03  0.98450311477E+03  0.50400001928E-02 0.  1.
        1   -1    0    0  501    0  0.00000000000E+00  0.00000000000E+00 -0.10157947554E+04  0.10157947554E+04  0.50400001928E-02 0. -1.
    10030    2    1    2    0    0  0.00000000000E+00  0.00000000000E+00 -0.31291640638E+02  0.20002978702E+04  0.20000531000E+04 0.  0.
        2    1    3    3  502    0  0.27737756390E+03 -0.81346869603E+03 -0.52696514265E+03  0.10081477540E+04  0.25500000920E-02 0. -1.
       -2    1    3    3    0  502 -0.27737756390E+03  0.81346869603E+03  0.49567350201E+03  0.99215011615E+03  0.25500000920E-02 0.  1.
</event>
<event>
 5   0  0.4412054E-05  0.2001060E+04  0.7818609E-02  0.8606125E-01
        2   -1    0    0  501    0  0.00000000000E+00  0.00000000000E+00  0.17226931091E+04  0.17226931091E+04  0.25500000920E-02 0. -1.
       -2   -1    0    0    0  501  0.00000000000E+00  0.00000000000E+00 -0.58110197569E+03  0.58110197569E+03  0.25500000920E-02 0.  1.
    10030    2    1    2    0    0  0.00000000000E+00  0.00000000000E+00  0.11415911334E+04  0.23037950848E+04  0.20010600882E+04 0.  0.
        4    1    3    3  502    0 -0.63531764160E+02 -0.99845432140E+03  0.58294910997E+03  0.11579199431E+04  0.12699999809E+01 0.  1.
       -4    1    3    3    0  502  0.63531764160E+02  0.99845432140E+03  0.55864202340E+03  0.11458751416E+04  0.12699999809E+01 0. -1.
</event>
<event>
 5   0  0.2256868E-05  0.1998925E+04  0.7818609E-02  0.8607123E-01
        1   -1    0    0  501    0  0.00000000000E+00  0.00000000000E+00  0.14889804907E+04  0.14889804907E+04  0.50400001928E-02 0.  1.
       -1   -1    0    0    0  501  0.00000000000E+00  0.00000000000E+00 -0.67087865847E+03  0.67087865849E+03  0.50400001928E-02 0. -1.
    10030    2    1    2    0    0  0.00000000000E+00  0.00000000000E+00  0.81810183224E+03  0.21598591492E+04  0.19989249452E+04 0.  0.
        5    1    3    3  502    0 -0.74112214450E+03  0.57510229227E+03  0.36473037394E+02  0.93880618453E+03  0.46999998093E+01 0. -1.
       -5    1    3    3    0  502  0.74112214450E+03 -0.57510229227E+03  0.78162879485E+03  0.12210529647E+04  0.46999998093E+01 0.  1.
</event>
<event>
 5   0  0.4447313E-05  0.2003267E+04  0.7818609E-02  0.8605095E-01
        2   -1    0    0  501    0  0.00000000000E+00  0.00000000000E+00  0.63431806527E+03  0.63431806528E+03  0.25500000920E-02 0. -1.
       -2   -1    0    0    0  501  0.00000000000E+00  0.00000000000E+00 -0.15816512889E+04  0.15816512889E+04  0.25500000920E-02 0.  1.
    10030    2    1    2    0    0  0.00000000000E+00  0.00000000000E+00 -0.94733322359E+03  0.22159693541E+04  0.20032673167E+04 0.  0.
        5    1    3    3  502    0  0.81634780606E+03  0.46651654468E+03 -0.91776581727E+02  0.94472559925E+03  0.46999998093E+01 0. -1.
       -5    1    3    3    0  502 -0.81634780606E+03 -0.46651654468E+03 -0.85555664186E+03  0.12712437549E+04  0.46999998093E+01 0.  1.
</event>
<event>
 5   0  0.2093980E-05  0.2034732E+04  0.7818609E-02  0.8590552E-01
       -1   -1    0    0    0  501  0.00000000000E+00  0.00000000000E+00  0.89615682025E+03  0.89615682027E+03  0.50400001928E-02 0.  1.
        1   -1    0    0  501    0  0.00000000000E+00  0.00000000000E+00 -0.11549695784E+04  0.11549695784E+04  0.50400001928E-02 0. -1.
    10030    2    1    2    0    0  0.00000000000E+00  0.00000000000E+00 -0.25881275817E+03  0.20511263987E+04  0.20347322821E+04 0.  0.
        2    1    3    3  502    0 -0.96094581045E+03  0.29048910699E+03  0.36947768517E+02  0.10045725009E+04  0.25500000920E-02 0.  1.
       -2    1    3    3    0  502  0.96094581045E+03 -0.29048910699E+03 -0.29576052668E+03  0.10465538978E+04  0.25500000920E-02 0. -1.
</event>
<event>
 5   0  0.4577279E-05  0.1994599E+04  0.7818609E-02  0.8609150E-01
        2   -1    0    0  501    0  0.00000000000E+00  0.00000000000E+00  0.18430888566E+04  0.18430888566E+04  0.25500000920E-02 0. -1.
       -2   -1    0    0    0  501  0.00000000000E+00  0.00000000000E+00 -0.53964109894E+03  0.53964109895E+03  0.25500000920E-02 0.  1.
    10030    2    1    2    0    0  0.00000000000E+00  0.00000000000E+00  0.13034477577E+04  0.23827299556E+04  0.19945992039E+04 0.  0.
        1    1    3    3  502    0  0.13559204511E+03  0.83658491043E+03  0.12797049389E+04  0.15348955163E+04  0.50400001928E-02 0. -1.
       -1    1    3    3    0  502 -0.13559204511E+03 -0.83658491043E+03  0.23742818766E+02  0.84783443934E+03  0.50400001928E-02 0.  1.
</event>
<event>
 5   0  0.2256868E-05  0.1999662E+04  0.7818609E-02  0.8606778E-01
        1   -1    0    0  501    0  0.00000000000E+00  0.00000000000E+00  0.27130525613E+04  0.27130525613E+04  0.50400001928E-02 0. -1.
       -1   -1    0    0    0  501  0.00000000000E+00  0.00000000000E+00 -0.36846412085E+03  0.36846412088E+03  0.50400001928E-02 0.  1.
    10030    2    1    2    0    0  0.00000000000E+00  0.00000000000E+00  0.23445884404E+04  0.30815166822E+04  0.19996624984E+04 0.  0.
        5    1    3    3  502    0  0.47780891079E+03 -0.41216317728E+03 -0.22825497651E+02  0.63144511501E+03  0.46999998093E+01 0.  1.
       -5    1    3    3    0  502 -0.47780891079E+03  0.41216317728E+03  0.23674139381E+04  0.24500715672E+04  0.46999998093E+01 0. -1.
</event>
<event>
 5   0  0.2093980E-05  0.1963777E+04  0.7818609E-02  0.8623746E-01
       -1   -1    0    0    0  501  0.00000000000E+00  0.00000000000E+00  0.67282674197E+03  0.67282674198E+03  0.50400001928E-02 0.  1.
        1   -1    0    0  501    0  0.00000000000E+00  0.00000000000E+00 -0.14329174449E+04  0.14329174449E+04  0.50400001928E-02 0. -1.
    10030    2    1    2    0    0  0.00000000000E+00  0.00000000000E+00 -0.76009070294E+03  0.21057441869E+04  0.19637771523E+04 0.  0.
        2    1    3    3  502    0  0.66801361806E+03  0.44414565941E+03 -0.98719192916E+03  0.12720280915E+04  0.25500000920E-02 0. -1.
       -2    1    3    3    0  502 -0.66801361806E+03 -0.44414565941E+03  0.22710122622E+03  0.83371609535E+03  0.25500000920E-02 0.  1.
</event>
<event>
 5   0  0.4473361E-05  0.2009403E+04  0.7818609E-02  0.8602237E-01
        2   -1    0    0  501    0  0.00000000000E+00  0.00000000000E+00  0.89241559904E+03  0.89241559904E+03  0.25500000920E-02 0.  1.
       -2   -1    0    0    0  501  0.00000000000E+00  0.00000000000E+00 -0.11311153498E+04  0.11311153498E+04  0.25500000920E-02 0. -1.
    10030    2    1    2    0    0  0.00000000000E+00  0.00000000000E+00 -0.23869975076E+03  0.20235309488E+04  0.20094028789E+04 0.  0.
        2    1    3    3  502    0  0.53841615250E+02 -0.10032202112E+04 -0.12808674811E+03  0.10127960934E+04  0.25500000920E-02 0. -1.
       -2    1    3    3    0  502 -0.53841615250E+02  0.10032202112E+04 -0.11061300265E+03  0.10107348555E+04  0.25500000920E-02 0.  1.
</event>
<event>
 5   0  0.4473361E-05  0.2005857E+04  0.7818609E-02  0.8603887E-01
       -2   -1    0    0    0  501  0.00000000000E+00  0.00000000000E+00  0.51290020893E+03  0.51290020893E+03  0.25500000920E-02 0. -1.
        2   -1    0    0  501    0  0.00000000000E+00  0.00000000000E+00 -0.19611332263E+04  0.19611332263E+04  0.25500000920E-02 0.  1.
    10030    2    1    2    0    0  0.00000000000E+00  0.00000000000E+00 -0.14482330173E+04  0.24740334352E+04  0.20058570652E+04 0.  0.
        2    1    3    3  502    0  0.71526219120E+03  0.66519347376E+03 -0.44344368272E+03  0.10727183505E+04  0.25500000920E-02 0. -1.
       -2    1    3    3    0  502 -0.71526219120E+03 -0.66519347376E+03 -0.10047893346E+04  0.14013150847E+04  0.25500000920E-02 0.  1.
</event>
<event>
 5   0  0.4412054E-05  0.1983643E+04  0.7818609E-02  0.8614306E-01
       -2   -1    0    0    0  501  0.00000000000E+00  0.00000000000E+00  0.99214363684E+03  0.99214363684E+03  0.25500000920E-02 0. -1.
        2   -1    0    0  501    0  0.00000000000E+00  0.00000000000E+00 -0.99149966928E+03  0.99149966929E+03  0.25500000920E-02 0.  1.
    10030    2    1    2    0    0  0.00000000000E+00  0.00000000000E+00  0.64396755524E+00  0.19836433061E+04  0.19836432016E+04 0.  0.
        4    1    3    3  502    0  0.21906450718E+03 -0.70386600602E+03  0.66386693974E+03  0.99203706549E+03  0.12699999809E+01 0. -1.
       -4    1    3    3    0  502 -0.21906450718E+03  0.70386600602E+03 -0.66322297218E+03  0.99160624063E+03  0.12699999809E+01 0.  1.
</event>
<event>
 5   0  0.4473361E-05  0.2005770E+04  0.7818609E-02  0.8603928E-01
        2   -1    0    0  501    0  0.00000000000E+00  0.00000000000E+00  0.13024085870E+04  0.13024085870E+04  0.25500000920E-02 0. -1.
       -2   -1    0    0    0  501  0.00000000000E+00  0.00000000000E+00 -0.77224493817E+03  0.77224493817E+03  0.25500000920E-02 0.  1.
    10030    2    1    2    0    0  0.00000000000E+00  0.00000000000E+00  0.53016364883E+03  0.20746535252E+04  0.20057701152E+04 0.  0.
        2    1    3    3  502    0  0.58488290228E+03  0.35989267462E+03  0.10210495082E+04  0.12305091811E+04  0.25500000920E-02 0. -1.
       -2    1    3    3    0  502 -0.58488290228E+03 -0.35989267462E+03 -0.49088585938E+03  0.84414434404E+03  0.25500000920E-02 0.  1.
</event>
<event>
 5   0  0.4473361E-05  0.1982172E+04  0.7818609E-02  0.8615001E-01
        2   -1    0    0  501    0  0.00000000000E+00  0.00000000000E+00  0.85630330979E+03  0.85630330980E+03  0.25500000920E-02 0.  1.
       -2   -1    0    0    0  501  0.00000000000E+00  0.00000000000E+00 -0.11470837865E+04  0.11470837865E+04  0.25500000920E-02 0. -1.
    10030    2    1    2    0    0  0.00000000000E+00  0.00000000000E+00 -0.29078047674E+03  0.20033870963E+04  0.19821721853E+04 0.  0.
        2    1    3    3  502    0 -0.14778511192E+03  0.54396816244E+03  0.67850919345E+03  0.88210913534E+03  0.25500000920E-02 0.  1.
       -2    1    3    3    0  502  0.14778511192E+03 -0.54396816244E+03 -0.96928967018E+03  0.11212779610E+04  0.25500000920E-02 0. -1.
</event>
<event>
 5   0  0.4514680E-05  0.1989286E+04  0.7818609E-02  0.8611646E-01
        2   -1    0    0  501    0  0.00000000000E+00  0.00000000000E+00  0.14441624819E+04  0.14441624819E+04  0.25500000920E-02 0.  1.
       -2   -1    0    0    0  501  0.00000000000E+00  0.00000000000E+00 -0.68504388087E+03  0.68504388088E+03  0.25500000920E-02 0. -1.
    10030    2    1    2    0    0  0.00000000000E+00  0.00000000000E+00  0.75911860107E+03  0.21292063628E+04  0.19892859737E+04 0.  0.
        3    1    3    3  502    0 -0.35824831003E+01  0.95650125392E+03  0.87596210118E+02  0.96051058774E+03  0.10100000352E+00 0.  1.
       -3    1    3    3    0  502  0.35824831003E+01 -0.95650125392E+03  0.67152239096E+03  0.11686957751E+04  0.10100000352E+00 0. -1.
</event>
<event>
 5   0  0.2110896E-05  0.1996342E+04  0.7818609E-02  0.8608333E-01
        1   -1    0    0  501    0  0.00000000000E+00  0.00000000000E+00  0.20166902108E+04  0.20166902108E+04  0.50400001928E-02 0. -1.
       -1   -1    0    0    0  501  0.00000000000E+00  0.00000000000E+00 -0.49404970985E+03  0.49404970987E+03  0.50400001928E-02 0.  1.
    10030    2    1    2    0    0  0.00000000000E+00  0.00000000000E+00  0.15226405010E+04  0.25107399207E+04  0.19963418681E+04 0.  0.
        4    1    3    3  502    0  0.31973671013E+03 -0.14035009257E+03  0.19373690320E+04  0.19685858100E+04  0.12699999809E+01 0. -1.
       -4    1    3    3    0  502 -0.31973671013E+03  0.14035009257E+03 -0.41472853108E+03  0.54215411064E+03  0.12699999809E+01 0.  1.
</event>
<event>
 5   0  0.2007644E-05  0.2002378E+04  0.7818609E-02  0.8605510E-01
       -1   -1    0    0    0  501  0.00000000000E+00  0.00000000000E+00  0.57686268103E+03  0.57686268106E+03  0.50400001928E-02 0.  1.
        1   -1    0    0  501    0  0.00000000000E+00  0.00000000000E+00 -0.17376401841E+04  0.17376401841E+04  0.50400001928E-02 0. -1.
    10030    2    1    2    0    0  0.00000000000E+00  0.00000000000E+00 -0.11607775031E+04  0.23145028652E+04  0.20023783612E+04 0.  0.
        1    1    3    3  502    0  0.13480307043E+03 -0.88643659723E+03 -0.65487351323E+02  0.89901629680E+03  0.50400001928E-02 0.  1.
       -1    1    3    3    0  502 -0.13480307043E+03  0.88643659723E+03 -0.10952901518E+04  0.14154865684E+04  0.50400001928E-02 0. -1.
</event>
<event>
 5   0  0.2142551E-05  0.1998884E+04  0.7818609E-02  0.8607143E-01
       -1   -1    0    0    0  501  0.00000000000E+00  0.00000000000E+00  0.12788990447E+04  0.12788990447E+04  0.50400001928E-02 0. -1.
        1   -1    0    0  501    0  0.00000000000E+00  0.00000000000E+00 -0.78104979845E+03  0.78104979846E+03  0.50400001928E-02 0.  1.
    10030    2    1    2    0    0  0.00000000000E+00  0.00000000000E+00  0.49784924627E+03  0.20599488432E+04  0.19988835295E+04 0.  0.
        3    1    3    3  502    0  0.36543626124E+03 -0.44889333667E+03  0.10885759914E+04  0.12329016944E+04  0.10100000352E+00 0. -1.
       -3    1    3    3    0  502 -0.36543626124E+03  0.44889333667E+03 -0.59072674514E+03  0.82704714881E+03  0.10100000352E+00 0.  1.
</event>
<event>
 5   0  0.2093980E-05  0.1998001E+04  0.7818609E-02  0.8607556E-01
        1   -1    0    0  501    0  0.00000000000E+00  0.00000000000E+00  0.10504797215E+04  0.10504797215E+04  0.50400001928E-02 0.  1.
       -1   -1    0    0    0  501  0.00000000000E+00  0.00000000000E+00 -0.95004369780E+03  0.95004369781E+03  0.50400001928E-02 0. -1.
    10030    2    1    2    0    0  0.00000000000E+00  0.00000000000E+00  0.10043602369E+03  0.20005234193E+04  0.19980006397E+04 0.  0.
        2    1    3    3  502    0 -0.38378482043E+03 -0.36186341814E+03 -0.79924328340E+03  0.95761461343E+03  0.25500000920E-02 0. -1.
       -2    1    3    3    0  502  0.38378482043E+03  0.36186341814E+03  0.89967930709E+03  0.10429088059E+04  0.25500000920E-02 0.  1.
</event>
<event>
 5   0  0.2007644E-05  0.1998316E+04  0.7818609E-02  0.8607408E-01
       -1   -1    0    0    0  501  0.00000000000E+00  0.00000000000E+00  0.85217588094E+03  0.85217588096E+03  0.50400001928E-02 0. -1.
        1   -1    0    0  501    0  0.00000000000E+00  0.00000000000E+00 -0.11714918485E+04  0.11714918485E+04  0.50400001928E-02 0.  1.
    10030    2    1    2    0    0  0.00000000000E+00  0.00000000000E+00 -0.31931596756E+03  0.20236677295E+04  0.19983163894E+04 0.  0.
        1    1    3    3  502    0  0.23781301070E+03 -0.49265623615E+03 -0.10063581930E+04  0.11454352918E+04  0.50400001928E-02 0.  1.
       -1    1    3    3    0  502 -0.23781301070E+03  0.49265623615E+03  0.68704222542E+03  0.87823243769E+03  0.50400001928E-02 0. -1.
</event>
<event>
 5   0  0.4412054E-05  0.1995827E+04  0.7818609E-02  0.8608574E-01
       -2   -1    0    0    0  501  0.00000000000E+00  0.00000000000E+00  0.51594226182E+03  0.51594226183E+03  0.25500000920E-02 0. -1.
        2   -1    0    0  501    0  0.00000000000E+00  0.00000000000E+00 -0.19301218257E+04  0.19301218257E+04  0.25500000920E-02 0.  1.
    10030    2    1    2    0    0  0.00000000000E+00  0.00000000000E+00 -0.14141795639E+04  0.24460640876E+04  0.19958270670E+04 0.  0.
        4    1    3    3  502    0 -0.88566889433E+02  0.71530398025E+03 -0.15529469522E+04  0.17120600828E+04  0.12699999809E+01 0.  1.
       -4    1    3    3    0  502  0.88566889433E+02 -0.71530398025E+03  0.13876738823E+03  0.73400400476E+03  0.12699999809E+01 0. -1.
</event>
<event>
 5   0  0.4412054E-05  0.1995223E+04  0.7818609E-02  0.8608857E-01
        2   -1    0    0  501    0  0.00000000000E+00  0.00000000000E+00  0.15305857274E+04  0.15305857274E+04  0.25500000920E-02 0.  1.
       -2   -1    0    0    0  501  0.00000000000E+00  0.00000000000E+00 -0.65022743209E+03  0.65022743209E+03  0.25500000920E-02 0. -1.
    10030    2    1    2    0    0  0.00000000000E+00  0.00000000000E+00  0.88035829532E+03  0.21808131595E+04  0.19952231225E+04 0.  0.
        4    1    3    3  502    0  0.68540136093E+02 -0.77963150618E+03  0.11163533416E+04  0.13633669469E+04  0.12699999809E+01 0.  1.
       -4    1    3    3    0  502 -0.68540136093E+02  0.77963150618E+03 -0.23599504631E+03  0.81744621258E+03  0.12699999809E+01 0. -1.
</event>
<event>
 5   0  0.4473361E-05  0.2010699E+04  0.7818609E-02  0.8601635E-01
        2   -1    0    0  501    0  0.00000000000E+00  0.00000000000E+00  0.19154574228E+04  0.19154574228E+04  0.25500000920E-02 0. -1.
       -2   -1    0    0    0  501  0.00000000000E+00  0.00000000000E+00 -0.52766926614E+03  0.52766926614E+03  0.25500000920E-02 0.  1.
    10030    2    1    2    0    0  0.00000000000E+00  0.00000000000E+00  0.13877881566E+04  0.24431266889E+04  0.20106993933E+04 0.  0.
        2    1    3    3  502    0  0.80471513866E+03  0.12950272784E+03  0.14090189637E+04  0.16277812663E+04  0.25500000920E-02 0. -1.
       -2    1    3    3    0  502 -0.80471513866E+03 -0.12950272784E+03 -0.21230807111E+02  0.81534542255E+03  0.25500000920E-02 0.  1.
</event>
<event>
 5   0  0.1601500E-05  0.2013592E+04  0.7818609E-02  0.8600292E-01
        3   -1    0    0  501    0  0.00000000000E+00  0.00000000000E+00  0.69618158627E+03  0.69618159359E+03  0.10100000352E+00 0. -1.
       -3   -1    0    0    0  501  0.00000000000E+00  0.00000000000E+00 -0.14559967075E+04  0.14559967110E+04  0.10100000352E+00 0.  1.
    10030    2    1    2    0    0  0.00000000000E+00  0.00000000000E+00 -0.75981512121E+03  0.21521783046E+04  0.20135919240E+04 0.  0.
        2    1    3    3  502    0  0.82089006063E+03 -0.19147070715E+03 -0.96836036732E+03  0.12838392907E+04  0.25500000920E-02 0.  1.
       -2    1    3    3    0  502 -0.82089006063E+03  0.19147070715E+03  0.20854524611E+03  0.86833901387E+03  0.25500000920E-02 0. -1.
</event>
<event>
 5   0  0.2110896E-05  0.1994985E+04  0.7818609E-02  0.8608969E-01
        1   -1    0    0  501    0  0.00000000000E+00  0.00000000000E+00  0.50225783451E+03  0.50225783453E+03  0.50400001928E-02 0.  1.
       -1   -1    0    0    0  501  0.00000000000E+00  0.00000000000E+00 -0.19810370208E+04  0.19810370209E+04  0.50400001928E-02 0. -1.
    10030    2    1    2    0    0  0.00000000000E+00  0.00000000000E+00 -0.14787791863E+04  0.24832948554E+04  0.19949850768E+04 0.  0.
        4    1    3    3  502    0  0.34500946476E+03  0.82615557745E+03 -0.19193872988E+03  0.91564548700E+03  0.12699999809E+01 0.  1.
       -4    1    3    3    0  502 -0.34500946476E+03 -0.82615557745E+03 -0.12868404565E+04  0.15676493684E+04  0.12699999809E+01 0. -1.
</event>
<event>
 5   0  0.2142551E-05  0.2013479E+04  0.7818609E-02  0.8600345E-01
       -1   -1    0    0    0  501  0.00000000000E+00  0.00000000000E+00  0.10120670425E+04  0.10120670425E+04  0.50400001928E-02 0. -1.
        1   -1    0    0  501    0  0.00000000000E+00  0.00000000000E+00 -0.10014402323E+04  0.10014402323E+04  0.50400001928E-02 0.  1.
    10030    2    1    2    0    0  0.00000000000E+00  0.00000000000E+00  0.10626810210E+02  0.20135072748E+04  0.20134792318E+04 0.  0.
        3    1    3    3  502    0 -0.81019720571E+03 -0.59220070211E+03 -0.74709333117E+02  0.10063312965E+04  0.10100000352E+00 0. -1.
       -3    1    3    3    0  502  0.81019720571E+03  0.59220070211E+03  0.85336143328E+02  0.10071759783E+04  0.10100000352E+00 0.  1.
</event>
<event>
 5   0  0.2110896E-05  0.2000930E+04  0.7818609E-02  0.8606186E-01
        1   -1    0    0  501    0  0.00000000000E+00  0.00000000000E+00  0.12490914606E+04  0.12490914606E+04  0.50400001928E-02 0. -1.
       -1   -1    0    0    0  501  0.00000000000E+00  0.00000000000E+00 -0.80132645766E+03  0.80132645767E+03  0.50400001928E-02 0.  1.
    10030    2    1    2    0    0  0.00000000000E+00  0.00000000000E+00  0.44776500298E+03  0.20504179183E+04  0.20009298193E+04 0.  0.
        4    1    3    3  502    0 -0.36115303939E+03  0.63279190201E+03 -0.47869203633E+03  0.87178253462E+03  0.12699999809E+01 0.  1.
       -4    1    3    3    0  502  0.36115303939E+03 -0.63279190201E+03  0.92645703932E+03  0.11786353837E+04  0.12699999809E+01 0. -1.
</event>
<event>
 5   0  0.2110896E-05  0.1999883E+04  0.7818609E-02  0.8606675E-01
       -1   -1    0    0    0  501  0.00000000000E+00  0.00000000000E+00  0.44252940379E+03  0.44252940382E+03  0.50400001928E-02 0.  1.
        1   -1    0    0  501    0  0.00000000000E+00  0.00000000000E+00 -0.22594733090E+04  0.22594733090E+04  0.50400001928E-02 0. -1.
    10030    2    1    2    0    0  0.00000000000E+00  0.00000000000E+00 -0.18169439053E+04  0.27020027129E+04  0.19998833730E+04 0.  0.
        4    1    3    3  502    0 -0.75596150950E+03  0.16930651746E+03 -0.54252386904E+02  0.77658704282E+03  0.12699999809E+01 0.  1.
       -4    1    3    3    0  502  0.75596150950E+03 -0.16930651746E+03 -0.17626915183E+04  0.19254156700E+04  0.12699999809E+01 0. -1.
</event>
<event>
 5   0  0.4577279E-05  0.2024834E+04  0.7818609E-02  0.8595097E-01
       -2   -1    0    0    0  501  0.00000000000E+00  0.00000000000E+00  0.66124052379E+03  0.66124052379E+03  0.25500000920E-02 0.  1.
        2   -1    0    0  501    0  0.00000000000E+00  0.00000000000E+00 -0.15500986804E+04  0.15500986804E+04  0.25500000920E-02 0. -1.
    10030    2    1    2    0    0  0.00000000000E+00  0.00000000000E+00 -0.88885815662E+03  0.22113392042E+04  0.20248338829E+04 0.  0.
        1    1    3    3  502    0  0.95163814733E+03 -0.33739024022E+03 -0.36313680081E+03  0.10729937902E+04  0.50400001928E-02 0. -1.
       -1    1    3    3    0  502 -0.95163814733E+03  0.33739024022E+03 -0.52572135581E+03  0.11383454140E+04  0.50400001928E-02 0.  1.
</event>
<event>
 5   0  0.4473361E-05  0.2062365E+04  0.7818609E-02  0.8578006E-01
       -2   -1    0    0    0  501  0.00000000000E+00  0.00000000000E+00  0.11627341060E+04  0.11627341060E+04  0.25500000920E-02 0. -1.
        2   -1    0    0  501    0  0.00000000000E+00  0.00000000000E+00 -0.91451461230E+03  0.91451461230E+03  0.25500000920E-02 0.  1.
    10030    2    1    2    0    0  0.00000000000E+00  0.00000000000E+00  0.24821949368E+03  0.20772487183E+04  0.20623649824E+04 0.  0.
        2    1    3    3  502    0  0.82915589277E+03 -0.52172644392E+03  0.44836373089E+03  0.10773708795E+04  0.25500000920E-02 0. -1.
       -2    1    3    3    0  502 -0.82915589277E+03  0.52172644392E+03 -0.20014423721E+03  0.99987783878E+03  0.25500000920E-02 0.  1.
</event>
<event>
 5   0  0.4514680E-05  0.1987710E+04  0.7818609E-02  0.8612388E-01
        2   -1    0    0  501    0  0.00000000000E+00  0.00000000000E+00  0.21616600249E+04  0.21616600249E+04  0.25500000920E-02 0.  1.
       -2   -1    0    0    0  501  0.00000000000E+00  0.00000000000E+00 -0.45693951782E+03  0.45693951783E+03  0.25500000920E-02 0. -1.
    10030    2    1    2    0    0  0.00000000000E+00  0.00000000000E+00  0.17047205071E+04  0.26185995428E+04  0.19877101293E+04 0.  0.
        3    1    3    3  502    0  0.98287140196E+03 -0.13323641956E+03  0.93525930043E+03  0.13632674373E+04  0.10100000352E+00 0.  1.
       -3    1    3    3    0  502 -0.98287140196E+03  0.13323641956E+03  0.76946120667E+03  0.12553321055E+04  0.10100000352E+00 0. -1.
</event>
<event>
 5   0  0.4447313E-05  0.1997792E+04  0.7818609E-02  0.8607653E-01
       -2   -1    0    0    0  501  0.00000000000E+00  0.00000000000E+00  0.14989579746E+04  0.14989579746E+04  0.25500000920E-02 0.  1.
        2   -1    0    0  501    0  0.00000000000E+00  0.00000000000E+00 -0.66565822300E+03  0.66565822301E+03  0.25500000920E-02 0. -1.
    10030    2    1    2    0    0  0.00000000000E+00  0.00000000000E+00  0.83329975164E+03  0.21646161977E+04  0.19977924835E+04 0.  0.
        5    1    3    3  502    0 -0.26823563947E+03 -0.62941818079E+03  0.12051951990E+04  0.13858698215E+04  0.46999998093E+01 0.  1.
       -5    1    3    3    0  502  0.26823563947E+03  0.62941818079E+03 -0.37189544732E+03  0.77874637613E+03  0.46999998093E+01 0. -1.
</event>
<event>
 5   0  0.2256868E-05  0.2024246E+04  0.7818609E-02  0.8595368E-01
       -1   -1    0    0    0  501  0.00000000000E+00  0.00000000000E+00  0.68226368792E+03  0.68226368794E+03  0.50400001928E-02 0.  1.
        1   -1    0    0  501    0  0.00000000000E+00  0.00000000000E+00 -0.15014624244E+04  0.15014624244E+04  0.50400001928E-02 0. -1.
    10030    2    1    2    0    0  0.00000000000E+00  0.00000000000E+00 -0.81919873645E+03  0.21837261123E+04  0.20242463200E+04 0.  0.
        5    1    3    3  502    0 -0.60534654714E+03  0.60971258019E+03  0.16750242181E+03  0.87537022104E+03  0.46999998093E+01 0.  1.
       -5    1    3    3    0  502  0.60534654714E+03 -0.60971258019E+03 -0.98670115825E+03  0.13083558913E+04  0.46999998093E+01 0. -1.
</event>
<event>
 5   0  0.2093980E-05  0.2020166E+04  0.7818609E-02  0.8597250E-01
       -1   -1    0    0    0  501  0.00000000000E+00  0.00000000000E+00  0.68869603133E+03  0.68869603135E+03  0.50400001928E-02 0. -1.
        1   -1    0    0  501    0  0.00000000000E+00  0.00000000000E+00 -0.14814478007E+04  0.14814478007E+04  0.50400001928E-02 0.  1.
    10030    2    1    2    0    0  0.00000000000E+00  0.00000000000E+00 -0.79275176941E+03  0.21701438321E+04  0.20201655586E+04 0.  0.
        2    1    3    3  502    0  0.58173812161E+02  0.91573214335E+03 -0.85000272895E+03  0.12507814318E+04  0.25500000920E-02 0. -1.
       -2    1    3    3    0  502 -0.58173812161E+02 -0.91573214335E+03  0.57250959542E+02  0.91936240034E+03  0.25500000920E-02 0.  1.
</event>
<event>
 5   0  0.2256868E-05  0.1993333E+04  0.7818609E-02  0.8609744E-01
       -1   -1    0    0    0  501  0.00000000000E+00  0.00000000000E+00  0.49903825073E+03  0.49903825075E+03  0.50400001928E-02 0.  1.
        1   -1    0    0  501    0  0.00000000000E+00  0.00000000000E+00 -0.19905166934E+04  0.19905166934E+04  0.50400001928E-02 0. -1.
    10030    2    1    2    0    0  0.00000000000E+00  0.00000000000E+00 -0.14914784427E+04  0.24895549441E+04  0.19933328560E+04 0.  0.
        5    1    3    3  502    0  0.37350951298E+03 -0.14676795141E+03  0.39365615197E+03  0.56217207670E+03  0.46999998093E+01 0.  1.
       -5    1    3    3    0  502 -0.37350951298E+03  0.14676795141E+03 -0.18851345946E+04  0.19273828674E+04  0.46999998093E+01 0. -1.
</event>
<event>
 5   0  0.4473361E-05  0.2000766E+04  0.7818609E-02  0.8606263E-01
        2   -1    0    0  501    0  0.00000000000E+00  0.00000000000E+00  0.11324763021E+04  0.11324763021E+04  0.25500000920E-02 0.  1.
       -2   -1    0    0    0  501  0.00000000000E+00  0.00000000000E+00 -0.88369678778E+03  0.88369678778E+03  0.25500000920E-02 0. -1.
    10030    2    1    2    0    0  0.00000000000E+00  0.00000000000E+00  0.24877951430E+03  0.20161730899E+04  0.20007655239E+04 0.  0.
        2    1    3    3  502    0  0.36214021258E+02 -0.98742922380E+03  0.28191935543E+03  0.10275244281E+04  0.25500000920E-02 0. -1.
       -2    1    3    3    0  502 -0.36214021258E+02  0.98742922380E+03 -0.33139841128E+02  0.98864866177E+03  0.25500000920E-02 0.  1.
</event>
<event>
 5   0  0.4577279E-05  0.1998605E+04  0.7818609E-02  0.8607273E-01
        2   -1    0    0  501    0  0.00000000000E+00  0.00000000000E+00  0.94140807697E+03  0.94140807697E+03  0.25500000920E-02 0. -1.
       -2   -1    0    0    0  501  0.00000000000E+00  0.00000000000E+00 -0.10607571887E+04  0.10607571887E+04  0.25500000920E-02 0.  1.
    10030    2    1    2    0    0  0.00000000000E+00  0.00000000000E+00 -0.11934911176E+03  0.20021652657E+04  0.19986048986E+04 0.  0.
        1    1    3    3  502    0 -0.56924038200E+03 -0.75364438223E+03  0.26738969433E+03  0.98158632632E+03  0.50400001928E-02 0. -1.
       -1    1    3    3    0  502  0.56924038200E+03  0.75364438223E+03 -0.38673880609E+03  0.10205789394E+04  0.50400001928E-02 0.  1.
</event>
<event>
 5   0  0.4577279E-05  0.1998621E+04  0.7818609E-02  0.8607266E-01
        2   -1    0    0  501    0  0.00000000000E+00  0.00000000000E+00  0.26070114667E+04  0.26070114667E+04  0.25500000920E-02 0.  1.
       -2   -1    0    0    0  501  0.00000000000E+00  0.00000000000E+00 -0.38305209863E+03  0.38305209863E+03  0.25500000920E-02 0. -1.
    10030    2    1    2    0    0  0.00000000000E+00  0.00000000000E+00  0.22239593681E+04  0.29900635653E+04  0.19986207379E+04 0.  0.
        1    1    3    3  502    0 -0.13517706302E+03 -0.73502425812E+02 -0.36522358810E+03  0.39631264716E+03  0.50400001928E-02 0. -1.
       -1    1    3    3    0  502  0.13517706302E+03  0.73502425812E+02  0.25891829562E+04  0.25937509182E+04  0.50400001928E-02 0.  1.
</event>
<event>
 5   0  0.4514680E-05  0.2005013E+04  0.7818609E-02  0.8604281E-01
        2   -1    0    0  501    0  0.00000000000E+00  0.00000000000E+00  0.65976881884E+03  0.65976881884E+03  0.25500000920E-02 0. -1.
       -2   -1    0    0    0  501  0.00000000000E+00  0.00000000000E+00 -0.15232893316E+04  0.15232893316E+04  0.25500000920E-02 0.  1.
    10030    2    1    2    0    0  0.00000000000E+00  0.00000000000E+00 -0.86352051274E+03  0.21830581504E+04  0.20050125217E+04 0.  0.
        3    1    3    3  502    0 -0.22060593781E+03 -0.43734111706E+03  0.52060366363E+03  0.71481635212E+03  0.10100000352E+00 0. -1.
       -3    1    3    3    0  502  0.22060593781E+03  0.43734111706E+03 -0.13841241764E+04  0.14682417983E+04  0.10100000352E+00 0.  1.
</event>
<event>
 5   0  0.2110896E-05  0.1998939E+04  0.7818609E-02  0.8607117E-01
        1   -1    0    0  501    0  0.00000000000E+00  0.00000000000E+00  0.93881173221E+03  0.93881173223E+03  0.50400001928E-02 0. -1.
       -1   -1    0    0    0  501  0.00000000000E+00  0.00000000000E+00 -0.10640461711E+04  0.10640461712E+04  0.50400001928E-02 0.  1.
    10030    2    1    2    0    0  0.00000000000E+00  0.00000000000E+00 -0.12523443893E+03  0.20028579034E+04  0.19989387475E+04 0.  0.
        4    1    3    3  502    0 -0.26822402052E+03 -0.70763701179E+03  0.59153581254E+03  0.96052615584E+03  0.12699999809E+01 0.  1.
       -4    1    3    3    0  502  0.26822402052E+03  0.70763701179E+03 -0.71677025147E+03  0.10423317475E+04  0.12699999809E+01 0. -1.
</event>
<event>
 5   0  0.4514680E-05  0.2003307E+04  0.7818609E-02  0.8605076E-01
        2   -1    0    0  501    0  0.00000000000E+00  0.00000000000E+00  0.16523989614E+04  0.16523989614E+04  0.25500000920E-02 0. -1.
       -2   -1    0    0    0  501  0.00000000000E+00  0.00000000000E+00 -0.60718381907E+03  0.60718381907E+03  0.25500000920E-02 0.  1.
    10030    2    1    2    0    0  0.00000000000E+00  0.00000000000E+00  0.10452151423E+04  0.22595827805E+04  0.20033071777E+04 0.  0.
        3    1    3    3  502    0  0.86688793493E+02  0.86000838097E+03 -0.48284192478E+02  0.86571400341E+03  0.10100000352E+00 0. -1.
       -3    1    3    3    0  502 -0.86688793493E+02 -0.86000838097E+03  0.10934993348E+04  0.13938687771E+04  0.10100000352E+00 0.  1.
</event>
<event>
 5   0  0.2093980E-05  0.2018070E+04  0.7818609E-02  0.8598219E-01
       -1   -1    0    0    0  501  0.00000000000E+00  0.00000000000E+00  0.82446143600E+03  0.82446143602E+03  0.50400001928E-02 0. -1.
        1   -1    0    0  501    0  0.00000000000E+00  0.00000000000E+00 -0.12349290841E+04  0.12349290841E+04  0.50400001928E-02 0.  1.
    10030    2    1    2    0    0  0.00000000000E+00  0.00000000000E+00 -0.41046764814E+03  0.20593905202E+04  0.20180697769E+04 0.  0.
        2    1    3    3  502    0  0.71251389501E+03  0.22216253622E+03 -0.89819533979E+03  0.11678129608E+04  0.25500000920E-02 0.  1.
       -2    1    3    3    0  502 -0.71251389501E+03 -0.22216253622E+03  0.48772769166E+03  0.89157755933E+03  0.25500000920E-02 0. -1.
</event>
<event>
 5   0  0.4447313E-05  0.1998946E+04  0.7818609E-02  0.8607113E-01
       -2   -1    0    0    0  501  0.00000000000E+00  0.00000000000E+00  0.50470359439E+03  0.50470359439E+03  0.25500000920E-02 0. -1.
        2   -1    0    0  501    0  0.00000000000E+00  0.00000000000E+00 -0.19792737953E+04  0.19792737953E+04  0.25500000920E-02 0.  1.
    10030    2    1    2    0    0  0.00000000000E+00  0.00000000000E+00 -0.14745702009E+04  0.24839773897E+04  0.19989463212E+04 0.  0.
        5    1    3    3  502    0  0.33321011739E+03 -0.35137843193E+03  0.34917806081E+03  0.59702863658E+03  0.46999998093E+01 0. -1.
       -5    1    3    3    0  502 -0.33321011739E+03  0.35137843193E+03 -0.18237482617E+04  0.18869487531E+04  0.46999998093E+01 0.  1.
</event>
<event>
 5   0  0.4514680E-05  0.2004216E+04  0.7818609E-02  0.8604652E-01
       -2   -1    0    0    0  501  0.00000000000E+00  0.00000000000E+00  0.50274206131E+03  0.50274206132E+03  0.25500000920E-02 0. -1.
        2   -1    0    0  501    0  0.00000000000E+00  0.00000000000E+00 -0.19974860821E+04  0.19974860821E+04  0.25500000920E-02 0.  1.
    10030    2    1    2    0    0  0.00000000000E+00  0.00000000000E+00 -0.14947440208E+04  0.25002281435E+04  0.20042158271E+04 0.  0.
        3    1    3    3  502    0 -0.85758380423E+03 -0.50281591492E+03 -0.90490334426E+03  0.13442930849E+04  0.10100000352E+00 0.  1.
       -3    1    3    3    0  502  0.85758380423E+03  0.50281591492E+03 -0.58984067656E+03  0.11559350585E+04  0.10100000352E+00 0. -1.
</event>
<event>
 5   0  0.2093980E-05  0.2041906E+04  0.7818609E-02  0.8587275E-01
       -1   -1    0    0    0  501  0.00000000000E+00  0.00000000000E+00  0.76636147062E+03  0.76636147064E+03  0.50400001928E-02 0. -1.
        1   -1    0    0  501    0  0.00000000000E+00  0.00000000000E+00 -0.13601218811E+04  0.13601218811E+04  0.50400001928E-02 0.  1.
    10030    2    1    2    0    0  0.00000000000E+00  0.00000000000E+00 -0.59376041050E+03  0.21264833518E+04  0.20419059773E+04 0.  0.
        2    1    3    3  502    0 -0.74345262265E+03  0.10409598838E+03  0.42372521580E+03  0.86203296656E+03  0.25500000920E-02 0.  1.
       -2    1    3    3    0  502  0.74345262265E+03 -0.10409598838E+03 -0.10174856263E+04  0.12644503852E+04  0.25500000920E-02 0. -1.
</event>
<event>
 5   0  0.2093980E-05  0.1998918E+04  0.7818609E-02  0.8607127E-01
       -1   -1    0    0    0  501  0.00000000000E+00  0.00000000000E+00  0.71682058455E+03  0.71682058457E+03  0.50400001928E-02 0.  1.
        1   -1    0    0  501    0  0.00000000000E+00  0.00000000000E+00 -0.13935397744E+04  0.13935397744E+04  0.50400001928E-02 0. -1.
    10030    2    1    2    0    0  0.00000000000E+00  0.00000000000E+00 -0.67671918989E+03  0.21103603590E+04  0.19989177029E+04 0.  0.
        2    1    3    3  502    0  0.68528720555E+03  0.22575476386E+03  0.39181620597E+03  0.82103818837E+03  0.25500000920E-02 0.  1.
       -2    1    3    3    0  502 -0.68528720555E+03 -0.22575476386E+03 -0.10685353959E+04  0.12893221706E+04  0.25500000920E-02 0. -1.
</event>
<event>
 5   0  0.2256868E-05  0.1988240E+04  0.7818609E-02  0.8612138E-01
        1   -1    0    0  501    0  0.00000000000E+00  0.00000000000E+00  0.14603052307E+04  0.14603052307E+04  0.50400001928E-02 0. -1.
       -1   -1    0    0    0  501  0.00000000000E+00  0.00000000000E+00 -0.67675914864E+03  0.67675914866E+03  0.50400001928E-02 0.  1.
    10030    2    1    2    0    0  0.00000000000E+00  0.00000000000E+00  0.78354608209E+03  0.21370643794E+04  0.19882403524E+04 0.  0.
        5    1    3    3  502    0 -0.45977520445E+03 -0.45442050491E+03 -0.41997988245E+03  0.77090623657E+03  0.46999998093E+01 0.  1.
       -5    1    3    3    0  502  0.45977520445E+03  0.45442050491E+03  0.12035259645E+04  0.13661581428E+04  0.46999998093E+01 0. -1.
</event>
<event>
 5   0  0.4473361E-05  0.1986336E+04  0.7818609E-02  0.8613036E-01
        2   -1    0    0  501    0  0.00000000000E+00  0.00000000000E+00  0.15949148390E+04  0.15949148390E+04  0.25500000920E-02 0.  1.
       -2   -1    0    0    0  501  0.00000000000E+00  0.00000000000E+00 -0.61845498536E+03  0.61845498536E+03  0.25500000920E-02 0. -1.
    10030    2    1    2    0    0  0.00000000000E+00  0.00000000000E+00  0.97645985364E+03  0.22133698244E+04  0.19863363596E+04 0.  0.
        2    1    3    3  502    0 -0.39364515014E+03 -0.65629830630E+03 -0.21712930604E+03  0.79550556669E+03  0.25500000920E-02 0. -1.
       -2    1    3    3    0  502  0.39364515014E+03  0.65629830630E+03  0.11935891597E+04  0.14178642577E+04  0.25500000920E-02 0.  1.
</event>
<event>
 5   0  0.4473361E-05  0.1959342E+04  0.7818609E-02  0.8625869E-01
       -2   -1    0    0    0  501  0.00000000000E+00  0.00000000000E+00  0.91241542632E+03  0.91241542632E+03  0.25500000920E-02 0. -1.
        2   -1    0    0  501    0  0.00000000000E+00  0.00000000000E+00 -0.10518836806E+04  0.10518836806E+04  0.25500000920E-02 0.  1.
    10030    2    1    2    0    0  0.00000000000E+00  0.00000000000E+00 -0.13946825432E+03  0.19642991070E+04  0.19593416210E+04 0.  0.
        2    1    3    3  502    0 -0.40464106223E+02  0.11710262892E+03  0.90452949176E+03  0.91297533979E+03  0.25500000920E-02 0. -1.
       -2    1    3    3    0  502  0.40464106223E+02 -0.11710262892E+03 -0.10439977461E+04  0.10513237672E+04  0.25500000920E-02 0.  1.
</event>
<event>
 5   0  0.2142551E-05  0.1994948E+04  0.7818609E-02  0.8608986E-01
       -1   -1    0    0    0  501  0.00000000000E+00  0.00000000000E+00  0.81732649660E+03  0.81732649661E+03  0.50400001928E-02 0. -1.
        1   -1    0    0  501    0  0.00000000000E+00  0.00000000000E+00 -0.12173278442E+04  0.12173278442E+04  0.50400001928E-02 0.  1.
    10030    2    1    2    0    0  0.00000000000E+00  0.00000000000E+00 -0.40000134759E+03  0.20346543408E+04  0.19949479213E+04 0.  0.
        3    1    3    3  502    0 -0.19933141551E+03 -0.97723425313E+03 -0.21561863087E+03  0.10203975710E+04  0.10100000352E+00 0.  1.
       -3    1    3    3    0  502  0.19933141551E+03  0.97723425313E+03 -0.18438271672E+03  0.10142567698E+04  0.10100000352E+00 0. -1.
</event>
<event>
 5   0  0.4412054E-05  0.2024084E+04  0.7818609E-02  0.8595443E-01
       -2   -1    0    0    0  501  0.00000000000E+00  0.00000000000E+00  0.63490971028E+03  0.63490971028E+03  0.25500000920E-02 0.  1.
        2   -1    0    0  501    0  0.00000000000E+00  0.00000000000E+00 -0.16131885697E+04  0.16131885697E+04  0.25500000920E-02 0. -1.
    10030    2    1    2    0    0  0.00000000000E+00  0.00000000000E+00 -0.97827885939E+03  0.22480982800E+04  0.20240840767E+04 0.  0.
        4    1    3    3  502    0 -0.97345604373E+02 -0.63290651671E+03  0.38129249153E+03  0.74527337440E+03  0.12699999809E+01 0.  1.
       -4    1    3    3    0  502  0.97345604373E+02  0.63290651671E+03 -0.13595713509E+04  0.15028249056E+04  0.12699999809E+01 0. -1.
</event>
<event>
 5   0  0.2007644E-05  0.1986595E+04  0.7818609E-02  0.8612914E-01
        1   -1    0    0  501    0  0.00000000000E+00  0.00000000000E+00  0.25121030492E+04  0.25121030492E+04  0.50400001928E-02 0.  1.
       -1   -1    0    0    0  501  0.00000000000E+00  0.00000000000E+00 -0.39275450988E+03  0.39275450991E+03  0.50400001928E-02 0. -1.
    10030    2    1    2    0    0  0.00000000000E+00  0.00000000000E+00  0.21193485393E+04  0.29048575591E+04  0.19865948776E+04 0.  0.
        1    1    3    3  502    0  0.40657045332E+03  0.61664517467E+03  0.20308071136E+04  0.21609554224E+04  0.50400001928E-02 0.  1.
       -1    1    3    3    0  502 -0.40657045332E+03 -0.61664517467E+03  0.88541425761E+02  0.74390213674E+03  0.50400001928E-02 0. -1.
</event>
<event>
 5   0  0.4473361E-05  0.1999140E+04  0.7818609E-02  0.8607023E-01
        2   -1    0    0  501    0  0.00000000000E+00  0.00000000000E+00  0.84849733652E+03  0.84849733652E+03  0.25500000920E-02 0.  1.
       -2   -1    0    0    0  501  0.00000000000E+00  0.00000000000E+00 -0.11775405177E+04  0.11775405177E+04  0.25500000920E-02 0. -1.
    10030    2    1    2    0    0  0.00000000000E+00  0.00000000000E+00 -0.32904318122E+03  0.20260378543E+04  0.19991398080E+04 0.  0.
        2    1    3    3  502    0 -0.32872255988E+03 -0.38378420513E+03  0.70951556120E+03  0.87106898067E+03  0.25500000920E-02 0.  1.
       -2    1    3    3    0  502  0.32872255988E+03  0.38378420513E+03 -0.10385587424E+04  0.11549688736E+04  0.25500000920E-02 0. -1.
</event>
<event>
 5   0  0.2142551E-05  0.2031036E+04  0.7818609E-02  0.8592246E-01
       -1   -1    0    0    0  501  0.00000000000E+00  0.00000000000E+00  0.11759545804E+04  0.11759545805E+04  0.50400001928E-02 0.  1.
        1   -1    0    0  501    0  0.00000000000E+00  0.00000000000E+00 -0.87696971865E+03  0.87696971866E+03  0.50400001928E-02 0. -1.
    10030    2    1    2    0    0  0.00000000000E+00  0.00000000000E+00  0.29898486180E+03  0.20529242991E+04  0.20310357531E+04 0.  0.
        3    1    3    3  502    0  0.54243403262E+03 -0.56549073960E+03 -0.50342735833E+03  0.93137187612E+03  0.10100000352E+00 0. -1.
       -3    1    3    3    0  502 -0.54243403262E+03  0.56549073960E+03  0.80241222013E+03  0.11215524230E+04  0.10100000352E+00 0.  1.
</event>
<event>
 5   0  0.4577279E-05  0.1999208E+04  0.7818609E-02  0.8606991E-01
       -2   -1    0    0    0  501  0.00000000000E+00  0.00000000000E+00  0.86925232348E+03  0.86925232348E+03  0.25500000920E-02 0. -1.
        2   -1    0    0  501    0  0.00000000000E+00  0.00000000000E+00 -0.11495033409E+04  0.11495033409E+04  0.25500000920E-02 0.  1.
    10030    2    1    2    0    0  0.00000000000E+00  0.00000000000E+00 -0.28025101739E+03  0.20187556644E+04  0.19992082932E+04 0.  0.
        1    1    3    3  502    0 -0.11197415509E+03 -0.15482567696E+02  0.86277757311E+03  0.87015117192E+03  0.50400001928E-02 0. -1.
       -1    1    3    3    0  502  0.11197415509E+03  0.15482567696E+02 -0.11430285905E+04  0.11486044924E+04  0.50400001928E-02 0.  1.
</event>
<event>
 5   0  0.4447313E-05  0.2001520E+04  0.7818609E-02  0.8605910E-01
        2   -1    0    0  501    0  0.00000000000E+00  0.00000000000E+00  0.21665034874E+04  0.21665034874E+04  0.25500000920E-02 0. -1.
       -2   -1    0    0    0  501  0.00000000000E+00  0.00000000000E+00 -0.46227506200E+03  0.46227506201E+03  0.25500000920E-02 0.  1.
    10030    2    1    2    0    0  0.00000000000E+00  0.00000000000E+00  0.17042284254E+04  0.26287785494E+04  0.20015199564E+04 0.  0.
        5    1    3    3  502    0  0.80933591877E+03 -0.57973390330E+03  0.71828735230E+03  0.12276297644E+04  0.46999998093E+01 0. -1.
       -5    1    3    3    0  502 -0.80933591877E+03  0.57973390330E+03  0.98594107310E+03  0.14011487850E+04  0.46999998093E+01 0.  1.
</event>
<event>
 5   0  0.2007644E-05  0.1994286E+04  0.7818609E-02  0.8609297E-01
        1   -1    0    0  501    0  0.00000000000E+00  0.00000000000E+00  0.16585796240E+04  0.16585796240E+04  0.50400001928E-02 0.  1.
       -1   -1    0    0    0  501  0.00000000000E+00  0.00000000000E+00 -0.59948510910E+03  0.59948510912E+03  0.50400001928E-02 0. -1.
    10030    2    1    2    0    0  0.00000000000E+00  0.00000000000E+00  0.10590945149E+04  0.22580647331E+04  0.19942856233E+04 0.  0.
        1    1    3    3  502    0 -0.81822421047E+03  0.15196146587E+03 -0.92386805216E+02  0.83732817193E+03  0.50400001928E-02 0. -1.
       -1    1    3    3    0  502  0.81822421047E+03 -0.15196146587E+03  0.11514813201E+04  0.14207365612E+04  0.50400001928E-02 0.  1.
</event>
<event>
 5   0  0.2110896E-05  0.2000381E+04  0.7818609E-02  0.8606443E-01
        1   -1    0    0  501    0  0.00000000000E+00  0.00000000000E+00  0.12130833255E+04  0.12130833255E+04  0.50400001928E-02 0. -1.
       -1   -1    0    0    0  501  0.00000000000E+00  0.00000000000E+00 -0.82465943821E+03  0.82465943822E+03  0.50400001928E-02 0.  1.
    10030    2    1    2    0    0  0.00000000000E+00  0.00000000000E+00  0.38842388728E+03  0.20377427637E+04  0.20003805775E+04 0.  0.
        4    1    3    3  502    0 -0.38413672764E+03  0.41937320556E+03  0.10323453109E+04  0.11786319887E+04  0.12699999809E+01 0. -1.
       -4    1    3    3    0  502  0.38413672764E+03 -0.41937320556E+03 -0.64392142359E+03  0.85911077500E+03  0.12699999809E+01 0.  1.
</event>
<event>
 5   0  0.2110896E-05  0.2028880E+04  0.7818609E-02  0.8593236E-01
        1   -1    0    0  501    0  0.00000000000E+00  0.00000000000E+00  0.21141349710E+04  0.21141349710E+04  0.50400001928E-02 0. -1.
       -1   -1    0    0    0  501  0.00000000000E+00  0.00000000000E+00 -0.48676561516E+03  0.48676561519E+03  0.50400001928E-02 0.  1.
    10030    2    1    2    0    0  0.00000000000E+00  0.00000000000E+00  0.16273693558E+04  0.26009005862E+04  0.20288797004E+04 0.  0.
        4    1    3    3  502    0 -0.22077128873E+03  0.75433827040E+03  0.16358470280E+04  0.18148728055E+04  0.12699999809E+01 0. -1.
       -4    1    3    3    0  502  0.22077128873E+03 -0.75433827040E+03 -0.84776722402E+01  0.78602778065E+03  0.12699999809E+01 0.  1.
</event>
<event>
 5   0  0.4473361E-05  0.1999946E+04  0.7818609E-02  0.8606646E-01
        2   -1    0    0  501    0  0.00000000000E+00  0.00000000000E+00  0.62438642190E+03  0.62438642191E+03  0.25500000920E-02 0. -1.
       -2   -1    0    0    0  501  0.00000000000E+00  0.00000000000E+00 -0.16014852052E+04  0.16014852052E+04  0.25500000920E-02 0.  1.
    10030    2    1    2    0    0  0.00000000000E+00  0.00000000000E+00 -0.97709878327E+03  0.22258716271E+04  0.19999456163E+04 0.  0.
        2    1    3    3  502    0  0.91425611574E+03  0.36156437568E+03 -0.69180690398E+03  0.12021604865E+04  0.25500000920E-02 0. -1.
       -2    1    3    3    0  502 -0.91425611574E+03 -0.36156437568E+03 -0.28529187929E+03  0.10237111406E+04  0.25500000920E-02 0.  1.
</event>
<event>
 5   0  0.4473361E-05  0.1977893E+04  0.7818609E-02  0.8617026E-01
        2   -1    0    0  501    0  0.00000000000E+00  0.00000000000E+00  0.21201538884E+04  0.21201538885E+04  0.25500000920E-02 0. -1.
       -2   -1    0    0    0  501  0.00000000000E+00  0.00000000000E+00 -0.46129463795E+03  0.46129463796E+03  0.25500000920E-02 0.  1.
    10030    2    1    2    0    0  0.00000000000E+00  0.00000000000E+00  0.16588592505E+04  0.25814485264E+04  0.19778934454E+04 0.  0.
        2    1    3    3  502    0  0.69454157992E+02  0.41110737214E+02 -0.45698908849E+03  0.46406141811E+03  0.25500000920E-02 0.  1.
       -2    1    3    3    0  502 -0.69454157992E+02 -0.41110737214E+02  0.21158483390E+04  0.21173871083E+04  0.25500000920E-02 0. -1.
</event>
<event>
 5   0  0.4412054E-05  0.2096208E+04  0.7818609E-02  0.8562916E-01
        2   -1    0    0  501    0  0.00000000000E+00  0.00000000000E+00  0.15437141639E+04  0.15437141639E+04  0.25500000920E-02 0. -1.
       -2   -1    0    0    0  501  0.00000000000E+00  0.00000000000E+00 -0.71160941691E+03  0.71160941691E+03  0.25500000920E-02 0.  1.
    10030    2    1    2    0    0  0.00000000000E+00  0.00000000000E+00  0.83210474696E+03  0.22553235808E+04  0.20962075623E+04 0.  0.
        4    1    3    3  502    0 -0.91469699718E+03  0.30507962864E+03  0.85805983054E+03  0.12907410515E+04  0.12699999809E+01 0.  1.
       -4    1    3    3    0  502  0.91469699718E+03 -0.30507962864E+03 -0.25955083578E+02  0.96458252924E+03  0.12699999809E+01 0. -1.
</event>
<event>
 5   0  0.4447313E-05  0.2012381E+04  0.7818609E-02  0.8600854E-01
       -2   -1    0    0    0  501  0.00000000000E+00  0.00000000000E+00  0.72472948012E+03  0.72472948013E+03  0.25500000920E-02 0.  1.
        2   -1    0    0  501    0  0.00000000000E+00  0.00000000000E+00 -0.13969615682E+04  0.13969615682E+04  0.25500000920E-02 0. -1.
    10030    2    1    2    0    0  0.00000000000E+00  0.00000000000E+00 -0.67223208808E+03  0.21216910483E+04  0.20123809094E+04 0.  0.
        5    1    3    3  502    0  0.78630978514E+03 -0.24096308111E+03  0.27507144912E+03  0.86719817619E+03  0.46999998093E+01 0.  1.
       -5    1    3    3    0  502 -0.78630978514E+03  0.24096308111E+03 -0.94730353721E+03  0.12544928721E+04  0.46999998093E+01 0. -1.
</event>
<event>
 5   0  0.4473361E-05  0.1995374E+04  0.7818609E-02  0.8608786E-01
       -2   -1    0    0    0  501  0.00000000000E+00  0.00000000000E+00  0.10624443697E+04  0.10624443697E+04  0.25500000920E-02 0.  1.
        2   -1    0    0  501    0  0.00000000000E+00  0.00000000000E+00 -0.93687681646E+03  0.93687681646E+03  0.25500000920E-02 0. -1.
    10030    2    1    2    0    0  0.00000000000E+00  0.00000000000E+00  0.12556755328E+03  0.19993211862E+04  0.19953741492E+04 0.  0.
        2    1    3    3  502    0 -0.69480437774E+03  0.38436904383E+03  0.66803727888E+03  0.10376735957E+04  0.25500000920E-02 0.  1.
       -2    1    3    3    0  502  0.69480437774E+03 -0.38436904383E+03 -0.54246972560E+03  0.96164759053E+03  0.25500000920E-02 0. -1.
</event>
<event>
 5   0  0.4577279E-05  0.1999355E+04  0.7818609E-02  0.8606922E-01
        2   -1    0    0  501    0  0.00000000000E+00  0.00000000000E+00  0.88065065903E+03  0.88065065904E+03  0.25500000920E-02 0. -1.
       -2   -1    0    0    0  501  0.00000000000E+00  0.00000000000E+00 -0.11347913390E+04  0.11347913391E+04  0.25500000920E-02 0.  1.
    10030    2    1    2    0    0  0.00000000000E+00  0.00000000000E+00 -0.25414068002E+03  0.20154419981E+04  0.19993546365E+04 0.  0.
        1    1    3    3  502    0  0.94684587611E+03 -0.25950143989E+03 -0.31699179682E+03  0.10316694770E+04  0.50400001928E-02 0.  1.
       -1    1    3    3    0  502 -0.94684587611E+03  0.25950143989E+03  0.62851116802E+02  0.98377252113E+03  0.50400001928E-02 0. -1.
</event>
<event>
 5   0  0.4412054E-05  0.1998039E+04  0.7818609E-02  0.8607538E-01
        2   -1    0    0  501    0  0.00000000000E+00  0.00000000000E+00  0.13373885447E+04  0.13373885447E+04  0.25500000920E-02 0. -1.
       -2   -1    0    0    0  501  0.00000000000E+00  0.00000000000E+00 -0.74626015070E+03  0.74626015071E+03  0.25500000920E-02 0.  1.
    10030    2    1    2    0    0  0.00000000000E+00  0.00000000000E+00  0.59112839403E+03  0.20836486954E+04  0.19980388154E+04 0.  0.
        4    1    3    3  502    0  0.64847763159E+03 -0.64905753028E+03 -0.11664307313E+03  0.92488168741E+03  0.12699999809E+01 0.  1.
       -4    1    3    3    0  502 -0.64847763159E+03  0.64905753028E+03  0.70777146716E+03  0.11587670080E+04  0.12699999809E+01 0. -1.
</event>
<event>
 5   0  0.4412054E-05  0.2002155E+04  0.7818609E-02  0.8605614E-01
        2   -1    0    0  501    0  0.00000000000E+00  0.00000000000E+00  0.22178544369E+04  0.22178544369E+04  0.25500000920E-02 0.  1.
       -2   -1    0    0    0  501  0.00000000000E+00  0.00000000000E+00 -0.45185817718E+03  0.45185817719E+03  0.25500000920E-02 0. -1.
    10030    2    1    2    0    0  0.00000000000E+00  0.00000000000E+00  0.17659962597E+04  0.26697126141E+04  0.20021545026E+04 0.  0.
        4    1    3    3  502    0 -0.18598080228E+03 -0.98359656841E+03  0.86946657800E+03  0.13259052799E+04  0.12699999809E+01 0.  1.
       -4    1    3    3    0  502  0.18598080228E+03  0.98359656841E+03  0.89652968172E+03  0.13438073342E+04  0.12699999809E+01 0. -1.
</event>
<event>
 5   0  0.4447313E-05  0.1994158E+04  0.7818609E-02  0.8609357E-01
       -2   -1    0    0    0  501  0.00000000000E+00  0.00000000000E+00  0.61821721247E+03  0.61821721247E+03  0.25500000920E-02 0.  1.
        2   -1    0    0  501    0  0.00000000000E+00  0.00000000000E+00 -0.16081181876E+04  0.16081181876E+04  0.25500000920E-02 0. -1.
    10030    2    1    2    0    0  0.00000000000E+00  0.00000000000E+00 -0.98990097514E+03  0.22263354001E+04  0.19941578105E+04 0.  0.
        5    1    3    3  502    0 -0.22376956991E+03  0.57452778935E+03 -0.13697558822E+04  0.15021345705E+04  0.46999998093E+01 0. -1.
       -5    1    3    3    0  502  0.22376956991E+03 -0.57452778935E+03  0.37985490704E+03  0.72420082957E+03  0.46999998093E+01 0.  1.
</event>
<event>
 5   0  0.2110896E-05  0.2125480E+04  0.7818609E-02  0.8550102E-01
        1   -1    0    0  501    0  0.00000000000E+00  0.00000000000E+00  0.11160912706E+04  0.11160912706E+04  0.50400001928E-02 0.  1.
       -1   -1    0    0    0  501  0.00000000000E+00  0.00000000000E+00 -0.10119390265E+04  0.10119390266E+04  0.50400001928E-02 0. -1.
    10030    2    1    2    0    0  0.00000000000E+00  0.00000000000E+00  0.10415224406E+03  0.21280302972E+04  0.21254800060E+04 0.  0.
        4    1    3    3  502    0 -0.13921033739E+03  0.52943998508E+03  0.96406340580E+03  0.11086505667E+04  0.12699999809E+01 0.  1.
       -4    1    3    3    0  502  0.13921033739E+03 -0.52943998508E+03 -0.85991116174E+03  0.10193797304E+04  0.12699999809E+01 0. -1.
</event>
<event>
 5   0  0.4447313E-05  0.1978468E+04  0.7818609E-02  0.8616754E-01
       -2   -1    0    0    0  501  0.00000000000E+00  0.00000000000E+00  0.10523985604E+04  0.10523985604E+04  0.25500000920E-02 0.  1.
        2   -1    0    0  501    0  0.00000000000E+00  0.00000000000E+00 -0.92986029560E+03  0.92986029561E+03  0.25500000920E-02 0. -1.
    10030    2    1    2    0    0  0.00000000000E+00  0.00000000000E+00  0.12253826482E+03  0.19822588560E+04  0.19784677268E+04 0.  0.
        5    1    3    3  502    0 -0.56800717871E+02  0.33921861859E+03 -0.86801337925E+03  0.93368351667E+03  0.46999998093E+01 0. -1.
       -5    1    3    3    0  502  0.56800717871E+02 -0.33921861859E+03  0.99055164407E+03  0.10485753394E+04  0.46999998093E+01 0.  1.
</event>
<event>
 5   0  0.4514680E-05  0.1997551E+04  0.7818609E-02  0.8607767E-01
        2   -1    0    0  501    0  0.00000000000E+00  0.00000000000E+00  0.69643697129E+03  0.69643697129E+03  0.25500000920E-02 0. -1.
       -2   -1    0    0    0  501  0.00000000000E+00  0.00000000000E+00 -0.14323655235E+04  0.14323655235E+04  0.25500000920E-02 0.  1.
    10030    2    1    2    0    0  0.00000000000E+00  0.00000000000E+00 -0.73592855221E+03  0.21288024948E+04  0.19975508073E+04 0.  0.
        3    1    3    3  502    0 -0.16689965767E+03  0.74762082774E+03  0.31505279017E+03  0.82828175677E+03  0.10100000352E+00 0. -1.
       -3    1    3    3    0  502  0.16689965767E+03 -0.74762082774E+03 -0.10509813424E+04  0.13005207380E+04  0.10100000352E+00 0.  1.
</event>
<event>
 5   0  0.1601500E-05  0.1992953E+04  0.7818609E-02  0.8609922E-01
       -4   -1    0    0    0  501  0.00000000000E+00  0.00000000000E+00  0.13182296750E+04  0.13182302867E+04  0.12699999809E+01 0. -1.
        4   -1    0    0  501    0  0.00000000000E+00  0.00000000000E+00 -0.75325554974E+03  0.75325662036E+03  0.12699999809E+01 0.  1.
    10030    2    1    2    0    0  0.00000000000E+00  0.00000000000E+00  0.56497412523E+03  0.20714869071E+04  0.19929531465E+04 0.  0.
        4    1    3    3  502    0 -0.49178962251E+03  0.83030611121E+03  0.54066732019E+03  0.11061591365E+04  0.12699999809E+01 0.  1.
       -4    1    3    3    0  502  0.49178962251E+03 -0.83030611121E+03  0.24306805041E+02  0.96532777066E+03  0.12699999809E+01 0. -1.
</event>
<event>
 5   0  0.2007644E-05  0.1998039E+04  0.7818609E-02  0.8607538E-01
       -1   -1    0    0    0  501  0.00000000000E+00  0.00000000000E+00  0.70971262481E+03  0.70971262482E+03  0.50400001928E-02 0. -1.
        1   -1    0    0  501    0  0.00000000000E+00  0.00000000000E+00 -0.14062597969E+04  0.14062597969E+04  0.50400001928E-02 0.  1.
    10030    2    1    2    0    0  0.00000000000E+00  0.00000000000E+00 -0.69654717206E+03  0.21159724217E+04  0.19980393706E+04 0.  0.
        1    1    3    3  502    0  0.57151442658E+03  0.53336090337E+03  0.31048532968E+03  0.84113241110E+03  0.50400001928E-02 0.  1.
       -1    1    3    3    0  502 -0.57151442658E+03 -0.53336090337E+03 -0.10070325017E+04  0.12748400106E+04  0.50400001928E-02 0. -1.
</event>
<event>
 5   0  0.2256868E-05  0.1999056E+04  0.7818609E-02  0.8607062E-01
       -1   -1    0    0    0  501  0.00000000000E+00  0.00000000000E+00  0.60250151914E+03  0.60250151917E+03  0.50400001928E-02 0.  1.
        1   -1    0    0  501    0  0.00000000000E+00  0.00000000000E+00 -0.16581802407E+04  0.16581802407E+04  0.50400001928E-02 0. -1.
    10030    2    1    2    0    0  0.00000000000E+00  0.00000000000E+00 -0.10556787216E+04  0.22606817599E+04  0.19990558912E+04 0.  0.
        5    1    3    3  502    0  0.80976879635E+03 -0.41473195408E+03 -0.59780266359E+02  0.91176963512E+03  0.46999998093E+01 0.  1.
       -5    1    3    3    0  502 -0.80976879635E+03  0.41473195408E+03 -0.99589845522E+03  0.13489121248E+04  0.46999998093E+01 0. -1.
</event>
<event>
 5   0  0.2256868E-05  0.1988874E+04  0.7818609E-02  0.8611840E-01
        1   -1    0    0  501    0  0.00000000000E+00  0.00000000000E+00  0.14972524905E+04  0.14972524905E+04  0.50400001928E-02 0.  1.
       -1   -1    0    0    0  501  0.00000000000E+00  0.00000000000E+00 -0.66048002212E+03  0.66048002214E+03  0.50400001928E-02 0. -1.
    10030    2    1    2    0    0  0.00000000000E+00  0.00000000000E+00  0.83677246840E+03  0.21577325127E+04  0.19888744134E+04 0.  0.
        5    1    3    3  502    0 -0.20107484092E+03  0.97364727935E+03  0.39503811247E+03  0.10698118136E+04  0.46999998093E+01 0. -1.
       -5    1    3    3    0  502  0.20107484092E+03 -0.97364727935E+03  0.44173435593E+03  0.10879206991E+04  0.46999998093E+01 0.  1.
</event>
<event>
 5   0  0.4577279E-05  0.2000300E+04  0.7818609E-02  0.8606480E-01
        2   -1    0    0  501    0  0.00000000000E+00  0.00000000000E+00  0.14161005462E+04  0.14161005462E+04  0.25500000920E-02 0.  1.
       -2   -1    0    0    0  501  0.00000000000E+00  0.00000000000E+00 -0.70637675553E+03  0.70637675553E+03  0.25500000920E-02 0. -1.
    10030    2    1    2    0    0  0.00000000000E+00  0.00000000000E+00  0.70972379071E+03  0.21224773018E+04  0.20003004868E+04 0.  0.
        1    1    3    3  502    0 -0.43242051607E+03 -0.12523393719E+03  0.13025128598E+04  0.13781185696E+04  0.50400001928E-02 0.  1.
       -1    1    3    3    0  502  0.43242051607E+03  0.12523393719E+03 -0.59278906911E+03  0.74435873221E+03  0.50400001928E-02 0. -1.
</event>
<event>
 5   0  0.4577279E-05  0.2048677E+04  0.7818609E-02  0.8584195E-01
        2   -1    0    0  501    0  0.00000000000E+00  0.00000000000E+00  0.13357775837E+04  0.13357775837E+04  0.25500000920E-02 0. -1.
       -2   -1    0    0    0  501  0.00000000000E+00  0.00000000000E+00 -0.78551175564E+03  0.78551175564E+03  0.25500000920E-02 0.  1.
    10030    2    1    2    0    0  0.00000000000E+00  0.00000000000E+00  0.55026582806E+03  0.21212893393E+04  0.20486766411E+04 0.  0.
        1    1    3    3  502    0  0.24002543622E+03 -0.70683544050E+03  0.10014510609E+04  0.12490527520E+04  0.50400001928E-02 0. -1.
       -1    1    3    3    0  502 -0.24002543622E+03  0.70683544050E+03 -0.45118523279E+03  0.87223658734E+03  0.50400001928E-02 0.  1.
</event>
<event>
 5   0  0.2110896E-05  0.1983206E+04  0.7818609E-02  0.8614513E-01
        1   -1    0    0  501    0  0.00000000000E+00  0.00000000000E+00  0.62395895320E+03  0.62395895322E+03  0.50400001928E-02 0.  1.
       -1   -1    0    0    0  501  0.00000000000E+00  0.00000000000E+00 -0.15758665330E+04  0.15758665330E+04  0.50400001928E-02 0. -1.
    10030    2    1    2    0    0  0.00000000000E+00  0.00000000000E+00 -0.95190757975E+03  0.21998254862E+04  0.19832055187E+04 0.  0.
        4    1    3    3  502    0  0.44037364406E+02  0.69044251538E+03 -0.12639145147E+04  0.14408787839E+04  0.12699999809E+01 0. -1.
       -4    1    3    3    0  502 -0.44037364406E+02 -0.69044251538E+03  0.31200693497E+03  0.75894670227E+03  0.12699999809E+01 0.  1.
</event>
<event>
 5   0  0.4473361E-05  0.2043230E+04  0.7818609E-02  0.8586672E-01
       -2   -1    0    0    0  501  0.00000000000E+00  0.00000000000E+00  0.70781618705E+03  0.70781618705E+03  0.25500000920E-02 0. -1.
        2   -1    0    0  501    0  0.00000000000E+00  0.00000000000E+00 -0.14745311476E+04  0.14745311476E+04  0.25500000920E-02 0.  1.
    10030    2    1    2    0    0  0.00000000000E+00  0.00000000000E+00 -0.76671496055E+03  0.21823473347E+04  0.20432298105E+04 0.  0.
        2    1    3    3  502    0  0.48673320026E+03  0.33828119954E+03  0.50537416615E+03  0.77893929546E+03  0.25500000920E-02 0. -1.
       -2    1    3    3    0  502 -0.48673320026E+03 -0.33828119954E+03 -0.12720891267E+04  0.14034080392E+04  0.25500000920E-02 0.  1.
</event>
<event>
 5   0  0.1601500E-05  0.2003516E+04  0.7818609E-02  0.8604979E-01
        3   -1    0    0  501    0  0.00000000000E+00  0.00000000000E+00  0.10756381605E+04  0.10756381652E+04  0.10100000352E+00 0. -1.
       -3   -1    0    0    0  501  0.00000000000E+00  0.00000000000E+00 -0.93295193460E+03  0.93295194007E+03  0.10100000352E+00 0.  1.
    10030    2    1    2    0    0  0.00000000000E+00  0.00000000000E+00  0.14268622586E+03  0.20085901053E+04  0.20035156231E+04 0.  0.
        1    1    3    3  502    0 -0.27490542131E+03 -0.24764058074E+03 -0.86193892099E+03  0.93799656260E+03  0.50400001928E-02 0.  1.
       -1    1    3    3    0  502  0.27490542131E+03  0.24764058074E+03  0.10046251469E+04  0.10705935427E+04  0.50400001928E-02 0. -1.
</event>
<event>
 5   0  0.4447313E-05  0.1988645E+04  0.7818609E-02  0.8611948E-01
        2   -1    0    0  501    0  0.00000000000E+00  0.00000000000E+00  0.15580191181E+04  0.15580191181E+04  0.25500000920E-02 0. -1.
       -2   -1    0    0    0  501  0.00000000000E+00  0.00000000000E+00 -0.63457296694E+03  0.63457296694E+03  0.25500000920E-02 0.  1.
    10030    2    1    2    0    0  0.00000000000E+00  0.00000000000E+00  0.92344615120E+03  0.21925920851E+04  0.19886445779E+04 0.  0.
        5    1    3    3  502    0 -0.86002776227E+03  0.21512954196E+03  0.95815038850E+03  0.13053745549E+04  0.46999998093E+01 0. -1.
       -5    1    3    3    0  502  0.86002776227E+03 -0.21512954196E+03 -0.34704237298E+02  0.88721753014E+03  0.46999998093E+01 0.  1.
</event>
<event>
 5   0  0.4447313E-05  0.1990887E+04  0.7818609E-02  0.8610893E-01
        2   -1    0    0  501    0  0.00000000000E+00  0.00000000000E+00  0.18717459930E+04  0.18717459930E+04  0.25500000920E-02 0.  1.
       -2   -1    0    0    0  501  0.00000000000E+00  0.00000000000E+00 -0.52940301709E+03  0.52940301709E+03  0.25500000920E-02 0. -1.
    10030    2    1    2    0    0  0.00000000000E+00  0.00000000000E+00  0.13423429759E+04  0.24011490101E+04  0.19908872152E+04 0.  0.
        5    1    3    3  502    0  0.82913712930E+03 -0.35203601319E+03  0.16020743522E+03  0.91492417504E+03  0.46999998093E+01 0. -1.
       -5    1    3    3    0  502 -0.82913712930E+03  0.35203601319E+03  0.11821355407E+04  0.14862248351E+04  0.46999998093E+01 0.  1.
</event>
<event>
 5   0  0.2007644E-05  0.2003323E+04  0.7818609E-02  0.8605069E-01
        1   -1    0    0  501    0  0.00000000000E+00  0.00000000000E+00  0.14644400131E+04  0.14644400131E+04  0.50400001928E-02 0.  1.
       -1   -1    0    0    0  501  0.00000000000E+00  0.00000000000E+00 -0.68512600451E+03  0.68512600453E+03  0.50400001928E-02 0. -1.
    10030    2    1    2    0    0  0.00000000000E+00  0.00000000000E+00  0.77931400855E+03  0.21495660176E+04  0.20033231741E+04 0.  0.
        1    1    3    3  502    0 -0.98984828818E+03 -0.19409598479E+02  0.22640022427E+03  0.10155951101E+04  0.50400001928E-02 0.  1.
       -1    1    3    3    0  502  0.98984828818E+03  0.19409598479E+02  0.55291378428E+03  0.11339709075E+04  0.50400001928E-02 0. -1.
</event>
<event>
 5   0  0.2110896E-05  0.2009370E+04  0.7818609E-02  0.8602252E-01
        1   -1    0    0  501    0  0.00000000000E+00  0.00000000000E+00  0.17197082922E+04  0.17197082922E+04  0.50400001928E-02 0.  1.
       -1   -1    0    0    0  501  0.00000000000E+00  0.00000000000E+00 -0.58695552646E+03  0.58695552648E+03  0.50400001928E-02 0. -1.
    10030    2    1    2    0    0  0.00000000000E+00  0.00000000000E+00  0.11327527658E+04  0.23066638187E+04  0.20093703353E+04 0.  0.
        4    1    3    3  502    0 -0.35723143251E+03  0.13396337400E+03 -0.50055995466E+03  0.62938252522E+03  0.12699999809E+01 0. -1.
       -4    1    3    3    0  502  0.35723143251E+03 -0.13396337400E+03  0.16333127204E+04  0.16772812935E+04  0.12699999809E+01 0.  1.
</event>
<event>
 5   0  0.4514680E-05  0.2008470E+04  0.7818609E-02  0.8602671E-01
        2   -1    0    0  501    0  0.00000000000E+00  0.00000000000E+00  0.11055803324E+04  0.11055803324E+04  0.25500000920E-02 0. -1.
       -2   -1    0    0    0  501  0.00000000000E+00  0.00000000000E+00 -0.91217998925E+03  0.91217998926E+03  0.25500000920E-02 0.  1.
    10030    2    1    2    0    0  0.00000000000E+00  0.00000000000E+00  0.19340034311E+03  0.20177603216E+04  0.20084703191E+04 0.  0.
        3    1    3    3  502    0 -0.38785314309E+03  0.22802492973E+03 -0.80526258081E+03  0.92242791774E+03  0.10100000352E+00 0.  1.
       -3    1    3    3    0  502  0.38785314309E+03 -0.22802492973E+03  0.99866292391E+03  0.10953324039E+04  0.10100000352E+00 0. -1.
</event>
<event>
 5   0  0.4577279E-05  0.2000950E+04  0.7818609E-02  0.8606177E-01
        2   -1    0    0  501    0  0.00000000000E+00  0.00000000000E+00  0.11988487026E+04  0.11988487026E+04  0.25500000920E-02 0. -1.
       -2   -1    0    0    0  501  0.00000000000E+00  0.00000000000E+00 -0.83492585139E+03  0.83492585140E+03  0.25500000920E-02 0.  1.
    10030    2    1    2    0    0  0.00000000000E+00  0.00000000000E+00  0.36392285121E+03  0.20337745540E+04  0.20009495483E+04 0.  0.
        1    1    3    3  502    0  0.34835506653E+03  0.57550846211E+03  0.93464225114E+03  0.11515716999E+04  0.50400001928E-02 0. -1.
       -1    1    3    3    0  502 -0.34835506653E+03 -0.57550846211E+03 -0.57071939993E+03  0.88220285412E+03  0.50400001928E-02 0.  1.
</event>
<event>
 5   0  0.4447313E-05  0.2000682E+04  0.7818609E-02  0.8606302E-01
        2   -1    0    0  501    0  0.00000000000E+00  0.00000000000E+00  0.20897044942E+04  0.20897044942E+04  0.25500000920E-02 0. -1.
       -2   -1    0    0    0  501  0.00000000000E+00  0.00000000000E+00 -0.47886276792E+03  0.47886276793E+03  0.25500000920E-02 0.  1.
    10030    2    1    2    0    0  0.00000000000E+00  0.00000000000E+00  0.16108417263E+04  0.25685672621E+04  0.20006815621E+04 0.  0.
        5    1    3    3  502    0 -0.82161246209E+02  0.48587150185E+03  0.19230588713E+04  0.19851949776E+04  0.46999998093E+01 0. -1.
       -5    1    3    3    0  502  0.82161246209E+02 -0.48587150185E+03 -0.31221714502E+03  0.58337228451E+03  0.46999998093E+01 0.  1.
</event>
<event>
 5   0  0.1601500E-05  0.2010911E+04  0.7818609E-02  0.8601536E-01
       -4   -1    0    0    0  501  0.00000000000E+00  0.00000000000E+00  0.13431312248E+04  0.13431318252E+04  0.12699999809E+01 0. -1.
        4   -1    0    0  501    0  0.00000000000E+00  0.00000000000E+00 -0.75267350981E+03  0.75267458126E+03  0.12699999809E+01 0.  1.
    10030    2    1    2    0    0  0.00000000000E+00  0.00000000000E+00  0.59045771494E+03  0.20958064064E+04  0.20109112810E+04 0.  0.
        1    1    3    3  502    0 -0.91651472330E+03 -0.10727740999E+03  0.71137690210E+03  0.11651458182E+04  0.50400001928E-02 0. -1.
       -1    1    3    3    0  502  0.91651472330E+03  0.10727740999E+03 -0.12091918716E+03  0.93066058827E+03  0.50400001928E-02 0.  1.
</event>
<event>
 5   0  0.4514680E-05  0.1995668E+04  0.7818609E-02  0.8608649E-01
       -2   -1    0    0    0  501  0.00000000000E+00  0.00000000000E+00  0.96467563303E+03  0.96467563303E+03  0.25500000920E-02 0. -1.
        2   -1    0    0  501    0  0.00000000000E+00  0.00000000000E+00 -0.10321323568E+04  0.10321323568E+04  0.25500000920E-02 0.  1.
    10030    2    1    2    0    0  0.00000000000E+00  0.00000000000E+00 -0.67456723785E+02  0.19968079899E+04  0.19956682437E+04 0.  0.
        3    1    3    3  502    0  0.37136693387E+03  0.90870455256E+03  0.14530275365E+03  0.99235591591E+03  0.10100000352E+00 0.  1.
       -3    1    3    3    0  502 -0.37136693387E+03 -0.90870455256E+03 -0.21275947743E+03  0.10044520739E+04  0.10100000352E+00 0. -1.
</event>
<event>
 5   0  0.4412054E-05  0.1998989E+04  0.7818609E-02  0.8607093E-01
       -2   -1    0    0    0  501  0.00000000000E+00  0.00000000000E+00  0.34142813672E+03  0.34142813673E+03  0.25500000920E-02 0. -1.
        2   -1    0    0  501    0  0.00000000000E+00  0.00000000000E+00 -0.29259141799E+04  0.29259141799E+04  0.25500000920E-02 0.  1.
    10030    2    1    2    0    0  0.00000000000E+00  0.00000000000E+00 -0.25844860432E+04  0.32673423166E+04  0.19989891712E+04 0.  0.
        4    1    3    3  502    0  0.63778138534E+03  0.76468624820E+03 -0.11509023808E+04  0.15218699211E+04  0.12699999809E+01 0.  1.
       -4    1    3    3    0  502 -0.63778138534E+03 -0.76468624820E+03 -0.14335836624E+04  0.17454723955E+04  0.12699999809E+01 0. -1.
</event>
<event>
 5   0  0.1601500E-05  0.1988251E+04  0.7818609E-02  0.8612134E-01
        3   -1    0    0  501    0  0.00000000000E+00  0.00000000000E+00  0.13465546373E+04  0.13465546411E+04  0.10100000352E+00 0.  1.
       -3   -1    0    0    0  501  0.00000000000E+00  0.00000000000E+00 -0.73393624598E+03  0.73393625293E+03  0.10100000352E+00 0. -1.
    10030    2    1    2    0    0  0.00000000000E+00  0.00000000000E+00  0.61261839131E+03  0.20804908940E+04  0.19882507555E+04 0.  0.
        2    1    3    3  502    0 -0.64862264446E+03 -0.29465938668E+03  0.10318372483E+04  0.12538834061E+04  0.25500000920E-02 0.  1.
       -2    1    3    3    0  502  0.64862264446E+03  0.29465938668E+03 -0.41921885697E+03  0.82660748794E+03  0.25500000920E-02 0. -1.
</event>
<event>
 5   0  0.4514680E-05  0.1917395E+04  0.7818609E-02  0.8646246E-01
       -2   -1    0    0    0  501  0.00000000000E+00  0.00000000000E+00  0.42802697582E+03  0.42802697583E+03  0.25500000920E-02 0. -1.
        2   -1    0    0  501    0  0.00000000000E+00  0.00000000000E+00 -0.21472964413E+04  0.21472964413E+04  0.25500000920E-02 0.  1.
    10030    2    1    2    0    0  0.00000000000E+00  0.00000000000E+00 -0.17192694655E+04  0.25753234171E+04  0.19173949014E+04 0.  0.
        3    1    3    3  502    0 -0.44958470179E+03  0.72966890484E+03 -0.28262084471E+03  0.90245092212E+03  0.10100000352E+00 0. -1.
       -3    1    3    3    0  502  0.44958470179E+03 -0.72966890484E+03 -0.14366486208E+04  0.16728724950E+04  0.10100000352E+00 0.  1.
</event>
<event>
 5   0  0.4412054E-05  0.2003556E+04  0.7818609E-02  0.8604960E-01
        2   -1    0    0  501    0  0.00000000000E+00  0.00000000000E+00  0.82494852370E+03  0.82494852370E+03  0.25500000920E-02 0.  1.
       -2   -1    0    0    0  501  0.00000000000E+00  0.00000000000E+00 -0.12165110385E+04  0.12165110385E+04  0.25500000920E-02 0. -1.
    10030    2    1    2    0    0  0.00000000000E+00  0.00000000000E+00 -0.39156251481E+03  0.20414595622E+04  0.20035558243E+04 0.  0.
        4    1    3    3  502    0 -0.37143734147E+03 -0.63947477836E+03 -0.88433456841E+03  0.11527978715E+04  0.12699999809E+01 0. -1.
       -4    1    3    3    0  502  0.37143734147E+03  0.63947477836E+03  0.49277205359E+03  0.88866169069E+03  0.12699999809E+01 0.  1.
</event>
<event>
 5   0  0.4577279E-05  0.2002323E+04  0.7818609E-02  0.8605535E-01
        2   -1    0    0  501    0  0.00000000000E+00  0.00000000000E+00  0.15909989028E+04  0.15909989028E+04  0.25500000920E-02 0.  1.
       -2   -1    0    0    0  501  0.00000000000E+00  0.00000000000E+00 -0.62999717146E+03  0.62999717146E+03  0.25500000920E-02 0. -1.
    10030    2    1    2    0    0  0.00000000000E+00  0.00000000000E+00  0.96100173138E+03  0.22209960743E+04  0.20023234590E+04 0.  0.
        1    1    3    3  502    0  0.78125433676E+02  0.26140925408E+03 -0.58796577271E+03  0.64818371733E+03  0.50400001928E-02 0. -1.
       -1    1    3    3    0  502 -0.78125433676E+02 -0.26140925408E+03  0.15489675041E+04  0.15728123570E+04  0.50400001928E-02 0.  1.
</event>
<event>
 5   0  0.2110896E-05  0.2000835E+04  0.7818609E-02  0.8606230E-01
       -1   -1    0    0    0  501  0.00000000000E+00  0.00000000000E+00  0.11170716540E+04  0.11170716541E+04  0.50400001928E-02 0. -1.
        1   -1    0    0  501    0  0.00000000000E+00  0.00000000000E+00 -0.89594514029E+03  0.89594514030E+03  0.50400001928E-02 0.  1.
    10030    2    1    2    0    0  0.00000000000E+00  0.00000000000E+00  0.22112651376E+03  0.20130167944E+04  0.20008347456E+04 0.  0.
        4    1    3    3  502    0  0.71540716357E+03 -0.65497236029E+03 -0.13595327368E+03  0.97942897035E+03  0.12699999809E+01 0.  1.
       -4    1    3    3    0  502 -0.71540716357E+03  0.65497236029E+03  0.35707978745E+03  0.10335878240E+04  0.12699999809E+01 0. -1.
</event>
<event>
 5   0  0.4514680E-05  0.2002958E+04  0.7818609E-02  0.8605239E-01
        2   -1    0    0  501    0  0.00000000000E+00  0.00000000000E+00  0.87196429569E+03  0.87196429569E+03  0.25500000920E-02 0. -1.
       -2   -1    0    0    0  501  0.00000000000E+00  0.00000000000E+00 -0.11502310456E+04  0.11502310456E+04  0.25500000920E-02 0.  1.
    10030    2    1    2    0    0  0.00000000000E+00  0.00000000000E+00 -0.27826674990E+03  0.20221953413E+04  0.20029582158E+04 0.  0.
        3    1    3    3  502    0  0.63852818599E+03 -0.28117239346E+03  0.58622659370E+03  0.91128359390E+03  0.10100000352E+00 0. -1.
       -3    1    3    3    0  502 -0.63852818599E+03  0.28117239346E+03 -0.86449334360E+03  0.11109117474E+04  0.10100000352E+00 0.  1.
</event>
<event>
 5   0  0.4447313E-05  0.2000307E+04  0.7818609E-02  0.8606477E-01
       -2   -1    0    0    0  501  0.00000000000E+00  0.00000000000E+00  0.98545747168E+03  0.98545747168E+03  0.25500000920E-02 0.  1.
        2   -1    0    0  501    0  0.00000000000E+00  0.00000000000E+00 -0.10150682595E+04  0.10150682595E+04  0.25500000920E-02 0. -1.
    10030    2    1    2    0    0  0.00000000000E+00  0.00000000000E+00 -0.29610787775E+02  0.20005257311E+04  0.20003065771E+04 0.  0.
        5    1    3    3  502    0  0.96109606817E+03  0.32899814352E+02  0.25999090200E+03  0.99619546735E+03  0.46999998093E+01 0.  1.
       -5    1    3    3    0  502 -0.96109606817E+03 -0.32899814352E+02 -0.28960168977E+03  0.10043302638E+04  0.46999998093E+01 0. -1.
</event>
<event>
 5   0  0.2142551E-05  0.1974931E+04  0.7818609E-02  0.8618432E-01
        1   -1    0    0  501    0  0.00000000000E+00  0.00000000000E+00  0.68338417253E+03  0.68338417255E+03  0.50400001928E-02 0. -1.
       -1   -1    0    0    0  501  0.00000000000E+00  0.00000000000E+00 -0.14268526414E+04  0.14268526414E+04  0.50400001928E-02 0.  1.
    10030    2    1    2    0    0  0.00000000000E+00  0.00000000000E+00 -0.74346846882E+03  0.21102368139E+04  0.19749314030E+04 0.  0.
        3    1    3    3  502    0  0.58346216513E+03  0.33815716894E+03  0.39901006518E+03  0.78357348817E+03  0.10100000352E+00 0. -1.
       -3    1    3    3    0  502 -0.58346216513E+03 -0.33815716894E+03 -0.11424785340E+04  0.13266633258E+04  0.10100000352E+00 0.  1.
</event>
<event>
 5   0  0.2110896E-05  0.2001087E+04  0.7818609E-02  0.8606112E-01
       -1   -1    0    0    0  501  0.00000000000E+00  0.00000000000E+00  0.91546786938E+03  0.91546786939E+03  0.50400001928E-02 0.  1.
        1   -1    0    0  501    0  0.00000000000E+00  0.00000000000E+00 -0.10935257055E+04  0.10935257055E+04  0.50400001928E-02 0. -1.
    10030    2    1    2    0    0  0.00000000000E+00  0.00000000000E+00 -0.17805783613E+03  0.20089935749E+04  0.20010873522E+04 0.  0.
        4    1    3    3  502    0  0.34813289958E+02  0.44431609522E+03 -0.98836798773E+03  0.10842055385E+04  0.12699999809E+01 0. -1.
       -4    1    3    3    0  502 -0.34813289958E+02 -0.44431609522E+03  0.81031015160E+03  0.92478803642E+03  0.12699999809E+01 0.  1.
</event>
<event>
 5   0  0.4412054E-05  0.2002176E+04  0.7818609E-02  0.8605604E-01
       -2   -1    0    0    0  501  0.00000000000E+00  0.00000000000E+00  0.73691632615E+03  0.73691632615E+03  0.25500000920E-02 0. -1.
        2   -1    0    0  501    0  0.00000000000E+00  0.00000000000E+00 -0.13599609204E+04  0.13599609204E+04  0.25500000920E-02 0.  1.
    10030    2    1    2    0    0  0.00000000000E+00  0.00000000000E+00 -0.62304459428E+03  0.20968772466E+04  0.20021762212E+04 0.  0.
        4    1    3    3  502    0  0.72113688005E+02  0.49070684541E+03  0.59919572963E+03  0.77783721140E+03  0.12699999809E+01 0. -1.
       -4    1    3    3    0  502 -0.72113688005E+02 -0.49070684541E+03 -0.12222403239E+04  0.13190400352E+04  0.12699999809E+01 0.  1.
</event>
<event>
 5   0  0.2142551E-05  0.1991316E+04  0.7818609E-02  0.8610692E-01
       -1   -1    0    0    0  501  0.00000000000E+00  0.00000000000E+00  0.43732084844E+03  0.43732084847E+03  0.50400001928E-02 0.  1.
        1   -1    0    0  501    0  0.00000000000E+00  0.00000000000E+00 -0.22668354538E+04  0.22668354538E+04  0.50400001928E-02 0. -1.
    10030    2    1    2    0    0  0.00000000000E+00  0.00000000000E+00 -0.18295146054E+04  0.27041563023E+04  0.19913155491E+04 0.  0.
        3    1    3    3  502    0 -0.22618493798E+03 -0.45248929125E+03  0.24980264021E+03  0.56418751681E+03  0.10100000352E+00 0.  1.
       -3    1    3    3    0  502  0.22618493798E+03  0.45248929125E+03 -0.20793172456E+04  0.21399687855E+04  0.10100000352E+00 0. -1.
</event>
<event>
 5   0  0.4447313E-05  0.2003173E+04  0.7818609E-02  0.8605138E-01
        2   -1    0    0  501    0  0.00000000000E+00  0.00000000000E+00  0.17277726232E+04  0.17277726232E+04  0.25500000920E-02 0.  1.
       -2   -1    0    0    0  501  0.00000000000E+00  0.00000000000E+00 -0.58061798323E+03  0.58061798324E+03  0.25500000920E-02 0. -1.
    10030    2    1    2    0    0  0.00000000000E+00  0.00000000000E+00  0.11471546400E+04  0.23083906065E+04  0.20031733385E+04 0.  0.
        5    1    3    3  502    0  0.83742606977E+02  0.60550522730E+03 -0.34072566747E+03  0.69983246208E+03  0.46999998093E+01 0. -1.
       -5    1    3    3    0  502 -0.83742606977E+02 -0.60550522730E+03  0.14878803075E+04  0.16085581444E+04  0.46999998093E+01 0.  1.
</event>
<event>
 5   0  0.4473361E-05  0.2005084E+04  0.7818609E-02  0.8604247E-01
       -2   -1    0    0    0  501  0.00000000000E+00  0.00000000000E+00  0.56893771250E+03  0.56893771251E+03  0.25500000920E-02 0.  1.
        2   -1    0    0  501    0  0.00000000000E+00  0.00000000000E+00 -0.17666089690E+04  0.17666089690E+04  0.25500000920E-02 0. -1.
    10030    2    1    2    0    0  0.00000000000E+00  0.00000000000E+00 -0.11976712565E+04  0.23355466815E+04  0.20050840039E+04 0.  0.
        2    1    3    3  502    0  0.79625763995E+03 -0.53333834023E+03 -0.25602746182E+03  0.99198088467E+03  0.25500000920E-02 0.  1.
       -2    1    3    3    0  502 -0.79625763995E+03  0.53333834023E+03 -0.94164379463E+03  0.13435657968E+04  0.25500000920E-02 0. -1.
</event>
<event>
 5   0  0.4447313E-05  0.1988977E+04  0.7818609E-02  0.8611792E-01
       -2   -1    0    0    0  501  0.00000000000E+00  0.00000000000E+00  0.13085777680E+04  0.13085777680E+04  0.25500000920E-02 0. -1.
        2   -1    0    0  501    0  0.00000000000E+00  0.00000000000E+00 -0.75578781155E+03  0.75578781155E+03  0.25500000920E-02 0.  1.
    10030    2    1    2    0    0  0.00000000000E+00  0.00000000000E+00  0.55278995649E+03  0.20643655796E+04  0.19889767495E+04 0.  0.
        5    1    3    3  502    0  0.49391192264E+03 -0.86266283660E+03  0.30663486774E+03  0.10402803416E+04  0.46999998093E+01 0.  1.
       -5    1    3    3    0  502 -0.49391192264E+03  0.86266283660E+03  0.24615508874E+03  0.10240852380E+04  0.46999998093E+01 0. -1.
</event>
<event>
 5   0  0.2256868E-05  0.1977541E+04  0.7818609E-02  0.8617194E-01
       -1   -1    0    0    0  501  0.00000000000E+00  0.00000000000E+00  0.11670779115E+04  0.11670779116E+04  0.50400001928E-02 0. -1.
        1   -1    0    0  501    0  0.00000000000E+00  0.00000000000E+00 -0.83770470282E+03  0.83770470283E+03  0.50400001928E-02 0.  1.
    10030    2    1    2    0    0  0.00000000000E+00  0.00000000000E+00  0.32937320873E+03  0.20047826144E+04  0.19775405483E+04 0.  0.
        5    1    3    3  502    0 -0.20407516636E+03  0.42468987300E+03 -0.71656176484E+03  0.85760772768E+03  0.46999998093E+01 0.  1.
       -5    1    3    3    0  502  0.20407516636E+03 -0.42468987300E+03  0.10459349736E+04  0.11471748867E+04  0.46999998093E+01 0. -1.
</event>
<event>
 5   0  0.2110896E-05  0.1991996E+04  0.7818609E-02  0.8610372E-01
        1   -1    0    0  501    0  0.00000000000E+00  0.00000000000E+00  0.11167295498E+04  0.11167295498E+04  0.50400001928E-02 0.  1.
       -1   -1    0    0    0  501  0.00000000000E+00  0.00000000000E+00 -0.88831916281E+03  0.88831916282E+03  0.50400001928E-02 0. -1.
    10030    2    1    2    0    0  0.00000000000E+00  0.00000000000E+00  0.22841038697E+03  0.20050487126E+04  0.19919962437E+04 0.  0.
        4    1    3    3  502    0  0.32662420487E+03 -0.91728853024E+03  0.32512303567E+03  0.10265516159E+04  0.12699999809E+01 0.  1.
       -4    1    3    3    0  502 -0.32662420487E+03  0.91728853024E+03 -0.96712648704E+02  0.97849709669E+03  0.12699999809E+01 0. -1.
</event>
<event>
 5   0  0.4514680E-05  0.2008160E+04  0.7818609E-02  0.8602815E-01
       -2   -1    0    0    0  501  0.00000000000E+00  0.00000000000E+00  0.91172260638E+03  0.91172260638E+03  0.25500000920E-02 0.  1.
        2   -1    0    0  501    0  0.00000000000E+00  0.00000000000E+00 -0.11057928609E+04  0.11057928609E+04  0.25500000920E-02 0. -1.
    10030    2    1    2    0    0  0.00000000000E+00  0.00000000000E+00 -0.19407025451E+03  0.20175154673E+04  0.20081597041E+04 0.  0.
        3    1    3    3  502    0 -0.64726820335E+03  0.67285843022E+03  0.27412037888E+03  0.97305528441E+03  0.10100000352E+00 0.  1.
       -3    1    3    3    0  502  0.64726820335E+03 -0.67285843022E+03 -0.46819063339E+03  0.10444601829E+04  0.10100000352E+00 0. -1.
</event>
<event>
 5   0  0.2093980E-05  0.1996778E+04  0.7818609E-02  0.8608128E-01
       -1   -1    0    0    0  501  0.00000000000E+00  0.00000000000E+00  0.17525544389E+04  0.17525544389E+04  0.50400001928E-02 0.  1.
        1   -1    0    0  501    0  0.00000000000E+00  0.00000000000E+00 -0.56875898210E+03  0.56875898212E+03  0.50400001928E-02 0. -1.
    10030    2    1    2    0    0  0.00000000000E+00  0.00000000000E+00  0.11837954568E+04  0.23213134211E+04  0.19967784843E+04 0.  0.
        2    1    3    3  502    0 -0.76010576508E+03 -0.19490103029E+03 -0.12570767130E+03  0.79470095278E+03  0.25500000920E-02 0. -1.
       -2    1    3    3    0  502  0.76010576508E+03  0.19490103029E+03  0.13095031281E+04  0.15266124683E+04  0.25500000920E-02 0.  1.
</event>
<event>
 5   0  0.4412054E-05  0.2019155E+04  0.7818609E-02  0.8597717E-01
        2   -1    0    0  501    0  0.00000000000E+00  0.00000000000E+00  0.62660456589E+03  0.62660456590E+03  0.25500000920E-02 0.  1.
       -2   -1    0    0    0  501  0.00000000000E+00  0.00000000000E+00 -0.16266189465E+04  0.16266189465E+04  0.25500000920E-02 0. -1.
    10030    2    1    2    0    0  0.00000000000E+00  0.00000000000E+00 -0.10000143806E+04  0.22532235124E+04  0.20191551291E+04 0.  0.
        4    1    3    3  502    0 -0.79945850263E+03  0.61599742052E+03 -0.47137060766E+03  0.11139024114E+04  0.12699999809E+01 0. -1.
       -4    1    3    3    0  502  0.79945850263E+03 -0.61599742052E+03 -0.52864377293E+03  0.11393211010E+04  0.12699999809E+01 0.  1.
</event>
<event>
 5   0  0.2110896E-05  0.1989058E+04  0.7818609E-02  0.8611754E-01
        1   -1    0    0  501    0  0.00000000000E+00  0.00000000000E+00  0.85276675131E+03  0.85276675133E+03  0.50400001928E-02 0.  1.
       -1   -1    0    0    0  501  0.00000000000E+00  0.00000000000E+00 -0.11598569430E+04  0.11598569430E+04  0.50400001928E-02 0. -1.
    10030    2    1    2    0    0  0.00000000000E+00  0.00000000000E+00 -0.30709019172E+03  0.20126236944E+04  0.19890575028E+04 0.  0.
        4    1    3    3  502    0 -0.44664307311E+03 -0.87928828126E+03 -0.28331398235E+03  0.10261122462E+04  0.12699999809E+01 0. -1.
       -4    1    3    3    0  502  0.44664307311E+03  0.87928828126E+03 -0.23776209372E+02  0.98651144816E+03  0.12699999809E+01 0.  1.
</event>
<event>
 5   0  0.2007644E-05  0.1998446E+04  0.7818609E-02  0.8607348E-01
       -1   -1    0    0    0  501  0.00000000000E+00  0.00000000000E+00  0.10292178178E+04  0.10292178178E+04  0.50400001928E-02 0.  1.
        1   -1    0    0  501    0  0.00000000000E+00  0.00000000000E+00 -0.97010219781E+03  0.97010219783E+03  0.50400001928E-02 0. -1.
    10030    2    1    2    0    0  0.00000000000E+00  0.00000000000E+00  0.59115620022E+02  0.19993200157E+04  0.19984458633E+04 0.  0.
        1    1    3    3  502    0  0.94133848418E+03 -0.30667570089E+03  0.16481435803E+03  0.10036592549E+04  0.50400001928E-02 0. -1.
       -1    1    3    3    0  502 -0.94133848418E+03  0.30667570089E+03 -0.10569873801E+03  0.99566076078E+03  0.50400001928E-02 0.  1.
</event>
<event>
 5   0  0.2256868E-05  0.1999805E+04  0.7818609E-02  0.8606712E-01
        1   -1    0    0  501    0  0.00000000000E+00  0.00000000000E+00  0.89877012125E+03  0.89877012127E+03  0.50400001928E-02 0.  1.
       -1   -1    0    0    0  501  0.00000000000E+00  0.00000000000E+00 -0.11124143914E+04  0.11124143914E+04  0.50400001928E-02 0. -1.
    10030    2    1    2    0    0  0.00000000000E+00  0.00000000000E+00 -0.21364427019E+03  0.20111845127E+04  0.19998048080E+04 0.  0.
        5    1    3    3  502    0  0.41833212394E+03 -0.68000192728E+03  0.49858205681E+03  0.94128133116E+03  0.46999998093E+01 0.  1.
       -5    1    3    3    0  502 -0.41833212394E+03  0.68000192728E+03 -0.71222632700E+03  0.10699031815E+04  0.46999998093E+01 0. -1.
</event>
<event>
 5   0  0.2142551E-05  0.2011686E+04  0.7818609E-02  0.8601176E-01
        1   -1    0    0  501    0  0.00000000000E+00  0.00000000000E+00  0.12009491557E+04  0.12009491557E+04  0.50400001928E-02 0. -1.
       -1   -1    0    0    0  501  0.00000000000E+00  0.00000000000E+00 -0.84243386934E+03  0.84243386936E+03  0.50400001928E-02 0.  1.
    10030    2    1    2    0    0  0.00000000000E+00  0.00000000000E+00  0.35851528633E+03  0.20433830250E+04  0.20116861029E+04 0.  0.
        3    1    3    3  502    0  0.28852729654E+02 -0.15844450543E+03 -0.82925244798E+03  0.84474657382E+03  0.10100000352E+00 0.  1.
       -3    1    3    3    0  502 -0.28852729654E+02  0.15844450543E+03  0.11877677343E+04  0.11986364512E+04  0.10100000352E+00 0. -1.
</event>
<event>
 5   0  0.4473361E-05  0.1990443E+04  0.7818609E-02  0.8611102E-01
        2   -1    0    0  501    0  0.00000000000E+00  0.00000000000E+00  0.84807936790E+03  0.84807936790E+03  0.25500000920E-02 0. -1.
       -2   -1    0    0    0  501  0.00000000000E+00  0.00000000000E+00 -0.11678928155E+04  0.11678928155E+04  0.25500000920E-02 0.  1.
    10030    2    1    2    0    0  0.00000000000E+00  0.00000000000E+00 -0.31981344762E+03  0.20159721834E+04  0.19904429665E+04 0.  0.
        2    1    3    3  502    0  0.74403344106E+01 -0.57531577708E+03 -0.98237012046E+03  0.11384615301E+04  0.25500000920E-02 0.  1.
       -2    1    3    3    0  502 -0.74403344106E+01  0.57531577708E+03  0.66255667285E+03  0.87751065331E+03  0.25500000920E-02 0. -1.
</event>
<event>
 5   0  0.2110896E-05  0.1997117E+04  0.7818609E-02  0.8607970E-01
        1   -1    0    0  501    0  0.00000000000E+00  0.00000000000E+00  0.17824569340E+04  0.17824569341E+04  0.50400001928E-02 0. -1.
       -1   -1    0    0    0  501  0.00000000000E+00  0.00000000000E+00 -0.55940697621E+03  0.55940697623E+03  0.50400001928E-02 0.  1.
    10030    2    1    2    0    0  0.00000000000E+00  0.00000000000E+00  0.12230499578E+04  0.23418639103E+04  0.19971167655E+04 0.  0.
        4    1    3    3  502    0  0.17460242255E+03  0.35607283790E+03  0.16861509756E+04  0.17321606731E+04  0.12699999809E+01 0. -1.
       -4    1    3    3    0  502 -0.17460242255E+03 -0.35607283790E+03 -0.46310101780E+03  0.60970323719E+03  0.12699999809E+01 0.  1.
</event>
<event>
 5   0  0.4447313E-05  0.1967455E+04  0.7818609E-02  0.8621989E-01
        2   -1    0    0  501    0  0.00000000000E+00  0.00000000000E+00  0.97550582791E+03  0.97550582791E+03  0.25500000920E-02 0.  1.
       -2   -1    0    0    0  501  0.00000000000E+00  0.00000000000E+00 -0.99201848697E+03  0.99201848697E+03  0.25500000920E-02 0. -1.
    10030    2    1    2    0    0  0.00000000000E+00  0.00000000000E+00 -0.16512659062E+02  0.19675243149E+04  0.19674550215E+04 0.  0.
        5    1    3    3  502    0 -0.61350008386E+03  0.11802359004E+03  0.75162950154E+03  0.97738473402E+03  0.46999998093E+01 0.  1.
       -5    1    3    3    0  502  0.61350008386E+03 -0.11802359004E+03 -0.76814216060E+03  0.99013958087E+03  0.46999998093E+01 0. -1.
</event>
<event>
 5   0  0.4412054E-05  0.2001421E+04  0.7818609E-02  0.8605957E-01
        2   -1    0    0  501    0  0.00000000000E+00  0.00000000000E+00  0.12160787186E+04  0.12160787186E+04  0.25500000920E-02 0.  1.
       -2   -1    0    0    0  501  0.00000000000E+00  0.00000000000E+00 -0.82348400502E+03  0.82348400503E+03  0.25500000920E-02 0. -1.
    10030    2    1    2    0    0  0.00000000000E+00  0.00000000000E+00  0.39259471355E+03  0.20395627236E+04  0.20014208689E+04 0.  0.
        4    1    3    3  502    0  0.35416530752E+03  0.92558213373E+03  0.54782572660E+02  0.99254123063E+03  0.12699999809E+01 0. -1.
       -4    1    3    3    0  502 -0.35416530752E+03 -0.92558213373E+03  0.33781214089E+03  0.10470214930E+04  0.12699999809E+01 0.  1.
</event>
<event>
 5   0  0.2007644E-05  0.2005892E+04  0.7818609E-02  0.8603871E-01
        1   -1    0    0  501    0  0.00000000000E+00  0.00000000000E+00  0.12073462092E+04  0.12073462092E+04  0.50400001928E-02 0. -1.
       -1   -1    0    0    0  501  0.00000000000E+00  0.00000000000E+00 -0.83314977783E+03  0.83314977784E+03  0.50400001928E-02 0.  1.
    10030    2    1    2    0    0  0.00000000000E+00  0.00000000000E+00  0.37419643136E+03  0.20404959870E+04  0.20058915484E+04 0.  0.
        1    1    3    3  502    0  0.57141977218E+03 -0.82351865641E+03  0.22228824051E+03  0.10267013175E+04  0.50400001928E-02 0.  1.
       -1    1    3    3    0  502 -0.57141977218E+03  0.82351865641E+03  0.15190819085E+03  0.10137946695E+04  0.50400001928E-02 0. -1.
</event>
<event>
 5   0  0.4447313E-05  0.2001506E+04  0.7818609E-02  0.8605917E-01
        2   -1    0    0  501    0  0.00000000000E+00  0.00000000000E+00  0.95204823569E+03  0.95204823569E+03  0.25500000920E-02 0. -1.
       -2   -1    0    0    0  501  0.00000000000E+00  0.00000000000E+00 -0.10519493968E+04  0.10519493968E+04  0.25500000920E-02 0.  1.
    10030    2    1    2    0    0  0.00000000000E+00  0.00000000000E+00 -0.99901161136E+02  0.20039976325E+04  0.20015060003E+04 0.  0.
        5    1    3    3  502    0  0.28136138075E+03  0.73962530967E+03 -0.66330983617E+03  0.10325753503E+04  0.46999998093E+01 0.  1.
       -5    1    3    3    0  502 -0.28136138075E+03 -0.73962530967E+03  0.56340867504E+03  0.97142228222E+03  0.46999998093E+01 0. -1.
</event>
<event>
 5   0  0.4577279E-05  0.1998853E+04  0.7818609E-02  0.8607157E-01
        2   -1    0    0  501    0  0.00000000000E+00  0.00000000000E+00  0.10087382630E+04  0.10087382630E+04  0.25500000920E-02 0. -1.
       -2   -1    0    0    0  501  0.00000000000E+00  0.00000000000E+00 -0.99020040213E+03  0.99020040214E+03  0.25500000920E-02 0.  1.
    10030    2    1    2    0    0  0.00000000000E+00  0.00000000000E+00  0.18537860912E+02  0.19989386652E+04  0.19988527046E+04 0.  0.
        1    1    3    3  502    0  0.87741170114E+03 -0.34952549759E+03  0.33613718506E+03  0.10025006603E+04  0.50400001928E-02 0. -1.
       -1    1    3    3    0  502 -0.87741170114E+03  0.34952549759E+03 -0.31759932415E+03  0.99643800485E+03  0.50400001928E-02 0.  1.
</event>
<event>
 5   0  0.4514680E-05  0.1993856E+04  0.7818609E-02  0.8609499E-01
       -2   -1    0    0    0  501  0.00000000000E+00  0.00000000000E+00  0.40834205713E+03  0.40834205714E+03  0.25500000920E-02 0. -1.
        2   -1    0    0  501    0  0.00000000000E+00  0.00000000000E+00 -0.24339031830E+04  0.24339031830E+04  0.25500000920E-02 0.  1.
    10030    2    1    2    0    0  0.00000000000E+00  0.00000000000E+00 -0.20255611259E+04  0.28422452402E+04  0.19938555942E+04 0.  0.
        3    1    3    3  502    0  0.13842944492E+03  0.19146657904E+03 -0.23934165452E+04  0.24050498812E+04  0.10100000352E+00 0.  1.
       -3    1    3    3    0  502 -0.13842944492E+03 -0.19146657904E+03  0.36785541934E+03  0.43719535891E+03  0.10100000352E+00 0. -1.
</event>
<event>
 5   0  0.2007644E-05  0.1973569E+04  0.7818609E-02  0.8619079E-01
       -1   -1    0    0    0  501  0.00000000000E+00  0.00000000000E+00  0.12197809148E+04  0.12197809148E+04  0.50400001928E-02 0.  1.
        1   -1    0    0  501    0  0.00000000000E+00  0.00000000000E+00 -0.79829352631E+03  0.79829352633E+03  0.50400001928E-02 0. -1.
    10030    2    1    2    0    0  0.00000000000E+00  0.00000000000E+00  0.42148738845E+03  0.20180744411E+04  0.19735685524E+04 0.  0.
        1    1    3    3  502    0 -0.74795038526E+03  0.54631911398E+03 -0.13729765055E+03  0.93634662277E+03  0.50400001928E-02 0. -1.
       -1    1    3    3    0  502  0.74795038526E+03 -0.54631911398E+03  0.55878503900E+03  0.10817278183E+04  0.50400001928E-02 0.  1.
</event>
<event>
 5   0  0.2093980E-05  0.1995081E+04  0.7818609E-02  0.8608924E-01
       -1   -1    0    0    0  501  0.00000000000E+00  0.00000000000E+00  0.32935767013E+03  0.32935767017E+03  0.50400001928E-02 0.  1.
        1   -1    0    0  501    0  0.00000000000E+00  0.00000000000E+00 -0.30212958143E+04  0.30212958143E+04  0.50400001928E-02 0. -1.
    10030    2    1    2    0    0  0.00000000000E+00  0.00000000000E+00 -0.26919381442E+04  0.33506534845E+04  0.19950809009E+04 0.  0.
        2    1    3    3  502    0 -0.58341957679E+03  0.12211831217E+03 -0.26176102878E+01  0.59606890260E+03  0.25500000920E-02 0.  1.
       -2    1    3    3    0  502  0.58341957679E+03 -0.12211831217E+03 -0.26893205339E+04  0.27545845819E+04  0.25500000920E-02 0. -1.
</event>
<event>
 5   0  0.4577279E-05  0.1997779E+04  0.7818609E-02  0.8607660E-01
        2   -1    0    0  501    0  0.00000000000E+00  0.00000000000E+00  0.82028463692E+03  0.82028463692E+03  0.25500000920E-02 0. -1.
       -2   -1    0    0    0  501  0.00000000000E+00  0.00000000000E+00 -0.12163831597E+04  0.12163831597E+04  0.25500000920E-02 0.  1.
    10030    2    1    2    0    0  0.00000000000E+00  0.00000000000E+00 -0.39609852280E+03  0.20366677966E+04  0.19977791855E+04 0.  0.
        1    1    3    3  502    0  0.39529691026E+03  0.89237448429E+03 -0.41476323760E+03  0.10604812166E+04  0.50400001928E-02 0.  1.
       -1    1    3    3    0  502 -0.39529691026E+03 -0.89237448429E+03  0.18664714793E+02  0.97618658005E+03  0.50400001928E-02 0. -1.
</event>
<event>
 5   0  0.4514680E-05  0.1993364E+04  0.7818609E-02  0.8609729E-01
       -2   -1    0    0    0  501  0.00000000000E+00  0.00000000000E+00  0.20455264465E+04  0.20455264465E+04  0.25500000920E-02 0.  1.
        2   -1    0    0  501    0  0.00000000000E+00  0.00000000000E+00 -0.48563316699E+03  0.48563316700E+03  0.25500000920E-02 0. -1.
    10030    2    1    2    0    0  0.00000000000E+00  0.00000000000E+00  0.15598932795E+04  0.25311596135E+04  0.19933644789E+04 0.  0.
        3    1    3    3  502    0 -0.82274868323E+03  0.19473778302E+03  0.14501004322E+04  0.16785796000E+04  0.10100000352E+00 0. -1.
       -3    1    3    3    0  502  0.82274868323E+03 -0.19473778302E+03  0.10979284732E+03  0.85258001350E+03  0.10100000352E+00 0.  1.
</event>
<event>
 5   0  0.2256868E-05  0.2011823E+04  0.7818609E-02  0.8601113E-01
        1   -1    0    0  501    0  0.00000000000E+00  0.00000000000E+00  0.95887988271E+03  0.95887988272E+03  0.50400001928E-02 0.  1.
       -1   -1    0    0    0  501  0.00000000000E+00  0.00000000000E+00 -0.10552499049E+04  0.10552499049E+04  0.50400001928E-02 0. -1.
    10030    2    1    2    0    0  0.00000000000E+00  0.00000000000E+00 -0.96370022173E+02  0.20141297876E+04  0.20118229595E+04 0.  0.
        5    1    3    3  502    0 -0.91895043787E+03  0.34315793138E+03 -0.27117015183E+03  0.10177340588E+04  0.46999998093E+01 0. -1.
       -5    1    3    3    0  502  0.91895043787E+03 -0.34315793138E+03  0.17480012966E+03  0.99639572884E+03  0.46999998093E+01 0.  1.
</event>
<event>
 5   0  0.4514680E-05  0.2003024E+04  0.7818609E-02  0.8605208E-01
       -2   -1    0    0    0  501  0.00000000000E+00  0.00000000000E+00  0.76971096452E+03  0.76971096453E+03  0.25500000920E-02 0. -1.
        2   -1    0    0  501    0  0.00000000000E+00  0.00000000000E+00 -0.13031203433E+04  0.13031203433E+04  0.25500000920E-02 0.  1.
    10030    2    1    2    0    0  0.00000000000E+00  0.00000000000E+00 -0.53340937875E+03  0.20728313078E+04  0.20030237306E+04 0.  0.
        3    1    3    3  502    0  0.46589924318E+03  0.65662468574E+03 -0.88312156496E+03  0.11950404978E+04  0.10100000352E+00 0.  1.
       -3    1    3    3    0  502 -0.46589924318E+03 -0.65662468574E+03  0.34971218621E+03  0.87779080999E+03  0.10100000352E+00 0. -1.
</event>
<event>
 5   0  0.2110896E-05  0.2009839E+04  0.7818609E-02  0.8602034E-01
       -1   -1    0    0    0  501  0.00000000000E+00  0.00000000000E+00  0.16399735436E+04  0.16399735436E+04  0.50400001928E-02 0. -1.
        1   -1    0    0  501    0  0.00000000000E+00  0.00000000000E+00 -0.61578045129E+03  0.61578045132E+03  0.50400001928E-02 0.  1.
    10030    2    1    2    0    0  0.00000000000E+00  0.00000000000E+00  0.10241930923E+04  0.22557539949E+04  0.20098394451E+04 0.  0.
        4    1    3    3  502    0 -0.85451869032E+03  0.20951429471E+03  0.10570617215E+04  0.13753107023E+04  0.12699999809E+01 0. -1.
       -4    1    3    3    0  502  0.85451869032E+03 -0.20951429471E+03 -0.32868629261E+02  0.88044329260E+03  0.12699999809E+01 0.  1.
</event>
<event>
 5   0  0.2110896E-05  0.2027275E+04  0.7818609E-02  0.8593974E-01
        1   -1    0    0  501    0  0.00000000000E+00  0.00000000000E+00  0.77081411892E+03  0.77081411894E+03  0.50400001928E-02 0.  1.
       -1   -1    0    0    0  501  0.00000000000E+00  0.00000000000E+00 -0.13329561939E+04  0.13329561939E+04  0.50400001928E-02 0. -1.
    10030    2    1    2    0    0  0.00000000000E+00  0.00000000000E+00 -0.56214207496E+03  0.21037703128E+04  0.20272754664E+04 0.  0.
        4    1    3    3  502    0 -0.10024268500E+04  0.11776050560E+03 -0.18409594568E+03  0.10259727367E+04  0.12699999809E+01 0. -1.
       -4    1    3    3    0  502  0.10024268500E+04 -0.11776050560E+03 -0.37804612928E+03  0.10777975761E+04  0.12699999809E+01 0.  1.
</event>
<event>
 5   0  0.4514680E-05  0.1970759E+04  0.7818609E-02  0.8620415E-01
        2   -1    0    0  501    0  0.00000000000E+00  0.00000000000E+00  0.19175558451E+04  0.19175558451E+04  0.25500000920E-02 0.  1.
       -2   -1    0    0    0  501  0.00000000000E+00  0.00000000000E+00 -0.50635939036E+03  0.50635939037E+03  0.25500000920E-02 0. -1.
    10030    2    1    2    0    0  0.00000000000E+00  0.00000000000E+00  0.14111964547E+04  0.24239152354E+04  0.19707586445E+04 0.  0.
        3    1    3    3  502    0 -0.18349884765E+03  0.64741570384E+03  0.15909445688E+04  0.17274037026E+04  0.10100000352E+00 0.  1.
       -3    1    3    3    0  502  0.18349884765E+03 -0.64741570384E+03 -0.17974811406E+03  0.69651153284E+03  0.10100000352E+00 0. -1.
</event>
<event>
 5   0  0.2142551E-05  0.2015951E+04  0.7818609E-02  0.8599199E-01
       -1   -1    0    0    0  501  0.00000000000E+00  0.00000000000E+00  0.11663133191E+04  0.11663133192E+04  0.50400001928E-02 0. -1.
        1   -1    0    0  501    0  0.00000000000E+00  0.00000000000E+00 -0.87113316493E+03  0.87113316494E+03  0.50400001928E-02 0.  1.
    10030    2    1    2    0    0  0.00000000000E+00  0.00000000000E+00  0.29518015421E+03  0.20374464841E+04  0.20159506076E+04 0.  0.
        3    1    3    3  502    0 -0.16742552040E+03  0.28386521175E+03 -0.81514441916E+03  0.87924467449E+03  0.10100000352E+00 0.  1.
       -3    1    3    3    0  502  0.16742552040E+03 -0.28386521175E+03  0.11103245734E+04  0.11582018096E+04  0.10100000352E+00 0. -1.
</event>
<event>
 5   0  0.2007644E-05  0.2006980E+04  0.7818609E-02  0.8603364E-01
        1   -1    0    0  501    0  0.00000000000E+00  0.00000000000E+00  0.16968179633E+04  0.16968179633E+04  0.50400001928E-02 0.  1.
       -1   -1    0    0    0  501  0.00000000000E+00  0.00000000000E+00 -0.59345918184E+03  0.59345918186E+03  0.50400001928E-02 0. -1.
    10030    2    1    2    0    0  0.00000000000E+00  0.00000000000E+00  0.11033587814E+04  0.22902771451E+04  0.20069800201E+04 0.  0.
        1    1    3    3  502    0 -0.96338564130E+03 -0.14657308383E+03  0.27828587151E+03  0.10134291239E+04  0.50400001928E-02 0. -1.
       -1    1    3    3    0  502  0.96338564130E+03  0.14657308383E+03  0.82507290992E+03  0.12768480213E+04  0.50400001928E-02 0.  1.
</event>
<event>
 5   0  0.2110896E-05  0.1932378E+04  0.7818609E-02  0.8638906E-01
       -1   -1    0    0    0  501  0.00000000000E+00  0.00000000000E+00  0.66884596906E+03  0.66884596908E+03  0.50400001928E-02 0.  1.
        1   -1    0    0  501    0  0.00000000000E+00  0.00000000000E+00 -0.13957193228E+04  0.13957193229E+04  0.50400001928E-02 0. -1.
    10030    2    1    2    0    0  0.00000000000E+00  0.00000000000E+00 -0.72687335378E+03  0.20645652919E+04  0.19323780614E+04 0.  0.
        4    1    3    3  502    0 -0.75188763118E+03  0.58283900191E+03 -0.18312169457E+03  0.96879898844E+03  0.12699999809E+01 0.  1.
       -4    1    3    3    0  502  0.75188763118E+03 -0.58283900191E+03 -0.54375165922E+03  0.10957663035E+04  0.12699999809E+01 0. -1.
</event>
<event>
 5   0  0.4473361E-05  0.1999936E+04  0.7818609E-02  0.8606651E-01
       -2   -1    0    0    0  501  0.00000000000E+00  0.00000000000E+00  0.90173179417E+03  0.90173179417E+03  0.25500000920E-02 0. -1.
        2   -1    0    0  501    0  0.00000000000E+00  0.00000000000E+00 -0.11089059070E+04  0.11089059070E+04  0.25500000920E-02 0.  1.
    10030    2    1    2    0    0  0.00000000000E+00  0.00000000000E+00 -0.20717411280E+03  0.20106377011E+04  0.19999357120E+04 0.  0.
        2    1    3    3  502    0 -0.33777120010E+03  0.89110120737E+03 -0.40816858773E+03  0.10367026292E+04  0.25500000920E-02 0.  1.
       -2    1    3    3    0  502  0.33777120010E+03 -0.89110120737E+03  0.20099447493E+03  0.97393507194E+03  0.25500000920E-02 0. -1.
</event>
<event>
 5   0  0.4473361E-05  0.2058654E+04  0.7818609E-02  0.8579679E-01
       -2   -1    0    0    0  501  0.00000000000E+00  0.00000000000E+00  0.74212542327E+03  0.74212542328E+03  0.25500000920E-02 0. -1.
        2   -1    0    0  501    0  0.00000000000E+00  0.00000000000E+00 -0.14276751840E+04  0.14276751840E+04  0.25500000920E-02 0.  1.
    10030    2    1    2    0    0  0.00000000000E+00  0.00000000000E+00 -0.68554976075E+03  0.21698006073E+04  0.20586539780E+04 0.  0.
        2    1    3    3  502    0  0.38749300432E+03  0.18867640321E+03  0.64244610275E+03  0.77361916243E+03  0.25500000920E-02 0. -1.
       -2    1    3    3    0  502 -0.38749300432E+03 -0.18867640321E+03 -0.13279958635E+04  0.13961814449E+04  0.25500000920E-02 0.  1.
</event>
<event>
 5   0  0.4473361E-05  0.2009007E+04  0.7818609E-02  0.8602421E-01
       -2   -1    0    0    0  501  0.00000000000E+00  0.00000000000E+00  0.50406141070E+03  0.50406141071E+03  0.25500000920E-02 0. -1.
        2   -1    0    0  501    0  0.00000000000E+00  0.00000000000E+00 -0.20017942905E+04  0.20017942905E+04  0.25500000920E-02 0.  1.
    10030    2    1    2    0    0  0.00000000000E+00  0.00000000000E+00 -0.14977328798E+04  0.25058557012E+04  0.20090069726E+04 0.  0.
        2    1    3    3  502    0  0.51501210831E+03  0.75491067547E+03 -0.22872198373E+03  0.94204105298E+03  0.25500000920E-02 0. -1.
       -2    1    3    3    0  502 -0.51501210831E+03 -0.75491067547E+03 -0.12690108960E+04  0.15638146482E+04  0.25500000920E-02 0.  1.
</event>
<event>
 5   0  0.2093980E-05  0.1985982E+04  0.7818609E-02  0.8613203E-01
        1   -1    0    0  501    0  0.00000000000E+00  0.00000000000E+00  0.72325306388E+03  0.72325306389E+03  0.50400001928E-02 0.  1.
       -1   -1    0    0    0  501  0.00000000000E+00  0.00000000000E+00 -0.13633275317E+04  0.13633275317E+04  0.50400001928E-02 0. -1.
    10030    2    1    2    0    0  0.00000000000E+00  0.00000000000E+00 -0.64007446781E+03  0.20865805956E+04  0.19859816861E+04 0.  0.
        2    1    3    3  502    0  0.53435424286E+03  0.74651492409E+03  0.77565503289E+02  0.92132263407E+03  0.25500000920E-02 0.  1.
       -2    1    3    3    0  502 -0.53435424286E+03 -0.74651492409E+03 -0.71763997110E+03  0.11652579615E+04  0.25500000920E-02 0. -1.
</event>
<event>
 5   0  0.2110896E-05  0.1995514E+04  0.7818609E-02  0.8608721E-01
       -1   -1    0    0    0  501  0.00000000000E+00  0.00000000000E+00  0.68261293508E+03  0.68261293510E+03  0.50400001928E-02 0. -1.
        1   -1    0    0  501    0  0.00000000000E+00  0.00000000000E+00 -0.14583944131E+04  0.14583944131E+04  0.50400001928E-02 0.  1.
    10030    2    1    2    0    0  0.00000000000E+00  0.00000000000E+00 -0.77578147803E+03  0.21410073482E+04  0.19955138595E+04 0.  0.
        4    1    3    3  502    0  0.48912337890E+03  0.60007324224E+03  0.28743593648E+03  0.82580300697E+03  0.12699999809E+01 0.  1.
       -4    1    3    3    0  502 -0.48912337890E+03 -0.60007324224E+03 -0.10632174145E+04  0.13152043413E+04  0.12699999809E+01 0. -1.
</event>
<event>
 5   0  0.2142551E-05  0.2006252E+04  0.7818609E-02  0.8603703E-01
       -1   -1    0    0    0  501  0.00000000000E+00  0.00000000000E+00  0.11309215456E+04  0.11309215456E+04  0.50400001928E-02 0.  1.
        1   -1    0    0  501    0  0.00000000000E+00  0.00000000000E+00 -0.88977108910E+03  0.88977108912E+03  0.50400001928E-02 0. -1.
    10030    2    1    2    0    0  0.00000000000E+00  0.00000000000E+00  0.24115045650E+03  0.20206926347E+04  0.20062515250E+04 0.  0.
        3    1    3    3  502    0 -0.67019913341E+03 -0.27046639999E+03  0.82124226384E+03  0.10939642673E+04  0.10100000352E+00 0.  1.
       -3    1    3    3    0  502  0.67019913341E+03  0.27046639999E+03 -0.58009180733E+03  0.92672836747E+03  0.10100000352E+00 0. -1.
</event>
<event>
 5   0  0.4447313E-05  0.1997856E+04  0.7818609E-02  0.8607623E-01
       -2   -1    0    0    0  501  0.00000000000E+00  0.00000000000E+00  0.42421607930E+03  0.42421607931E+03  0.25500000920E-02 0. -1.
        2   -1    0    0  501    0  0.00000000000E+00  0.00000000000E+00 -0.23522389863E+04  0.23522389863E+04  0.25500000920E-02 0.  1.
    10030    2    1    2    0    0  0.00000000000E+00  0.00000000000E+00 -0.19280229070E+04  0.27764550656E+04  0.19978564517E+04 0.  0.
        5    1    3    3  502    0  0.16043579482E+03 -0.23585142403E+02  0.40578684983E+03  0.43701368479E+03  0.46999998093E+01 0. -1.
       -5    1    3    3    0  502 -0.16043579482E+03  0.23585142403E+02 -0.23338097569E+04  0.23394413808E+04  0.46999998093E+01 0.  1.
</event>
<event>
 5   0  0.2110896E-05  0.1996525E+04  0.7818609E-02  0.8608247E-01
       -1   -1    0    0    0  501  0.00000000000E+00  0.00000000000E+00  0.11491887513E+04  0.11491887514E+04  0.50400001928E-02 0.  1.
        1   -1    0    0  501    0  0.00000000000E+00  0.00000000000E+00 -0.86715766476E+03  0.86715766477E+03  0.50400001928E-02 0. -1.
    10030    2    1    2    0    0  0.00000000000E+00  0.00000000000E+00  0.28203108659E+03  0.20163464161E+04  0.19965248148E+04 0.  0.
        4    1    3    3  502    0 -0.37908021306E+03  0.66651203489E+03  0.78656904338E+03  0.10984682852E+04  0.12699999809E+01 0.  1.
       -4    1    3    3    0  502  0.37908021306E+03 -0.66651203489E+03 -0.50453795679E+03  0.91787813098E+03  0.12699999809E+01 0. -1.
</event>
<event>
 5   0  0.4447313E-05  0.1936165E+04  0.7818609E-02  0.8637061E-01
       -2   -1    0    0    0  501  0.00000000000E+00  0.00000000000E+00  0.11545886021E+04  0.11545886022E+04  0.25500000920E-02 0.  1.
        2   -1    0    0  501    0  0.00000000000E+00  0.00000000000E+00 -0.81170387889E+03  0.81170387889E+03  0.25500000920E-02 0. -1.
    10030    2    1    2    0    0  0.00000000000E+00  0.00000000000E+00  0.34288472326E+03  0.19662924810E+04  0.19361653306E+04 0.  0.
        5    1    3    3  502    0 -0.68211477402E+03  0.65338727567E+03  0.38679491650E+03  0.10206997082E+04  0.46999998093E+01 0.  1.
       -5    1    3    3    0  502  0.68211477402E+03 -0.65338727567E+03 -0.43910193241E+02  0.94559277282E+03  0.46999998093E+01 0. -1.
</event>
<event>
 5   0  0.2110896E-05  0.1976089E+04  0.7818609E-02  0.8617882E-01
       -1   -1    0    0    0  501  0.00000000000E+00  0.00000000000E+00  0.83289913960E+03  0.83289913962E+03  0.50400001928E-02 0. -1.
        1   -1    0    0  501    0  0.00000000000E+00  0.00000000000E+00 -0.11720894882E+04  0.11720894882E+04  0.50400001928E-02 0.  1.
    10030    2    1    2    0    0  0.00000000000E+00  0.00000000000E+00 -0.33919034864E+03  0.20049886279E+04  0.19760893971E+04 0.  0.
        4    1    3    3  502    0 -0.47519004117E+03  0.48775122580E+03  0.55678231762E+03  0.87961070686E+03  0.12699999809E+01 0. -1.
       -4    1    3    3    0  502  0.47519004117E+03 -0.48775122580E+03 -0.89597266626E+03  0.11253779210E+04  0.12699999809E+01 0.  1.
</event>
<event>
 5   0  0.2256868E-05  0.1971917E+04  0.7818609E-02  0.8619864E-01
        1   -1    0    0  501    0  0.00000000000E+00  0.00000000000E+00  0.42986075689E+03  0.42986075691E+03  0.50400001928E-02 0.  1.
       -1   -1    0    0    0  501  0.00000000000E+00  0.00000000000E+00 -0.22614625023E+04  0.22614625023E+04  0.50400001928E-02 0. -1.
    10030    2    1    2    0    0  0.00000000000E+00  0.00000000000E+00 -0.18316017454E+04  0.26913232592E+04  0.19719168167E+04 0.  0.
        5    1    3    3  502    0 -0.62145255062E+02 -0.65557041345E+03 -0.19173053746E+04  0.20272435940E+04  0.46999998093E+01 0. -1.
       -5    1    3    3    0  502  0.62145255062E+02  0.65557041345E+03  0.85703629234E+02  0.66407966523E+03  0.46999998093E+01 0.  1.
</event>
<event>
 5   0  0.2142551E-05  0.1985886E+04  0.7818609E-02  0.8613248E-01
        1   -1    0    0  501    0  0.00000000000E+00  0.00000000000E+00  0.89502177916E+03  0.89502177918E+03  0.50400001928E-02 0. -1.
       -1   -1    0    0    0  501  0.00000000000E+00  0.00000000000E+00 -0.11015776020E+04  0.11015776020E+04  0.50400001928E-02 0.  1.
    10030    2    1    2    0    0  0.00000000000E+00  0.00000000000E+00 -0.20655582282E+03  0.19965993812E+04  0.19858861450E+04 0.  0.
        3    1    3    3  502    0  0.73604582973E+03  0.14978501067E+03 -0.75619404234E+03  0.10658463551E+04  0.10100000352E+00 0.  1.
       -3    1    3    3    0  502 -0.73604582973E+03 -0.14978501067E+03  0.54963821953E+03  0.93075302603E+03  0.10100000352E+00 0. -1.
</event>
<event>
 5   0  0.2007644E-05  0.2012138E+04  0.7818609E-02  0.8600967E-01
        1   -1    0    0  501    0  0.00000000000E+00  0.00000000000E+00  0.12763094048E+04  0.12763094048E+04  0.50400001928E-02 0.  1.
       -1   -1    0    0    0  501  0.00000000000E+00  0.00000000000E+00 -0.79304828764E+03  0.79304828766E+03  0.50400001928E-02 0. -1.
    10030    2    1    2    0    0  0.00000000000E+00  0.00000000000E+00  0.48326111716E+03  0.20693576925E+04  0.20121381543E+04 0.  0.
        1    1    3    3  502    0 -0.69420547529E+03 -0.53576679280E+03  0.74881558187E+03  0.11531227488E+04  0.50400001928E-02 0.  1.
       -1    1    3    3    0  502  0.69420547529E+03  0.53576679280E+03 -0.26555446471E+03  0.91623494364E+03  0.50400001928E-02 0. -1.
</event>
<event>
 5   0  0.4412054E-05  0.2000342E+04  0.7818609E-02  0.8606461E-01
        2   -1    0    0  501    0  0.00000000000E+00  0.00000000000E+00  0.72155764223E+03  0.72155764223E+03  0.25500000920E-02 0.  1.
       -2   -1    0    0    0  501  0.00000000000E+00  0.00000000000E+00 -0.13863653262E+04  0.13863653262E+04  0.25500000920E-02 0. -1.
    10030    2    1    2    0    0  0.00000000000E+00  0.00000000000E+00 -0.66480768396E+03  0.21079229684E+04  0.20003424667E+04 0.  0.
        4    1    3    3  502    0 -0.18289105095E+02 -0.84192425648E+03 -0.90102582833E+03  0.12332964369E+04  0.12699999809E+01 0.  1.
       -4    1    3    3    0  502  0.18289105095E+02  0.84192425648E+03  0.23621814438E+03  0.87462653153E+03  0.12699999809E+01 0. -1.
</event>
<event>
 5   0  0.4473361E-05  0.1990034E+04  0.7818609E-02  0.8611294E-01
       -2   -1    0    0    0  501  0.00000000000E+00  0.00000000000E+00  0.17311356261E+04  0.17311356261E+04  0.25500000920E-02 0.  1.
        2   -1    0    0  501    0  0.00000000000E+00  0.00000000000E+00 -0.57191275721E+03  0.57191275721E+03  0.25500000920E-02 0. -1.
    10030    2    1    2    0    0  0.00000000000E+00  0.00000000000E+00  0.11592228689E+04  0.23030483833E+04  0.19900337173E+04 0.  0.
        2    1    3    3  502    0  0.60297562702E+03  0.18678996271E+02  0.14953571521E+04  0.16124582240E+04  0.25500000920E-02 0.  1.
       -2    1    3    3    0  502 -0.60297562702E+03 -0.18678996271E+02 -0.33613428328E+03  0.69059015928E+03  0.25500000920E-02 0. -1.
</event>
<event>
 5   0  0.2142551E-05  0.2015771E+04  0.7818609E-02  0.8599282E-01
       -1   -1    0    0    0  501  0.00000000000E+00  0.00000000000E+00  0.72726503729E+03  0.72726503731E+03  0.50400001928E-02 0.  1.
        1   -1    0    0  501    0  0.00000000000E+00  0.00000000000E+00 -0.13967854625E+04  0.13967854625E+04  0.50400001928E-02 0. -1.
    10030    2    1    2    0    0  0.00000000000E+00  0.00000000000E+00 -0.66952042520E+03  0.21240504998E+04  0.20157710500E+04 0.  0.
        3    1    3    3  502    0  0.39071355381E+03  0.64781949896E+02 -0.13113563867E+04  0.13698574252E+04  0.10100000352E+00 0. -1.
       -3    1    3    3    0  502 -0.39071355381E+03 -0.64781949896E+02  0.64183596150E+03  0.75419307464E+03  0.10100000352E+00 0.  1.
</event>
<event>
 5   0  0.4514680E-05  0.2035769E+04  0.7818609E-02  0.8590078E-01
       -2   -1    0    0    0  501  0.00000000000E+00  0.00000000000E+00  0.56104377992E+03  0.56104377993E+03  0.25500000920E-02 0.  1.
        2   -1    0    0  501    0  0.00000000000E+00  0.00000000000E+00 -0.18467160248E+04  0.18467160248E+04  0.25500000920E-02 0. -1.
    10030    2    1    2    0    0  0.00000000000E+00  0.00000000000E+00 -0.12856722448E+04  0.24077598047E+04  0.20357686892E+04 0.  0.
        3    1    3    3  502    0 -0.81732035625E+03  0.40572941146E+03 -0.11763231114E+04  0.14887461142E+04  0.10100000352E+00 0. -1.
       -3    1    3    3    0  502  0.81732035625E+03 -0.40572941146E+03 -0.10934913347E+03  0.91901369046E+03  0.10100000352E+00 0.  1.
</event>
<event>
 5   0  0.2007644E-05  0.2011149E+04  0.7818609E-02  0.8601426E-01
        1   -1    0    0  501    0  0.00000000000E+00  0.00000000000E+00  0.14058968318E+04  0.14058968318E+04  0.50400001928E-02 0. -1.
       -1   -1    0    0    0  501  0.00000000000E+00  0.00000000000E+00 -0.71924229609E+03  0.71924229610E+03  0.50400001928E-02 0.  1.
    10030    2    1    2    0    0  0.00000000000E+00  0.00000000000E+00  0.68665453568E+03  0.21251391279E+04  0.20111493882E+04 0.  0.
        1    1    3    3  502    0 -0.79081624183E+03 -0.20595887518E+03  0.96251863510E+03  0.12626367291E+04  0.50400001928E-02 0. -1.
       -1    1    3    3    0  502  0.79081624183E+03  0.20595887518E+03 -0.27586409942E+03  0.86250239883E+03  0.50400001928E-02 0.  1.
</event>
<event>
 5   0  0.2110896E-05  0.1991790E+04  0.7818609E-02  0.8610469E-01
        1   -1    0    0  501    0  0.00000000000E+00  0.00000000000E+00  0.15075760617E+04  0.15075760618E+04  0.50400001928E-02 0.  1.
       -1   -1    0    0    0  501  0.00000000000E+00  0.00000000000E+00 -0.65788189544E+03  0.65788189546E+03  0.50400001928E-02 0. -1.
    10030    2    1    2    0    0  0.00000000000E+00  0.00000000000E+00  0.84969416630E+03  0.21654579572E+04  0.19917901466E+04 0.  0.
        4    1    3    3  502    0 -0.11412453543E+03 -0.78695722624E+03 -0.22699608705E+03  0.82695521158E+03  0.12699999809E+01 0. -1.
       -4    1    3    3    0  502  0.11412453543E+03  0.78695722624E+03  0.10766902533E+04  0.13385027456E+04  0.12699999809E+01 0.  1.
</event>
<event>
 5   0  0.2256868E-05  0.1997241E+04  0.7818609E-02  0.8607912E-01
        1   -1    0    0  501    0  0.00000000000E+00  0.00000000000E+00  0.23824636440E+04  0.23824636440E+04  0.50400001928E-02 0.  1.
       -1   -1    0    0    0  501  0.00000000000E+00  0.00000000000E+00 -0.41857625364E+03  0.41857625367E+03  0.50400001928E-02 0. -1.
    10030    2    1    2    0    0  0.00000000000E+00  0.00000000000E+00  0.19638873904E+04  0.28010398977E+04  0.19972408033E+04 0.  0.
        5    1    3    3  502    0  0.59284934754E+03 -0.42352051895E+03  0.19397090446E+04  0.20720360148E+04  0.46999998093E+01 0.  1.
       -5    1    3    3    0  502 -0.59284934754E+03  0.42352051895E+03  0.24178345740E+02  0.72900388288E+03  0.46999998093E+01 0. -1.
</event>
<event>
 5   0  0.4514680E-05  0.1998921E+04  0.7818609E-02  0.8607125E-01
        2   -1    0    0  501    0  0.00000000000E+00  0.00000000000E+00  0.12462917660E+04  0.12462917660E+04  0.25500000920E-02 0. -1.
       -2   -1    0    0    0  501  0.00000000000E+00  0.00000000000E+00 -0.80151492376E+03  0.80151492376E+03  0.25500000920E-02 0.  1.
    10030    2    1    2    0    0  0.00000000000E+00  0.00000000000E+00  0.44477684227E+03  0.20478066898E+04  0.19989211589E+04 0.  0.
        3    1    3    3  502    0 -0.30172899209E+03  0.66206309194E+03 -0.47960952477E+03  0.87143171209E+03  0.10100000352E+00 0.  1.
       -3    1    3    3    0  502  0.30172899209E+03 -0.66206309194E+03  0.92438636704E+03  0.11763749777E+04  0.10100000352E+00 0. -1.
</event>
<event>
 5   0  0.2007644E-05  0.2004303E+04  0.7818609E-02  0.8604612E-01
        1   -1    0    0  501    0  0.00000000000E+00  0.00000000000E+00  0.17235816820E+04  0.17235816820E+04  0.50400001928E-02 0.  1.
       -1   -1    0    0    0  501  0.00000000000E+00  0.00000000000E+00 -0.58268633650E+03  0.58268633653E+03  0.50400001928E-02 0. -1.
    10030    2    1    2    0    0  0.00000000000E+00  0.00000000000E+00  0.11408953455E+04  0.23062680185E+04  0.20043028673E+04 0.  0.
        1    1    3    3  502    0  0.97681703251E+03 -0.12168212732E+03  0.35416844471E+03  0.10461421234E+04  0.50400001928E-02 0. -1.
       -1    1    3    3    0  502 -0.97681703251E+03  0.12168212732E+03  0.78672690078E+03  0.12601258951E+04  0.50400001928E-02 0.  1.
</event>
<event>
 5   0  0.4577279E-05  0.1998512E+04  0.7818609E-02  0.8607316E-01
        2   -1    0    0  501    0  0.00000000000E+00  0.00000000000E+00  0.24769574982E+04  0.24769574982E+04  0.25500000920E-02 0.  1.
       -2   -1    0    0    0  501  0.00000000000E+00  0.00000000000E+00 -0.40312078197E+03  0.40312078198E+03  0.25500000920E-02 0. -1.
    10030    2    1    2    0    0  0.00000000000E+00  0.00000000000E+00  0.20738367162E+04  0.28800782802E+04  0.19985124904E+04 0.  0.
        1    1    3    3  502    0  0.19727671438E+02  0.89298849166E+03  0.39131444808E+03  0.97516389625E+03  0.50400001928E-02 0. -1.
       -1    1    3    3    0  502 -0.19727671438E+02 -0.89298849166E+03  0.16825222681E+04  0.19049143839E+04  0.50400001928E-02 0.  1.
</event>
<event>
 5   0  0.2110896E-05  0.2048517E+04  0.7818609E-02  0.8584267E-01
       -1   -1    0    0    0  501  0.00000000000E+00  0.00000000000E+00  0.70376189637E+03  0.70376189638E+03  0.50400001928E-02 0.  1.
        1   -1    0    0  501    0  0.00000000000E+00  0.00000000000E+00 -0.14907110708E+04  0.14907110708E+04  0.50400001928E-02 0. -1.
    10030    2    1    2    0    0  0.00000000000E+00  0.00000000000E+00 -0.78694917443E+03  0.21944729672E+04  0.20485171712E+04 0.  0.
        4    1    3    3  502    0 -0.61033923852E+03 -0.59887141418E+03  0.21056487952E+03  0.88062485667E+03  0.12699999809E+01 0.  1.
       -4    1    3    3    0  502  0.61033923852E+03  0.59887141418E+03 -0.99751405395E+03  0.13138481105E+04  0.12699999809E+01 0. -1.
</event>
<event>
 5   0  0.2256868E-05  0.1992726E+04  0.7818609E-02  0.8610029E-01
       -1   -1    0    0    0  501  0.00000000000E+00  0.00000000000E+00  0.73018698785E+03  0.73018698786E+03  0.50400001928E-02 0.  1.
        1   -1    0    0  501    0  0.00000000000E+00  0.00000000000E+00 -0.13595679550E+04  0.13595679550E+04  0.50400001928E-02 0. -1.
    10030    2    1    2    0    0  0.00000000000E+00  0.00000000000E+00 -0.62938096717E+03  0.20897549429E+04  0.19927256007E+04 0.  0.
        5    1    3    3  502    0  0.20388365612E+03  0.19196589921E+03  0.68805699062E+03  0.74287547007E+03  0.46999998093E+01 0.  1.
       -5    1    3    3    0  502 -0.20388365612E+03 -0.19196589921E+03 -0.13174379578E+04  0.13468794728E+04  0.46999998093E+01 0. -1.
</event>
<event>
 5   0  0.2093980E-05  0.1988615E+04  0.7818609E-02  0.8611962E-01
       -1   -1    0    0    0  501  0.00000000000E+00  0.00000000000E+00  0.12344706825E+04  0.12344706825E+04  0.50400001928E-02 0.  1.
        1   -1    0    0  501    0  0.00000000000E+00  0.00000000000E+00 -0.80086778411E+03  0.80086778413E+03  0.50400001928E-02 0. -1.
    10030    2    1    2    0    0  0.00000000000E+00  0.00000000000E+00  0.43360289839E+03  0.20353384666E+04  0.19886153978E+04 0.  0.
        2    1    3    3  502    0  0.67525326987E+03 -0.35416534926E+03  0.86995482714E+03  0.11568152291E+04  0.25500000920E-02 0.  1.
       -2    1    3    3    0  502 -0.67525326987E+03  0.35416534926E+03 -0.43635192876E+03  0.87852323750E+03  0.25500000920E-02 0. -1.
</event>
<event>
 5   0  0.2110896E-05  0.1997557E+04  0.7818609E-02  0.8607764E-01
        1   -1    0    0  501    0  0.00000000000E+00  0.00000000000E+00  0.21028314168E+04  0.21028314168E+04  0.50400001928E-02 0.  1.
       -1   -1    0    0    0  501  0.00000000000E+00  0.00000000000E+00 -0.47438823278E+03  0.47438823281E+03  0.50400001928E-02 0. -1.
    10030    2    1    2    0    0  0.00000000000E+00  0.00000000000E+00  0.16284431840E+04  0.25772196496E+04  0.19975569876E+04 0.  0.
        4    1    3    3  502    0  0.65378846017E+03 -0.69715023538E+03  0.11883733936E+04  0.15250215529E+04  0.12699999809E+01 0.  1.
       -4    1    3    3    0  502 -0.65378846017E+03  0.69715023538E+03  0.44006979039E+03  0.10521980967E+04  0.12699999809E+01 0. -1.
</event>
<event>
 5   0  0.2256868E-05  0.1996862E+04  0.7818609E-02  0.8608089E-01
        1   -1    0    0  501    0  0.00000000000E+00  0.00000000000E+00  0.31807017752E+04  0.31807017753E+04  0.50400001928E-02 0.  1.
       -1   -1    0    0    0  501  0.00000000000E+00  0.00000000000E+00 -0.31341021251E+03  0.31341021255E+03  0.50400001928E-02 0. -1.
    10030    2    1    2    0    0  0.00000000000E+00  0.00000000000E+00  0.28672915627E+04  0.34941119878E+04  0.19968619576E+04 0.  0.
        5    1    3    3  502    0 -0.22034029781E+03 -0.82253128680E+03  0.52150603812E+03  0.99854804711E+03  0.46999998093E+01 0. -1.
       -5    1    3    3    0  502  0.22034029781E+03  0.82253128680E+03  0.23457855246E+04  0.24955639407E+04  0.46999998093E+01 0.  1.
</event>
<event>
 5   0  0.4473361E-05  0.2003706E+04  0.7818609E-02  0.8604890E-01
        2   -1    0    0  501    0  0.00000000000E+00  0.00000000000E+00  0.65441294067E+03  0.65441294067E+03  0.25500000920E-02 0.  1.
       -2   -1    0    0    0  501  0.00000000000E+00  0.00000000000E+00 -0.15337561728E+04  0.15337561728E+04  0.25500000920E-02 0. -1.
    10030    2    1    2    0    0  0.00000000000E+00  0.00000000000E+00 -0.87934323212E+03  0.21881691135E+04  0.20037064529E+04 0.  0.
        2    1    3    3  502    0 -0.97404301154E+03  0.58575227989E+02 -0.19179778763E+03  0.99447334656E+03  0.25500000920E-02 0. -1.
       -2    1    3    3    0  502  0.97404301154E+03 -0.58575227989E+02 -0.68754544449E+03  0.11936957669E+04  0.25500000920E-02 0.  1.
</event>
<event>
 5   0  0.2007644E-05  0.2031991E+04  0.7818609E-02  0.8591808E-01
       -1   -1    0    0    0  501  0.00000000000E+00  0.00000000000E+00  0.66272902178E+03  0.66272902180E+03  0.50400001928E-02 0. -1.
        1   -1    0    0  501    0  0.00000000000E+00  0.00000000000E+00 -0.15575696879E+04  0.15575696879E+04  0.50400001928E-02 0.  1.
    10030    2    1    2    0    0  0.00000000000E+00  0.00000000000E+00 -0.89484066612E+03  0.22202987097E+04  0.20319907831E+04 0.  0.
        1    1    3    3  502    0  0.61905711050E+03 -0.39526532510E+03  0.31961667909E+03  0.80101261217E+03  0.50400001928E-02 0. -1.
       -1    1    3    3    0  502 -0.61905711050E+03  0.39526532510E+03 -0.12144573452E+04  0.14192860975E+04  0.50400001928E-02 0.  1.
</event>
<event>
 5   0  0.2007644E-05  0.1998078E+04  0.7818609E-02  0.8607520E-01
       -1   -1    0    0    0  501  0.00000000000E+00  0.00000000000E+00  0.88376562190E+03  0.88376562192E+03  0.50400001928E-02 0.  1.
        1   -1    0    0  501    0  0.00000000000E+00  0.00000000000E+00 -0.11293475655E+04  0.11293475655E+04  0.50400001928E-02 0. -1.
    10030    2    1    2    0    0  0.00000000000E+00  0.00000000000E+00 -0.24558194356E+03  0.20131131874E+04  0.19980776297E+04 0.  0.
        1    1    3    3  502    0  0.65317502235E+03 -0.71319826194E+03  0.12967232663E+03  0.97575831177E+03  0.50400001928E-02 0. -1.
       -1    1    3    3    0  502 -0.65317502235E+03  0.71319826194E+03 -0.37525427019E+03  0.10373548756E+04  0.50400001928E-02 0.  1.
</event>
<event>
 5   0  0.2007644E-05  0.1996606E+04  0.7818609E-02  0.8608209E-01
       -1   -1    0    0    0  501  0.00000000000E+00  0.00000000000E+00  0.82590527014E+03  0.82590527015E+03  0.50400001928E-02 0.  1.
        1   -1    0    0  501    0  0.00000000000E+00  0.00000000000E+00 -0.12066872485E+04  0.12066872485E+04  0.50400001928E-02 0. -1.
    10030    2    1    2    0    0  0.00000000000E+00  0.00000000000E+00 -0.38078197836E+03  0.20325925187E+04  0.19966064790E+04 0.  0.
        1    1    3    3  502    0  0.19506641786E+03  0.55369465744E+03 -0.10123974082E+04  0.11702893630E+04  0.50400001928E-02 0. -1.
       -1    1    3    3    0  502 -0.19506641786E+03 -0.55369465744E+03  0.63161542981E+03  0.86230315566E+03  0.50400001928E-02 0.  1.
</event>
<event>
 5   0  0.4412054E-05  0.1995812E+04  0.7818609E-02  0.8608581E-01
       -2   -1    0    0    0  501  0.00000000000E+00  0.00000000000E+00  0.39845768923E+03  0.39845768923E+03  0.25500000920E-02 0. -1.
        2   -1    0    0  501    0  0.00000000000E+00  0.00000000000E+00 -0.24991768051E+04  0.24991768051E+04  0.25500000920E-02 0.  1.
    10030    2    1    2    0    0  0.00000000000E+00  0.00000000000E+00 -0.21007191158E+04  0.28976344943E+04  0.19958118295E+04 0.  0.
        4    1    3    3  502    0  0.48962079002E+03 -0.47655433169E+02 -0.23108989170E+04  0.23626796177E+04  0.12699999809E+01 0.  1.
       -4    1    3    3    0  502 -0.48962079002E+03  0.47655433169E+02  0.21017980114E+03  0.53495487663E+03  0.12699999809E+01 0. -1.
</event>
<event>
 5   0  0.2142551E-05  0.1969421E+04  0.7818609E-02  0.8621052E-01
        1   -1    0    0  501    0  0.00000000000E+00  0.00000000000E+00  0.16831702623E+04  0.16831702623E+04  0.50400001928E-02 0. -1.
       -1   -1    0    0    0  501  0.00000000000E+00  0.00000000000E+00 -0.57608830511E+03  0.57608830513E+03  0.50400001928E-02 0.  1.
    10030    2    1    2    0    0  0.00000000000E+00  0.00000000000E+00  0.11070819572E+04  0.22592585674E+04  0.19694209338E+04 0.  0.
        3    1    3    3  502    0 -0.67594359349E+03  0.69023194235E+03  0.77221081506E+03  0.12367818841E+04  0.10100000352E+00 0. -1.
       -3    1    3    3    0  502  0.67594359349E+03 -0.69023194235E+03  0.33487114210E+03  0.10224766833E+04  0.10100000352E+00 0.  1.
</event>
<event>
 5   0  0.4412054E-05  0.2019898E+04  0.7818609E-02  0.8597374E-01
        2   -1    0    0  501    0  0.00000000000E+00  0.00000000000E+00  0.57442258958E+03  0.57442258959E+03  0.25500000920E-02 0.  1.
       -2   -1    0    0    0  501  0.00000000000E+00  0.00000000000E+00 -0.17756900919E+04  0.17756900919E+04  0.25500000920E-02 0. -1.
    10030    2    1    2    0    0  0.00000000000E+00  0.00000000000E+00 -0.12012675023E+04  0.23501126814E+04  0.20198975230E+04 0.  0.
        4    1    3    3  502    0 -0.22927073188E+03  0.96355319216E+03 -0.83038833013E+03  0.12924961177E+04  0.12699999809E+01 0.  1.
       -4    1    3    3    0  502  0.22927073188E+03 -0.96355319216E+03 -0.37087917214E+03  0.10576165637E+04  0.12699999809E+01 0. -1.
</event>
<event>
 5   0  0.4514680E-05  0.1998330E+04  0.7818609E-02  0.8607402E-01
        2   -1    0    0  501    0  0.00000000000E+00  0.00000000000E+00  0.14889428802E+04  0.14889428802E+04  0.25500000920E-02 0. -1.
       -2   -1    0    0    0  501  0.00000000000E+00  0.00000000000E+00 -0.67049646841E+03  0.67049646842E+03  0.25500000920E-02 0.  1.
    10030    2    1    2    0    0  0.00000000000E+00  0.00000000000E+00  0.81844641178E+03  0.21594393486E+04  0.19983302458E+04 0.  0.
        3    1    3    3  502    0 -0.65183338870E+01  0.49151045768E+03  0.13492436804E+04  0.14359956609E+04  0.10100000352E+00 0. -1.
       -3    1    3    3    0  502  0.65183338870E+01 -0.49151045768E+03 -0.53079726866E+03  0.72344368772E+03  0.10100000352E+00 0.  1.
</event>
<event>
 5   0  0.4577279E-05  0.2006858E+04  0.7818609E-02  0.8603421E-01
       -2   -1    0    0    0  501  0.00000000000E+00  0.00000000000E+00  0.42167346648E+03  0.42167346649E+03  0.25500000920E-02 0.  1.
        2   -1    0    0  501    0  0.00000000000E+00  0.00000000000E+00 -0.23877954675E+04  0.23877954675E+04  0.25500000920E-02 0. -1.
    10030    2    1    2    0    0  0.00000000000E+00  0.00000000000E+00 -0.19661220011E+04  0.28094689340E+04  0.20068582332E+04 0.  0.
        1    1    3    3  502    0  0.13872711671E+03  0.36090424848E+03  0.31319988485E+03  0.49758542722E+03  0.50400001928E-02 0.  1.
       -1    1    3    3    0  502 -0.13872711671E+03 -0.36090424848E+03 -0.22793218859E+04  0.23118835068E+04  0.50400001928E-02 0. -1.
</event>
<event>
 5   0  0.4412054E-05  0.1985264E+04  0.7818609E-02  0.8613541E-01
        2   -1    0    0  501    0  0.00000000000E+00  0.00000000000E+00  0.19489275887E+04  0.19489275887E+04  0.25500000920E-02 0.  1.
       -2   -1    0    0    0  501  0.00000000000E+00  0.00000000000E+00 -0.50556970936E+03  0.50556970936E+03  0.25500000920E-02 0. -1.
    10030    2    1    2    0    0  0.00000000000E+00  0.00000000000E+00  0.14433578793E+04  0.24544972981E+04  0.19852644706E+04 0.  0.
        4    1    3    3  502    0 -0.76300488180E+02 -0.59208502248E+03  0.17021743983E+04  0.18038253057E+04  0.12699999809E+01 0.  1.
       -4    1    3    3    0  502  0.76300488180E+02  0.59208502248E+03 -0.25881651892E+03  0.65067199241E+03  0.12699999809E+01 0. -1.
</event>
<event>
 5   0  0.2142551E-05  0.1983330E+04  0.7818609E-02  0.8614455E-01
        1   -1    0    0  501    0  0.00000000000E+00  0.00000000000E+00  0.79379701320E+03  0.79379701322E+03  0.50400001928E-02 0. -1.
       -1   -1    0    0    0  501  0.00000000000E+00  0.00000000000E+00 -0.12388545008E+04  0.12388545008E+04  0.50400001928E-02 0.  1.
    10030    2    1    2    0    0  0.00000000000E+00  0.00000000000E+00 -0.44505748758E+03  0.20326515140E+04  0.19833295264E+04 0.  0.
        3    1    3    3  502    0 -0.77608960867E+03  0.30990125488E+03  0.32464450733E+03  0.89651990207E+03  0.10100000352E+00 0. -1.
       -3    1    3    3    0  502  0.77608960867E+03 -0.30990125488E+03 -0.76970199491E+03  0.11361316119E+04  0.10100000352E+00 0.  1.
</event>
<event>
 5   0  0.4514680E-05  0.2037392E+04  0.7818609E-02  0.8589335E-01
        2   -1    0    0  501    0  0.00000000000E+00  0.00000000000E+00  0.14288235477E+04  0.14288235477E+04  0.25500000920E-02 0. -1.
       -2   -1    0    0    0  501  0.00000000000E+00  0.00000000000E+00 -0.72629118852E+03  0.72629118852E+03  0.25500000920E-02 0.  1.
    10030    2    1    2    0    0  0.00000000000E+00  0.00000000000E+00  0.70253235918E+03  0.21551147362E+04  0.20373924047E+04 0.  0.
        3    1    3    3  502    0  0.73442205956E+03 -0.68243986510E+03  0.16015584633E+03  0.10152585072E+04  0.10100000352E+00 0.  1.
       -3    1    3    3    0  502 -0.73442205956E+03  0.68243986510E+03  0.54237651285E+03  0.11398562291E+04  0.10100000352E+00 0. -1.
</event>
<event>
 5   0  0.2007644E-05  0.1992935E+04  0.7818609E-02  0.8609931E-01
        1   -1    0    0  501    0  0.00000000000E+00  0.00000000000E+00  0.19827187237E+04  0.19827187237E+04  0.50400001928E-02 0. -1.
       -1   -1    0    0    0  501  0.00000000000E+00  0.00000000000E+00 -0.50080101826E+03  0.50080101828E+03  0.50400001928E-02 0.  1.
    10030    2    1    2    0    0  0.00000000000E+00  0.00000000000E+00  0.14819177054E+04  0.24835197420E+04  0.19929350775E+04 0.  0.
        1    1    3    3  502    0  0.67387989139E+03 -0.46421515770E+03  0.14495613219E+04  0.16645833853E+04  0.50400001928E-02 0. -1.
       -1    1    3    3    0  502 -0.67387989139E+03  0.46421515770E+03  0.32356383500E+02  0.81893635665E+03  0.50400001928E-02 0.  1.
</event>
<event>
 5   0  0.4412054E-05  0.1989071E+04  0.7818609E-02  0.8611747E-01
       -2   -1    0    0    0  501  0.00000000000E+00  0.00000000000E+00  0.62652417522E+03  0.62652417522E+03  0.25500000920E-02 0. -1.
        2   -1    0    0  501    0  0.00000000000E+00  0.00000000000E+00 -0.15787115339E+04  0.15787115339E+04  0.25500000920E-02 0.  1.
    10030    2    1    2    0    0  0.00000000000E+00  0.00000000000E+00 -0.95218735873E+03  0.22052357092E+04  0.19890710814E+04 0.  0.
        4    1    3    3  502    0 -0.88750391667E+03  0.43192343329E+03 -0.61132615432E+03  0.11610091878E+04  0.12699999809E+01 0.  1.
       -4    1    3    3    0  502  0.88750391667E+03 -0.43192343329E+03 -0.34086120441E+03  0.10442265214E+04  0.12699999809E+01 0. -1.
</event>
<event>
 5   0  0.4473361E-05  0.1988263E+04  0.7818609E-02  0.8612128E-01
        2   -1    0    0  501    0  0.00000000000E+00  0.00000000000E+00  0.23028954608E+04  0.23028954608E+04  0.25500000920E-02 0. -1.
       -2   -1    0    0    0  501  0.00000000000E+00  0.00000000000E+00 -0.42915426728E+03  0.42915426728E+03  0.25500000920E-02 0.  1.
    10030    2    1    2    0    0  0.00000000000E+00  0.00000000000E+00  0.18737411935E+04  0.27320497281E+04  0.19882629747E+04 0.  0.
        2    1    3    3  502    0  0.72924597070E+03 -0.18984795612E+02  0.18649017842E+04  0.20025031268E+04  0.25500000920E-02 0. -1.
       -2    1    3    3    0  502 -0.72924597070E+03  0.18984795612E+02  0.88394093247E+01  0.72954660126E+03  0.25500000920E-02 0.  1.
</event>
<event>
 5   0  0.4577279E-05  0.2001732E+04  0.7818609E-02  0.8605811E-01
       -2   -1    0    0    0  501  0.00000000000E+00  0.00000000000E+00  0.61063021057E+03  0.61063021058E+03  0.25500000920E-02 0. -1.
        2   -1    0    0  501    0  0.00000000000E+00  0.00000000000E+00 -0.16404896307E+04  0.16404896307E+04  0.25500000920E-02 0.  1.
    10030    2    1    2    0    0  0.00000000000E+00  0.00000000000E+00 -0.10298594201E+04  0.22511198413E+04  0.20017317789E+04 0.  0.
        1    1    3    3  502    0 -0.24374463389E+03 -0.35603267299E+03 -0.15305261609E+04  0.15901827065E+04  0.50400001928E-02 0.  1.
       -1    1    3    3    0  502  0.24374463389E+03  0.35603267299E+03  0.50066674078E+03  0.66093713478E+03  0.50400001928E-02 0. -1.
</event>
<event>
 5   0  0.4514680E-05  0.2000703E+04  0.7818609E-02  0.8606292E-01
        2   -1    0    0  501    0  0.00000000000E+00  0.00000000000E+00  0.74770508491E+03  0.74770508491E+03  0.25500000920E-02 0. -1.
       -2   -1    0    0    0  501  0.00000000000E+00  0.00000000000E+00 -0.13383664419E+04  0.13383664419E+04  0.25500000920E-02 0.  1.
    10030    2    1    2    0    0  0.00000000000E+00  0.00000000000E+00 -0.59066135697E+03  0.20860715268E+04  0.20007032704E+04 0.  0.
        3    1    3    3  502    0  0.93394228662E+03 -0.19383829791E+01 -0.66902456075E+03  0.11488454314E+04  0.10100000352E+00 0. -1.
       -3    1    3    3    0  502 -0.93394228662E+03  0.19383829791E+01  0.78363203773E+02  0.93722609544E+03  0.10100000352E+00 0.  1.
</event>
<event>
 5   0  0.4473361E-05  0.1998075E+04  0.7818609E-02  0.8607521E-01
        2   -1    0    0  501    0  0.00000000000E+00  0.00000000000E+00  0.12202459324E+04  0.12202459324E+04  0.25500000920E-02 0.  1.
       -2   -1    0    0    0  501  0.00000000000E+00  0.00000000000E+00 -0.81793015192E+03  0.81793015193E+03  0.25500000920E-02 0. -1.
    10030    2    1    2    0    0  0.00000000000E+00  0.00000000000E+00  0.40231578047E+03  0.20381760843E+04  0.19980750145E+04 0.  0.
        2    1    3    3  502    0  0.47352141113E+03  0.54438488412E+03 -0.50372330319E+03  0.87995147312E+03  0.25500000920E-02 0. -1.
       -2    1    3    3    0  502 -0.47352141113E+03 -0.54438488412E+03  0.90603908366E+03  0.11582246112E+04  0.25500000920E-02 0.  1.
</event>
<event>
 5   0  0.2093980E-05  0.2008653E+04  0.7818609E-02  0.8602586E-01
        1   -1    0    0  501    0  0.00000000000E+00  0.00000000000E+00  0.19061382610E+04  0.19061382610E+04  0.50400001928E-02 0. -1.
       -1   -1    0    0    0  501  0.00000000000E+00  0.00000000000E+00 -0.52917050456E+03  0.52917050458E+03  0.50400001928E-02 0.  1.
    10030    2    1    2    0    0  0.00000000000E+00  0.00000000000E+00  0.13769677564E+04  0.24353087655E+04  0.20086534249E+04 0.  0.
        2    1    3    3  502    0 -0.13561922134E+03  0.61948254719E+03 -0.25573335831E+03  0.68377682765E+03  0.25500000920E-02 0.  1.
       -2    1    3    3    0  502  0.13561922134E+03 -0.61948254719E+03  0.16327011147E+04  0.17515319379E+04  0.25500000920E-02 0. -1.
</event>
<event>
 5   0  0.2093980E-05  0.1996563E+04  0.7818609E-02  0.8608229E-01
        1   -1    0    0  501    0  0.00000000000E+00  0.00000000000E+00  0.80033144141E+03  0.80033144143E+03  0.50400001928E-02 0.  1.
       -1   -1    0    0    0  501  0.00000000000E+00  0.00000000000E+00 -0.12451911638E+04  0.12451911638E+04  0.50400001928E-02 0. -1.
    10030    2    1    2    0    0  0.00000000000E+00  0.00000000000E+00 -0.44485972236E+03  0.20455226052E+04  0.19965626852E+04 0.  0.
        2    1    3    3  502    0  0.38733400819E+03 -0.48866937898E+03 -0.10211236936E+04  0.11964610289E+04  0.25500000920E-02 0. -1.
       -2    1    3    3    0  502 -0.38733400819E+03  0.48866937898E+03  0.57626397128E+03  0.84906157636E+03  0.25500000920E-02 0.  1.
</event>
<event>
 5   0  0.2110896E-05  0.1991077E+04  0.7818609E-02  0.8610804E-01
        1   -1    0    0  501    0  0.00000000000E+00  0.00000000000E+00  0.75026735097E+03  0.75026735099E+03  0.50400001928E-02 0.  1.
       -1   -1    0    0    0  501  0.00000000000E+00  0.00000000000E+00 -0.13209915232E+04  0.13209915232E+04  0.50400001928E-02 0. -1.
    10030    2    1    2    0    0  0.00000000000E+00  0.00000000000E+00 -0.57072417227E+03  0.20712588742E+04  0.19910769054E+04 0.  0.
        4    1    3    3  502    0 -0.73086204051E+03  0.66902915899E+03 -0.18484879014E+03  0.10079335424E+04  0.12699999809E+01 0.  1.
       -4    1    3    3    0  502  0.73086204051E+03 -0.66902915899E+03 -0.38587538213E+03  0.10633253318E+04  0.12699999809E+01 0. -1.
</event>
<event>
 5   0  0.2256868E-05  0.2002288E+04  0.7818609E-02  0.8605552E-01
       -1   -1    0    0    0  501  0.00000000000E+00  0.00000000000E+00  0.76010957263E+03  0.76010957265E+03  0.50400001928E-02 0. -1.
        1   -1    0    0  501    0  0.00000000000E+00  0.00000000000E+00 -0.13186111472E+04  0.13186111472E+04  0.50400001928E-02 0.  1.
    10030    2    1    2    0    0  0.00000000000E+00  0.00000000000E+00 -0.55850157460E+03  0.20787207199E+04  0.20022876473E+04 0.  0.
        5    1    3    3  502    0  0.60820954533E+03 -0.69930640206E+03 -0.67227645205E+03  0.11449567734E+04  0.46999998093E+01 0.  1.
       -5    1    3    3    0  502 -0.60820954533E+03  0.69930640206E+03  0.11377487745E+03  0.93376394647E+03  0.46999998093E+01 0. -1.
</event>
<event>
 5   0  0.2256868E-05  0.1998414E+04  0.7818609E-02  0.8607363E-01
       -1   -1    0    0    0  501  0.00000000000E+00  0.00000000000E+00  0.12985803334E+04  0.12985803334E+04  0.50400001928E-02 0.  1.
        1   -1    0    0  501    0  0.00000000000E+00  0.00000000000E+00 -0.76885076930E+03  0.76885076932E+03  0.50400001928E-02 0. -1.
    10030    2    1    2    0    0  0.00000000000E+00  0.00000000000E+00  0.52972956412E+03  0.20674311028E+04  0.19984138594E+04 0.  0.
        5    1    3    3  502    0  0.28576461563E+03  0.94796437093E+03  0.40402635137E+03  0.10693723611E+04  0.46999998093E+01 0.  1.
       -5    1    3    3    0  502 -0.28576461563E+03 -0.94796437093E+03  0.12570321275E+03  0.99805874165E+03  0.46999998093E+01 0. -1.
</event>
<event>
 5   0  0.4514680E-05  0.2038701E+04  0.7818609E-02  0.8588738E-01
       -2   -1    0    0    0  501  0.00000000000E+00  0.00000000000E+00  0.75547889705E+03  0.75547889706E+03  0.25500000920E-02 0.  1.
        2   -1    0    0  501    0  0.00000000000E+00  0.00000000000E+00 -0.13753858211E+04  0.13753858211E+04  0.25500000920E-02 0. -1.
    10030    2    1    2    0    0  0.00000000000E+00  0.00000000000E+00 -0.61990692404E+03  0.21308647182E+04  0.20387005304E+04 0.  0.
        3    1    3    3  502    0 -0.85052184595E+03  0.44311239092E+03  0.51118321913E+02  0.96039007412E+03  0.10100000352E+00 0.  1.
       -3    1    3    3    0  502  0.85052184595E+03 -0.44311239092E+03 -0.67102524596E+03  0.11704746440E+04  0.10100000352E+00 0. -1.
</event>
<event>
 5   0  0.4514680E-05  0.1997186E+04  0.7818609E-02  0.8607937E-01
       -2   -1    0    0    0  501  0.00000000000E+00  0.00000000000E+00  0.11152080607E+04  0.11152080607E+04  0.25500000920E-02 0. -1.
        2   -1    0    0  501    0  0.00000000000E+00  0.00000000000E+00 -0.89417237964E+03  0.89417237964E+03  0.25500000920E-02 0.  1.
    10030    2    1    2    0    0  0.00000000000E+00  0.00000000000E+00  0.22103568103E+03  0.20093804403E+04  0.19971862661E+04 0.  0.
        3    1    3    3  502    0 -0.83991759751E+03 -0.46116796533E+03  0.39339420267E+03  0.10358071595E+04  0.10100000352E+00 0. -1.
       -3    1    3    3    0  502  0.83991759751E+03  0.46116796533E+03 -0.17235852164E+03  0.97357328077E+03  0.10100000352E+00 0.  1.
</event>
<event>
 5   0  0.2256868E-05  0.2096663E+04  0.7818609E-02  0.8562715E-01
        1   -1    0    0  501    0  0.00000000000E+00  0.00000000000E+00  0.28019343561E+04  0.28019343561E+04  0.50400001928E-02 0.  1.
       -1   -1    0    0    0  501  0.00000000000E+00  0.00000000000E+00 -0.39222854732E+03  0.39222854735E+03  0.50400001928E-02 0. -1.
    10030    2    1    2    0    0  0.00000000000E+00  0.00000000000E+00  0.24097058088E+04  0.31941629035E+04  0.20966627218E+04 0.  0.
        5    1    3    3  502    0 -0.21662314666E+02  0.55870813212E+03  0.25557962277E+04  0.26162454931E+04  0.46999998093E+01 0.  1.
       -5    1    3    3    0  502  0.21662314666E+02 -0.55870813212E+03 -0.14609041885E+03  0.57791741041E+03  0.46999998093E+01 0. -1.
</event>
<event>
 5   0  0.4577279E-05  0.2002091E+04  0.7818609E-02  0.8605644E-01
        2   -1    0    0  501    0  0.00000000000E+00  0.00000000000E+00  0.63000498789E+03  0.63000498789E+03  0.25500000920E-02 0.  1.
       -2   -1    0    0    0  501  0.00000000000E+00  0.00000000000E+00 -0.15906090762E+04  0.15906090762E+04  0.25500000920E-02 0. -1.
    10030    2    1    2    0    0  0.00000000000E+00  0.00000000000E+00 -0.96060408831E+03  0.22206140641E+04  0.20020905592E+04 0.  0.
        1    1    3    3  502    0  0.30974840597E+03 -0.29858485522E+03  0.52223164958E+03  0.67662610548E+03  0.50400001928E-02 0.  1.
       -1    1    3    3    0  502 -0.30974840597E+03  0.29858485522E+03 -0.14828357379E+04  0.15439879586E+04  0.50400001928E-02 0. -1.
</event>
<event>
 5   0  0.2093980E-05  0.2004826E+04  0.7818609E-02  0.8604367E-01
        1   -1    0    0  501    0  0.00000000000E+00  0.00000000000E+00  0.14451422551E+04  0.14451422551E+04  0.50400001928E-02 0. -1.
       -1   -1    0    0    0  501  0.00000000000E+00  0.00000000000E+00 -0.69531716289E+03  0.69531716291E+03  0.50400001928E-02 0.  1.
    10030    2    1    2    0    0  0.00000000000E+00  0.00000000000E+00  0.74982509222E+03  0.21404594180E+04  0.20048263893E+04 0.  0.
        2    1    3    3  502    0 -0.20392646027E+02 -0.57936874216E+03 -0.49818254288E+03  0.76437546104E+03  0.25500000920E-02 0.  1.
       -2    1    3    3    0  502  0.20392646027E+02  0.57936874216E+03  0.12480076351E+04  0.13760839570E+04  0.25500000920E-02 0. -1.
</event>
<event>
 5   0  0.4514680E-05  0.2000551E+04  0.7818609E-02  0.8606363E-01
        2   -1    0    0  501    0  0.00000000000E+00  0.00000000000E+00  0.20183507068E+04  0.20183507068E+04  0.25500000920E-02 0.  1.
       -2   -1    0    0    0  501  0.00000000000E+00  0.00000000000E+00 -0.49572709645E+03  0.49572709645E+03  0.25500000920E-02 0. -1.
    10030    2    1    2    0    0  0.00000000000E+00  0.00000000000E+00  0.15226236103E+04  0.25140778032E+04  0.20005510596E+04 0.  0.
        3    1    3    3  502    0 -0.65336470043E+03 -0.20280185625E+03 -0.15576140769E+03  0.70162358213E+03  0.10100000352E+00 0. -1.
       -3    1    3    3    0  502  0.65336470043E+03  0.20280185625E+03  0.16783850180E+04  0.18124542211E+04  0.10100000352E+00 0.  1.
</event>
<event>
 5   0  0.4412054E-05  0.2009691E+04  0.7818609E-02  0.8602103E-01
       -2   -1    0    0    0  501  0.00000000000E+00  0.00000000000E+00  0.51038352456E+03  0.51038352456E+03  0.25500000920E-02 0.  1.
        2   -1    0    0  501    0  0.00000000000E+00  0.00000000000E+00 -0.19783451081E+04  0.19783451081E+04  0.25500000920E-02 0. -1.
    10030    2    1    2    0    0  0.00000000000E+00  0.00000000000E+00 -0.14679615835E+04  0.24887286326E+04  0.20096912689E+04 0.  0.
        4    1    3    3  502    0  0.31035783059E+03  0.72420355068E+03  0.38305887392E+02  0.78883567347E+03  0.12699999809E+01 0.  1.
       -4    1    3    3    0  502 -0.31035783059E+03 -0.72420355068E+03 -0.15062674709E+04  0.16998929592E+04  0.12699999809E+01 0. -1.
</event>
<event>
 5   0  0.4447313E-05  0.1999963E+04  0.7818609E-02  0.8606638E-01
       -2   -1    0    0    0  501  0.00000000000E+00  0.00000000000E+00  0.75688450220E+03  0.75688450220E+03  0.25500000920E-02 0. -1.
        2   -1    0    0  501    0  0.00000000000E+00  0.00000000000E+00 -0.13211563396E+04  0.13211563396E+04  0.25500000920E-02 0.  1.
    10030    2    1    2    0    0  0.00000000000E+00  0.00000000000E+00 -0.56427183735E+03  0.20780408418E+04  0.19999627580E+04 0.  0.
        5    1    3    3  502    0 -0.79776697815E+03  0.39060405045E+03 -0.75934483040E+03  0.11686018728E+04  0.46999998093E+01 0. -1.
       -5    1    3    3    0  502  0.79776697815E+03 -0.39060405045E+03  0.19507299304E+03  0.90943896896E+03  0.46999998093E+01 0.  1.
</event>
<event>
 5   0  0.2007644E-05  0.2000726E+04  0.7818609E-02  0.8606281E-01
       -1   -1    0    0    0  501  0.00000000000E+00  0.00000000000E+00  0.19001896663E+04  0.19001896663E+04  0.50400001928E-02 0. -1.
        1   -1    0    0  501    0  0.00000000000E+00  0.00000000000E+00 -0.52664524165E+03  0.52664524167E+03  0.50400001928E-02 0.  1.
    10030    2    1    2    0    0  0.00000000000E+00  0.00000000000E+00  0.13735444247E+04  0.24268349080E+04  0.20007257144E+04 0.  0.
        1    1    3    3  502    0  0.38184104548E+02 -0.21102999103E+03  0.18719784020E+04  0.18842226038E+04  0.50400001928E-02 0. -1.
       -1    1    3    3    0  502 -0.38184104548E+02  0.21102999103E+03 -0.49843397731E+03  0.54261230425E+03  0.50400001928E-02 0.  1.
</event>
<event>
 5   0  0.2142551E-05  0.1997959E+04  0.7818609E-02  0.8607576E-01
       -1   -1    0    0    0  501  0.00000000000E+00  0.00000000000E+00  0.94601990624E+03  0.94601990625E+03  0.50400001928E-02 0. -1.
        1   -1    0    0  501    0  0.00000000000E+00  0.00000000000E+00 -0.10549036831E+04  0.10549036831E+04  0.50400001928E-02 0.  1.
    10030    2    1    2    0    0  0.00000000000E+00  0.00000000000E+00 -0.10888377686E+03  0.20009235894E+04  0.19979588418E+04 0.  0.
        3    1    3    3  502    0  0.69996807187E+03 -0.15191188993E+03 -0.75184247128E+03  0.10384120742E+04  0.10100000352E+00 0.  1.
       -3    1    3    3    0  502 -0.69996807187E+03  0.15191188993E+03  0.64295869442E+03  0.96251151519E+03  0.10100000352E+00 0. -1.
</event>
<event>
 5   0  0.2110896E-05  0.2000580E+04  0.7818609E-02  0.8606349E-01
        1   -1    0    0  501    0  0.00000000000E+00  0.00000000000E+00  0.85540439751E+03  0.85540439753E+03  0.50400001928E-02 0.  1.
       -1   -1    0    0    0  501  0.00000000000E+00  0.00000000000E+00 -0.11697160441E+04  0.11697160441E+04  0.50400001928E-02 0. -1.
    10030    2    1    2    0    0  0.00000000000E+00  0.00000000000E+00 -0.31431164657E+03  0.20251204416E+04  0.20005801638E+04 0.  0.
        4    1    3    3  502    0  0.92632686229E+02 -0.30382749519E+03 -0.11173090438E+04  0.11615821424E+04  0.12699999809E+01 0. -1.
       -4    1    3    3    0  502 -0.92632686229E+02  0.30382749519E+03  0.80299739720E+03  0.86353829921E+03  0.12699999809E+01 0.  1.
</event>
<event>
 5   0  0.2256868E-05  0.2004881E+04  0.7818609E-02  0.8604342E-01
       -1   -1    0    0    0  501  0.00000000000E+00  0.00000000000E+00  0.72083962396E+03  0.72083962397E+03  0.50400001928E-02 0.  1.
        1   -1    0    0  501    0  0.00000000000E+00  0.00000000000E+00 -0.13940502534E+04  0.13940502534E+04  0.50400001928E-02 0. -1.
    10030    2    1    2    0    0  0.00000000000E+00  0.00000000000E+00 -0.67321062942E+03  0.21148898774E+04  0.20048807051E+04 0.  0.
        5    1    3    3  502    0  0.92827811314E+02 -0.96932391086E+03 -0.58769716446E+03  0.11373723638E+04  0.46999998093E+01 0. -1.
       -5    1    3    3    0  502 -0.92827811314E+02  0.96932391086E+03 -0.85513464961E+02  0.97751751361E+03  0.46999998093E+01 0.  1.
</event>
<event>
 5   0  0.4514680E-05  0.1996285E+04  0.7818609E-02  0.8608359E-01
       -2   -1    0    0    0  501  0.00000000000E+00  0.00000000000E+00  0.43972132011E+03  0.43972132012E+03  0.25500000920E-02 0.  1.
        2   -1    0    0  501    0  0.00000000000E+00  0.00000000000E+00 -0.22657277066E+04  0.22657277066E+04  0.25500000920E-02 0. -1.
    10030    2    1    2    0    0  0.00000000000E+00  0.00000000000E+00 -0.18260063865E+04  0.27054490267E+04  0.19962853285E+04 0.  0.
        3    1    3    3  502    0 -0.82588450407E+02  0.99196426760E+03 -0.10132801564E+04  0.14204050992E+04  0.10100000352E+00 0. -1.
       -3    1    3    3    0  502  0.82588450407E+02 -0.99196426760E+03 -0.81272623013E+03  0.12850439275E+04  0.10100000352E+00 0.  1.
</event>
<event>
 5   0  0.2093980E-05  0.1998667E+04  0.7818609E-02  0.8607244E-01
       -1   -1    0    0    0  501  0.00000000000E+00  0.00000000000E+00  0.43381794630E+03  0.43381794633E+03  0.50400001928E-02 0.  1.
        1   -1    0    0  501    0  0.00000000000E+00  0.00000000000E+00 -0.23020429044E+04  0.23020429044E+04  0.50400001928E-02 0. -1.
    10030    2    1    2    0    0  0.00000000000E+00  0.00000000000E+00 -0.18682249581E+04  0.27358608508E+04  0.19986670810E+04 0.  0.
        2    1    3    3  502    0 -0.15438744032E+03  0.64603241190E+02 -0.22827236988E+04  0.22888504856E+04  0.25500000920E-02 0. -1.
       -2    1    3    3    0  502  0.15438744032E+03 -0.64603241190E+02  0.41449874068E+03  0.44701036513E+03  0.25500000920E-02 0.  1.
</event>
<event>
 5   0  0.2110896E-05  0.2001640E+04  0.7818609E-02  0.8605854E-01
       -1   -1    0    0    0  501  0.00000000000E+00  0.00000000000E+00  0.10654148180E+04  0.10654148180E+04  0.50400001928E-02 0.  1.
        1   -1    0    0  501    0  0.00000000000E+00  0.00000000000E+00 -0.94014191044E+03  0.94014191045E+03  0.50400001928E-02 0. -1.
    10030    2    1    2    0    0  0.00000000000E+00  0.00000000000E+00  0.12527290759E+03  0.20055567285E+04  0.20016404497E+04 0.  0.
        4    1    3    3  502    0  0.94490071407E+03  0.97610345729E+02 -0.25305836405E+03  0.98305914754E+03  0.12699999809E+01 0.  1.
       -4    1    3    3    0  502 -0.94490071407E+03 -0.97610345729E+02  0.37833127164E+03  0.10224975810E+04  0.12699999809E+01 0. -1.
</event>
<event>
 5   0  0.2142551E-05  0.1975066E+04  0.7818609E-02  0.8618368E-01
       -1   -1    0    0    0  501  0.00000000000E+00  0.00000000000E+00  0.10563276686E+04  0.10563276686E+04  0.50400001928E-02 0.  1.
        1   -1    0    0  501    0  0.00000000000E+00  0.00000000000E+00 -0.92321856374E+03  0.92321856375E+03  0.50400001928E-02 0. -1.
    10030    2    1    2    0    0  0.00000000000E+00  0.00000000000E+00  0.13310910489E+03  0.19795462324E+04  0.19750658856E+04 0.  0.
        3    1    3    3  502    0  0.35605850902E+03  0.45169658689E+03  0.87112946957E+03  0.10438745286E+04  0.10100000352E+00 0.  1.
       -3    1    3    3    0  502 -0.35605850902E+03 -0.45169658689E+03 -0.73802036467E+03  0.93567170382E+03  0.10100000352E+00 0. -1.
</event>
<event>
 5   0  0.2110896E-05  0.1995275E+04  0.7818609E-02  0.8608833E-01
       -1   -1    0    0    0  501  0.00000000000E+00  0.00000000000E+00  0.82995695667E+03  0.82995695668E+03  0.50400001928E-02 0.  1.
        1   -1    0    0  501    0  0.00000000000E+00  0.00000000000E+00 -0.11991955958E+04  0.11991955959E+04  0.50400001928E-02 0. -1.
    10030    2    1    2    0    0  0.00000000000E+00  0.00000000000E+00 -0.36923863917E+03  0.20291525525E+04  0.19952751461E+04 0.  0.
        4    1    3    3  502    0  0.34015026543E+03  0.87339856757E+03  0.16287186985E+03  0.95134437497E+03  0.12699999809E+01 0. -1.
       -4    1    3    3    0  502 -0.34015026543E+03 -0.87339856757E+03 -0.53211050902E+03  0.10778081776E+04  0.12699999809E+01 0.  1.
</event>
<event>
 5   0  0.4473361E-05  0.2006597E+04  0.7818609E-02  0.8603543E-01
       -2   -1    0    0    0  501  0.00000000000E+00  0.00000000000E+00  0.90095962358E+03  0.90095962358E+03  0.25500000920E-02 0. -1.
        2   -1    0    0  501    0  0.00000000000E+00  0.00000000000E+00 -0.11172613699E+04  0.11172613699E+04  0.25500000920E-02 0.  1.
    10030    2    1    2    0    0  0.00000000000E+00  0.00000000000E+00 -0.21630174632E+03  0.20182209935E+04  0.20065965048E+04 0.  0.
        2    1    3    3  502    0  0.95820766278E+03  0.27771151551E+02  0.18966279568E+03  0.97719247743E+03  0.25500000920E-02 0. -1.
       -2    1    3    3    0  502 -0.95820766278E+03 -0.27771151551E+02 -0.40596454201E+03  0.10410285161E+04  0.25500000920E-02 0.  1.
</event>
<event>
 5   0  0.4447313E-05  0.2014619E+04  0.7818609E-02  0.8599816E-01
       -2   -1    0    0    0  501  0.00000000000E+00  0.00000000000E+00  0.91602021161E+03  0.91602021162E+03  0.25500000920E-02 0.  1.
        2   -1    0    0  501    0  0.00000000000E+00  0.00000000000E+00 -0.11076968402E+04  0.11076968402E+04  0.25500000920E-02 0. -1.
    10030    2    1    2    0    0  0.00000000000E+00  0.00000000000E+00 -0.19167662861E+03  0.20237170518E+04  0.20146192633E+04 0.  0.
        5    1    3    3  502    0  0.42823588172E+03 -0.90423230062E+03 -0.21310701532E+03  0.10229656465E+04  0.46999998093E+01 0. -1.
       -5    1    3    3    0  502 -0.42823588172E+03  0.90423230062E+03  0.21430386709E+02  0.10007514054E+04  0.46999998093E+01 0.  1.
</event>
<event>
 5   0  0.4514680E-05  0.1998766E+04  0.7818609E-02  0.8607198E-01
        2   -1    0    0  501    0  0.00000000000E+00  0.00000000000E+00  0.18640341557E+04  0.18640341557E+04  0.25500000920E-02 0. -1.
       -2   -1    0    0    0  501  0.00000000000E+00  0.00000000000E+00 -0.53580914763E+03  0.53580914763E+03  0.25500000920E-02 0.  1.
    10030    2    1    2    0    0  0.00000000000E+00  0.00000000000E+00  0.13282250081E+04  0.23998433033E+04  0.19987661715E+04 0.  0.
        3    1    3    3  502    0 -0.26524939379E+03 -0.57661521932E+03 -0.26275232445E+03  0.68693605690E+03  0.10100000352E+00 0.  1.
       -3    1    3    3    0  502  0.26524939379E+03  0.57661521932E+03  0.15909773325E+04  0.17129072464E+04  0.10100000352E+00 0. -1.
</event>
<event>
 5   0  0.4447313E-05  0.1981103E+04  0.7818609E-02  0.8615507E-01
        2   -1    0    0  501    0  0.00000000000E+00  0.00000000000E+00  0.19658973234E+04  0.19658973234E+04  0.25500000920E-02 0.  1.
       -2   -1    0    0    0  501  0.00000000000E+00  0.00000000000E+00 -0.49910651345E+03  0.49910651346E+03  0.25500000920E-02 0. -1.
    10030    2    1    2    0    0  0.00000000000E+00  0.00000000000E+00  0.14667908100E+04  0.24650038369E+04  0.19811028837E+04 0.  0.
        5    1    3    3  502    0  0.53563684345E+03 -0.70708530744E+03  0.18494188643E+03  0.90614681559E+03  0.46999998093E+01 0. -1.
       -5    1    3    3    0  502 -0.53563684345E+03  0.70708530744E+03  0.12818489235E+04  0.15588570213E+04  0.46999998093E+01 0.  1.
</event>
<event>
 5   0  0.2110896E-05  0.1995568E+04  0.7818609E-02  0.8608695E-01
        1   -1    0    0  501    0  0.00000000000E+00  0.00000000000E+00  0.24086902125E+04  0.24086902125E+04  0.50400001928E-02 0.  1.
       -1   -1    0    0    0  501  0.00000000000E+00  0.00000000000E+00 -0.41332563064E+03  0.41332563067E+03  0.50400001928E-02 0. -1.
    10030    2    1    2    0    0  0.00000000000E+00  0.00000000000E+00  0.19953645819E+04  0.28220158432E+04  0.19955684916E+04 0.  0.
        4    1    3    3  502    0  0.15039537672E+02 -0.69200417148E+03  0.20139726587E+04  0.21295970144E+04  0.12699999809E+01 0.  1.
       -4    1    3    3    0  502 -0.15039537672E+02  0.69200417148E+03 -0.18608076789E+02  0.69241882879E+03  0.12699999809E+01 0. -1.
</event>
<event>
 5   0  0.2142551E-05  0.2014516E+04  0.7818609E-02  0.8599864E-01
        1   -1    0    0  501    0  0.00000000000E+00  0.00000000000E+00  0.20995880017E+04  0.20995880018E+04  0.50400001928E-02 0.  1.
       -1   -1    0    0    0  501  0.00000000000E+00  0.00000000000E+00 -0.48322269015E+03  0.48322269018E+03  0.50400001928E-02 0. -1.
    10030    2    1    2    0    0  0.00000000000E+00  0.00000000000E+00  0.16163653116E+04  0.25828106919E+04  0.20145158847E+04 0.  0.
        3    1    3    3  502    0 -0.52429197960E+03  0.81203928839E+03  0.44491899581E+03  0.10640689869E+04  0.10100000352E+00 0. -1.
       -3    1    3    3    0  502  0.52429197960E+03 -0.81203928839E+03  0.11714463158E+04  0.15187417051E+04  0.10100000352E+00 0.  1.
</event>
<event>
 5   0  0.2142551E-05  0.1998701E+04  0.7818609E-02  0.8607228E-01
       -1   -1    0    0    0  501  0.00000000000E+00  0.00000000000E+00  0.18596500773E+04  0.18596500773E+04  0.50400001928E-02 0. -1.
        1   -1    0    0  501    0  0.00000000000E+00  0.00000000000E+00 -0.53703734340E+03  0.53703734343E+03  0.50400001928E-02 0.  1.
    10030    2    1    2    0    0  0.00000000000E+00  0.00000000000E+00  0.13226127339E+04  0.23966874207E+04  0.19987011154E+04 0.  0.
        3    1    3    3  502    0 -0.25436577203E+03  0.41768927113E+03  0.17063574263E+04  0.17750554779E+04  0.10100000352E+00 0. -1.
       -3    1    3    3    0  502  0.25436577203E+03 -0.41768927113E+03 -0.38374469240E+03  0.62163194282E+03  0.10100000352E+00 0.  1.
</event>
<event>
 5   0  0.2256868E-05  0.2001458E+04  0.7818609E-02  0.8605940E-01
       -1   -1    0    0    0  501  0.00000000000E+00  0.00000000000E+00  0.87611258070E+03  0.87611258071E+03  0.50400001928E-02 0.  1.
        1   -1    0    0  501    0  0.00000000000E+00  0.00000000000E+00 -0.11430700942E+04  0.11430700942E+04  0.50400001928E-02 0. -1.
    10030    2    1    2    0    0  0.00000000000E+00  0.00000000000E+00 -0.26695751350E+03  0.20191826749E+04  0.20014575591E+04 0.  0.
        5    1    3    3  502    0  0.27165446031E+03  0.38578897825E+03 -0.10237945362E+04  0.11273005916E+04  0.46999998093E+01 0. -1.
       -5    1    3    3    0  502 -0.27165446031E+03 -0.38578897825E+03  0.75683702270E+03  0.89188208328E+03  0.46999998093E+01 0.  1.
</event>
<event>
 5   0  0.4473361E-05  0.1995484E+04  0.7818609E-02  0.8608735E-01
        2   -1    0    0  501    0  0.00000000000E+00  0.00000000000E+00  0.15403047519E+04  0.15403047519E+04  0.25500000920E-02 0.  1.
       -2   -1    0    0    0  501  0.00000000000E+00  0.00000000000E+00 -0.64629383499E+03  0.64629383500E+03  0.25500000920E-02 0. -1.
    10030    2    1    2    0    0  0.00000000000E+00  0.00000000000E+00  0.89401091695E+03  0.21865985869E+04  0.19954843675E+04 0.  0.
        2    1    3    3  502    0  0.62949671311E+03 -0.45278473281E+03 -0.24098780784E+03  0.81200692708E+03  0.25500000920E-02 0.  1.
       -2    1    3    3    0  502 -0.62949671311E+03  0.45278473281E+03  0.11349987248E+04  0.13745916599E+04  0.25500000920E-02 0. -1.
</event>
<event>
 5   0  0.4514680E-05  0.2004613E+04  0.7818609E-02  0.8604467E-01
        2   -1    0    0  501    0  0.00000000000E+00  0.00000000000E+00  0.12476280590E+04  0.12476280590E+04  0.25500000920E-02 0. -1.
       -2   -1    0    0    0  501  0.00000000000E+00  0.00000000000E+00 -0.80522249759E+03  0.80522249760E+03  0.25500000920E-02 0.  1.
    10030    2    1    2    0    0  0.00000000000E+00  0.00000000000E+00  0.44240556141E+03  0.20528505566E+04  0.20046128621E+04 0.  0.
        3    1    3    3  502    0 -0.14847833964E+02  0.58577849342E+02 -0.80335524787E+03  0.80562490471E+03  0.10100000352E+00 0.  1.
       -3    1    3    3    0  502  0.14847833964E+02 -0.58577849342E+02  0.12457608093E+04  0.12472256519E+04  0.10100000352E+00 0. -1.
</event>
<event>
 5   0  0.4514680E-05  0.1994486E+04  0.7818609E-02  0.8609203E-01
       -2   -1    0    0    0  501  0.00000000000E+00  0.00000000000E+00  0.79233272592E+03  0.79233272592E+03  0.25500000920E-02 0. -1.
        2   -1    0    0  501    0  0.00000000000E+00  0.00000000000E+00 -0.12551460646E+04  0.12551460647E+04  0.25500000920E-02 0.  1.
    10030    2    1    2    0    0  0.00000000000E+00  0.00000000000E+00 -0.46281333873E+03  0.20474787906E+04  0.19944857010E+04 0.  0.
        3    1    3    3  502    0  0.59376299972E+03  0.51555173130E+03  0.39819554913E+03  0.88142373069E+03  0.10100000352E+00 0. -1.
       -3    1    3    3    0  502 -0.59376299972E+03 -0.51555173130E+03 -0.86100888786E+03  0.11660550599E+04  0.10100000352E+00 0.  1.
</event>
<event>
 5   0  0.2093980E-05  0.2005468E+04  0.7818609E-02  0.8604068E-01
       -1   -1    0    0    0  501  0.00000000000E+00  0.00000000000E+00  0.79602453313E+03  0.79602453314E+03  0.50400001928E-02 0. -1.
        1   -1    0    0  501    0  0.00000000000E+00  0.00000000000E+00 -0.12631217486E+04  0.12631217486E+04  0.50400001928E-02 0.  1.
    10030    2    1    2    0    0  0.00000000000E+00  0.00000000000E+00 -0.46709721546E+03  0.20591462817E+04  0.20054684243E+04 0.  0.
        2    1    3    3  502    0 -0.87607544548E+03  0.13963809325E+03  0.24636846434E+03  0.92070864202E+03  0.25500000920E-02 0. -1.
       -2    1    3    3    0  502  0.87607544548E+03 -0.13963809325E+03 -0.71346567980E+03  0.11384376397E+04  0.25500000920E-02 0.  1.
</event>
<event>
 5   0  0.4412054E-05  0.1975616E+04  0.7818609E-02  0.8618107E-01
        2   -1    0    0  501    0  0.00000000000E+00  0.00000000000E+00  0.12306606065E+04  0.12306606065E+04  0.25500000920E-02 0. -1.
       -2   -1    0    0    0  501  0.00000000000E+00  0.00000000000E+00 -0.79287838700E+03  0.79287838700E+03  0.25500000920E-02 0.  1.
    10030    2    1    2    0    0  0.00000000000E+00  0.00000000000E+00  0.43778221949E+03  0.20235389935E+04  0.19756155462E+04 0.  0.
        4    1    3    3  502    0 -0.49552269612E+03 -0.56952503044E+03  0.87141714833E+03  0.11529401381E+04  0.12699999809E+01 0. -1.
       -4    1    3    3    0  502  0.49552269612E+03  0.56952503044E+03 -0.43363492884E+03  0.87059885543E+03  0.12699999809E+01 0.  1.
</event>
<event>
 5   0  0.4514680E-05  0.2001470E+04  0.7818609E-02  0.8605934E-01
       -2   -1    0    0    0  501  0.00000000000E+00  0.00000000000E+00  0.51968314924E+03  0.51968314924E+03  0.25500000920E-02 0.  1.
        2   -1    0    0  501    0  0.00000000000E+00  0.00000000000E+00 -0.19270794248E+04  0.19270794248E+04  0.25500000920E-02 0. -1.
    10030    2    1    2    0    0  0.00000000000E+00  0.00000000000E+00 -0.14073962755E+04  0.24467625740E+04  0.20014701640E+04 0.  0.
        3    1    3    3  502    0  0.39749704897E+03  0.26294492314E+03 -0.17794320055E+04  0.18421515163E+04  0.10100000352E+00 0. -1.
       -3    1    3    3    0  502 -0.39749704897E+03 -0.26294492314E+03  0.37203572998E+03  0.60461105773E+03  0.10100000352E+00 0.  1.
</event>
<event>
 5   0  0.4514680E-05  0.2011154E+04  0.7818609E-02  0.8601423E-01
       -2   -1    0    0    0  501  0.00000000000E+00  0.00000000000E+00  0.41153749171E+03  0.41153749171E+03  0.25500000920E-02 0.  1.
        2   -1    0    0  501    0  0.00000000000E+00  0.00000000000E+00 -0.24570912656E+04  0.24570912656E+04  0.25500000920E-02 0. -1.
    10030    2    1    2    0    0  0.00000000000E+00  0.00000000000E+00 -0.20455537739E+04  0.28686287573E+04  0.20111540730E+04 0.  0.
        3    1    3    3  502    0  0.63132903641E+03 -0.39590241396E+03 -0.19858284835E+04  0.21210445185E+04  0.10100000352E+00 0. -1.
       -3    1    3    3    0  502 -0.63132903641E+03  0.39590241396E+03 -0.59725290449E+02  0.74758423881E+03  0.10100000352E+00 0.  1.
</event>
<event>
 5   0  0.4514680E-05  0.1995300E+04  0.7818609E-02  0.8608821E-01
        2   -1    0    0  501    0  0.00000000000E+00  0.00000000000E+00  0.11877125077E+04  0.11877125077E+04  0.25500000920E-02 0. -1.
       -2   -1    0    0    0  501  0.00000000000E+00  0.00000000000E+00 -0.83800208520E+03  0.83800208521E+03  0.25500000920E-02 0.  1.
    10030    2    1    2    0    0  0.00000000000E+00  0.00000000000E+00  0.34971042251E+03  0.20257145929E+04  0.19953000357E+04 0.  0.
        3    1    3    3  502    0  0.55414970758E+03 -0.56693475060E+02  0.10151242151E+04  0.11579176270E+04  0.10100000352E+00 0. -1.
       -3    1    3    3    0  502 -0.55414970758E+03  0.56693475060E+02 -0.66541379261E+03  0.86779696595E+03  0.10100000352E+00 0.  1.
</event>
<event>
 5   0  0.4447313E-05  0.2011592E+04  0.7818609E-02  0.8601220E-01
       -2   -1    0    0    0  501  0.00000000000E+00  0.00000000000E+00  0.55775197075E+03  0.55775197076E+03  0.25500000920E-02 0.  1.
        2   -1    0    0  501    0  0.00000000000E+00  0.00000000000E+00 -0.18137548305E+04  0.18137548305E+04  0.25500000920E-02 0. -1.
    10030    2    1    2    0    0  0.00000000000E+00  0.00000000000E+00 -0.12560028597E+04  0.23715068012E+04  0.20115917391E+04 0.  0.
        5    1    3    3  502    0  0.49532472497E+02 -0.65399109610E+03 -0.15269586163E+04  0.16618611632E+04  0.46999998093E+01 0. -1.
       -5    1    3    3    0  502 -0.49532472497E+02  0.65399109610E+03  0.27095575661E+03  0.70964563808E+03  0.46999998093E+01 0.  1.
</event>
<event>
 5   0  0.2142551E-05  0.1998733E+04  0.7818609E-02  0.8607213E-01
        1   -1    0    0  501    0  0.00000000000E+00  0.00000000000E+00  0.59882694051E+03  0.59882694053E+03  0.50400001928E-02 0. -1.
       -1   -1    0    0    0  501  0.00000000000E+00  0.00000000000E+00 -0.16678166117E+04  0.16678166117E+04  0.50400001928E-02 0.  1.
    10030    2    1    2    0    0  0.00000000000E+00  0.00000000000E+00 -0.10689896712E+04  0.22666435522E+04  0.19987331177E+04 0.  0.
        3    1    3    3  502    0 -0.99760197925E+02 -0.92586858896E+03 -0.12318242602E+03  0.93933948144E+03  0.10100000352E+00 0. -1.
       -3    1    3    3    0  502  0.99760197925E+02  0.92586858896E+03 -0.94580724514E+03  0.13273040708E+04  0.10100000352E+00 0.  1.
</event>
<event>
 5   0  0.2093980E-05  0.2002477E+04  0.7818609E-02  0.8605463E-01
        1   -1    0    0  501    0  0.00000000000E+00  0.00000000000E+00  0.12836175553E+04  0.12836175553E+04  0.50400001928E-02 0.  1.
       -1   -1    0    0    0  501  0.00000000000E+00  0.00000000000E+00 -0.78097940573E+03  0.78097940575E+03  0.50400001928E-02 0. -1.
    10030    2    1    2    0    0  0.00000000000E+00  0.00000000000E+00  0.50263814959E+03  0.20645969611E+04  0.20024773413E+04 0.  0.
        2    1    3    3  502    0  0.88293228945E+03 -0.10666340635E+02 -0.23533577200E+03  0.91381952494E+03  0.25500000920E-02 0. -1.
       -2    1    3    3    0  502 -0.88293228945E+03  0.10666340635E+02  0.73797392158E+03  0.11507774361E+04  0.25500000920E-02 0.  1.
</event>
<event>
 5   0  0.2110896E-05  0.2000233E+04  0.7818609E-02  0.8606512E-01
        1   -1    0    0  501    0  0.00000000000E+00  0.00000000000E+00  0.81604585738E+03  0.81604585740E+03  0.50400001928E-02 0. -1.
       -1   -1    0    0    0  501  0.00000000000E+00  0.00000000000E+00 -0.12257071590E+04  0.12257071590E+04  0.50400001928E-02 0.  1.
    10030    2    1    2    0    0  0.00000000000E+00  0.00000000000E+00 -0.40966130160E+03  0.20417530164E+04  0.20002332359E+04 0.  0.
        4    1    3    3  502    0 -0.39398716862E+03 -0.78291499181E+03  0.28688408663E+03  0.92221790565E+03  0.12699999809E+01 0. -1.
       -4    1    3    3    0  502  0.39398716862E+03  0.78291499181E+03 -0.69654538823E+03  0.11195351107E+04  0.12699999809E+01 0.  1.
</event>
<event>
 5   0  0.4514680E-05  0.2002043E+04  0.7818609E-02  0.8605666E-01
        2   -1    0    0  501    0  0.00000000000E+00  0.00000000000E+00  0.15075364397E+04  0.15075364397E+04  0.25500000920E-02 0.  1.
       -2   -1    0    0    0  501  0.00000000000E+00  0.00000000000E+00 -0.66468946626E+03  0.66468946627E+03  0.25500000920E-02 0. -1.
    10030    2    1    2    0    0  0.00000000000E+00  0.00000000000E+00  0.84284697339E+03  0.21722259059E+04  0.20020425485E+04 0.  0.
        3    1    3    3  502    0  0.60799098580E+03  0.39950359687E+03  0.11674678289E+04  0.13755861676E+04  0.10100000352E+00 0.  1.
       -3    1    3    3    0  502 -0.60799098580E+03 -0.39950359687E+03 -0.32462085548E+03  0.79663973836E+03  0.10100000352E+00 0. -1.
</event>
<event>
 5   0  0.4514680E-05  0.2000083E+04  0.7818609E-02  0.8606582E-01
        2   -1    0    0  501    0  0.00000000000E+00  0.00000000000E+00  0.15605408849E+04  0.15605408849E+04  0.25500000920E-02 0.  1.
       -2   -1    0    0    0  501  0.00000000000E+00  0.00000000000E+00 -0.64085663035E+03  0.64085663036E+03  0.25500000920E-02 0. -1.
    10030    2    1    2    0    0  0.00000000000E+00  0.00000000000E+00  0.91968425456E+03  0.22013975153E+04  0.20000829713E+04 0.  0.
        3    1    3    3  502    0 -0.42589544603E+03 -0.73644927723E+03  0.10384324331E+04  0.13424181156E+04  0.10100000352E+00 0.  1.
       -3    1    3    3    0  502  0.42589544603E+03  0.73644927723E+03 -0.11874817855E+03  0.85897939963E+03  0.10100000352E+00 0. -1.
</event>
<event>
 5   0  0.4577279E-05  0.1998569E+04  0.7818609E-02  0.8607290E-01
       -2   -1    0    0    0  501  0.00000000000E+00  0.00000000000E+00  0.67419663423E+03  0.67419663423E+03  0.25500000920E-02 0. -1.
        2   -1    0    0  501    0  0.00000000000E+00  0.00000000000E+00 -0.14811244080E+04  0.14811244080E+04  0.25500000920E-02 0.  1.
    10030    2    1    2    0    0  0.00000000000E+00  0.00000000000E+00 -0.80692777381E+03  0.21553210423E+04  0.19985685785E+04 0.  0.
        1    1    3    3  502    0  0.17953406211E+03  0.47110080514E+03 -0.13339208354E+04  0.14260130586E+04  0.50400001928E-02 0.  1.
       -1    1    3    3    0  502 -0.17953406211E+03 -0.47110080514E+03  0.52699306161E+03  0.72930798369E+03  0.50400001928E-02 0. -1.
</event>
<event>
 5   0  0.2007644E-05  0.2005035E+04  0.7818609E-02  0.8604270E-01
        1   -1    0    0  501    0  0.00000000000E+00  0.00000000000E+00  0.80035853328E+03  0.80035853330E+03  0.50400001928E-02 0.  1.
       -1   -1    0    0    0  501  0.00000000000E+00  0.00000000000E+00 -0.12557394510E+04  0.12557394510E+04  0.50400001928E-02 0. -1.
    10030    2    1    2    0    0  0.00000000000E+00  0.00000000000E+00 -0.45538091770E+03  0.20560979843E+04  0.20050354463E+04 0.  0.
        1    1    3    3  502    0 -0.85498193982E+03  0.20024921275E+03 -0.72369008278E+03  0.11379021050E+04  0.50400001928E-02 0. -1.
       -1    1    3    3    0  502  0.85498193982E+03 -0.20024921275E+03  0.26830916508E+03  0.91819587928E+03  0.50400001928E-02 0.  1.
</event>
<event>
 5   0  0.4473361E-05  0.2003217E+04  0.7818609E-02  0.8605118E-01
       -2   -1    0    0    0  501  0.00000000000E+00  0.00000000000E+00  0.16337319202E+04  0.16337319202E+04  0.25500000920E-02 0. -1.
        2   -1    0    0  501    0  0.00000000000E+00  0.00000000000E+00 -0.61406617045E+03  0.61406617045E+03  0.25500000920E-02 0.  1.
    10030    2    1    2    0    0  0.00000000000E+00  0.00000000000E+00  0.10196657498E+04  0.22477980907E+04  0.20032169167E+04 0.  0.
        2    1    3    3  502    0 -0.14825261802E+03  0.54870276071E+02 -0.59998007843E+03  0.62045602621E+03  0.25500000920E-02 0.  1.
       -2    1    3    3    0  502  0.14825261802E+03 -0.54870276071E+02  0.16196458282E+04  0.16273420645E+04  0.25500000920E-02 0. -1.
</event>
<event>
 5   0  0.4514680E-05  0.1999069E+04  0.7818609E-02  0.8607056E-01
        2   -1    0    0  501    0  0.00000000000E+00  0.00000000000E+00  0.10725594931E+04  0.10725594931E+04  0.25500000920E-02 0.  1.
       -2   -1    0    0    0  501  0.00000000000E+00  0.00000000000E+00 -0.93148145262E+03  0.93148145263E+03  0.25500000920E-02 0. -1.
    10030    2    1    2    0    0  0.00000000000E+00  0.00000000000E+00  0.14107804052E+03  0.20040409458E+04  0.19990690580E+04 0.  0.
        3    1    3    3  502    0  0.93261379628E+02 -0.65668446190E+03  0.82015346594E+03  0.10547909202E+04  0.10100000352E+00 0.  1.
       -3    1    3    3    0  502 -0.93261379628E+02  0.65668446190E+03 -0.67907542542E+03  0.94925002557E+03  0.10100000352E+00 0. -1.
</event>
<event>
 5   0  0.2007644E-05  0.1996304E+04  0.7818609E-02  0.8608351E-01
        1   -1    0    0  501    0  0.00000000000E+00  0.00000000000E+00  0.80155364394E+03  0.80155364395E+03  0.50400001928E-02 0.  1.
       -1   -1    0    0    0  501  0.00000000000E+00  0.00000000000E+00 -0.12429698830E+04  0.12429698830E+04  0.50400001928E-02 0. -1.
    10030    2    1    2    0    0  0.00000000000E+00  0.00000000000E+00 -0.44141623909E+03  0.20445235270E+04  0.19963036233E+04 0.  0.
        1    1    3    3  502    0 -0.51060645893E+03 -0.70987211813E+03 -0.71365497122E+03  0.11286898591E+04  0.50400001928E-02 0. -1.
       -1    1    3    3    0  502  0.51060645893E+03  0.70987211813E+03  0.27223873212E+03  0.91583366792E+03  0.50400001928E-02 0.  1.
</event>
<event>
 5   0  0.4412054E-05  0.1998338E+04  0.7818609E-02  0.8607398E-01
        2   -1    0    0  501    0  0.00000000000E+00  0.00000000000E+00  0.12851925095E+04  0.12851925095E+04  0.25500000920E-02 0.  1.
       -2   -1    0    0    0  501  0.00000000000E+00  0.00000000000E+00 -0.77680062734E+03  0.77680062735E+03  0.25500000920E-02 0. -1.
    10030    2    1    2    0    0  0.00000000000E+00  0.00000000000E+00  0.50839188216E+03  0.20619931369E+04  0.19983376568E+04 0.  0.
        4    1    3    3  502    0 -0.17837147259E+03  0.36100012839E+03 -0.68937212113E+03  0.79835644246E+03  0.12699999809E+01 0. -1.
       -4    1    3    3    0  502  0.17837147259E+03 -0.36100012839E+03  0.11977640033E+04  0.12636366944E+04  0.12699999809E+01 0.  1.
</event>
<event>
 5   0  0.2256868E-05  0.1993810E+04  0.7818609E-02  0.8609520E-01
        1   -1    0    0  501    0  0.00000000000E+00  0.00000000000E+00  0.17955350236E+04  0.17955350236E+04  0.50400001928E-02 0.  1.
       -1   -1    0    0    0  501  0.00000000000E+00  0.00000000000E+00 -0.55349495760E+03  0.55349495762E+03  0.50400001928E-02 0. -1.
    10030    2    1    2    0    0  0.00000000000E+00  0.00000000000E+00  0.12420400660E+04  0.23490299812E+04  0.19938100027E+04 0.  0.
        5    1    3    3  502    0  0.46708607614E+03 -0.74571320959E+03  0.11730485567E+04  0.14663978314E+04  0.46999998093E+01 0.  1.
       -5    1    3    3    0  502 -0.46708607614E+03  0.74571320959E+03  0.68991509210E+02  0.88263214977E+03  0.46999998093E+01 0. -1.
</event>
<event>
 5   0  0.4447313E-05  0.1996647E+04  0.7818609E-02  0.8608190E-01
       -2   -1    0    0    0  501  0.00000000000E+00  0.00000000000E+00  0.88761681831E+03  0.88761681832E+03  0.25500000920E-02 0. -1.
        2   -1    0    0  501    0  0.00000000000E+00  0.00000000000E+00 -0.11228381136E+04  0.11228381136E+04  0.25500000920E-02 0.  1.
    10030    2    1    2    0    0  0.00000000000E+00  0.00000000000E+00 -0.23522129533E+03  0.20104549320E+04  0.19966471836E+04 0.  0.
        5    1    3    3  502    0 -0.72541179830E+02 -0.48997077257E+02  0.88373373535E+03  0.88807113529E+03  0.46999998093E+01 0. -1.
       -5    1    3    3    0  502  0.72541179830E+02  0.48997077257E+02 -0.11189550307E+04  0.11223837967E+04  0.46999998093E+01 0.  1.
</event>
<event>
 5   0  0.4412054E-05  0.1993894E+04  0.7818609E-02  0.8609481E-01
        2   -1    0    0  501    0  0.00000000000E+00  0.00000000000E+00  0.16174178597E+04  0.16174178597E+04  0.25500000920E-02 0.  1.
       -2   -1    0    0    0  501  0.00000000000E+00  0.00000000000E+00 -0.61450015396E+03  0.61450015396E+03  0.25500000920E-02 0. -1.
    10030    2    1    2    0    0  0.00000000000E+00  0.00000000000E+00  0.10029177058E+04  0.22319180137E+04  0.19938942036E+04 0.  0.
        4    1    3    3  502    0  0.64596862481E+03 -0.69000340241E+03  0.14655872998E+03  0.95648378649E+03  0.12699999809E+01 0. -1.
       -4    1    3    3    0  502 -0.64596862481E+03  0.69000340241E+03  0.85635897578E+03  0.12754342272E+04  0.12699999809E+01 0.  1.
</event>
<event>
 5   0  0.4514680E-05  0.2003704E+04  0.7818609E-02  0.8604891E-01
        2   -1    0    0  501    0  0.00000000000E+00  0.00000000000E+00  0.98280938907E+03  0.98280938907E+03  0.25500000920E-02 0.  1.
       -2   -1    0    0    0  501  0.00000000000E+00  0.00000000000E+00 -0.10212633952E+04  0.10212633952E+04  0.25500000920E-02 0. -1.
    10030    2    1    2    0    0  0.00000000000E+00  0.00000000000E+00 -0.38454006138E+02  0.20040727843E+04  0.20037038239E+04 0.  0.
        3    1    3    3  502    0 -0.14802392288E+03 -0.26239205871E+03  0.93643131374E+03  0.98369928828E+03  0.10100000352E+00 0.  1.
       -3    1    3    3    0  502  0.14802392288E+03  0.26239205871E+03 -0.97488531988E+03  0.10203734960E+04  0.10100000352E+00 0. -1.
</event>
<event>
 5   0  0.4514680E-05  0.1989509E+04  0.7818609E-02  0.8611541E-01
       -2   -1    0    0    0  501  0.00000000000E+00  0.00000000000E+00  0.50258443199E+03  0.50258443200E+03  0.25500000920E-02 0.  1.
        2   -1    0    0  501    0  0.00000000000E+00  0.00000000000E+00 -0.19688959039E+04  0.19688959039E+04  0.25500000920E-02 0. -1.
    10030    2    1    2    0    0  0.00000000000E+00  0.00000000000E+00 -0.14663114719E+04  0.24714803359E+04  0.19895089138E+04 0.  0.
        3    1    3    3  502    0  0.87602893779E+03 -0.46999211824E+03 -0.77649479196E+03  0.12614529176E+04  0.10100000352E+00 0. -1.
       -3    1    3    3    0  502 -0.87602893779E+03  0.46999211824E+03 -0.68981667997E+03  0.12100274184E+04  0.10100000352E+00 0.  1.
</event>
<event>
 5   0  0.4412054E-05  0.1982265E+04  0.7818609E-02  0.8614958E-01
        2   -1    0    0  501    0  0.00000000000E+00  0.00000000000E+00  0.14071221234E+04  0.14071221234E+04  0.25500000920E-02 0. -1.
       -2   -1    0    0    0  501  0.00000000000E+00  0.00000000000E+00 -0.69812231078E+03  0.69812231079E+03  0.25500000920E-02 0.  1.
    10030    2    1    2    0    0  0.00000000000E+00  0.00000000000E+00  0.70899981265E+03  0.21052444342E+04  0.19822647133E+04 0.  0.
        4    1    3    3  502    0 -0.60163801667E+03 -0.77862078404E+03  0.48071346231E+03  0.10951281542E+04  0.12699999809E+01 0.  1.
       -4    1    3    3    0  502  0.60163801667E+03  0.77862078404E+03  0.22828635033E+03  0.10101162800E+04  0.12699999809E+01 0. -1.
</event>
<event>
 5   0  0.4514680E-05  0.1998468E+04  0.7818609E-02  0.8607337E-01
       -2   -1    0    0    0  501  0.00000000000E+00  0.00000000000E+00  0.13271768976E+04  0.13271768976E+04  0.25500000920E-02 0.  1.
        2   -1    0    0  501    0  0.00000000000E+00  0.00000000000E+00 -0.75232502888E+03  0.75232502888E+03  0.25500000920E-02 0. -1.
    10030    2    1    2    0    0  0.00000000000E+00  0.00000000000E+00  0.57485186874E+03  0.20795019265E+04  0.19984678109E+04 0.  0.
        3    1    3    3  502    0 -0.68446253128E+03 -0.45349958940E+03  0.88000649021E+03  0.12035623238E+04  0.10100000352E+00 0.  1.
       -3    1    3    3    0  502  0.68446253128E+03  0.45349958940E+03 -0.30515462148E+03  0.87593960267E+03  0.10100000352E+00 0. -1.
</event>
<event>
 5   0  0.2256868E-05  0.1997271E+04  0.7818609E-02  0.8607898E-01
       -1   -1    0    0    0  501  0.00000000000E+00  0.00000000000E+00  0.40678009032E+03  0.40678009035E+03  0.50400001928E-02 0. -1.
        1   -1    0    0  501    0  0.00000000000E+00  0.00000000000E+00 -0.24516265261E+04  0.24516265261E+04  0.50400001928E-02 0.  1.
    10030    2    1    2    0    0  0.00000000000E+00  0.00000000000E+00 -0.20448464358E+04  0.28584066165E+04  0.19972709979E+04 0.  0.
        5    1    3    3  502    0  0.16715442282E+03 -0.42343310254E+03  0.24962790294E+03  0.51920359525E+03  0.46999998093E+01 0. -1.
       -5    1    3    3    0  502 -0.16715442282E+03  0.42343310254E+03 -0.22944743387E+04  0.23392030212E+04  0.46999998093E+01 0.  1.
</event>
<event>
 5   0  0.4577279E-05  0.2030389E+04  0.7818609E-02  0.8592543E-01
       -2   -1    0    0    0  501  0.00000000000E+00  0.00000000000E+00  0.12920685455E+04  0.12920685455E+04  0.25500000920E-02 0.  1.
        2   -1    0    0  501    0  0.00000000000E+00  0.00000000000E+00 -0.79765074334E+03  0.79765074335E+03  0.25500000920E-02 0. -1.
    10030    2    1    2    0    0  0.00000000000E+00  0.00000000000E+00  0.49441780215E+03  0.20897192888E+04  0.20303885695E+04 0.  0.
        1    1    3    3  502    0 -0.37026636501E+03 -0.38835883146E+03  0.11341921292E+04  0.12547157244E+04  0.50400001928E-02 0.  1.
       -1    1    3    3    0  502  0.37026636501E+03  0.38835883146E+03 -0.63977432708E+03  0.83500356445E+03  0.50400001928E-02 0. -1.
</event>
<event>
 5   0  0.2007644E-05  0.1985422E+04  0.7818609E-02  0.8613467E-01
       -1   -1    0    0    0  501  0.00000000000E+00  0.00000000000E+00  0.91386809562E+03  0.91386809564E+03  0.50400001928E-02 0. -1.
        1   -1    0    0  501    0  0.00000000000E+00  0.00000000000E+00 -0.10783562086E+04  0.10783562087E+04  0.50400001928E-02 0.  1.
    10030    2    1    2    0    0  0.00000000000E+00  0.00000000000E+00 -0.16448811302E+03  0.19922243043E+04  0.19854222068E+04 0.  0.
        1    1    3    3  502    0 -0.57024571143E+02  0.91314947168E+03 -0.46876706202E+03  0.10280254461E+04  0.50400001928E-02 0.  1.
       -1    1    3    3    0  502  0.57024571143E+02 -0.91314947168E+03  0.30427894899E+03  0.96419885821E+03  0.50400001928E-02 0. -1.
</event>
<event>
 5   0  0.4412054E-05  0.1981555E+04  0.7818609E-02  0.8615293E-01
       -2   -1    0    0    0  501  0.00000000000E+00  0.00000000000E+00  0.54644401482E+03  0.54644401483E+03  0.25500000920E-02 0. -1.
        2   -1    0    0  501    0  0.00000000000E+00  0.00000000000E+00 -0.17964144205E+04  0.17964144205E+04  0.25500000920E-02 0.  1.
    10030    2    1    2    0    0  0.00000000000E+00  0.00000000000E+00 -0.12499704057E+04  0.23428584353E+04  0.19815548524E+04 0.  0.
        4    1    3    3  502    0  0.25555623708E+03  0.67785730632E+03 -0.14241225528E+04  0.15977879009E+04  0.12699999809E+01 0.  1.
       -4    1    3    3    0  502 -0.25555623708E+03 -0.67785730632E+03  0.17415214709E+03  0.74507053443E+03  0.12699999809E+01 0. -1.
</event>
<event>
 5   0  0.4412054E-05  0.2001492E+04  0.7818609E-02  0.8605924E-01
       -2   -1    0    0    0  501  0.00000000000E+00  0.00000000000E+00  0.74483529436E+03  0.74483529436E+03  0.25500000920E-02 0.  1.
        2   -1    0    0  501    0  0.00000000000E+00  0.00000000000E+00 -0.13445822948E+04  0.13445822948E+04  0.25500000920E-02 0. -1.
    10030    2    1    2    0    0  0.00000000000E+00  0.00000000000E+00 -0.59974700048E+03  0.20894175892E+04  0.20014917930E+04 0.  0.
        4    1    3    3  502    0 -0.20568913515E+03 -0.28047570048E+03  0.67970689045E+03  0.76352976936E+03  0.12699999809E+01 0.  1.
       -4    1    3    3    0  502  0.20568913515E+03  0.28047570048E+03 -0.12794538909E+04  0.13258878198E+04  0.12699999809E+01 0. -1.
</event>
<event>
 5   0  0.1601500E-05  0.2006493E+04  0.7818609E-02  0.8603591E-01
        3   -1    0    0  501    0  0.00000000000E+00  0.00000000000E+00  0.89463046129E+03  0.89463046699E+03  0.10100000352E+00 0. -1.
       -3   -1    0    0    0  501  0.00000000000E+00  0.00000000000E+00 -0.11250493169E+04  0.11250493214E+04  0.10100000352E+00 0.  1.
    10030    2    1    2    0    0  0.00000000000E+00  0.00000000000E+00 -0.23041885557E+03  0.20196797884E+04  0.20064928603E+04 0.  0.
        1    1    3    3  502    0  0.78747916283E+03  0.47942600207E+03  0.28303034494E+03  0.96440598273E+03  0.50400001928E-02 0. -1.
       -1    1    3    3    0  502 -0.78747916283E+03 -0.47942600207E+03 -0.51344920050E+03  0.10552738056E+04  0.50400001928E-02 0.  1.
</event>
<event>
 5   0  0.4412054E-05  0.1996303E+04  0.7818609E-02  0.8608351E-01
        2   -1    0    0  501    0  0.00000000000E+00  0.00000000000E+00  0.18213803202E+04  0.18213803202E+04  0.25500000920E-02 0.  1.
       -2   -1    0    0    0  501  0.00000000000E+00  0.00000000000E+00 -0.54700611078E+03  0.54700611079E+03  0.25500000920E-02 0. -1.
    10030    2    1    2    0    0  0.00000000000E+00  0.00000000000E+00  0.12743742094E+04  0.23683864310E+04  0.19963027478E+04 0.  0.
        4    1    3    3  502    0 -0.35961603048E+03  0.47498298424E+03  0.15873130271E+04  0.16954340989E+04  0.12699999809E+01 0.  1.
       -4    1    3    3    0  502  0.35961603048E+03 -0.47498298424E+03 -0.31293881774E+03  0.67295233207E+03  0.12699999809E+01 0. -1.
</event>
<event>
 5   0  0.4577279E-05  0.1993793E+04  0.7818609E-02  0.8609528E-01
        2   -1    0    0  501    0  0.00000000000E+00  0.00000000000E+00  0.12071329782E+04  0.12071329782E+04  0.25500000920E-02 0. -1.
       -2   -1    0    0    0  501  0.00000000000E+00  0.00000000000E+00 -0.82327558186E+03  0.82327558186E+03  0.25500000920E-02 0.  1.
    10030    2    1    2    0    0  0.00000000000E+00  0.00000000000E+00  0.38385739637E+03  0.20304085601E+04  0.19937934748E+04 0.  0.
        1    1    3    3  502    0  0.60318440607E+03 -0.56397191225E+03  0.76067171387E+03  0.11227275724E+04  0.50400001928E-02 0. -1.
       -1    1    3    3    0  502 -0.60318440607E+03  0.56397191225E+03 -0.37681431750E+03  0.90768098770E+03  0.50400001928E-02 0.  1.
</event>
<event>
 5   0  0.2110896E-05  0.1999280E+04  0.7818609E-02  0.8606957E-01
       -1   -1    0    0    0  501  0.00000000000E+00  0.00000000000E+00  0.82521913026E+03  0.82521913028E+03  0.50400001928E-02 0. -1.
        1   -1    0    0  501    0  0.00000000000E+00  0.00000000000E+00 -0.12109270635E+04  0.12109270635E+04  0.50400001928E-02 0.  1.
    10030    2    1    2    0    0  0.00000000000E+00  0.00000000000E+00 -0.38570793320E+03  0.20361461938E+04  0.19992800486E+04 0.  0.
        4    1    3    3  502    0 -0.19507040363E+02  0.96261522128E+03  0.80933952636E+02  0.96620934918E+03  0.12699999809E+01 0. -1.
       -4    1    3    3    0  502  0.19507040363E+02 -0.96261522128E+03 -0.46664188583E+03  0.10699368446E+04  0.12699999809E+01 0.  1.
</event>
<event>
 5   0  0.1601500E-05  0.2015002E+04  0.7818609E-02  0.8599639E-01
        3   -1    0    0  501    0  0.00000000000E+00  0.00000000000E+00  0.66116705203E+03  0.66116705974E+03  0.10100000352E+00 0. -1.
       -3   -1    0    0    0  501  0.00000000000E+00  0.00000000000E+00 -0.15352523294E+04  0.15352523327E+04  0.10100000352E+00 0.  1.
    10030    2    1    2    0    0  0.00000000000E+00  0.00000000000E+00 -0.87408527734E+03  0.21964193924E+04  0.20150020038E+04 0.  0.
        5    1    3    3  502    0  0.81718952962E+03 -0.49243203792E+03 -0.78982994162E+03  0.12386046447E+04  0.46999998093E+01 0.  1.
       -5    1    3    3    0  502 -0.81718952962E+03  0.49243203792E+03 -0.84255335718E+02  0.95781474769E+03  0.46999998093E+01 0. -1.
</event>
<event>
 5   0  0.2256868E-05  0.1995950E+04  0.7818609E-02  0.8608516E-01
       -1   -1    0    0    0  501  0.00000000000E+00  0.00000000000E+00  0.73002997523E+03  0.73002997525E+03  0.50400001928E-02 0. -1.
        1   -1    0    0  501    0  0.00000000000E+00  0.00000000000E+00 -0.13642650225E+04  0.13642650225E+04  0.50400001928E-02 0.  1.
    10030    2    1    2    0    0  0.00000000000E+00  0.00000000000E+00 -0.63423504722E+03  0.20942949977E+04  0.19959502605E+04 0.  0.
        5    1    3    3  502    0 -0.29131989419E+02  0.60701688537E+03 -0.11477104384E+04  0.12986837615E+04  0.46999998093E+01 0.  1.
       -5    1    3    3    0  502  0.29131989419E+02 -0.60701688537E+03  0.51347539115E+03  0.79561123625E+03  0.46999998093E+01 0. -1.
</event>
<event>
 5   0  0.4412054E-05  0.1997537E+04  0.7818609E-02  0.8607773E-01
        2   -1    0    0  501    0  0.00000000000E+00  0.00000000000E+00  0.86585504142E+03  0.86585504143E+03  0.25500000920E-02 0.  1.
       -2   -1    0    0    0  501  0.00000000000E+00  0.00000000000E+00 -0.11520849607E+04  0.11520849607E+04  0.25500000920E-02 0. -1.
    10030    2    1    2    0    0  0.00000000000E+00  0.00000000000E+00 -0.28622991929E+03  0.20179400021E+04  0.19975370549E+04 0.  0.
        4    1    3    3  502    0 -0.54014998073E+03 -0.76450027322E+03  0.20874462356E+03  0.95906131201E+03  0.12699999809E+01 0.  1.
       -4    1    3    3    0  502  0.54014998073E+03  0.76450027322E+03 -0.49497454285E+03  0.10588786901E+04  0.12699999809E+01 0. -1.
</event>
<event>
 5   0  0.4577279E-05  0.1998796E+04  0.7818609E-02  0.8607184E-01
       -2   -1    0    0    0  501  0.00000000000E+00  0.00000000000E+00  0.42357068966E+03  0.42357068966E+03  0.25500000920E-02 0. -1.
        2   -1    0    0  501    0  0.00000000000E+00  0.00000000000E+00 -0.23580403594E+04  0.23580403594E+04  0.25500000920E-02 0.  1.
    10030    2    1    2    0    0  0.00000000000E+00  0.00000000000E+00 -0.19344696697E+04  0.27816110490E+04  0.19987964191E+04 0.  0.
        1    1    3    3  502    0  0.22480680826E+03 -0.49769609551E+03 -0.21320302816E+04  0.22008617917E+04  0.50400001928E-02 0.  1.
       -1    1    3    3    0  502 -0.22480680826E+03  0.49769609551E+03  0.19756061186E+03  0.58074925735E+03  0.50400001928E-02 0. -1.
</event>
<event>
 5   0  0.4473361E-05  0.1990354E+04  0.7818609E-02  0.8611144E-01
        2   -1    0    0  501    0  0.00000000000E+00  0.00000000000E+00  0.14805333021E+04  0.14805333021E+04  0.25500000920E-02 0. -1.
       -2   -1    0    0    0  501  0.00000000000E+00  0.00000000000E+00 -0.66893311703E+03  0.66893311703E+03  0.25500000920E-02 0.  1.
    10030    2    1    2    0    0  0.00000000000E+00  0.00000000000E+00  0.81160018506E+03  0.21494664191E+04  0.19903544977E+04 0.  0.
        2    1    3    3  502    0 -0.94309110199E+03 -0.27943364008E+03  0.24246890777E+03  0.10130622671E+04  0.25500000920E-02 0.  1.
       -2    1    3    3    0  502  0.94309110199E+03  0.27943364008E+03  0.56913127729E+03  0.11364041520E+04  0.25500000920E-02 0. -1.
</event>
<event>
 5   0  0.4447313E-05  0.1996085E+04  0.7818609E-02  0.8608453E-01
        2   -1    0    0  501    0  0.00000000000E+00  0.00000000000E+00  0.80925983751E+03  0.80925983752E+03  0.25500000920E-02 0. -1.
       -2   -1    0    0    0  501  0.00000000000E+00  0.00000000000E+00 -0.12308635381E+04  0.12308635381E+04  0.25500000920E-02 0.  1.
    10030    2    1    2    0    0  0.00000000000E+00  0.00000000000E+00 -0.42160370059E+03  0.20401233756E+04  0.19960845943E+04 0.  0.
        5    1    3    3  502    0  0.76623743768E+03 -0.23250294319E+03  0.39806692369E+03  0.89423531312E+03  0.46999998093E+01 0. -1.
       -5    1    3    3    0  502 -0.76623743768E+03  0.23250294319E+03 -0.81967062428E+03  0.11458880625E+04  0.46999998093E+01 0.  1.
</event>
<event>
 5   0  0.4473361E-05  0.1995470E+04  0.7818609E-02  0.8608742E-01
       -2   -1    0    0    0  501  0.00000000000E+00  0.00000000000E+00  0.48417250934E+03  0.48417250934E+03  0.25500000920E-02 0.  1.
        2   -1    0    0  501    0  0.00000000000E+00  0.00000000000E+00 -0.20560339343E+04  0.20560339343E+04  0.25500000920E-02 0. -1.
    10030    2    1    2    0    0  0.00000000000E+00  0.00000000000E+00 -0.15718614249E+04  0.25402064436E+04  0.19954699790E+04 0.  0.
        2    1    3    3  502    0  0.43818890418E+03  0.37376438472E+03 -0.18230560485E+04  0.19118688990E+04  0.25500000920E-02 0. -1.
       -2    1    3    3    0  502 -0.43818890418E+03 -0.37376438472E+03  0.25119462358E+03  0.62833754460E+03  0.25500000920E-02 0.  1.
</event>
<event>
 5   0  0.2142551E-05  0.1993621E+04  0.7818609E-02  0.8609609E-01
        1   -1    0    0  501    0  0.00000000000E+00  0.00000000000E+00  0.10604896309E+04  0.10604896310E+04  0.50400001928E-02 0.  1.
       -1   -1    0    0    0  501  0.00000000000E+00  0.00000000000E+00 -0.93695541452E+03  0.93695541454E+03  0.50400001928E-02 0. -1.
    10030    2    1    2    0    0  0.00000000000E+00  0.00000000000E+00  0.12353421642E+03  0.19974450455E+04  0.19936213299E+04 0.  0.
        3    1    3    3  502    0  0.19542580472E+03  0.98648365661E+02  0.10361078681E+04  0.10589817136E+04  0.10100000352E+00 0.  1.
       -3    1    3    3    0  502 -0.19542580472E+03 -0.98648365661E+02 -0.91257365172E+03  0.93846333185E+03  0.10100000352E+00 0. -1.
</event>
<event>
 5   0  0.4577279E-05  0.1998961E+04  0.7818609E-02  0.8607107E-01
        2   -1    0    0  501    0  0.00000000000E+00  0.00000000000E+00  0.95931850961E+03  0.95931850961E+03  0.25500000920E-02 0. -1.
       -2   -1    0    0    0  501  0.00000000000E+00  0.00000000000E+00 -0.10413237800E+04  0.10413237800E+04  0.25500000920E-02 0.  1.
    10030    2    1    2    0    0  0.00000000000E+00  0.00000000000E+00 -0.82005270355E+02  0.20006422896E+04  0.19989609067E+04 0.  0.
        1    1    3    3  502    0 -0.79722947829E+03  0.49768699891E+03  0.29942165234E+03  0.98636733312E+03  0.50400001928E-02 0. -1.
       -1    1    3    3    0  502  0.79722947829E+03 -0.49768699891E+03 -0.38142692270E+03  0.10142749565E+04  0.50400001928E-02 0.  1.
</event>
<event>
 5   0  0.2093980E-05  0.1985377E+04  0.7818609E-02  0.8613488E-01
       -1   -1    0    0    0  501  0.00000000000E+00  0.00000000000E+00  0.66873864899E+03  0.66873864901E+03  0.50400001928E-02 0.  1.
        1   -1    0    0  501    0  0.00000000000E+00  0.00000000000E+00 -0.14735661249E+04  0.14735661249E+04  0.50400001928E-02 0. -1.
    10030    2    1    2    0    0  0.00000000000E+00  0.00000000000E+00 -0.80482747594E+03  0.21423047740E+04  0.19853771628E+04 0.  0.
        2    1    3    3  502    0 -0.67018428497E+03  0.16733321450E+03  0.36687810590E+03  0.78214252223E+03  0.25500000920E-02 0.  1.
       -2    1    3    3    0  502  0.67018428497E+03 -0.16733321450E+03 -0.11717055818E+04  0.13601622517E+04  0.25500000920E-02 0. -1.
</event>
<event>
 5   0  0.2110896E-05  0.1997690E+04  0.7818609E-02  0.8607701E-01
        1   -1    0    0  501    0  0.00000000000E+00  0.00000000000E+00  0.15371395566E+04  0.15371395566E+04  0.50400001928E-02 0.  1.
       -1   -1    0    0    0  501  0.00000000000E+00  0.00000000000E+00 -0.64905704876E+03  0.64905704878E+03  0.50400001928E-02 0. -1.
    10030    2    1    2    0    0  0.00000000000E+00  0.00000000000E+00  0.88808250781E+03  0.21861966054E+04  0.19976899300E+04 0.  0.
        4    1    3    3  502    0 -0.86155092527E+00  0.92015659581E+03  0.18785023919E+02  0.92034960374E+03  0.12699999809E+01 0. -1.
       -4    1    3    3    0  502  0.86155092527E+00 -0.92015659581E+03  0.86929748389E+03  0.12658470016E+04  0.12699999809E+01 0.  1.
</event>
<event>
 5   0  0.4514680E-05  0.2001811E+04  0.7818609E-02  0.8605774E-01
        2   -1    0    0  501    0  0.00000000000E+00  0.00000000000E+00  0.67032917551E+03  0.67032917552E+03  0.25500000920E-02 0.  1.
       -2   -1    0    0    0  501  0.00000000000E+00  0.00000000000E+00 -0.14945070963E+04  0.14945070963E+04  0.25500000920E-02 0. -1.
    10030    2    1    2    0    0  0.00000000000E+00  0.00000000000E+00 -0.82417792076E+03  0.21648362718E+04  0.20018108898E+04 0.  0.
        3    1    3    3  502    0  0.80107642255E+03  0.39312323117E+03 -0.90237859217E+03  0.12690770045E+04  0.10100000352E+00 0. -1.
       -3    1    3    3    0  502 -0.80107642255E+03 -0.39312323117E+03  0.78200671410E+02  0.89575926725E+03  0.10100000352E+00 0.  1.
</event>
<event>
 5   0  0.4447313E-05  0.1986765E+04  0.7818609E-02  0.8612834E-01
        2   -1    0    0  501    0  0.00000000000E+00  0.00000000000E+00  0.10926995538E+04  0.10926995538E+04  0.25500000920E-02 0.  1.
       -2   -1    0    0    0  501  0.00000000000E+00  0.00000000000E+00 -0.90309247894E+03  0.90309247894E+03  0.25500000920E-02 0. -1.
    10030    2    1    2    0    0  0.00000000000E+00  0.00000000000E+00  0.18960707482E+03  0.19957920327E+04  0.19867649571E+04 0.  0.
        5    1    3    3  502    0 -0.15616227964E+03 -0.10645634088E+03 -0.88485417278E+03  0.90482518045E+03  0.46999998093E+01 0. -1.
       -5    1    3    3    0  502  0.15616227964E+03  0.10645634088E+03  0.10744612476E+04  0.10909668522E+04  0.46999998093E+01 0.  1.
</event>
<event>
 5   0  0.1601500E-05  0.2002385E+04  0.7818609E-02  0.8605506E-01
        3   -1    0    0  501    0  0.00000000000E+00  0.00000000000E+00  0.13007470898E+04  0.13007470938E+04  0.10100000352E+00 0. -1.
       -3   -1    0    0    0  501  0.00000000000E+00  0.00000000000E+00 -0.77062350180E+03  0.77062350842E+03  0.10100000352E+00 0.  1.
    10030    2    1    2    0    0  0.00000000000E+00  0.00000000000E+00  0.53012358804E+03  0.20713706022E+04  0.20023848663E+04 0.  0.
        3    1    3    3  502    0 -0.55818822178E+03 -0.14255955096E+03  0.11121059883E+04  0.12524683852E+04  0.10100000352E+00 0. -1.
       -3    1    3    3    0  502  0.55818822178E+03  0.14255955096E+03 -0.58198240028E+03  0.81890221696E+03  0.10100000352E+00 0.  1.
</event>
<event>
 5   0  0.4447313E-05  0.2009572E+04  0.7818609E-02  0.8602159E-01
        2   -1    0    0  501    0  0.00000000000E+00  0.00000000000E+00  0.14416910390E+04  0.14416910390E+04  0.25500000920E-02 0. -1.
       -2   -1    0    0    0  501  0.00000000000E+00  0.00000000000E+00 -0.70028507425E+03  0.70028507425E+03  0.25500000920E-02 0.  1.
    10030    2    1    2    0    0  0.00000000000E+00  0.00000000000E+00  0.74140596477E+03  0.21419761133E+04  0.20095718114E+04 0.  0.
        5    1    3    3  502    0  0.10231723758E+03  0.25732754259E+03  0.14002008735E+04  0.14273299749E+04  0.46999998093E+01 0. -1.
       -5    1    3    3    0  502 -0.10231723758E+03 -0.25732754259E+03 -0.65879490871E+03  0.71464613833E+03  0.46999998093E+01 0.  1.
</event>
<event>
 5   0  0.4577279E-05  0.2006086E+04  0.7818609E-02  0.8603780E-01
        2   -1    0    0  501    0  0.00000000000E+00  0.00000000000E+00  0.13712098382E+04  0.13712098382E+04  0.25500000920E-02 0.  1.
       -2   -1    0    0    0  501  0.00000000000E+00  0.00000000000E+00 -0.73372847587E+03  0.73372847587E+03  0.25500000920E-02 0. -1.
    10030    2    1    2    0    0  0.00000000000E+00  0.00000000000E+00  0.63748136229E+03  0.21049383140E+04  0.20060864435E+04 0.  0.
        1    1    3    3  502    0  0.53341644316E+03  0.79998185970E+03  0.61845847459E+03  0.11432388038E+04  0.50400001928E-02 0.  1.
       -1    1    3    3    0  502 -0.53341644316E+03 -0.79998185970E+03  0.19022887698E+02  0.96169951023E+03  0.50400001928E-02 0. -1.
</event>
<event>
 5   0  0.2110896E-05  0.1978413E+04  0.7818609E-02  0.8616780E-01
       -1   -1    0    0    0  501  0.00000000000E+00  0.00000000000E+00  0.90641809971E+03  0.90641809972E+03  0.50400001928E-02 0.  1.
        1   -1    0    0  501    0  0.00000000000E+00  0.00000000000E+00 -0.10795560698E+04  0.10795560698E+04  0.50400001928E-02 0. -1.
    10030    2    1    2    0    0  0.00000000000E+00  0.00000000000E+00 -0.17313797013E+03  0.19859741696E+04  0.19784126580E+04 0.  0.
        4    1    3    3  502    0 -0.84476491874E+03  0.29771825597E+03  0.33487325036E+03  0.95624559324E+03  0.12699999809E+01 0.  1.
       -4    1    3    3    0  502  0.84476491874E+03 -0.29771825597E+03 -0.50801122049E+03  0.10297285763E+04  0.12699999809E+01 0. -1.
</event>
<event>
 5   0  0.2256868E-05  0.2007189E+04  0.7818609E-02  0.8603267E-01
        1   -1    0    0  501    0  0.00000000000E+00  0.00000000000E+00  0.10885423038E+04  0.10885423038E+04  0.50400001928E-02 0. -1.
       -1   -1    0    0    0  501  0.00000000000E+00  0.00000000000E+00 -0.92527554864E+03  0.92527554865E+03  0.50400001928E-02 0.  1.
    10030    2    1    2    0    0  0.00000000000E+00  0.00000000000E+00  0.16326675518E+03  0.20138178525E+04  0.20071886582E+04 0.  0.
        5    1    3    3  502    0  0.63974718174E+03 -0.70782935100E+03 -0.23065116882E+03  0.98159100361E+03  0.46999998093E+01 0.  1.
       -5    1    3    3    0  502 -0.63974718174E+03  0.70782935100E+03  0.39391792400E+03  0.10322268489E+04  0.46999998093E+01 0. -1.
</event>
<event>
 5   0  0.4447313E-05  0.2018630E+04  0.7818609E-02  0.8597960E-01
       -2   -1    0    0    0  501  0.00000000000E+00  0.00000000000E+00  0.64962252646E+03  0.64962252647E+03  0.25500000920E-02 0.  1.
        2   -1    0    0  501    0  0.00000000000E+00  0.00000000000E+00 -0.15681677767E+04  0.15681677767E+04  0.25500000920E-02 0. -1.
    10030    2    1    2    0    0  0.00000000000E+00  0.00000000000E+00 -0.91854525022E+03  0.22177903032E+04  0.20186303406E+04 0.  0.
        5    1    3    3  502    0 -0.26122874318E+03  0.88359373214E+03 -0.91188450792E+03  0.12963540356E+04  0.46999998093E+01 0. -1.
       -5    1    3    3    0  502  0.26122874318E+03 -0.88359373214E+03 -0.66607422974E+01  0.92143626759E+03  0.46999998093E+01 0.  1.
</event>
<event>
 5   0  0.4473361E-05  0.2000389E+04  0.7818609E-02  0.8606439E-01
       -2   -1    0    0    0  501  0.00000000000E+00  0.00000000000E+00  0.46008023691E+03  0.46008023691E+03  0.25500000920E-02 0.  1.
        2   -1    0    0  501    0  0.00000000000E+00  0.00000000000E+00 -0.21743791150E+04  0.21743791150E+04  0.25500000920E-02 0. -1.
    10030    2    1    2    0    0  0.00000000000E+00  0.00000000000E+00 -0.17142988781E+04  0.26344593519E+04  0.20003888206E+04 0.  0.
        2    1    3    3  502    0 -0.31563049923E+03 -0.64828300690E+03  0.55747383813E+02  0.72318824651E+03  0.25500000920E-02 0.  1.
       -2    1    3    3    0  502  0.31563049923E+03  0.64828300690E+03 -0.17700462619E+04  0.19112711054E+04  0.25500000920E-02 0. -1.
</event>
<event>
 5   0  0.4514680E-05  0.1986122E+04  0.7818609E-02  0.8613137E-01
        2   -1    0    0  501    0  0.00000000000E+00  0.00000000000E+00  0.11265067650E+04  0.11265067650E+04  0.25500000920E-02 0.  1.
       -2   -1    0    0    0  501  0.00000000000E+00  0.00000000000E+00 -0.87542348994E+03  0.87542348994E+03  0.25500000920E-02 0. -1.
    10030    2    1    2    0    0  0.00000000000E+00  0.00000000000E+00  0.25108327510E+03  0.20019302550E+04  0.19861223363E+04 0.  0.
        3    1    3    3  502    0 -0.13751522941E+03 -0.27514128087E+03 -0.82619673619E+03  0.88159753848E+03  0.10100000352E+00 0. -1.
       -3    1    3    3    0  502  0.13751522941E+03  0.27514128087E+03  0.10772800113E+04  0.11203327165E+04  0.10100000352E+00 0.  1.
</event>
<event>
 5   0  0.2007644E-05  0.2009073E+04  0.7818609E-02  0.8602390E-01
       -1   -1    0    0    0  501  0.00000000000E+00  0.00000000000E+00  0.76295128707E+03  0.76295128708E+03  0.50400001928E-02 0.  1.
        1   -1    0    0  501    0  0.00000000000E+00  0.00000000000E+00 -0.13226191472E+04  0.13226191472E+04  0.50400001928E-02 0. -1.
    10030    2    1    2    0    0  0.00000000000E+00  0.00000000000E+00 -0.55966786012E+03  0.20855704343E+04  0.20090733990E+04 0.  0.
        1    1    3    3  502    0  0.61982510809E+03  0.78359599411E+03 -0.38815321571E+03  0.10718529589E+04  0.50400001928E-02 0. -1.
       -1    1    3    3    0  502 -0.61982510809E+03 -0.78359599411E+03 -0.17151464441E+03  0.10137174754E+04  0.50400001928E-02 0.  1.
</event>
<event>
 5   0  0.4514680E-05  0.1998120E+04  0.7818609E-02  0.8607500E-01
       -2   -1    0    0    0  501  0.00000000000E+00  0.00000000000E+00  0.40704022289E+03  0.40704022290E+03  0.25500000920E-02 0. -1.
        2   -1    0    0  501    0  0.00000000000E+00  0.00000000000E+00 -0.24521419117E+04  0.24521419117E+04  0.25500000920E-02 0.  1.
    10030    2    1    2    0    0  0.00000000000E+00  0.00000000000E+00 -0.20451016888E+04  0.28591821346E+04  0.19981195062E+04 0.  0.
        3    1    3    3  502    0  0.45800026434E+03  0.37766388633E+03 -0.21724097189E+04  0.22520564491E+04  0.10100000352E+00 0.  1.
       -3    1    3    3    0  502 -0.45800026434E+03 -0.37766388633E+03  0.12730803012E+03  0.60712568543E+03  0.10100000352E+00 0. -1.
</event>
<event>
 5   0  0.4447313E-05  0.2002436E+04  0.7818609E-02  0.8605482E-01
        2   -1    0    0  501    0  0.00000000000E+00  0.00000000000E+00  0.13270377404E+04  0.13270377404E+04  0.25500000920E-02 0. -1.
       -2   -1    0    0    0  501  0.00000000000E+00  0.00000000000E+00 -0.75539521573E+03  0.75539521574E+03  0.25500000920E-02 0.  1.
    10030    2    1    2    0    0  0.00000000000E+00  0.00000000000E+00  0.57164252467E+03  0.20824329561E+04  0.20024364761E+04 0.  0.
        5    1    3    3  502    0 -0.88892471762E+03  0.44007717113E+03  0.42750194044E+03  0.10801088229E+04  0.46999998093E+01 0. -1.
       -5    1    3    3    0  502  0.88892471762E+03 -0.44007717113E+03  0.14414058423E+03  0.10023241333E+04  0.46999998093E+01 0.  1.
</event>
<event>
 5   0  0.2007644E-05  0.2010074E+04  0.7818609E-02  0.8601925E-01
       -1   -1    0    0    0  501  0.00000000000E+00  0.00000000000E+00  0.13710732956E+04  0.13710732956E+04  0.50400001928E-02 0.  1.
        1   -1    0    0  501    0  0.00000000000E+00  0.00000000000E+00 -0.73672150473E+03  0.73672150475E+03  0.50400001928E-02 0. -1.
    10030    2    1    2    0    0  0.00000000000E+00  0.00000000000E+00  0.63435179085E+03  0.21077948003E+04  0.20100738110E+04 0.  0.
        1    1    3    3  502    0 -0.50477636956E+03 -0.36306698276E+02 -0.59335934983E+03  0.77986708974E+03  0.50400001928E-02 0. -1.
       -1    1    3    3    0  502  0.50477636956E+03  0.36306698276E+02  0.12277111407E+04  0.13279277106E+04  0.50400001928E-02 0.  1.
</event>
<event>
 5   0  0.2093980E-05  0.1995737E+04  0.7818609E-02  0.8608616E-01
        1   -1    0    0  501    0  0.00000000000E+00  0.00000000000E+00  0.13461506306E+04  0.13461506306E+04  0.50400001928E-02 0.  1.
       -1   -1    0    0    0  501  0.00000000000E+00  0.00000000000E+00 -0.73969541947E+03  0.73969541949E+03  0.50400001928E-02 0. -1.
    10030    2    1    2    0    0  0.00000000000E+00  0.00000000000E+00  0.60645521116E+03  0.20858460501E+04  0.19957369119E+04 0.  0.
        2    1    3    3  502    0  0.17357406922E+03  0.85264658031E+03  0.81375709268E+03  0.11913583652E+04  0.25500000920E-02 0.  1.
       -2    1    3    3    0  502 -0.17357406922E+03 -0.85264658031E+03 -0.20730188152E+03  0.89448768494E+03  0.25500000920E-02 0. -1.
</event>
<event>
 5   0  0.4412054E-05  0.2005612E+04  0.7818609E-02  0.8604002E-01
       -2   -1    0    0    0  501  0.00000000000E+00  0.00000000000E+00  0.13825530856E+04  0.13825530856E+04  0.25500000920E-02 0. -1.
        2   -1    0    0  501    0  0.00000000000E+00  0.00000000000E+00 -0.72736404055E+03  0.72736404055E+03  0.25500000920E-02 0.  1.
    10030    2    1    2    0    0  0.00000000000E+00  0.00000000000E+00  0.65518904503E+03  0.21099171261E+04  0.20056115263E+04 0.  0.
        4    1    3    3  502    0 -0.49486346734E+03  0.40477902845E+03 -0.48516632621E+03  0.80257329271E+03  0.12699999809E+01 0.  1.
       -4    1    3    3    0  502  0.49486346734E+03 -0.40477902845E+03  0.11403553712E+04  0.13073438334E+04  0.12699999809E+01 0. -1.
</event>
<event>
 5   0  0.4412054E-05  0.1997793E+04  0.7818609E-02  0.8607653E-01
       -2   -1    0    0    0  501  0.00000000000E+00  0.00000000000E+00  0.81916757247E+03  0.81916757248E+03  0.25500000920E-02 0. -1.
        2   -1    0    0  501    0  0.00000000000E+00  0.00000000000E+00 -0.12180588380E+04  0.12180588380E+04  0.25500000920E-02 0.  1.
    10030    2    1    2    0    0  0.00000000000E+00  0.00000000000E+00 -0.39889126553E+03  0.20372264105E+04  0.19977930838E+04 0.  0.
        4    1    3    3  502    0  0.11551334553E+03  0.49561312144E+03 -0.10759563471E+04  0.11902350075E+04  0.12699999809E+01 0.  1.
       -4    1    3    3    0  502 -0.11551334553E+03 -0.49561312144E+03  0.67706508162E+03  0.84699140301E+03  0.12699999809E+01 0. -1.
</event>
<event>
 5   0  0.4473361E-05  0.2000147E+04  0.7818609E-02  0.8606552E-01
       -2   -1    0    0    0  501  0.00000000000E+00  0.00000000000E+00  0.65490149094E+03  0.65490149095E+03  0.25500000920E-02 0. -1.
        2   -1    0    0  501    0  0.00000000000E+00  0.00000000000E+00 -0.15271720878E+04  0.15271720878E+04  0.25500000920E-02 0.  1.
    10030    2    1    2    0    0  0.00000000000E+00  0.00000000000E+00 -0.87227059689E+03  0.21820735788E+04  0.20001472718E+04 0.  0.
        2    1    3    3  502    0  0.29631647611E+03 -0.42243209521E+03 -0.13707322620E+04  0.14646362221E+04  0.25500000920E-02 0.  1.
       -2    1    3    3    0  502 -0.29631647611E+03  0.42243209521E+03  0.49846166513E+03  0.71743735663E+03  0.25500000920E-02 0. -1.
</event>
<event>
 5   0  0.4577279E-05  0.1907141E+04  0.7818609E-02  0.8651310E-01
       -2   -1    0    0    0  501  0.00000000000E+00  0.00000000000E+00  0.96820055475E+03  0.96820055475E+03  0.25500000920E-02 0. -1.
        2   -1    0    0  501    0  0.00000000000E+00  0.00000000000E+00 -0.93916165093E+03  0.93916165093E+03  0.25500000920E-02 0.  1.
    10030    2    1    2    0    0  0.00000000000E+00  0.00000000000E+00  0.29038903821E+02  0.19073622057E+04  0.19071411394E+04 0.  0.
        1    1    3    3  502    0  0.54992228317E+03 -0.62526121153E+03 -0.45021788612E+03  0.94660564396E+03  0.50400001928E-02 0.  1.
       -1    1    3    3    0  502 -0.54992228317E+03  0.62526121153E+03  0.47925678994E+03  0.96075656172E+03  0.50400001928E-02 0. -1.
</event>
<event>
 5   0  0.4412054E-05  0.1989152E+04  0.7818609E-02  0.8611709E-01
        2   -1    0    0  501    0  0.00000000000E+00  0.00000000000E+00  0.22675709327E+04  0.22675709327E+04  0.25500000920E-02 0. -1.
       -2   -1    0    0    0  501  0.00000000000E+00  0.00000000000E+00 -0.43622940201E+03  0.43622940201E+03  0.25500000920E-02 0.  1.
    10030    2    1    2    0    0  0.00000000000E+00  0.00000000000E+00  0.18313415307E+04  0.27038003347E+04  0.19891516905E+04 0.  0.
        4    1    3    3  502    0 -0.37473016233E+03 -0.12945294767E+03  0.21555176304E+04  0.21916748455E+04  0.12699999809E+01 0. -1.
       -4    1    3    3    0  502  0.37473016233E+03  0.12945294767E+03 -0.32417609973E+03  0.51212548927E+03  0.12699999809E+01 0.  1.
</event>
<event>
 5   0  0.4514680E-05  0.1999968E+04  0.7818609E-02  0.8606636E-01
        2   -1    0    0  501    0  0.00000000000E+00  0.00000000000E+00  0.13494492730E+04  0.13494492730E+04  0.25500000920E-02 0. -1.
       -2   -1    0    0    0  501  0.00000000000E+00  0.00000000000E+00 -0.74101946068E+03  0.74101946069E+03  0.25500000920E-02 0.  1.
    10030    2    1    2    0    0  0.00000000000E+00  0.00000000000E+00  0.60842981235E+03  0.20904687337E+04  0.19999681723E+04 0.  0.
        3    1    3    3  502    0  0.97201694565E+03  0.73698132461E+02  0.71145483563E+02  0.97739963546E+03  0.10100000352E+00 0.  1.
       -3    1    3    3    0  502 -0.97201694565E+03 -0.73698132461E+02  0.53728432879E+03  0.11130690983E+04  0.10100000352E+00 0. -1.
</event>
<event>
 5   0  0.2007644E-05  0.1995967E+04  0.7818609E-02  0.8608508E-01
       -1   -1    0    0    0  501  0.00000000000E+00  0.00000000000E+00  0.48627083277E+03  0.48627083279E+03  0.50400001928E-02 0. -1.
        1   -1    0    0  501    0  0.00000000000E+00  0.00000000000E+00 -0.20481825253E+04  0.20481825253E+04  0.50400001928E-02 0.  1.
    10030    2    1    2    0    0  0.00000000000E+00  0.00000000000E+00 -0.15619116925E+04  0.25344533581E+04  0.19959673567E+04 0.  0.
        1    1    3    3  502    0  0.93863797487E+03 -0.75527197214E+02 -0.36129976620E+03  0.10086045441E+04  0.50400001928E-02 0. -1.
       -1    1    3    3    0  502 -0.93863797487E+03  0.75527197214E+02 -0.12006119263E+04  0.15258488140E+04  0.50400001928E-02 0.  1.
</event>
<event>
 5   0  0.2142551E-05  0.1993883E+04  0.7818609E-02  0.8609486E-01
        1   -1    0    0  501    0  0.00000000000E+00  0.00000000000E+00  0.13408835751E+04  0.13408835751E+04  0.50400001928E-02 0. -1.
       -1   -1    0    0    0  501  0.00000000000E+00  0.00000000000E+00 -0.74122225505E+03  0.74122225507E+03  0.50400001928E-02 0.  1.
    10030    2    1    2    0    0  0.00000000000E+00  0.00000000000E+00  0.59966132008E+03  0.20821058302E+04  0.19938833941E+04 0.  0.
        3    1    3    3  502    0 -0.45630959855E+03 -0.67662562441E+03 -0.29808784800E+03  0.86884812290E+03  0.10100000352E+00 0.  1.
       -3    1    3    3    0  502  0.45630959855E+03  0.67662562441E+03  0.89774916808E+03  0.12132577073E+04  0.10100000352E+00 0. -1.
</event>
<event>
 5   0  0.2110896E-05  0.1996914E+04  0.7818609E-02  0.8608065E-01
        1   -1    0    0  501    0  0.00000000000E+00  0.00000000000E+00  0.25089030709E+04  0.25089030709E+04  0.50400001928E-02 0. -1.
       -1   -1    0    0    0  501  0.00000000000E+00  0.00000000000E+00 -0.39735161633E+03  0.39735161636E+03  0.50400001928E-02 0.  1.
    10030    2    1    2    0    0  0.00000000000E+00  0.00000000000E+00  0.21115514545E+04  0.29062546872E+04  0.19969143101E+04 0.  0.
        4    1    3    3  502    0 -0.13960367510E+03  0.78477137170E+03  0.19308890621E+04  0.20889445840E+04  0.12699999809E+01 0. -1.
       -4    1    3    3    0  502  0.13960367510E+03 -0.78477137170E+03  0.18066239245E+03  0.81731010326E+03  0.12699999809E+01 0.  1.
</event>
<event>
 5   0  0.2007644E-05  0.2008743E+04  0.7818609E-02  0.8602544E-01
       -1   -1    0    0    0  501  0.00000000000E+00  0.00000000000E+00  0.11863051796E+04  0.11863051796E+04  0.50400001928E-02 0. -1.
        1   -1    0    0  501    0  0.00000000000E+00  0.00000000000E+00 -0.85033958910E+03  0.85033958912E+03  0.50400001928E-02 0.  1.
    10030    2    1    2    0    0  0.00000000000E+00  0.00000000000E+00  0.33596559048E+03  0.20366447687E+04  0.20087431483E+04 0.  0.
        1    1    3    3  502    0 -0.22326421725E+03 -0.33147545686E+01  0.11608211001E+04  0.11821013175E+04  0.50400001928E-02 0. -1.
       -1    1    3    3    0  502  0.22326421725E+03  0.33147545686E+01 -0.82485550961E+03  0.85454345125E+03  0.50400001928E-02 0.  1.
</event>
<event>
 5   0  0.4577279E-05  0.2000000E+04  0.7818609E-02  0.8606621E-01
       -2   -1    0    0    0  501  0.00000000000E+00  0.00000000000E+00  0.78119329341E+03  0.78119329342E+03  0.25500000920E-02 0. -1.
        2   -1    0    0  501    0  0.00000000000E+00  0.00000000000E+00 -0.12800923122E+04  0.12800923122E+04  0.25500000920E-02 0.  1.
    10030    2    1    2    0    0  0.00000000000E+00  0.00000000000E+00 -0.49889901875E+03  0.20612856056E+04  0.19999995292E+04 0.  0.
        1    1    3    3  502    0  0.22480366830E+03 -0.69903630792E+03  0.45018260086E+03  0.86130878506E+03  0.50400001928E-02 0. -1.
       -1    1    3    3    0  502 -0.22480366830E+03  0.69903630792E+03 -0.94908161961E+03  0.11999768205E+04  0.50400001928E-02 0.  1.
</event>
<event>
 5   0  0.4412054E-05  0.1998325E+04  0.7818609E-02  0.8607404E-01
       -2   -1    0    0    0  501  0.00000000000E+00  0.00000000000E+00  0.70086223874E+03  0.70086223874E+03  0.25500000920E-02 0.  1.
        2   -1    0    0  501    0  0.00000000000E+00  0.00000000000E+00 -0.14244255118E+04  0.14244255118E+04  0.25500000920E-02 0. -1.
    10030    2    1    2    0    0  0.00000000000E+00  0.00000000000E+00 -0.72356327304E+03  0.21252877505E+04  0.19983253520E+04 0.  0.
        4    1    3    3  502    0  0.54475025923E+03  0.54638576284E+03  0.31340290051E+03  0.83277442187E+03  0.12699999809E+01 0.  1.
       -4    1    3    3    0  502 -0.54475025923E+03 -0.54638576284E+03 -0.10369661736E+04  0.12925133287E+04  0.12699999809E+01 0. -1.
</event>
<event>
 5   0  0.4473361E-05  0.2005591E+04  0.7818609E-02  0.8604011E-01
        2   -1    0    0  501    0  0.00000000000E+00  0.00000000000E+00  0.11363336562E+04  0.11363336562E+04  0.25500000920E-02 0. -1.
       -2   -1    0    0    0  501  0.00000000000E+00  0.00000000000E+00 -0.88495027660E+03  0.88495027660E+03  0.25500000920E-02 0.  1.
    10030    2    1    2    0    0  0.00000000000E+00  0.00000000000E+00  0.25138337961E+03  0.20212839328E+04  0.20055909686E+04 0.  0.
        2    1    3    3  502    0 -0.26065123579E+03  0.74723627865E+02 -0.84730338885E+03  0.88963235106E+03  0.25500000920E-02 0.  1.
       -2    1    3    3    0  502  0.26065123579E+03 -0.74723627865E+02  0.10986867685E+04  0.11316515818E+04  0.25500000920E-02 0. -1.
</event>
<event>
 5   0  0.2256868E-05  0.1999622E+04  0.7818609E-02  0.8606797E-01
        1   -1    0    0  501    0  0.00000000000E+00  0.00000000000E+00  0.14365202609E+04  0.14365202609E+04  0.50400001928E-02 0.  1.
       -1   -1    0    0    0  501  0.00000000000E+00  0.00000000000E+00 -0.69586342499E+03  0.69586342501E+03  0.50400001928E-02 0. -1.
    10030    2    1    2    0    0  0.00000000000E+00  0.00000000000E+00  0.74065683592E+03  0.21323836859E+04  0.19996218731E+04 0.  0.
        5    1    3    3  502    0 -0.54663529438E+03 -0.53183287691E+02 -0.52058011083E+03  0.75674589457E+03  0.46999998093E+01 0. -1.
       -5    1    3    3    0  502  0.54663529438E+03  0.53183287691E+02  0.12612369467E+04  0.13756377914E+04  0.46999998093E+01 0.  1.
</event>
<event>
 5   0  0.2142551E-05  0.1999484E+04  0.7818609E-02  0.8606862E-01
        1   -1    0    0  501    0  0.00000000000E+00  0.00000000000E+00  0.19845517234E+04  0.19845517235E+04  0.50400001928E-02 0.  1.
       -1   -1    0    0    0  501  0.00000000000E+00  0.00000000000E+00 -0.50363207815E+03  0.50363207817E+03  0.50400001928E-02 0. -1.
    10030    2    1    2    0    0  0.00000000000E+00  0.00000000000E+00  0.14809196453E+04  0.24881838016E+04  0.19994838421E+04 0.  0.
        3    1    3    3  502    0  0.17690696054E+03 -0.96702050036E+02  0.19589915664E+04  0.19693388044E+04  0.10100000352E+00 0.  1.
       -3    1    3    3    0  502 -0.17690696054E+03  0.96702050036E+02 -0.47807192111E+03  0.51884499720E+03  0.10100000352E+00 0. -1.
</event>
<event>
 5   0  0.4577279E-05  0.2001057E+04  0.7818609E-02  0.8606126E-01
        2   -1    0    0  501    0  0.00000000000E+00  0.00000000000E+00  0.89181791384E+03  0.89181791385E+03  0.25500000920E-02 0.  1.
       -2   -1    0    0    0  501  0.00000000000E+00  0.00000000000E+00 -0.11224910231E+04  0.11224910231E+04  0.25500000920E-02 0. -1.
    10030    2    1    2    0    0  0.00000000000E+00  0.00000000000E+00 -0.23067310927E+03  0.20143089370E+04  0.20010573231E+04 0.  0.
        1    1    3    3  502    0  0.10745611427E+03 -0.56835489666E+03  0.70645419816E+03  0.91304525582E+03  0.50400001928E-02 0.  1.
       -1    1    3    3    0  502 -0.10745611427E+03  0.56835489666E+03 -0.93712730743E+03  0.11012636811E+04  0.50400001928E-02 0. -1.
</event>
<event>
 5   0  0.2110896E-05  0.1998413E+04  0.7818609E-02  0.8607363E-01
       -1   -1    0    0    0  501  0.00000000000E+00  0.00000000000E+00  0.51681396691E+03  0.51681396694E+03  0.50400001928E-02 0.  1.
        1   -1    0    0  501    0  0.00000000000E+00  0.00000000000E+00 -0.19318628901E+04  0.19318628901E+04  0.50400001928E-02 0. -1.
    10030    2    1    2    0    0  0.00000000000E+00  0.00000000000E+00 -0.14150489231E+04  0.24486768570E+04  0.19984130942E+04 0.  0.
        4    1    3    3  502    0 -0.84281009380E+03  0.42873449654E+03 -0.11031878556E+04  0.14529856091E+04  0.12699999809E+01 0. -1.
       -4    1    3    3    0  502  0.84281009380E+03 -0.42873449654E+03 -0.31186106755E+03  0.99569124787E+03  0.12699999809E+01 0.  1.
</event>
<event>
 5   0  0.2142551E-05  0.1996706E+04  0.7818609E-02  0.8608162E-01
       -1   -1    0    0    0  501  0.00000000000E+00  0.00000000000E+00  0.11321739058E+04  0.11321739058E+04  0.50400001928E-02 0. -1.
        1   -1    0    0  501    0  0.00000000000E+00  0.00000000000E+00 -0.88034908870E+03  0.88034908872E+03  0.50400001928E-02 0.  1.
    10030    2    1    2    0    0  0.00000000000E+00  0.00000000000E+00  0.25182481707E+03  0.20125229945E+04  0.19967055529E+04 0.  0.
        3    1    3    3  502    0 -0.24269450337E+03 -0.90427792602E+03 -0.22337148541E+03  0.96255598286E+03  0.10100000352E+00 0.  1.
       -3    1    3    3    0  502  0.24269450337E+03  0.90427792602E+03  0.47519630248E+03  0.10499670116E+04  0.10100000352E+00 0. -1.
</event>
<event>
 5   0  0.2007644E-05  0.2002457E+04  0.7818609E-02  0.8605473E-01
        1   -1    0    0  501    0  0.00000000000E+00  0.00000000000E+00  0.14844065985E+04  0.14844065986E+04  0.50400001928E-02 0.  1.
       -1   -1    0    0    0  501  0.00000000000E+00  0.00000000000E+00 -0.67532602059E+03  0.67532602061E+03  0.50400001928E-02 0. -1.
    10030    2    1    2    0    0  0.00000000000E+00  0.00000000000E+00  0.80908057796E+03  0.21597326192E+04  0.20024568921E+04 0.  0.
        1    1    3    3  502    0  0.36348673573E+03 -0.30278878596E+03 -0.54717989381E+03  0.72333221425E+03  0.50400001928E-02 0. -1.
       -1    1    3    3    0  502 -0.36348673573E+03  0.30278878596E+03  0.13562604718E+04  0.14364004049E+04  0.50400001928E-02 0.  1.
</event>
<event>
 5   0  0.2256868E-05  0.1999741E+04  0.7818609E-02  0.8606742E-01
        1   -1    0    0  501    0  0.00000000000E+00  0.00000000000E+00  0.11471478552E+04  0.11471478552E+04  0.50400001928E-02 0. -1.
       -1   -1    0    0    0  501  0.00000000000E+00  0.00000000000E+00 -0.87150188148E+03  0.87150188149E+03  0.50400001928E-02 0.  1.
    10030    2    1    2    0    0  0.00000000000E+00  0.00000000000E+00  0.27564597370E+03  0.20186497367E+04  0.19997414974E+04 0.  0.
        5    1    3    3  502    0  0.20842393272E+03 -0.81252530240E+03 -0.41145571839E+03  0.93432103742E+03  0.46999998093E+01 0.  1.
       -5    1    3    3    0  502 -0.20842393272E+03  0.81252530240E+03  0.68710169209E+03  0.10843286993E+04  0.46999998093E+01 0. -1.
</event>
<event>
 5   0  0.2142551E-05  0.1993305E+04  0.7818609E-02  0.8609757E-01
        1   -1    0    0  501    0  0.00000000000E+00  0.00000000000E+00  0.11572949479E+04  0.11572949479E+04  0.50400001928E-02 0. -1.
       -1   -1    0    0    0  501  0.00000000000E+00  0.00000000000E+00 -0.85830822792E+03  0.85830822793E+03  0.50400001928E-02 0.  1.
    10030    2    1    2    0    0  0.00000000000E+00  0.00000000000E+00  0.29898672000E+03  0.20156031759E+04  0.19933045688E+04 0.  0.
        3    1    3    3  502    0 -0.78004281508E+02 -0.73745061832E+02  0.11514323682E+04  0.11564253157E+04  0.10100000352E+00 0. -1.
       -3    1    3    3    0  502  0.78004281508E+02  0.73745061832E+02 -0.85244564819E+03  0.85917786016E+03  0.10100000352E+00 0.  1.
</event>
<event>
 5   0  0.4412054E-05  0.1999631E+04  0.7818609E-02  0.8606793E-01
        2   -1    0    0  501    0  0.00000000000E+00  0.00000000000E+00  0.14320450274E+04  0.14320450274E+04  0.25500000920E-02 0. -1.
       -2   -1    0    0    0  501  0.00000000000E+00  0.00000000000E+00 -0.69804471952E+03  0.69804471952E+03  0.25500000920E-02 0.  1.
    10030    2    1    2    0    0  0.00000000000E+00  0.00000000000E+00  0.73400030791E+03  0.21300897469E+04  0.19996314355E+04 0.  0.
        4    1    3    3  502    0  0.56696641717E+03 -0.81504510525E+03  0.24149858097E+03  0.10217987176E+04  0.12699999809E+01 0.  1.
       -4    1    3    3    0  502 -0.56696641717E+03  0.81504510525E+03  0.49250172694E+03  0.11082910293E+04  0.12699999809E+01 0. -1.
</event>
<event>
 5   0  0.4577279E-05  0.2002264E+04  0.7818609E-02  0.8605563E-01
        2   -1    0    0  501    0  0.00000000000E+00  0.00000000000E+00  0.15044230104E+04  0.15044230104E+04  0.25500000920E-02 0. -1.
       -2   -1    0    0    0  501  0.00000000000E+00  0.00000000000E+00 -0.66621217979E+03  0.66621217980E+03  0.25500000920E-02 0.  1.
    10030    2    1    2    0    0  0.00000000000E+00  0.00000000000E+00  0.83821083060E+03  0.21706351902E+04  0.20022636521E+04 0.  0.
        1    1    3    3  502    0  0.60696099929E+03  0.45603534576E+02  0.12807928276E+04  0.14180661494E+04  0.50400001928E-02 0. -1.
       -1    1    3    3    0  502 -0.60696099929E+03 -0.45603534576E+02 -0.44258199697E+03  0.75256904075E+03  0.50400001928E-02 0.  1.
</event>
<event>
 5   0  0.2110896E-05  0.2006385E+04  0.7818609E-02  0.8603641E-01
       -1   -1    0    0    0  501  0.00000000000E+00  0.00000000000E+00  0.75618985543E+03  0.75618985545E+03  0.50400001928E-02 0.  1.
        1   -1    0    0  501    0  0.00000000000E+00  0.00000000000E+00 -0.13308768342E+04  0.13308768342E+04  0.50400001928E-02 0. -1.
    10030    2    1    2    0    0  0.00000000000E+00  0.00000000000E+00 -0.57468697877E+03  0.20870666897E+04  0.20063853677E+04 0.  0.
        4    1    3    3  502    0 -0.79768214871E+03  0.59209013334E+03 -0.14198741195E+03  0.10035086320E+04  0.12699999809E+01 0. -1.
       -4    1    3    3    0  502  0.79768214871E+03 -0.59209013334E+03 -0.43269956683E+03  0.10835580577E+04  0.12699999809E+01 0.  1.
</event>
<event>
 5   0  0.4447313E-05  0.1996155E+04  0.7818609E-02  0.8608421E-01
       -2   -1    0    0    0  501  0.00000000000E+00  0.00000000000E+00  0.12014139129E+04  0.12014139129E+04  0.25500000920E-02 0.  1.
        2   -1    0    0  501    0  0.00000000000E+00  0.00000000000E+00 -0.82915496276E+03  0.82915496276E+03  0.25500000920E-02 0. -1.
    10030    2    1    2    0    0  0.00000000000E+00  0.00000000000E+00  0.37225895019E+03  0.20305688757E+04  0.19961546115E+04 0.  0.
        5    1    3    3  502    0  0.16588826115E+03  0.84805280719E+03 -0.32190413104E+03  0.92214794830E+03  0.46999998093E+01 0.  1.
       -5    1    3    3    0  502 -0.16588826115E+03 -0.84805280719E+03  0.69416308122E+03  0.11084209274E+04  0.46999998093E+01 0. -1.
</event>
<event>
 5   0  0.2110896E-05  0.1986284E+04  0.7818609E-02  0.8613060E-01
       -1   -1    0    0    0  501  0.00000000000E+00  0.00000000000E+00  0.15203671355E+04  0.15203671355E+04  0.50400001928E-02 0. -1.
        1   -1    0    0  501    0  0.00000000000E+00  0.00000000000E+00 -0.64874503654E+03  0.64874503656E+03  0.50400001928E-02 0.  1.
    10030    2    1    2    0    0  0.00000000000E+00  0.00000000000E+00  0.87162209894E+03  0.21691121720E+04  0.19862835980E+04 0.  0.
        4    1    3    3  502    0 -0.18870952503E+03 -0.45574351160E+03 -0.50551421988E+03  0.70629998769E+03  0.12699999809E+01 0.  1.
       -4    1    3    3    0  502  0.18870952503E+03  0.45574351160E+03  0.13771363188E+04  0.14628121844E+04  0.12699999809E+01 0. -1.
</event>
<event>
 5   0  0.2007644E-05  0.2019820E+04  0.7818609E-02  0.8597410E-01
       -1   -1    0    0    0  501  0.00000000000E+00  0.00000000000E+00  0.10865403615E+04  0.10865403615E+04  0.50400001928E-02 0.  1.
        1   -1    0    0  501    0  0.00000000000E+00  0.00000000000E+00 -0.93868459442E+03  0.93868459443E+03  0.50400001928E-02 0. -1.
    10030    2    1    2    0    0  0.00000000000E+00  0.00000000000E+00  0.14785576706E+03  0.20252249559E+04  0.20198204856E+04 0.  0.
        1    1    3    3  502    0 -0.46536759141E+03 -0.51475017668E+03  0.80963770470E+03  0.10663245062E+04  0.50400001928E-02 0.  1.
       -1    1    3    3    0  502  0.46536759141E+03  0.51475017668E+03 -0.66178193764E+03  0.95890044976E+03  0.50400001928E-02 0. -1.
</event>
<event>
 5   0  0.2007644E-05  0.2007414E+04  0.7818609E-02  0.8603162E-01
       -1   -1    0    0    0  501  0.00000000000E+00  0.00000000000E+00  0.11637307639E+04  0.11637307639E+04  0.50400001928E-02 0.  1.
        1   -1    0    0  501    0  0.00000000000E+00  0.00000000000E+00 -0.86568822544E+03  0.86568822545E+03  0.50400001928E-02 0. -1.
    10030    2    1    2    0    0  0.00000000000E+00  0.00000000000E+00  0.29804253846E+03  0.20294189894E+04  0.20074142770E+04 0.  0.
        1    1    3    3  502    0 -0.33509778760E+03 -0.77232859100E+03 -0.40345431713E+03  0.93357236772E+03  0.50400001928E-02 0. -1.
       -1    1    3    3    0  502  0.33509778760E+03  0.77232859100E+03  0.70149685559E+03  0.10958466216E+04  0.50400001928E-02 0.  1.
</event>
<event>
 5   0  0.2142551E-05  0.1999622E+04  0.7818609E-02  0.8606798E-01
       -1   -1    0    0    0  501  0.00000000000E+00  0.00000000000E+00  0.21005012305E+04  0.21005012305E+04  0.50400001928E-02 0. -1.
        1   -1    0    0  501    0  0.00000000000E+00  0.00000000000E+00 -0.47589681178E+03  0.47589681181E+03  0.50400001928E-02 0.  1.
    10030    2    1    2    0    0  0.00000000000E+00  0.00000000000E+00  0.16246044188E+04  0.25763980424E+04  0.19996218030E+04 0.  0.
        3    1    3    3  502    0 -0.98050771911E+03 -0.68850534073E+02  0.57652760360E+03  0.11395261608E+04  0.10100000352E+00 0.  1.
       -3    1    3    3    0  502  0.98050771911E+03  0.68850534073E+02  0.10480768152E+04  0.14368718815E+04  0.10100000352E+00 0. -1.
</event>
<event>
 5   0  0.4447313E-05  0.1997037E+04  0.7818609E-02  0.8608007E-01
       -2   -1    0    0    0  501  0.00000000000E+00  0.00000000000E+00  0.85649691227E+03  0.85649691227E+03  0.25500000920E-02 0.  1.
        2   -1    0    0  501    0  0.00000000000E+00  0.00000000000E+00 -0.11640894563E+04  0.11640894563E+04  0.25500000920E-02 0. -1.
    10030    2    1    2    0    0  0.00000000000E+00  0.00000000000E+00 -0.30759254407E+03  0.20205863686E+04  0.19970368299E+04 0.  0.
        5    1    3    3  502    0  0.21713291730E+03  0.23795858190E+03 -0.11100582124E+04  0.11558643154E+04  0.46999998093E+01 0. -1.
       -5    1    3    3    0  502 -0.21713291730E+03 -0.23795858190E+03  0.80246566838E+03  0.86472205327E+03  0.46999998093E+01 0.  1.
</event>
<event>
 5   0  0.4577279E-05  0.1984947E+04  0.7818609E-02  0.8613691E-01
       -2   -1    0    0    0  501  0.00000000000E+00  0.00000000000E+00  0.12026496491E+04  0.12026496491E+04  0.25500000920E-02 0.  1.
        2   -1    0    0  501    0  0.00000000000E+00  0.00000000000E+00 -0.81902813684E+03  0.81902813684E+03  0.25500000920E-02 0. -1.
    10030    2    1    2    0    0  0.00000000000E+00  0.00000000000E+00  0.38362151225E+03  0.20216777859E+04  0.19849472551E+04 0.  0.
        1    1    3    3  502    0 -0.72058465262E+03 -0.56952611209E+03 -0.19118171217E+03  0.93816452770E+03  0.50400001928E-02 0.  1.
       -1    1    3    3    0  502  0.72058465262E+03  0.56952611209E+03  0.57480322442E+03  0.10835132582E+04  0.50400001928E-02 0. -1.
</event>
<event>
 5   0  0.2110896E-05  0.1999721E+04  0.7818609E-02  0.8606751E-01
        1   -1    0    0  501    0  0.00000000000E+00  0.00000000000E+00  0.13946589020E+04  0.13946589020E+04  0.50400001928E-02 0.  1.
       -1   -1    0    0    0  501  0.00000000000E+00  0.00000000000E+00 -0.71682103017E+03  0.71682103019E+03  0.50400001928E-02 0. -1.
    10030    2    1    2    0    0  0.00000000000E+00  0.00000000000E+00  0.67783787182E+03  0.21114799322E+04  0.19997208114E+04 0.  0.
        4    1    3    3  502    0 -0.91877429484E+03 -0.39223983640E+03  0.29511648417E+03  0.10416782835E+04  0.12699999809E+01 0. -1.
       -4    1    3    3    0  502  0.91877429484E+03  0.39223983640E+03  0.38272138764E+03  0.10698016487E+04  0.12699999809E+01 0.  1.
</event>
<event>
 5   0  0.2142551E-05  0.1996925E+04  0.7818609E-02  0.8608059E-01
        1   -1    0    0  501    0  0.00000000000E+00  0.00000000000E+00  0.11938135437E+04  0.11938135438E+04  0.50400001928E-02 0.  1.
       -1   -1    0    0    0  501  0.00000000000E+00  0.00000000000E+00 -0.83507831919E+03  0.83507831921E+03  0.50400001928E-02 0. -1.
    10030    2    1    2    0    0  0.00000000000E+00  0.00000000000E+00  0.35873522455E+03  0.20288918630E+04  0.19969254443E+04 0.  0.
        3    1    3    3  502    0 -0.39359630055E+03  0.51518586370E+03 -0.59212511467E+03  0.87803569607E+03  0.10100000352E+00 0.  1.
       -3    1    3    3    0  502  0.39359630055E+03 -0.51518586370E+03  0.95086033922E+03  0.11508561669E+04  0.10100000352E+00 0. -1.
</event>
<event>
 5   0  0.4447313E-05  0.1994513E+04  0.7818609E-02  0.8609190E-01
       -2   -1    0    0    0  501  0.00000000000E+00  0.00000000000E+00  0.15605273181E+04  0.15605273181E+04  0.25500000920E-02 0.  1.
        2   -1    0    0  501    0  0.00000000000E+00  0.00000000000E+00 -0.63729798758E+03  0.63729798759E+03  0.25500000920E-02 0. -1.
    10030    2    1    2    0    0  0.00000000000E+00  0.00000000000E+00  0.92322933050E+03  0.21978253057E+04  0.19945133937E+04 0.  0.
        5    1    3    3  502    0  0.83209359087E+03 -0.28574137541E+03 -0.55791859374E+02  0.88156831792E+03  0.46999998093E+01 0. -1.
       -5    1    3    3    0  502 -0.83209359087E+03  0.28574137541E+03  0.97902118987E+03  0.13162569878E+04  0.46999998093E+01 0.  1.
</event>
<event>
 5   0  0.2142551E-05  0.1998797E+04  0.7818609E-02  0.8607184E-01
        1   -1    0    0  501    0  0.00000000000E+00  0.00000000000E+00  0.11277280137E+04  0.11277280137E+04  0.50400001928E-02 0.  1.
       -1   -1    0    0    0  501  0.00000000000E+00  0.00000000000E+00 -0.88567181766E+03  0.88567181767E+03  0.50400001928E-02 0. -1.
    10030    2    1    2    0    0  0.00000000000E+00  0.00000000000E+00  0.24205619600E+03  0.20133998313E+04  0.19987965576E+04 0.  0.
        3    1    3    3  502    0 -0.60920014719E+02  0.21084953212E+03  0.11031531002E+04  0.11247735533E+04  0.10100000352E+00 0.  1.
       -3    1    3    3    0  502  0.60920014719E+02 -0.21084953212E+03 -0.86109690423E+03  0.88862627807E+03  0.10100000352E+00 0. -1.
</event>
<event>
 5   0  0.2142551E-05  0.1985773E+04  0.7818609E-02  0.8613301E-01
        1   -1    0    0  501    0  0.00000000000E+00  0.00000000000E+00  0.78527515867E+03  0.78527515868E+03  0.50400001928E-02 0.  1.
       -1   -1    0    0    0  501  0.00000000000E+00  0.00000000000E+00 -0.12553861698E+04  0.12553861698E+04  0.50400001928E-02 0. -1.
    10030    2    1    2    0    0  0.00000000000E+00  0.00000000000E+00 -0.47011101113E+03  0.20406613285E+04  0.19857729716E+04 0.  0.
        3    1    3    3  502    0  0.58010522125E+03  0.16242772947E+03 -0.10461230694E+04  0.12071778334E+04  0.10100000352E+00 0. -1.
       -3    1    3    3    0  502 -0.58010522125E+03 -0.16242772947E+03  0.57601205828E+03  0.83348349504E+03  0.10100000352E+00 0.  1.
</event>
<event>
 5   0  0.4412054E-05  0.1996608E+04  0.7818609E-02  0.8608208E-01
       -2   -1    0    0    0  501  0.00000000000E+00  0.00000000000E+00  0.21090755368E+04  0.21090755368E+04  0.25500000920E-02 0. -1.
        2   -1    0    0  501    0  0.00000000000E+00  0.00000000000E+00 -0.47253425917E+03  0.47253425918E+03  0.25500000920E-02 0.  1.
    10030    2    1    2    0    0  0.00000000000E+00  0.00000000000E+00  0.16365412777E+04  0.25816097960E+04  0.19966075692E+04 0.  0.
        4    1    3    3  502    0 -0.29343527426E+03 -0.86753770298E+03  0.30450453909E+03  0.96511686003E+03  0.12699999809E+01 0.  1.
       -4    1    3    3    0  502  0.29343527426E+03  0.86753770298E+03  0.13320367386E+04  0.16164929360E+04  0.12699999809E+01 0. -1.
</event>
<event>
 5   0  0.4473361E-05  0.1996770E+04  0.7818609E-02  0.8608132E-01
        2   -1    0    0  501    0  0.00000000000E+00  0.00000000000E+00  0.99109046739E+03  0.99109046739E+03  0.25500000920E-02 0. -1.
       -2   -1    0    0    0  501  0.00000000000E+00  0.00000000000E+00 -0.10057331283E+04  0.10057331283E+04  0.25500000920E-02 0.  1.
    10030    2    1    2    0    0  0.00000000000E+00  0.00000000000E+00 -0.14642660923E+02  0.19968235957E+04  0.19967699078E+04 0.  0.
        2    1    3    3  502    0  0.10242786899E+03 -0.39768035672E+03  0.90272038005E+03  0.99173848318E+03  0.25500000920E-02 0. -1.
       -2    1    3    3    0  502 -0.10242786899E+03  0.39768035672E+03 -0.91736304097E+03  0.10050851125E+04  0.25500000920E-02 0.  1.
</event>
<event>
 5   0  0.2093980E-05  0.1987203E+04  0.7818609E-02  0.8612627E-01
       -1   -1    0    0    0  501  0.00000000000E+00  0.00000000000E+00  0.23912920734E+04  0.23912920734E+04  0.50400001928E-02 0.  1.
        1   -1    0    0  501    0  0.00000000000E+00  0.00000000000E+00 -0.41284956112E+03  0.41284956115E+03  0.50400001928E-02 0. -1.
    10030    2    1    2    0    0  0.00000000000E+00  0.00000000000E+00  0.19784425123E+04  0.28041416346E+04  0.19872029419E+04 0.  0.
        2    1    3    3  502    0  0.33173411918E+03  0.89475779475E+03  0.13797795331E+04  0.16776264772E+04  0.25500000920E-02 0. -1.
       -2    1    3    3    0  502 -0.33173411918E+03 -0.89475779475E+03  0.59866297921E+03  0.11265151574E+04  0.25500000920E-02 0.  1.
</event>
<event>
 5   0  0.4473361E-05  0.2003252E+04  0.7818609E-02  0.8605102E-01
       -2   -1    0    0    0  501  0.00000000000E+00  0.00000000000E+00  0.11908174329E+04  0.11908174329E+04  0.25500000920E-02 0. -1.
        2   -1    0    0  501    0  0.00000000000E+00  0.00000000000E+00 -0.84249216120E+03  0.84249216120E+03  0.25500000920E-02 0.  1.
    10030    2    1    2    0    0  0.00000000000E+00  0.00000000000E+00  0.34832527170E+03  0.20333095941E+04  0.20032517092E+04 0.  0.
        2    1    3    3  502    0  0.34597082415E+03 -0.72772891497E+03 -0.42971744606E+03  0.91320439569E+03  0.25500000920E-02 0.  1.
       -2    1    3    3    0  502 -0.34597082415E+03  0.72772891497E+03  0.77804271776E+03  0.11201051984E+04  0.25500000920E-02 0. -1.
</event>
<event>
 5   0  0.2093980E-05  0.1999716E+04  0.7818609E-02  0.8606753E-01
        1   -1    0    0  501    0  0.00000000000E+00  0.00000000000E+00  0.16646656159E+04  0.16646656159E+04  0.50400001928E-02 0.  1.
       -1   -1    0    0    0  501  0.00000000000E+00  0.00000000000E+00 -0.60055069512E+03  0.60055069514E+03  0.50400001928E-02 0. -1.
    10030    2    1    2    0    0  0.00000000000E+00  0.00000000000E+00  0.10641149208E+04  0.22652163111E+04  0.19997160727E+04 0.  0.
        2    1    3    3  502    0  0.25249857826E+02  0.45487012014E+03  0.15402674766E+04  0.16062279667E+04  0.25500000920E-02 0.  1.
       -2    1    3    3    0  502 -0.25249857826E+02 -0.45487012014E+03 -0.47615255584E+03  0.65898834433E+03  0.25500000920E-02 0. -1.
</event>
<event>
 5   0  0.1601500E-05  0.1973269E+04  0.7818609E-02  0.8619221E-01
        3   -1    0    0  501    0  0.00000000000E+00  0.00000000000E+00  0.10478282106E+04  0.10478282154E+04  0.10100000352E+00 0. -1.
       -3   -1    0    0    0  501  0.00000000000E+00  0.00000000000E+00 -0.92901429173E+03  0.92901429722E+03  0.10100000352E+00 0.  1.
    10030    2    1    2    0    0  0.00000000000E+00  0.00000000000E+00  0.11881391883E+03  0.19768425126E+04  0.19732687532E+04 0.  0.
        1    1    3    3  502    0  0.26565137617E+03 -0.95019791939E+03  0.58597147535E+02  0.98837258430E+03  0.50400001928E-02 0.  1.
       -1    1    3    3    0  502 -0.26565137617E+03  0.95019791939E+03  0.60216771295E+02  0.98846992834E+03  0.50400001928E-02 0. -1.
</event>
<event>
 5   0  0.2007644E-05  0.1996253E+04  0.7818609E-02  0.8608375E-01
       -1   -1    0    0    0  501  0.00000000000E+00  0.00000000000E+00  0.76253256897E+03  0.76253256899E+03  0.50400001928E-02 0.  1.
        1   -1    0    0  501    0  0.00000000000E+00  0.00000000000E+00 -0.13065095583E+04  0.13065095583E+04  0.50400001928E-02 0. -1.
    10030    2    1    2    0    0  0.00000000000E+00  0.00000000000E+00 -0.54397698936E+03  0.20690421273E+04  0.19962525791E+04 0.  0.
        1    1    3    3  502    0 -0.65033084810E+03  0.43154041065E+03  0.37287045059E+03  0.86497960147E+03  0.50400001928E-02 0.  1.
       -1    1    3    3    0  502  0.65033084810E+03 -0.43154041065E+03 -0.91684743995E+03  0.12040625259E+04  0.50400001928E-02 0. -1.
</event>
<event>
 5   0  0.4473361E-05  0.1999122E+04  0.7818609E-02  0.8607031E-01
        2   -1    0    0  501    0  0.00000000000E+00  0.00000000000E+00  0.17400618649E+04  0.17400618649E+04  0.25500000920E-02 0.  1.
       -2   -1    0    0    0  501  0.00000000000E+00  0.00000000000E+00 -0.57418783583E+03  0.57418783584E+03  0.25500000920E-02 0. -1.
    10030    2    1    2    0    0  0.00000000000E+00  0.00000000000E+00  0.11658740290E+04  0.23142497007E+04  0.19991221638E+04 0.  0.
        2    1    3    3  502    0  0.70763747417E+03  0.70593013631E+03  0.58970735712E+03  0.11605356174E+04  0.25500000920E-02 0. -1.
       -2    1    3    3    0  502 -0.70763747417E+03 -0.70593013631E+03  0.57616667192E+03  0.11537140833E+04  0.25500000920E-02 0.  1.
</event>
<event>
 5   0  0.4412054E-05  0.1998356E+04  0.7818609E-02  0.8607390E-01
        2   -1    0    0  501    0  0.00000000000E+00  0.00000000000E+00  0.13820465948E+04  0.13820465948E+04  0.25500000920E-02 0. -1.
       -2   -1    0    0    0  501  0.00000000000E+00  0.00000000000E+00 -0.72237574769E+03  0.72237574769E+03  0.25500000920E-02 0.  1.
    10030    2    1    2    0    0  0.00000000000E+00  0.00000000000E+00  0.65967084710E+03  0.21044223425E+04  0.19983562668E+04 0.  0.
        4    1    3    3  502    0  0.91294689496E+03  0.14412933948E+03  0.72960256181E+03  0.11775257155E+04  0.12699999809E+01 0. -1.
       -4    1    3    3    0  502 -0.91294689496E+03 -0.14412933948E+03 -0.69931714713E+02  0.92689662700E+03  0.12699999809E+01 0.  1.
</event>
<event>
 5   0  0.4577279E-05  0.1995510E+04  0.7818609E-02  0.8608723E-01
       -2   -1    0    0    0  501  0.00000000000E+00  0.00000000000E+00  0.76043668340E+03  0.76043668341E+03  0.25500000920E-02 0. -1.
        2   -1    0    0  501    0  0.00000000000E+00  0.00000000000E+00 -0.13091356239E+04  0.13091356239E+04  0.25500000920E-02 0.  1.
    10030    2    1    2    0    0  0.00000000000E+00  0.00000000000E+00 -0.54869894051E+03  0.20695723073E+04  0.19955097113E+04 0.  0.
        1    1    3    3  502    0  0.63272609904E+03 -0.76233181319E+03 -0.39716171925E+03  0.10673469638E+04  0.50400001928E-02 0.  1.
       -1    1    3    3    0  502 -0.63272609904E+03  0.76233181319E+03 -0.15153722127E+03  0.10022253436E+04  0.50400001928E-02 0. -1.
</event>
<event>
 5   0  0.4577279E-05  0.1996259E+04  0.7818609E-02  0.8608372E-01
       -2   -1    0    0    0  501  0.00000000000E+00  0.00000000000E+00  0.67692786718E+03  0.67692786719E+03  0.25500000920E-02 0.  1.
        2   -1    0    0  501    0  0.00000000000E+00  0.00000000000E+00 -0.14717405380E+04  0.14717405380E+04  0.25500000920E-02 0. -1.
    10030    2    1    2    0    0  0.00000000000E+00  0.00000000000E+00 -0.79481267086E+03  0.21486684052E+04  0.19962586841E+04 0.  0.
        1    1    3    3  502    0 -0.56575993542E+03 -0.25546901148E+03  0.44387727353E+03  0.76313547574E+03  0.50400001928E-02 0.  1.
       -1    1    3    3    0  502  0.56575993542E+03  0.25546901148E+03 -0.12386899444E+04  0.13855329295E+04  0.50400001928E-02 0. -1.
</event>
<event>
 5   0  0.2093980E-05  0.1995095E+04  0.7818609E-02  0.8608917E-01
       -1   -1    0    0    0  501  0.00000000000E+00  0.00000000000E+00  0.46518494023E+03  0.46518494026E+03  0.50400001928E-02 0.  1.
        1   -1    0    0  501    0  0.00000000000E+00  0.00000000000E+00 -0.21391521910E+04  0.21391521910E+04  0.50400001928E-02 0. -1.
    10030    2    1    2    0    0  0.00000000000E+00  0.00000000000E+00 -0.16739672508E+04  0.26043371313E+04  0.19950953703E+04 0.  0.
        2    1    3    3  502    0  0.95427714194E+03 -0.14374599570E+03 -0.50728120982E+03  0.10902485958E+04  0.25500000920E-02 0.  1.
       -2    1    3    3    0  502 -0.95427714194E+03  0.14374599570E+03 -0.11666860409E+04  0.15140885354E+04  0.25500000920E-02 0. -1.
</event>
<event>
 5   0  0.1601500E-05  0.2001435E+04  0.7818609E-02  0.8605950E-01
       -4   -1    0    0    0  501  0.00000000000E+00  0.00000000000E+00  0.93026163201E+03  0.93026249892E+03  0.12699999809E+01 0.  1.
        4   -1    0    0  501    0  0.00000000000E+00  0.00000000000E+00 -0.10765077932E+04  0.10765085423E+04  0.12699999809E+01 0. -1.
    10030    2    1    2    0    0  0.00000000000E+00  0.00000000000E+00 -0.14624616118E+03  0.20067710412E+04  0.20014350033E+04 0.  0.
        3    1    3    3  502    0  0.44002054253E+03 -0.78840932055E+03  0.35956907921E+03  0.97185249267E+03  0.10100000352E+00 0.  1.
       -3    1    3    3    0  502 -0.44002054253E+03  0.78840932055E+03 -0.50581524039E+03  0.10349185486E+04  0.10100000352E+00 0. -1.
</event>
<event>
 5   0  0.4577279E-05  0.2010893E+04  0.7818609E-02  0.8601545E-01
        2   -1    0    0  501    0  0.00000000000E+00  0.00000000000E+00  0.19239218199E+04  0.19239218199E+04  0.25500000920E-02 0. -1.
       -2   -1    0    0    0  501  0.00000000000E+00  0.00000000000E+00 -0.52544909015E+03  0.52544909016E+03  0.25500000920E-02 0.  1.
    10030    2    1    2    0    0  0.00000000000E+00  0.00000000000E+00  0.13984727298E+04  0.24493709101E+04  0.20108933038E+04 0.  0.
        1    1    3    3  502    0  0.48246521164E+03  0.69838365182E+01  0.17736800514E+04  0.18381410117E+04  0.50400001928E-02 0. -1.
       -1    1    3    3    0  502 -0.48246521164E+03 -0.69838365182E+01 -0.37520732160E+03  0.61122989834E+03  0.50400001928E-02 0.  1.
</event>
<event>
 5   0  0.4447313E-05  0.1999415E+04  0.7818609E-02  0.8606894E-01
       -2   -1    0    0    0  501  0.00000000000E+00  0.00000000000E+00  0.52715905349E+03  0.52715905350E+03  0.25500000920E-02 0. -1.
        2   -1    0    0  501    0  0.00000000000E+00  0.00000000000E+00 -0.18958520338E+04  0.18958520338E+04  0.25500000920E-02 0.  1.
    10030    2    1    2    0    0  0.00000000000E+00  0.00000000000E+00 -0.13686929803E+04  0.24230110873E+04  0.19994154783E+04 0.  0.
        5    1    3    3  502    0  0.57743764857E+03  0.46374879390E+02  0.30300955824E+03  0.65377499938E+03  0.46999998093E+01 0. -1.
       -5    1    3    3    0  502 -0.57743764857E+03 -0.46374879390E+02 -0.16717025386E+04  0.17692360879E+04  0.46999998093E+01 0.  1.
</event>
<event>
 5   0  0.4412054E-05  0.2002794E+04  0.7818609E-02  0.8605316E-01
        2   -1    0    0  501    0  0.00000000000E+00  0.00000000000E+00  0.10205117022E+04  0.10205117022E+04  0.25500000920E-02 0.  1.
       -2   -1    0    0    0  501  0.00000000000E+00  0.00000000000E+00 -0.98263992258E+03  0.98263992258E+03  0.25500000920E-02 0. -1.
    10030    2    1    2    0    0  0.00000000000E+00  0.00000000000E+00  0.37871779648E+02  0.20031516248E+04  0.20027935890E+04 0.  0.
        4    1    3    3  502    0 -0.15377615955E+03  0.80931118450E+03  0.58839013445E+03  0.10123419698E+04  0.12699999809E+01 0.  1.
       -4    1    3    3    0  502  0.15377615955E+03 -0.80931118450E+03 -0.55051835480E+03  0.99080965501E+03  0.12699999809E+01 0. -1.
</event>
<event>
 5   0  0.2007644E-05  0.2011860E+04  0.7818609E-02  0.8601096E-01
        1   -1    0    0  501    0  0.00000000000E+00  0.00000000000E+00  0.98026874121E+03  0.98026874122E+03  0.50400001928E-02 0. -1.
       -1   -1    0    0    0  501  0.00000000000E+00  0.00000000000E+00 -0.10322625057E+04  0.10322625058E+04  0.50400001928E-02 0.  1.
    10030    2    1    2    0    0  0.00000000000E+00  0.00000000000E+00 -0.51993764536E+02  0.20125312470E+04  0.20118595052E+04 0.  0.
        1    1    3    3  502    0 -0.79876494954E+03 -0.20070131702E+03  0.55176691483E+03  0.99133909012E+03  0.50400001928E-02 0. -1.
       -1    1    3    3    0  502  0.79876494954E+03  0.20070131702E+03 -0.60376067936E+03  0.10211921569E+04  0.50400001928E-02 0.  1.
</event>
<event>
 5   0  0.4514680E-05  0.1992302E+04  0.7818609E-02  0.8610228E-01
       -2   -1    0    0    0  501  0.00000000000E+00  0.00000000000E+00  0.81965772239E+03  0.81965772240E+03  0.25500000920E-02 0.  1.
        2   -1    0    0  501    0  0.00000000000E+00  0.00000000000E+00 -0.12106481902E+04  0.12106481903E+04  0.25500000920E-02 0. -1.
    10030    2    1    2    0    0  0.00000000000E+00  0.00000000000E+00 -0.39099046785E+03  0.20303059126E+04  0.19923023247E+04 0.  0.
        3    1    3    3  502    0 -0.84374921241E+03  0.40634567582E+03  0.15052182558E+03  0.94851798711E+03  0.10100000352E+00 0. -1.
       -3    1    3    3    0  502  0.84374921241E+03 -0.40634567582E+03 -0.54151229343E+03  0.10817879255E+04  0.10100000352E+00 0.  1.
</event>
<event>
 5   0  0.4577279E-05  0.2000315E+04  0.7818609E-02  0.8606473E-01
        2   -1    0    0  501    0  0.00000000000E+00  0.00000000000E+00  0.17956118659E+04  0.17956118659E+04  0.25500000920E-02 0. -1.
       -2   -1    0    0    0  501  0.00000000000E+00  0.00000000000E+00 -0.55708856948E+03  0.55708856949E+03  0.25500000920E-02 0.  1.
    10030    2    1    2    0    0  0.00000000000E+00  0.00000000000E+00  0.12385232964E+04  0.23527004354E+04  0.20003148210E+04 0.  0.
        1    1    3    3  502    0 -0.94114958796E+02 -0.55850030598E+03  0.15888202786E+04  0.16867513435E+04  0.50400001928E-02 0. -1.
       -1    1    3    3    0  502  0.94114958796E+02  0.55850030598E+03 -0.35029698214E+03  0.66594909188E+03  0.50400001928E-02 0.  1.
</event>
<event>
 5   0  0.2110896E-05  0.1998576E+04  0.7818609E-02  0.8607287E-01
        1   -1    0    0  501    0  0.00000000000E+00  0.00000000000E+00  0.86249576546E+03  0.86249576547E+03  0.50400001928E-02 0. -1.
       -1   -1    0    0    0  501  0.00000000000E+00  0.00000000000E+00 -0.11577760233E+04  0.11577760233E+04  0.50400001928E-02 0.  1.
    10030    2    1    2    0    0  0.00000000000E+00  0.00000000000E+00 -0.29528025787E+03  0.20202717888E+04  0.19985764109E+04 0.  0.
        4    1    3    3  502    0  0.30769140064E+02  0.98134745871E+03 -0.33563132676E+03  0.10376124397E+04  0.12699999809E+01 0. -1.
       -4    1    3    3    0  502 -0.30769140064E+02 -0.98134745871E+03  0.40351068882E+02  0.98265934909E+03  0.12699999809E+01 0.  1.
</event>
<event>
 5   0  0.4514680E-05  0.1983094E+04  0.7818609E-02  0.8614566E-01
        2   -1    0    0  501    0  0.00000000000E+00  0.00000000000E+00  0.13763871311E+04  0.13763871311E+04  0.25500000920E-02 0.  1.
       -2   -1    0    0    0  501  0.00000000000E+00  0.00000000000E+00 -0.71430876955E+03  0.71430876956E+03  0.25500000920E-02 0. -1.
    10030    2    1    2    0    0  0.00000000000E+00  0.00000000000E+00  0.66207836150E+03  0.20906959006E+04  0.19830939443E+04 0.  0.
        3    1    3    3  502    0  0.15267539728E+03 -0.96403963710E+03  0.14697139900E+03  0.98705764835E+03  0.10100000352E+00 0. -1.
       -3    1    3    3    0  502 -0.15267539728E+03  0.96403963710E+03  0.51510696251E+03  0.11036382523E+04  0.10100000352E+00 0.  1.
</event>
<event>
 5   0  0.4577279E-05  0.1979547E+04  0.7818609E-02  0.8616243E-01
        2   -1    0    0  501    0  0.00000000000E+00  0.00000000000E+00  0.76743314793E+03  0.76743314793E+03  0.25500000920E-02 0.  1.
       -2   -1    0    0    0  501  0.00000000000E+00  0.00000000000E+00 -0.12765299104E+04  0.12765299104E+04  0.25500000920E-02 0. -1.
    10030    2    1    2    0    0  0.00000000000E+00  0.00000000000E+00 -0.50909676246E+03  0.20439630583E+04  0.19795467840E+04 0.  0.
        1    1    3    3  502    0 -0.36848622865E+02  0.62680248507E+03  0.53547174126E+03  0.82520855668E+03  0.50400001928E-02 0.  1.
       -1    1    3    3    0  502  0.36848622865E+02 -0.62680248507E+03 -0.10445685037E+04  0.12187545016E+04  0.50400001928E-02 0. -1.
</event>
<event>
 5   0  0.2093980E-05  0.1963978E+04  0.7818609E-02  0.8623650E-01
        1   -1    0    0  501    0  0.00000000000E+00  0.00000000000E+00  0.12767849810E+04  0.12767849810E+04  0.50400001928E-02 0. -1.
       -1   -1    0    0    0  501  0.00000000000E+00  0.00000000000E+00 -0.75525801311E+03  0.75525801313E+03  0.50400001928E-02 0.  1.
    10030    2    1    2    0    0  0.00000000000E+00  0.00000000000E+00  0.52152696788E+03  0.20320429941E+04  0.19639776862E+04 0.  0.
        2    1    3    3  502    0 -0.19491944295E+03  0.31676181080E+03 -0.67956285159E+03  0.77468529306E+03  0.25500000920E-02 0.  1.
       -2    1    3    3    0  502  0.19491944295E+03 -0.31676181080E+03  0.12010898195E+04  0.12573577011E+04  0.25500000920E-02 0. -1.
</event>
<event>
 5   0  0.4447313E-05  0.2009706E+04  0.7818609E-02  0.8602096E-01
        2   -1    0    0  501    0  0.00000000000E+00  0.00000000000E+00  0.74465935433E+03  0.74465935433E+03  0.25500000920E-02 0. -1.
       -2   -1    0    0    0  501  0.00000000000E+00  0.00000000000E+00 -0.13559622019E+04  0.13559622019E+04  0.25500000920E-02 0.  1.
    10030    2    1    2    0    0  0.00000000000E+00  0.00000000000E+00 -0.61130284760E+03  0.21006215563E+04  0.20097063843E+04 0.  0.
        5    1    3    3  502    0  0.62104456340E+03 -0.60220260983E+03 -0.84001603222E+03  0.12058164692E+04  0.46999998093E+01 0.  1.
       -5    1    3    3    0  502 -0.62104456340E+03  0.60220260983E+03  0.22871318462E+03  0.89480508706E+03  0.46999998093E+01 0. -1.
</event>
<event>
 5   0  0.2007644E-05  0.2025803E+04  0.7818609E-02  0.8594651E-01
        1   -1    0    0  501    0  0.00000000000E+00  0.00000000000E+00  0.15616143390E+04  0.15616143390E+04  0.50400001928E-02 0. -1.
       -1   -1    0    0    0  501  0.00000000000E+00  0.00000000000E+00 -0.65699268677E+03  0.65699268679E+03  0.50400001928E-02 0.  1.
    10030    2    1    2    0    0  0.00000000000E+00  0.00000000000E+00  0.90462165219E+03  0.22186070258E+04  0.20258027548E+04 0.  0.
        1    1    3    3  502    0  0.17494725849E+03 -0.40708791692E+03 -0.54522525621E+03  0.70256508268E+03  0.50400001928E-02 0.  1.
       -1    1    3    3    0  502 -0.17494725849E+03  0.40708791692E+03  0.14498469084E+04  0.15160419431E+04  0.50400001928E-02 0. -1.
</event>
<event>
 5   0  0.4577279E-05  0.1982952E+04  0.7818609E-02  0.8614633E-01
        2   -1    0    0  501    0  0.00000000000E+00  0.00000000000E+00  0.16885009806E+04  0.16885009806E+04  0.25500000920E-02 0.  1.
       -2   -1    0    0    0  501  0.00000000000E+00  0.00000000000E+00 -0.58218808519E+03  0.58218808520E+03  0.25500000920E-02 0. -1.
    10030    2    1    2    0    0  0.00000000000E+00  0.00000000000E+00  0.11063128954E+04  0.22706890658E+04  0.19829524984E+04 0.  0.
        1    1    3    3  502    0 -0.98424299656E+03  0.10800946445E+03  0.61182374960E+03  0.11639280997E+04  0.50400001928E-02 0.  1.
       -1    1    3    3    0  502  0.98424299656E+03 -0.10800946445E+03  0.49448914578E+03  0.11067609661E+04  0.50400001928E-02 0. -1.
</event>
<event>
 5   0  0.4473361E-05  0.2000678E+04  0.7818609E-02  0.8606304E-01
       -2   -1    0    0    0  501  0.00000000000E+00  0.00000000000E+00  0.59284008822E+03  0.59284008822E+03  0.25500000920E-02 0. -1.
        2   -1    0    0  501    0  0.00000000000E+00  0.00000000000E+00 -0.16879390470E+04  0.16879390470E+04  0.25500000920E-02 0.  1.
    10030    2    1    2    0    0  0.00000000000E+00  0.00000000000E+00 -0.10950989587E+04  0.22807791352E+04  0.20006778187E+04 0.  0.
        2    1    3    3  502    0  0.40459728123E+03  0.85909498627E+02 -0.15858906194E+04  0.16389412615E+04  0.25500000920E-02 0.  1.
       -2    1    3    3    0  502 -0.40459728123E+03 -0.85909498627E+02  0.49079166066E+03  0.64183787369E+03  0.25500000920E-02 0. -1.
</event>
<event>
 5   0  0.2256868E-05  0.1997696E+04  0.7818609E-02  0.8607699E-01
        1   -1    0    0  501    0  0.00000000000E+00  0.00000000000E+00  0.10977323680E+04  0.10977323680E+04  0.50400001928E-02 0. -1.
       -1   -1    0    0    0  501  0.00000000000E+00  0.00000000000E+00 -0.90887131042E+03  0.90887131043E+03  0.50400001928E-02 0.  1.
    10030    2    1    2    0    0  0.00000000000E+00  0.00000000000E+00  0.18886105754E+03  0.20066036784E+04  0.19976961288E+04 0.  0.
        5    1    3    3  502    0  0.97795719696E+03 -0.15391339332E+02 -0.10905160951E+03  0.98415014909E+03  0.46999998093E+01 0. -1.
       -5    1    3    3    0  502 -0.97795719696E+03  0.15391339332E+02  0.29791266705E+03  0.10224535293E+04  0.46999998093E+01 0.  1.
</event>
<event>
 5   0  0.2142551E-05  0.1991950E+04  0.7818609E-02  0.8610394E-01
        1   -1    0    0  501    0  0.00000000000E+00  0.00000000000E+00  0.92884343068E+03  0.92884343069E+03  0.50400001928E-02 0. -1.
       -1   -1    0    0    0  501  0.00000000000E+00  0.00000000000E+00 -0.10679580686E+04  0.10679580687E+04  0.50400001928E-02 0.  1.
    10030    2    1    2    0    0  0.00000000000E+00  0.00000000000E+00 -0.13911463796E+03  0.19968014993E+04  0.19919496342E+04 0.  0.
        3    1    3    3  502    0 -0.39776336305E+01  0.13987410202E+03  0.91894051017E+03  0.92953335465E+03  0.10100000352E+00 0. -1.
       -3    1    3    3    0  502  0.39776336305E+01 -0.13987410202E+03 -0.10580551481E+04  0.10672681447E+04  0.10100000352E+00 0.  1.
</event>
<event>
 5   0  0.4514680E-05  0.2001001E+04  0.7818609E-02  0.8606153E-01
        2   -1    0    0  501    0  0.00000000000E+00  0.00000000000E+00  0.13156384992E+04  0.13156384992E+04  0.25500000920E-02 0.  1.
       -2   -1    0    0    0  501  0.00000000000E+00  0.00000000000E+00 -0.76084797100E+03  0.76084797101E+03  0.25500000920E-02 0. -1.
    10030    2    1    2    0    0  0.00000000000E+00  0.00000000000E+00  0.55479052821E+03  0.20764864702E+04  0.20010006324E+04 0.  0.
        3    1    3    3  502    0  0.18683983086E+02 -0.13067657676E+03 -0.75177140340E+03  0.76327302593E+03  0.10100000352E+00 0. -1.
       -3    1    3    3    0  502 -0.18683983086E+02  0.13067657676E+03  0.13065619316E+04  0.13132134443E+04  0.10100000352E+00 0.  1.
</event>
<event>
 5   0  0.4447313E-05  0.2007779E+04  0.7818609E-02  0.8602992E-01
        2   -1    0    0  501    0  0.00000000000E+00  0.00000000000E+00  0.17044517057E+04  0.17044517057E+04  0.25500000920E-02 0. -1.
       -2   -1    0    0    0  501  0.00000000000E+00  0.00000000000E+00 -0.59127185180E+03  0.59127185181E+03  0.25500000920E-02 0.  1.
    10030    2    1    2    0    0  0.00000000000E+00  0.00000000000E+00  0.11131798539E+04  0.22957235575E+04  0.20077791874E+04 0.  0.
        5    1    3    3  502    0  0.37378412154E+03  0.17990461073E+03  0.16018557774E+04  0.16547036774E+04  0.46999998093E+01 0. -1.
       -5    1    3    3    0  502 -0.37378412154E+03 -0.17990461073E+03 -0.48867592349E+03  0.64101988010E+03  0.46999998093E+01 0.  1.
</event>
<event>
 5   0  0.2256868E-05  0.1994129E+04  0.7818609E-02  0.8609371E-01
        1   -1    0    0  501    0  0.00000000000E+00  0.00000000000E+00  0.12595957590E+04  0.12595957590E+04  0.50400001928E-02 0. -1.
       -1   -1    0    0    0  501  0.00000000000E+00  0.00000000000E+00 -0.78925095569E+03  0.78925095570E+03  0.50400001928E-02 0.  1.
    10030    2    1    2    0    0  0.00000000000E+00  0.00000000000E+00  0.47034480330E+03  0.20488467147E+04  0.19941285381E+04 0.  0.
        5    1    3    3  502    0  0.82152694466E+02 -0.63959695223E+03  0.10164872152E+04  0.12037863910E+04  0.46999998093E+01 0.  1.
       -5    1    3    3    0  502 -0.82152694466E+02  0.63959695223E+03 -0.54614241194E+03  0.84506032366E+03  0.46999998093E+01 0. -1.
</event>
<event>
 5   0  0.4577279E-05  0.2092365E+04  0.7818609E-02  0.8564614E-01
        2   -1    0    0  501    0  0.00000000000E+00  0.00000000000E+00  0.12811211781E+04  0.12811211781E+04  0.25500000920E-02 0.  1.
       -2   -1    0    0    0  501  0.00000000000E+00  0.00000000000E+00 -0.85432812040E+03  0.85432812040E+03  0.25500000920E-02 0. -1.
    10030    2    1    2    0    0  0.00000000000E+00  0.00000000000E+00  0.42679305766E+03  0.21354492985E+04  0.20923650237E+04 0.  0.
        1    1    3    3  502    0 -0.55514585967E+03 -0.76789568044E+03  0.66597681975E+03  0.11581778041E+04  0.50400001928E-02 0.  1.
       -1    1    3    3    0  502  0.55514585967E+03  0.76789568044E+03 -0.23918376209E+03  0.97727149432E+03  0.50400001928E-02 0. -1.
</event>
<event>
 5   0  0.2007644E-05  0.1998798E+04  0.7818609E-02  0.8607183E-01
        1   -1    0    0  501    0  0.00000000000E+00  0.00000000000E+00  0.65203757076E+03  0.65203757078E+03  0.50400001928E-02 0.  1.
       -1   -1    0    0    0  501  0.00000000000E+00  0.00000000000E+00 -0.15318112849E+04  0.15318112849E+04  0.50400001928E-02 0. -1.
    10030    2    1    2    0    0  0.00000000000E+00  0.00000000000E+00 -0.87977371417E+03  0.21838488557E+04  0.19987981480E+04 0.  0.
        1    1    3    3  502    0  0.43220532659E+02 -0.65141009841E+03 -0.12666432434E+04  0.14249871006E+04  0.50400001928E-02 0. -1.
       -1    1    3    3    0  502 -0.43220532659E+02  0.65141009841E+03  0.38686952921E+03  0.75886175514E+03  0.50400001928E-02 0.  1.
</event>
<event>
 5   0  0.4514680E-05  0.2001226E+04  0.7818609E-02  0.8606048E-01
        2   -1    0    0  501    0  0.00000000000E+00  0.00000000000E+00  0.69380639893E+03  0.69380639894E+03  0.25500000920E-02 0.  1.
       -2   -1    0    0    0  501  0.00000000000E+00  0.00000000000E+00 -0.14430924292E+04  0.14430924292E+04  0.25500000920E-02 0. -1.
    10030    2    1    2    0    0  0.00000000000E+00  0.00000000000E+00 -0.74928603028E+03  0.21368988281E+04  0.20012263856E+04 0.  0.
        3    1    3    3  502    0  0.24781469819E+02 -0.18583691729E+03 -0.14241701530E+04  0.14364574884E+04  0.10100000352E+00 0. -1.
       -3    1    3    3    0  502 -0.24781469819E+02  0.18583691729E+03  0.67488412274E+03  0.70044133973E+03  0.10100000352E+00 0.  1.
</event>
<event>
 5   0  0.4412054E-05  0.2004611E+04  0.7818609E-02  0.8604468E-01
        2   -1    0    0  501    0  0.00000000000E+00  0.00000000000E+00  0.18555573204E+04  0.18555573204E+04  0.25500000920E-02 0. -1.
       -2   -1    0    0    0  501  0.00000000000E+00  0.00000000000E+00 -0.54140953114E+03  0.54140953114E+03  0.25500000920E-02 0.  1.
    10030    2    1    2    0    0  0.00000000000E+00  0.00000000000E+00  0.13141477893E+04  0.23969668515E+04  0.20046111033E+04 0.  0.
        4    1    3    3  502    0 -0.76580028407E+03 -0.26343926688E+02  0.14296564743E+04  0.16220552780E+04  0.12699999809E+01 0. -1.
       -4    1    3    3    0  502  0.76580028407E+03  0.26343926688E+02 -0.11550868503E+03  0.77491157352E+03  0.12699999809E+01 0.  1.
</event>
<event>
 5   0  0.4473361E-05  0.2005313E+04  0.7818609E-02  0.8604141E-01
        2   -1    0    0  501    0  0.00000000000E+00  0.00000000000E+00  0.13975330221E+04  0.13975330221E+04  0.25500000920E-02 0. -1.
       -2   -1    0    0    0  501  0.00000000000E+00  0.00000000000E+00 -0.71935310586E+03  0.71935310587E+03  0.25500000920E-02 0.  1.
    10030    2    1    2    0    0  0.00000000000E+00  0.00000000000E+00  0.67817991626E+03  0.21168861280E+04  0.20053126639E+04 0.  0.
        2    1    3    3  502    0 -0.26642556318E+03 -0.39604313219E+03 -0.59172201725E+03  0.76024186216E+03  0.25500000920E-02 0.  1.
       -2    1    3    3    0  502  0.26642556318E+03  0.39604313219E+03  0.12699019335E+04  0.13566442658E+04  0.25500000920E-02 0. -1.
</event>
<event>
 5   0  0.4473361E-05  0.1997487E+04  0.7818609E-02  0.8607796E-01
        2   -1    0    0  501    0  0.00000000000E+00  0.00000000000E+00  0.84800069033E+03  0.84800069034E+03  0.25500000920E-02 0.  1.
       -2   -1    0    0    0  501  0.00000000000E+00  0.00000000000E+00 -0.11762833102E+04  0.11762833102E+04  0.25500000920E-02 0. -1.
    10030    2    1    2    0    0  0.00000000000E+00  0.00000000000E+00 -0.32828261986E+03  0.20242840005E+04  0.19974874809E+04 0.  0.
        2    1    3    3  502    0  0.69879175155E+03 -0.41210001317E+03 -0.75449604057E+03  0.11078811345E+04  0.25500000920E-02 0. -1.
       -2    1    3    3    0  502 -0.69879175155E+03  0.41210001317E+03  0.42621342071E+03  0.91640286605E+03  0.25500000920E-02 0.  1.
</event>
<event>
 5   0  0.4577279E-05  0.2005169E+04  0.7818609E-02  0.8604208E-01
       -2   -1    0    0    0  501  0.00000000000E+00  0.00000000000E+00  0.65635509791E+03  0.65635509791E+03  0.25500000920E-02 0. -1.
        2   -1    0    0  501    0  0.00000000000E+00  0.00000000000E+00 -0.15314503451E+04  0.15314503451E+04  0.25500000920E-02 0.  1.
    10030    2    1    2    0    0  0.00000000000E+00  0.00000000000E+00 -0.87509524714E+03  0.21878054430E+04  0.20051685627E+04 0.  0.
        1    1    3    3  502    0  0.66700312862E+03  0.74013590874E+03 -0.31565404275E+03  0.10451467896E+04  0.50400001928E-02 0.  1.
       -1    1    3    3    0  502 -0.66700312862E+03 -0.74013590874E+03 -0.55944120439E+03  0.11426586534E+04  0.50400001928E-02 0. -1.
</event>
<event>
 5   0  0.2256868E-05  0.2006407E+04  0.7818609E-02  0.8603631E-01
       -1   -1    0    0    0  501  0.00000000000E+00  0.00000000000E+00  0.54736747681E+03  0.54736747683E+03  0.50400001928E-02 0. -1.
        1   -1    0    0  501    0  0.00000000000E+00  0.00000000000E+00 -0.18386508961E+04  0.18386508961E+04  0.50400001928E-02 0.  1.
    10030    2    1    2    0    0  0.00000000000E+00  0.00000000000E+00 -0.12912834193E+04  0.23860183729E+04  0.20064074379E+04 0.  0.
        5    1    3    3  502    0  0.84275258365E+03 -0.48625504005E+03 -0.93625373027E+03  0.13502847917E+04  0.46999998093E+01 0.  1.
       -5    1    3    3    0  502 -0.84275258365E+03  0.48625504005E+03 -0.35502968900E+03  0.10357335812E+04  0.46999998093E+01 0. -1.
</event>
<event>
 5   0  0.2007644E-05  0.1997850E+04  0.7818609E-02  0.8607627E-01
       -1   -1    0    0    0  501  0.00000000000E+00  0.00000000000E+00  0.82003360344E+03  0.82003360346E+03  0.50400001928E-02 0.  1.
        1   -1    0    0  501    0  0.00000000000E+00  0.00000000000E+00 -0.12168416880E+04  0.12168416880E+04  0.50400001928E-02 0. -1.
    10030    2    1    2    0    0  0.00000000000E+00  0.00000000000E+00 -0.39680808459E+03  0.20368752915E+04  0.19978499186E+04 0.  0.
        1    1    3    3  502    0 -0.10734920899E+03  0.86805056281E+03  0.29353067252E+03  0.92260277910E+03  0.50400001928E-02 0.  1.
       -1    1    3    3    0  502  0.10734920899E+03 -0.86805056281E+03 -0.69033875711E+03  0.11142725124E+04  0.50400001928E-02 0. -1.
</event>
<event>
 5   0  0.4577279E-05  0.1996647E+04  0.7818609E-02  0.8608190E-01
       -2   -1    0    0    0  501  0.00000000000E+00  0.00000000000E+00  0.63505349559E+03  0.63505349560E+03  0.25500000920E-02 0.  1.
        2   -1    0    0  501    0  0.00000000000E+00  0.00000000000E+00 -0.15693956057E+04  0.15693956057E+04  0.25500000920E-02 0. -1.
    10030    2    1    2    0    0  0.00000000000E+00  0.00000000000E+00 -0.93434211007E+03  0.22044491013E+04  0.19966473553E+04 0.  0.
        1    1    3    3  502    0  0.24385042418E+03  0.24429455995E+03  0.56707548951E+03  0.66386555282E+03  0.50400001928E-02 0.  1.
       -1    1    3    3    0  502 -0.24385042418E+03 -0.24429455995E+03 -0.15014175996E+04  0.15405835484E+04  0.50400001928E-02 0. -1.
</event>
<event>
 5   0  0.2093980E-05  0.2000721E+04  0.7818609E-02  0.8606284E-01
       -1   -1    0    0    0  501  0.00000000000E+00  0.00000000000E+00  0.84996229732E+03  0.84996229733E+03  0.50400001928E-02 0.  1.
        1   -1    0    0  501    0  0.00000000000E+00  0.00000000000E+00 -0.11773706682E+04  0.11773706682E+04  0.50400001928E-02 0. -1.
    10030    2    1    2    0    0  0.00000000000E+00  0.00000000000E+00 -0.32740837087E+03  0.20273329655E+04  0.20007205482E+04 0.  0.
        2    1    3    3  502    0 -0.43630551263E+03  0.80990178152E+03  0.23448237857E+03  0.94936051209E+03  0.25500000920E-02 0.  1.
       -2    1    3    3    0  502  0.43630551263E+03 -0.80990178152E+03 -0.56189074944E+03  0.10779724534E+04  0.25500000920E-02 0. -1.
</event>
<event>
 5   0  0.2142551E-05  0.1997301E+04  0.7818609E-02  0.8607883E-01
       -1   -1    0    0    0  501  0.00000000000E+00  0.00000000000E+00  0.66795518882E+03  0.66795518884E+03  0.50400001928E-02 0.  1.
        1   -1    0    0  501    0  0.00000000000E+00  0.00000000000E+00 -0.14930688567E+04  0.14930688567E+04  0.50400001928E-02 0. -1.
    10030    2    1    2    0    0  0.00000000000E+00  0.00000000000E+00 -0.82511366789E+03  0.21610240455E+04  0.19973012693E+04 0.  0.
        3    1    3    3  502    0 -0.46708143813E+03  0.51039797185E+03 -0.11917509111E+04  0.13780208285E+04  0.10100000352E+00 0. -1.
       -3    1    3    3    0  502  0.46708143813E+03 -0.51039797185E+03  0.36663724324E+03  0.78300321701E+03  0.10100000352E+00 0.  1.
</event>
<event>
 5   0  0.2110896E-05  0.2011606E+04  0.7818609E-02  0.8601214E-01
       -1   -1    0    0    0  501  0.00000000000E+00  0.00000000000E+00  0.10069317418E+04  0.10069317418E+04  0.50400001928E-02 0. -1.
        1   -1    0    0  501    0  0.00000000000E+00  0.00000000000E+00 -0.10046751696E+04  0.10046751696E+04  0.50400001928E-02 0.  1.
    10030    2    1    2    0    0  0.00000000000E+00  0.00000000000E+00  0.22565722644E+01  0.20116069114E+04  0.20116056457E+04 0.  0.
        4    1    3    3  502    0 -0.43449149738E+03 -0.50117807108E+03  0.75722094231E+03  0.10066516223E+04  0.12699999809E+01 0. -1.
       -4    1    3    3    0  502  0.43449149738E+03  0.50117807108E+03 -0.75496437004E+03  0.10049552891E+04  0.12699999809E+01 0.  1.
</event>
<event>
 5   0  0.4577279E-05  0.1996453E+04  0.7818609E-02  0.8608281E-01
       -2   -1    0    0    0  501  0.00000000000E+00  0.00000000000E+00  0.41608970594E+03  0.41608970595E+03  0.25500000920E-02 0. -1.
        2   -1    0    0  501    0  0.00000000000E+00  0.00000000000E+00 -0.23948114365E+04  0.23948114365E+04  0.25500000920E-02 0.  1.
    10030    2    1    2    0    0  0.00000000000E+00  0.00000000000E+00 -0.19787217305E+04  0.28109011424E+04  0.19964532415E+04 0.  0.
        1    1    3    3  502    0 -0.81860130509E+03  0.18562289330E+03 -0.17500335929E+04  0.19409228556E+04  0.50400001928E-02 0.  1.
       -1    1    3    3    0  502  0.81860130509E+03 -0.18562289330E+03 -0.22868813766E+03  0.86997828682E+03  0.50400001928E-02 0. -1.
</event>
<event>
 5   0  0.2093980E-05  0.1999573E+04  0.7818609E-02  0.8606820E-01
        1   -1    0    0  501    0  0.00000000000E+00  0.00000000000E+00  0.17311743810E+04  0.17311743810E+04  0.50400001928E-02 0.  1.
       -1   -1    0    0    0  501  0.00000000000E+00  0.00000000000E+00 -0.57739605251E+03  0.57739605253E+03  0.50400001928E-02 0. -1.
    10030    2    1    2    0    0  0.00000000000E+00  0.00000000000E+00  0.11537783285E+04  0.23085704335E+04  0.19995732083E+04 0.  0.
        2    1    3    3  502    0 -0.84808352697E+03 -0.52383500321E+02  0.11851679720E+04  0.14582910621E+04  0.25500000920E-02 0. -1.
       -2    1    3    3    0  502  0.84808352697E+03  0.52383500321E+02 -0.31389643510E+02  0.85027937148E+03  0.25500000920E-02 0.  1.
</event>
<event>
 5   0  0.2142551E-05  0.1994674E+04  0.7818609E-02  0.8609115E-01
       -1   -1    0    0    0  501  0.00000000000E+00  0.00000000000E+00  0.93784095375E+03  0.93784095377E+03  0.50400001928E-02 0. -1.
        1   -1    0    0  501    0  0.00000000000E+00  0.00000000000E+00 -0.10606077594E+04  0.10606077594E+04  0.50400001928E-02 0.  1.
    10030    2    1    2    0    0  0.00000000000E+00  0.00000000000E+00 -0.12276680562E+03  0.19984487132E+04  0.19946743019E+04 0.  0.
        3    1    3    3  502    0 -0.42879607658E+03 -0.60033768695E+03 -0.73377923339E+03  0.10405303394E+04  0.10100000352E+00 0.  1.
       -3    1    3    3    0  502  0.42879607658E+03  0.60033768695E+03  0.61101242777E+03  0.95791837375E+03  0.10100000352E+00 0. -1.
</event>
<event>
 5   0  0.2256868E-05  0.2002613E+04  0.7818609E-02  0.8605400E-01
        1   -1    0    0  501    0  0.00000000000E+00  0.00000000000E+00  0.68697193987E+03  0.68697193989E+03  0.50400001928E-02 0.  1.
       -1   -1    0    0    0  501  0.00000000000E+00  0.00000000000E+00 -0.14594691245E+04  0.14594691245E+04  0.50400001928E-02 0. -1.
    10030    2    1    2    0    0  0.00000000000E+00  0.00000000000E+00 -0.77249718463E+03  0.21464410644E+04  0.20026126292E+04 0.  0.
        5    1    3    3  502    0  0.46183725551E+03  0.66475945258E+03  0.24548335501E+03  0.84586225117E+03  0.46999998093E+01 0.  1.
       -5    1    3    3    0  502 -0.46183725551E+03 -0.66475945258E+03 -0.10179805396E+04  0.13005788132E+04  0.46999998093E+01 0. -1.
</event>
<event>
 5   0  0.4577279E-05  0.2081515E+04  0.7818609E-02  0.8569430E-01
        2   -1    0    0  501    0  0.00000000000E+00  0.00000000000E+00  0.10527622639E+04  0.10527622639E+04  0.25500000920E-02 0.  1.
       -2   -1    0    0    0  501  0.00000000000E+00  0.00000000000E+00 -0.10288896063E+04  0.10288896063E+04  0.25500000920E-02 0. -1.
    10030    2    1    2    0    0  0.00000000000E+00  0.00000000000E+00  0.23872657639E+02  0.20816518703E+04  0.20815149784E+04 0.  0.
        1    1    3    3  502    0  0.54965525321E+03 -0.41617856894E+03 -0.76776271985E+03  0.10318842438E+04  0.50400001928E-02 0. -1.
       -1    1    3    3    0  502 -0.54965525321E+03  0.41617856894E+03  0.79163537748E+03  0.10497676264E+04  0.50400001928E-02 0.  1.
</event>
<event>
 5   0  0.2256868E-05  0.1997938E+04  0.7818609E-02  0.8607585E-01
       -1   -1    0    0    0  501  0.00000000000E+00  0.00000000000E+00  0.47624950317E+03  0.47624950320E+03  0.50400001928E-02 0. -1.
        1   -1    0    0  501    0  0.00000000000E+00  0.00000000000E+00 -0.20954129085E+04  0.20954129085E+04  0.50400001928E-02 0.  1.
    10030    2    1    2    0    0  0.00000000000E+00  0.00000000000E+00 -0.16191634053E+04  0.25716624117E+04  0.19979382940E+04 0.  0.
        5    1    3    3  502    0  0.84723527068E+03  0.48396868737E+03 -0.10852979705E+04  0.14594269659E+04  0.46999998093E+01 0.  1.
       -5    1    3    3    0  502 -0.84723527068E+03 -0.48396868737E+03 -0.53386543484E+03  0.11122354457E+04  0.46999998093E+01 0. -1.
</event>
<event>
 5   0  0.4473361E-05  0.2001793E+04  0.7818609E-02  0.8605783E-01
        2   -1    0    0  501    0  0.00000000000E+00  0.00000000000E+00  0.13034362013E+04  0.13034362013E+04  0.25500000920E-02 0.  1.
       -2   -1    0    0    0  501  0.00000000000E+00  0.00000000000E+00 -0.76857913914E+03  0.76857913915E+03  0.25500000920E-02 0. -1.
    10030    2    1    2    0    0  0.00000000000E+00  0.00000000000E+00  0.53485706219E+03  0.20720153405E+04  0.20017930698E+04 0.  0.
        2    1    3    3  502    0 -0.31838005746E+03  0.53426752627E+03 -0.54429190201E+03  0.82647524175E+03  0.25500000920E-02 0. -1.
       -2    1    3    3    0  502  0.31838005746E+03 -0.53426752627E+03  0.10791489642E+04  0.12455400987E+04  0.25500000920E-02 0.  1.
</event>
<event>
 5   0  0.2093980E-05  0.2007493E+04  0.7818609E-02  0.8603125E-01
       -1   -1    0    0    0  501  0.00000000000E+00  0.00000000000E+00  0.16230810886E+04  0.16230810886E+04  0.50400001928E-02 0. -1.
        1   -1    0    0  501    0  0.00000000000E+00  0.00000000000E+00 -0.62073732775E+03  0.62073732777E+03  0.50400001928E-02 0.  1.
    10030    2    1    2    0    0  0.00000000000E+00  0.00000000000E+00  0.10023437608E+04  0.22438184164E+04  0.20074929815E+04 0.  0.
        2    1    3    3  502    0  0.24106635536E+02 -0.87842302497E+03 -0.41008252676E+02  0.87971007580E+03  0.25500000920E-02 0.  1.
       -2    1    3    3    0  502 -0.24106635536E+02  0.87842302497E+03  0.10433520135E+04  0.13641083406E+04  0.25500000920E-02 0. -1.
</event>
<event>
 5   0  0.4447313E-05  0.2000511E+04  0.7818609E-02  0.8606382E-01
        2   -1    0    0  501    0  0.00000000000E+00  0.00000000000E+00  0.99367819761E+03  0.99367819761E+03  0.25500000920E-02 0.  1.
       -2   -1    0    0    0  501  0.00000000000E+00  0.00000000000E+00 -0.10068762855E+04  0.10068762855E+04  0.25500000920E-02 0. -1.
    10030    2    1    2    0    0  0.00000000000E+00  0.00000000000E+00 -0.13198087898E+02  0.20005544831E+04  0.20005109473E+04 0.  0.
        5    1    3    3  502    0  0.13153757271E+03  0.31873088779E+03 -0.94555366606E+03  0.10064717270E+04  0.46999998093E+01 0. -1.
       -5    1    3    3    0  502 -0.13153757271E+03 -0.31873088779E+03  0.93235557816E+03  0.99408275611E+03  0.46999998093E+01 0.  1.
</event>
<event>
 5   0  0.4412054E-05  0.1998182E+04  0.7818609E-02  0.8607471E-01
       -2   -1    0    0    0  501  0.00000000000E+00  0.00000000000E+00  0.89596376892E+03  0.89596376892E+03  0.25500000920E-02 0. -1.
        2   -1    0    0  501    0  0.00000000000E+00  0.00000000000E+00 -0.11140878576E+04  0.11140878576E+04  0.25500000920E-02 0.  1.
    10030    2    1    2    0    0  0.00000000000E+00  0.00000000000E+00 -0.21812408871E+03  0.20100516266E+04  0.19981815291E+04 0.  0.
        4    1    3    3  502    0  0.89817005186E+03 -0.30467801164E+03  0.20687790892E+03  0.97074106483E+03  0.12699999809E+01 0. -1.
       -4    1    3    3    0  502 -0.89817005186E+03  0.30467801164E+03 -0.42500199763E+03  0.10393105617E+04  0.12699999809E+01 0.  1.
</event>
<event>
 5   0  0.4412054E-05  0.1875334E+04  0.7818609E-02  0.8667233E-01
        2   -1    0    0  501    0  0.00000000000E+00  0.00000000000E+00  0.52078737735E+03  0.52078737735E+03  0.25500000920E-02 0.  1.
       -2   -1    0    0    0  501  0.00000000000E+00  0.00000000000E+00 -0.16882497989E+04  0.16882497989E+04  0.25500000920E-02 0. -1.
    10030    2    1    2    0    0  0.00000000000E+00  0.00000000000E+00 -0.11674624216E+04  0.22090371763E+04  0.18753337677E+04 0.  0.
        4    1    3    3  502    0 -0.31363749060E+03 -0.23922112449E+03  0.41829812710E+03  0.57495230928E+03  0.12699999809E+01 0.  1.
       -4    1    3    3    0  502  0.31363749060E+03  0.23922112449E+03 -0.15857605487E+04  0.16340848670E+04  0.12699999809E+01 0. -1.
</event>
<event>
 5   0  0.2256868E-05  0.1995684E+04  0.7818609E-02  0.8608641E-01
        1   -1    0    0  501    0  0.00000000000E+00  0.00000000000E+00  0.13791741887E+04  0.13791741888E+04  0.50400001928E-02 0.  1.
       -1   -1    0    0    0  501  0.00000000000E+00  0.00000000000E+00 -0.72194556517E+03  0.72194556519E+03  0.50400001928E-02 0. -1.
    10030    2    1    2    0    0  0.00000000000E+00  0.00000000000E+00  0.65722862358E+03  0.21011197539E+04  0.19956840323E+04 0.  0.
        5    1    3    3  502    0 -0.42585956770E+03  0.85257770779E+03  0.63990641273E+03  0.11479318038E+04  0.46999998093E+01 0. -1.
       -5    1    3    3    0  502  0.42585956770E+03 -0.85257770779E+03  0.17322210845E+02  0.95318795010E+03  0.46999998093E+01 0.  1.
</event>
<event>
 5   0  0.1601500E-05  0.2000199E+04  0.7818609E-02  0.8606528E-01
       -3   -1    0    0    0  501  0.00000000000E+00  0.00000000000E+00  0.85664033920E+03  0.85664034515E+03  0.10100000352E+00 0. -1.
        3   -1    0    0  501    0  0.00000000000E+00  0.00000000000E+00 -0.11675834789E+04  0.11675834833E+04  0.10100000352E+00 0.  1.
    10030    2    1    2    0    0  0.00000000000E+00  0.00000000000E+00 -0.31094313970E+03  0.20242238284E+04  0.20001991079E+04 0.  0.
        2    1    3    3  502    0  0.15968132136E+03 -0.74202246826E+03 -0.81452603805E+03  0.11133499605E+04  0.25500000920E-02 0.  1.
       -2    1    3    3    0  502 -0.15968132136E+03  0.74202246826E+03  0.50358289835E+03  0.91087386795E+03  0.25500000920E-02 0. -1.
</event>
<event>
 5   0  0.2256868E-05  0.1995212E+04  0.7818609E-02  0.8608862E-01
       -1   -1    0    0    0  501  0.00000000000E+00  0.00000000000E+00  0.96605416100E+03  0.96605416101E+03  0.50400001928E-02 0.  1.
        1   -1    0    0  501    0  0.00000000000E+00  0.00000000000E+00 -0.10301883619E+04  0.10301883619E+04  0.50400001928E-02 0. -1.
    10030    2    1    2    0    0  0.00000000000E+00  0.00000000000E+00 -0.64134200885E+02  0.19962425229E+04  0.19952120225E+04 0.  0.
        5    1    3    3  502    0  0.83455583381E+03 -0.29673127474E+03 -0.49128430364E+03  0.10128747436E+04  0.46999998093E+01 0. -1.
       -5    1    3    3    0  502 -0.83455583381E+03  0.29673127474E+03  0.42715010275E+03  0.98336777934E+03  0.46999998093E+01 0.  1.
</event>
<event>
 5   0  0.4412054E-05  0.1998207E+04  0.7818609E-02  0.8607459E-01
       -2   -1    0    0    0  501  0.00000000000E+00  0.00000000000E+00  0.83242385652E+03  0.83242385652E+03  0.25500000920E-02 0. -1.
        2   -1    0    0  501    0  0.00000000000E+00  0.00000000000E+00 -0.11991578802E+04  0.11991578802E+04  0.25500000920E-02 0.  1.
    10030    2    1    2    0    0  0.00000000000E+00  0.00000000000E+00 -0.36673402364E+03  0.20315817367E+04  0.19982068233E+04 0.  0.
        4    1    3    3  502    0  0.38287147851E+03 -0.43035276713E+03 -0.10133424638E+04  0.11656151316E+04  0.12699999809E+01 0.  1.
       -4    1    3    3    0  502 -0.38287147851E+03  0.43035276713E+03  0.64660844018E+03  0.86596660504E+03  0.12699999809E+01 0. -1.
</event>
<event>
 5   0  0.4447313E-05  0.1971160E+04  0.7818609E-02  0.8620224E-01
       -2   -1    0    0    0  501  0.00000000000E+00  0.00000000000E+00  0.63924057421E+03  0.63924057421E+03  0.25500000920E-02 0.  1.
        2   -1    0    0  501    0  0.00000000000E+00  0.00000000000E+00 -0.15195651599E+04  0.15195651599E+04  0.25500000920E-02 0. -1.
    10030    2    1    2    0    0  0.00000000000E+00  0.00000000000E+00 -0.88032458569E+03  0.21588057341E+04  0.19711597656E+04 0.  0.
        5    1    3    3  502    0 -0.76300913875E+03 -0.40250564968E+03 -0.96213752566E+03  0.12922555677E+04  0.46999998093E+01 0. -1.
       -5    1    3    3    0  502  0.76300913875E+03  0.40250564968E+03  0.81812939972E+02  0.86655016646E+03  0.46999998093E+01 0.  1.
</event>
<event>
 5   0  0.2142551E-05  0.2009181E+04  0.7818609E-02  0.8602340E-01
       -1   -1    0    0    0  501  0.00000000000E+00  0.00000000000E+00  0.12208428282E+04  0.12208428282E+04  0.50400001928E-02 0.  1.
        1   -1    0    0  501    0  0.00000000000E+00  0.00000000000E+00 -0.82664368034E+03  0.82664368036E+03  0.50400001928E-02 0. -1.
    10030    2    1    2    0    0  0.00000000000E+00  0.00000000000E+00  0.39419914789E+03  0.20474865086E+04  0.20091809363E+04 0.  0.
        3    1    3    3  502    0 -0.22571244507E+03  0.20893849484E+03  0.11716801244E+04  0.12113776152E+04  0.10100000352E+00 0.  1.
       -3    1    3    3    0  502  0.22571244507E+03 -0.20893849484E+03 -0.77748097654E+03  0.83610889337E+03  0.10100000352E+00 0. -1.
</event>
<event>
 5   0  0.4412054E-05  0.2002292E+04  0.7818609E-02  0.8605550E-01
       -2   -1    0    0    0  501  0.00000000000E+00  0.00000000000E+00  0.87365706145E+03  0.87365706146E+03  0.25500000920E-02 0.  1.
        2   -1    0    0  501    0  0.00000000000E+00  0.00000000000E+00 -0.11472391549E+04  0.11472391549E+04  0.25500000920E-02 0. -1.
    10030    2    1    2    0    0  0.00000000000E+00  0.00000000000E+00 -0.27358209348E+03  0.20208962164E+04  0.20022922753E+04 0.  0.
        4    1    3    3  502    0 -0.44054897658E+03 -0.47065836278E+03  0.63628214918E+03  0.90579207409E+03  0.12699999809E+01 0.  1.
       -4    1    3    3    0  502  0.44054897658E+03  0.47065836278E+03 -0.90986424265E+03  0.11151041423E+04  0.12699999809E+01 0. -1.
</event>
<event>
 5   0  0.4577279E-05  0.1997029E+04  0.7818609E-02  0.8608011E-01
       -2   -1    0    0    0  501  0.00000000000E+00  0.00000000000E+00  0.52675601351E+03  0.52675601352E+03  0.25500000920E-02 0. -1.
        2   -1    0    0  501    0  0.00000000000E+00  0.00000000000E+00 -0.18927766663E+04  0.18927766663E+04  0.25500000920E-02 0.  1.
    10030    2    1    2    0    0  0.00000000000E+00  0.00000000000E+00 -0.13660206528E+04  0.24195326798E+04  0.19970292849E+04 0.  0.
        1    1    3    3  502    0  0.85377450894E+03 -0.64008537235E+02 -0.13055282924E+04  0.15612277628E+04  0.50400001928E-02 0.  1.
       -1    1    3    3    0  502 -0.85377450894E+03  0.64008537235E+02 -0.60492360391E+02  0.85830491706E+03  0.50400001928E-02 0. -1.
</event>
<event>
 5   0  0.2007644E-05  0.2003072E+04  0.7818609E-02  0.8605186E-01
        1   -1    0    0  501    0  0.00000000000E+00  0.00000000000E+00  0.14416084893E+04  0.14416084893E+04  0.50400001928E-02 0.  1.
       -1   -1    0    0    0  501  0.00000000000E+00  0.00000000000E+00 -0.69580248178E+03  0.69580248180E+03  0.50400001928E-02 0. -1.
    10030    2    1    2    0    0  0.00000000000E+00  0.00000000000E+00  0.74580600747E+03  0.21374109711E+04  0.20030724047E+04 0.  0.
        1    1    3    3  502    0 -0.48897099374E+03  0.26500475850E+03 -0.51587710686E+03  0.75858377531E+03  0.50400001928E-02 0. -1.
       -1    1    3    3    0  502  0.48897099374E+03 -0.26500475850E+03  0.12616831143E+04  0.13788271958E+04  0.50400001928E-02 0.  1.
</event>
<event>
 5   0  0.4514680E-05  0.1998694E+04  0.7818609E-02  0.8607231E-01
        2   -1    0    0  501    0  0.00000000000E+00  0.00000000000E+00  0.13906913736E+04  0.13906913736E+04  0.25500000920E-02 0.  1.
       -2   -1    0    0    0  501  0.00000000000E+00  0.00000000000E+00 -0.71812813649E+03  0.71812813650E+03  0.25500000920E-02 0. -1.
    10030    2    1    2    0    0  0.00000000000E+00  0.00000000000E+00  0.67256323714E+03  0.21088195101E+04  0.19986941783E+04 0.  0.
        3    1    3    3  502    0 -0.91228472858E+03 -0.33409110213E+03  0.89257126530E+02  0.97562653478E+03  0.10100000352E+00 0. -1.
       -3    1    3    3    0  502  0.91228472858E+03  0.33409110213E+03  0.58330611061E+03  0.11331929754E+04  0.10100000352E+00 0.  1.
</event>
<event>
 5   0  0.2142551E-05  0.2003514E+04  0.7818609E-02  0.8604979E-01
       -1   -1    0    0    0  501  0.00000000000E+00  0.00000000000E+00  0.12682193473E+04  0.12682193473E+04  0.50400001928E-02 0. -1.
        1   -1    0    0  501    0  0.00000000000E+00  0.00000000000E+00 -0.79128075962E+03  0.79128075964E+03  0.50400001928E-02 0.  1.
    10030    2    1    2    0    0  0.00000000000E+00  0.00000000000E+00  0.47693858765E+03  0.20595001069E+04  0.20035144806E+04 0.  0.
        3    1    3    3  502    0  0.83836830692E+03  0.49789485220E+03  0.47457625299E+03  0.10844276518E+04  0.10100000352E+00 0. -1.
       -3    1    3    3    0  502 -0.83836830692E+03 -0.49789485220E+03  0.23623346552E+01  0.97507245511E+03  0.10100000352E+00 0.  1.
</event>
<event>
 5   0  0.2256868E-05  0.1988310E+04  0.7818609E-02  0.8612106E-01
       -1   -1    0    0    0  501  0.00000000000E+00  0.00000000000E+00  0.76180700405E+03  0.76180700407E+03  0.50400001928E-02 0. -1.
        1   -1    0    0  501    0  0.00000000000E+00  0.00000000000E+00 -0.12973682209E+04  0.12973682209E+04  0.50400001928E-02 0.  1.
    10030    2    1    2    0    0  0.00000000000E+00  0.00000000000E+00 -0.53556121687E+03  0.20591752250E+04  0.19883100337E+04 0.  0.
        5    1    3    3  502    0  0.82764849059E+03 -0.34000270692E+01 -0.83814382247E+03  0.11779307031E+04  0.46999998093E+01 0.  1.
       -5    1    3    3    0  502 -0.82764849059E+03  0.34000270692E+01  0.30258260560E+03  0.88124452190E+03  0.46999998093E+01 0. -1.
</event>
<event>
 5   0  0.2007644E-05  0.2002102E+04  0.7818609E-02  0.8605639E-01
       -1   -1    0    0    0  501  0.00000000000E+00  0.00000000000E+00  0.10729747109E+04  0.10729747109E+04  0.50400001928E-02 0.  1.
        1   -1    0    0  501    0  0.00000000000E+00  0.00000000000E+00 -0.93394837818E+03  0.93394837819E+03  0.50400001928E-02 0. -1.
    10030    2    1    2    0    0  0.00000000000E+00  0.00000000000E+00  0.13902633270E+03  0.20069230891E+04  0.20021018866E+04 0.  0.
        1    1    3    3  502    0 -0.97398267568E+03 -0.19796733678E+03 -0.50230224232E+02  0.99516651592E+03  0.50400001928E-02 0. -1.
       -1    1    3    3    0  502  0.97398267568E+03  0.19796733678E+03  0.18925655693E+03  0.10117565732E+04  0.50400001928E-02 0.  1.
</event>
<event>
 5   0  0.2007644E-05  0.2000218E+04  0.7818609E-02  0.8606519E-01
       -1   -1    0    0    0  501  0.00000000000E+00  0.00000000000E+00  0.18384276712E+04  0.18384276712E+04  0.50400001928E-02 0. -1.
        1   -1    0    0  501    0  0.00000000000E+00  0.00000000000E+00 -0.54406152195E+03  0.54406152197E+03  0.50400001928E-02 0.  1.
    10030    2    1    2    0    0  0.00000000000E+00  0.00000000000E+00  0.12943661493E+04  0.23824891932E+04  0.20002177450E+04 0.  0.
        1    1    3    3  502    0 -0.53020278094E+03  0.76540639926E+03  0.21237585824E+03  0.95502117785E+03  0.50400001928E-02 0.  1.
       -1    1    3    3    0  502  0.53020278094E+03 -0.76540639926E+03  0.10819902911E+04  0.14274680154E+04  0.50400001928E-02 0. -1.
</event>
<event>
 5   0  0.4514680E-05  0.2001813E+04  0.7818609E-02  0.8605774E-01
       -2   -1    0    0    0  501  0.00000000000E+00  0.00000000000E+00  0.58559609527E+03  0.58559609528E+03  0.25500000920E-02 0. -1.
        2   -1    0    0  501    0  0.00000000000E+00  0.00000000000E+00 -0.17107582396E+04  0.17107582396E+04  0.25500000920E-02 0.  1.
    10030    2    1    2    0    0  0.00000000000E+00  0.00000000000E+00 -0.11251621443E+04  0.22963543349E+04  0.20018125238E+04 0.  0.
        3    1    3    3  502    0 -0.41205010061E+03 -0.81439836902E+03 -0.10338624680E+04  0.13790944862E+04  0.10100000352E+00 0.  1.
       -3    1    3    3    0  502  0.41205010061E+03  0.81439836902E+03 -0.91299676286E+02  0.91725984866E+03  0.10100000352E+00 0. -1.
</event>
<event>
 5   0  0.2007644E-05  0.1998056E+04  0.7818609E-02  0.8607530E-01
        1   -1    0    0  501    0  0.00000000000E+00  0.00000000000E+00  0.11736835523E+04  0.11736835523E+04  0.50400001928E-02 0.  1.
       -1   -1    0    0    0  501  0.00000000000E+00  0.00000000000E+00 -0.85036301000E+03  0.85036301001E+03  0.50400001928E-02 0. -1.
    10030    2    1    2    0    0  0.00000000000E+00  0.00000000000E+00  0.32332054228E+03  0.20240465623E+04  0.19980561337E+04 0.  0.
        1    1    3    3  502    0 -0.34084075251E+03 -0.33708055849E+03 -0.72624637814E+03  0.87018936058E+03  0.50400001928E-02 0. -1.
       -1    1    3    3    0  502  0.34084075251E+03  0.33708055849E+03  0.10495669204E+04  0.11538572017E+04  0.50400001928E-02 0.  1.
</event>
<event>
 5   0  0.2093980E-05  0.2001444E+04  0.7818609E-02  0.8605946E-01
        1   -1    0    0  501    0  0.00000000000E+00  0.00000000000E+00  0.12528098634E+04  0.12528098635E+04  0.50400001928E-02 0.  1.
       -1   -1    0    0    0  501  0.00000000000E+00  0.00000000000E+00 -0.79935908559E+03  0.79935908560E+03  0.50400001928E-02 0. -1.
    10030    2    1    2    0    0  0.00000000000E+00  0.00000000000E+00  0.45345077786E+03  0.20521689491E+04  0.20014444253E+04 0.  0.
        2    1    3    3  502    0  0.17669810815E+03  0.93518011829E+03  0.54385496278E+03  0.10961579702E+04  0.25500000920E-02 0.  1.
       -2    1    3    3    0  502 -0.17669810815E+03 -0.93518011829E+03 -0.90404184916E+02  0.95601097887E+03  0.25500000920E-02 0. -1.
</event>
<event>
 5   0  0.2256868E-05  0.1999888E+04  0.7818609E-02  0.8606673E-01
        1   -1    0    0  501    0  0.00000000000E+00  0.00000000000E+00  0.11348689499E+04  0.11348689499E+04  0.50400001928E-02 0.  1.
       -1   -1    0    0    0  501  0.00000000000E+00  0.00000000000E+00 -0.88106011346E+03  0.88106011348E+03  0.50400001928E-02 0. -1.
    10030    2    1    2    0    0  0.00000000000E+00  0.00000000000E+00  0.25380883639E+03  0.20159290633E+04  0.19998877626E+04 0.  0.
        5    1    3    3  502    0  0.48922706049E+02  0.92963676198E+03 -0.24105467629E+03  0.96163786705E+03  0.46999998093E+01 0. -1.
       -5    1    3    3    0  502 -0.48922706049E+02 -0.92963676198E+03  0.49486351268E+03  0.10542911963E+04  0.46999998093E+01 0.  1.
</event>
<event>
 5   0  0.4412054E-05  0.2008057E+04  0.7818609E-02  0.8602863E-01
       -2   -1    0    0    0  501  0.00000000000E+00  0.00000000000E+00  0.68065362190E+03  0.68065362191E+03  0.25500000920E-02 0. -1.
        2   -1    0    0  501    0  0.00000000000E+00  0.00000000000E+00 -0.14810377420E+04  0.14810377420E+04  0.25500000920E-02 0.  1.
    10030    2    1    2    0    0  0.00000000000E+00  0.00000000000E+00 -0.80038412013E+03  0.21616913639E+04  0.20080574726E+04 0.  0.
        4    1    3    3  502    0 -0.49172457911E+03  0.40173044910E+03  0.43706024649E+03  0.77084608541E+03  0.12699999809E+01 0. -1.
       -4    1    3    3    0  502  0.49172457911E+03 -0.40173044910E+03 -0.12374443666E+04  0.13908452785E+04  0.12699999809E+01 0.  1.
</event>
<event>
 5   0  0.4514680E-05  0.1965929E+04  0.7818609E-02  0.8622718E-01
       -2   -1    0    0    0  501  0.00000000000E+00  0.00000000000E+00  0.48276651238E+03  0.48276651239E+03  0.25500000920E-02 0.  1.
        2   -1    0    0  501    0  0.00000000000E+00  0.00000000000E+00 -0.20014207895E+04  0.20014207895E+04  0.25500000920E-02 0. -1.
    10030    2    1    2    0    0  0.00000000000E+00  0.00000000000E+00 -0.15186542771E+04  0.24841873019E+04  0.19659287213E+04 0.  0.
        3    1    3    3  502    0 -0.45992395045E+03 -0.92282744395E+02 -0.18508586321E+04  0.19093778650E+04  0.10100000352E+00 0. -1.
       -3    1    3    3    0  502  0.45992395045E+03  0.92282744395E+02  0.33220435496E+03  0.57480943691E+03  0.10100000352E+00 0.  1.
</event>
<event>
 5   0  0.2110896E-05  0.2001408E+04  0.7818609E-02  0.8605963E-01
       -1   -1    0    0    0  501  0.00000000000E+00  0.00000000000E+00  0.69714990692E+03  0.69714990694E+03  0.50400001928E-02 0. -1.
        1   -1    0    0  501    0  0.00000000000E+00  0.00000000000E+00 -0.14364319513E+04  0.14364319513E+04  0.50400001928E-02 0.  1.
    10030    2    1    2    0    0  0.00000000000E+00  0.00000000000E+00 -0.73928204433E+03  0.21335818582E+04  0.20014079056E+04 0.  0.
        4    1    3    3  502    0  0.52191667834E+03  0.40049312433E+03 -0.11735055504E+04  0.13453284549E+04  0.12699999809E+01 0.  1.
       -4    1    3    3    0  502 -0.52191667834E+03 -0.40049312433E+03  0.43422350606E+03  0.78825340334E+03  0.12699999809E+01 0. -1.
</event>
<event>
 5   0  0.2093980E-05  0.2000734E+04  0.7818609E-02  0.8606278E-01
        1   -1    0    0  501    0  0.00000000000E+00  0.00000000000E+00  0.63414378551E+03  0.63414378553E+03  0.50400001928E-02 0.  1.
       -1   -1    0    0    0  501  0.00000000000E+00  0.00000000000E+00 -0.15780871587E+04  0.15780871587E+04  0.50400001928E-02 0. -1.
    10030    2    1    2    0    0  0.00000000000E+00  0.00000000000E+00 -0.94394337320E+03  0.22122309442E+04  0.20007340300E+04 0.  0.
        2    1    3    3  502    0 -0.93794563135E+03  0.10534766498E+03 -0.10542597102E+03  0.94971299520E+03  0.25500000920E-02 0.  1.
       -2    1    3    3    0  502  0.93794563135E+03 -0.10534766498E+03 -0.83851740218E+03  0.12625179490E+04  0.25500000920E-02 0. -1.
</event>
<event>
 5   0  0.2110896E-05  0.1999635E+04  0.7818609E-02  0.8606792E-01
        1   -1    0    0  501    0  0.00000000000E+00  0.00000000000E+00  0.80197379754E+03  0.80197379756E+03  0.50400001928E-02 0. -1.
       -1   -1    0    0    0  501  0.00000000000E+00  0.00000000000E+00 -0.12464678940E+04  0.12464678940E+04  0.50400001928E-02 0.  1.
    10030    2    1    2    0    0  0.00000000000E+00  0.00000000000E+00 -0.44449409643E+03  0.20484416915E+04  0.19996345571E+04 0.  0.
        4    1    3    3  502    0  0.39905256365E+02  0.30182160387E+02 -0.12451837808E+04  0.12461892525E+04  0.12699999809E+01 0.  1.
       -4    1    3    3    0  502 -0.39905256365E+02 -0.30182160387E+02  0.80068968438E+03  0.80225243899E+03  0.12699999809E+01 0. -1.
</event>
<event>
 5   0  0.2007644E-05  0.1994775E+04  0.7818609E-02  0.8609068E-01
        1   -1    0    0  501    0  0.00000000000E+00  0.00000000000E+00  0.18190120792E+04  0.18190120792E+04  0.50400001928E-02 0. -1.
       -1   -1    0    0    0  501  0.00000000000E+00  0.00000000000E+00 -0.54688006983E+03  0.54688006985E+03  0.50400001928E-02 0.  1.
    10030    2    1    2    0    0  0.00000000000E+00  0.00000000000E+00  0.12721320094E+04  0.23658921491E+04  0.19947746268E+04 0.  0.
        1    1    3    3  502    0  0.20850612017E+03  0.83411116629E+03  0.12356526854E+04  0.15053417549E+04  0.50400001928E-02 0. -1.
       -1    1    3    3    0  502 -0.20850612017E+03 -0.83411116629E+03  0.36479323958E+02  0.86055039421E+03  0.50400001928E-02 0.  1.
</event>
<event>
 5   0  0.1601500E-05  0.1999678E+04  0.7818609E-02  0.8606771E-01
        3   -1    0    0  501    0  0.00000000000E+00  0.00000000000E+00  0.85751930097E+03  0.85751930692E+03  0.10100000352E+00 0.  1.
       -3   -1    0    0    0  501  0.00000000000E+00  0.00000000000E+00 -0.11657794435E+04  0.11657794478E+04  0.10100000352E+00 0. -1.
    10030    2    1    2    0    0  0.00000000000E+00  0.00000000000E+00 -0.30826014248E+03  0.20232987547E+04  0.19996783580E+04 0.  0.
        3    1    3    3  502    0  0.54603551581E+03  0.34102339014E+03 -0.92816740847E+03  0.11295780121E+04  0.10100000352E+00 0. -1.
       -3    1    3    3    0  502 -0.54603551581E+03 -0.34102339014E+03  0.61990726599E+03  0.89372074261E+03  0.10100000352E+00 0.  1.
</event>
<event>
 5   0  0.2007644E-05  0.2000800E+04  0.7818609E-02  0.8606247E-01
        1   -1    0    0  501    0  0.00000000000E+00  0.00000000000E+00  0.10951093682E+04  0.10951093682E+04  0.50400001928E-02 0.  1.
       -1   -1    0    0    0  501  0.00000000000E+00  0.00000000000E+00 -0.91388115820E+03  0.91388115821E+03  0.50400001928E-02 0. -1.
    10030    2    1    2    0    0  0.00000000000E+00  0.00000000000E+00  0.18122820998E+03  0.20089905264E+04  0.20007996579E+04 0.  0.
        1    1    3    3  502    0  0.29190983305E+03  0.63970834258E+03  0.80511818072E+03  0.10689496710E+04  0.50400001928E-02 0.  1.
       -1    1    3    3    0  502 -0.29190983305E+03 -0.63970834258E+03 -0.62388997074E+03  0.94004085539E+03  0.50400001928E-02 0. -1.
</event>
<event>
 5   0  0.4412054E-05  0.1971794E+04  0.7818609E-02  0.8619923E-01
        2   -1    0    0  501    0  0.00000000000E+00  0.00000000000E+00  0.88827824104E+03  0.88827824104E+03  0.25500000920E-02 0.  1.
       -2   -1    0    0    0  501  0.00000000000E+00  0.00000000000E+00 -0.10942438724E+04  0.10942438724E+04  0.25500000920E-02 0. -1.
    10030    2    1    2    0    0  0.00000000000E+00  0.00000000000E+00 -0.20596563134E+03  0.19825221134E+04  0.19717941294E+04 0.  0.
        4    1    3    3  502    0 -0.98497087597E+03 -0.38476270470E+02 -0.12161359238E+03  0.99319662134E+03  0.12699999809E+01 0.  1.
       -4    1    3    3    0  502  0.98497087597E+03  0.38476270470E+02 -0.84352038959E+02  0.98932549208E+03  0.12699999809E+01 0. -1.
</event>
<event>
 5   0  0.4412054E-05  0.1991036E+04  0.7818609E-02  0.8610823E-01
        2   -1    0    0  501    0  0.00000000000E+00  0.00000000000E+00  0.20623153332E+04  0.20623153332E+04  0.25500000920E-02 0. -1.
       -2   -1    0    0    0  501  0.00000000000E+00  0.00000000000E+00 -0.48055499618E+03  0.48055499619E+03  0.25500000920E-02 0.  1.
    10030    2    1    2    0    0  0.00000000000E+00  0.00000000000E+00  0.15817603371E+04  0.25428703294E+04  0.19910358481E+04 0.  0.
        4    1    3    3  502    0 -0.80090863013E+03  0.30998450472E+03  0.14783410999E+03  0.87143649450E+03  0.12699999809E+01 0.  1.
       -4    1    3    3    0  502  0.80090863013E+03 -0.30998450472E+03  0.14339262271E+04  0.16714338349E+04  0.12699999809E+01 0. -1.
</event>
<event>
 5   0  0.2007644E-05  0.1998557E+04  0.7818609E-02  0.8607295E-01
        1   -1    0    0  501    0  0.00000000000E+00  0.00000000000E+00  0.18630714540E+04  0.18630714540E+04  0.50400001928E-02 0.  1.
       -1   -1    0    0    0  501  0.00000000000E+00  0.00000000000E+00 -0.53597407331E+03  0.53597407334E+03  0.50400001928E-02 0. -1.
    10030    2    1    2    0    0  0.00000000000E+00  0.00000000000E+00  0.13270973807E+04  0.23990455273E+04  0.19985574759E+04 0.  0.
        1    1    3    3  502    0 -0.32061575866E+03 -0.54848755823E+03 -0.26232753258E+03  0.68734911116E+03  0.50400001928E-02 0. -1.
       -1    1    3    3    0  502  0.32061575866E+03  0.54848755823E+03  0.15894249133E+04  0.17116964162E+04  0.50400001928E-02 0.  1.
</event>
<event>
 5   0  0.2110896E-05  0.2017249E+04  0.7818609E-02  0.8598598E-01
        1   -1    0    0  501    0  0.00000000000E+00  0.00000000000E+00  0.12756703437E+04  0.12756703437E+04  0.50400001928E-02 0.  1.
       -1   -1    0    0    0  501  0.00000000000E+00  0.00000000000E+00 -0.79748145170E+03  0.79748145172E+03  0.50400001928E-02 0. -1.
    10030    2    1    2    0    0  0.00000000000E+00  0.00000000000E+00  0.47818889197E+03  0.20731517954E+04  0.20172490551E+04 0.  0.
        4    1    3    3  502    0 -0.53161020683E+03  0.80533113992E+03 -0.62559997610E+02  0.96699690958E+03  0.12699999809E+01 0. -1.
       -4    1    3    3    0  502  0.53161020683E+03 -0.80533113992E+03  0.54074888958E+03  0.11061548858E+04  0.12699999809E+01 0.  1.
</event>
<event>
 5   0  0.4412054E-05  0.1991760E+04  0.7818609E-02  0.8610483E-01
        2   -1    0    0  501    0  0.00000000000E+00  0.00000000000E+00  0.18630229737E+04  0.18630229737E+04  0.25500000920E-02 0.  1.
       -2   -1    0    0    0  501  0.00000000000E+00  0.00000000000E+00 -0.53234819642E+03  0.53234819642E+03  0.25500000920E-02 0. -1.
    10030    2    1    2    0    0  0.00000000000E+00  0.00000000000E+00  0.13306747772E+04  0.23953711701E+04  0.19917599453E+04 0.  0.
        4    1    3    3  502    0  0.15869505350E+02 -0.97141976295E+03  0.40221704508E+03  0.10515171712E+04  0.12699999809E+01 0.  1.
       -4    1    3    3    0  502 -0.15869505350E+02  0.97141976295E+03  0.92845773217E+03  0.13438539989E+04  0.12699999809E+01 0. -1.
</event>
<event>
 5   0  0.4412054E-05  0.1959556E+04  0.7818609E-02  0.8625767E-01
        2   -1    0    0  501    0  0.00000000000E+00  0.00000000000E+00  0.18433541935E+04  0.18433541935E+04  0.25500000920E-02 0. -1.
       -2   -1    0    0    0  501  0.00000000000E+00  0.00000000000E+00 -0.52077059428E+03  0.52077059428E+03  0.25500000920E-02 0.  1.
    10030    2    1    2    0    0  0.00000000000E+00  0.00000000000E+00  0.13225835992E+04  0.23641247878E+04  0.19595557240E+04 0.  0.
        4    1    3    3  502    0  0.17280047293E+03  0.23767047774E+03 -0.46635480138E+03  0.55121291086E+03  0.12699999809E+01 0.  1.
       -4    1    3    3    0  502 -0.17280047293E+03 -0.23767047774E+03  0.17889384006E+04  0.18129118769E+04  0.12699999809E+01 0. -1.
</event>
<event>
 5   0  0.4447313E-05  0.2023404E+04  0.7818609E-02  0.8595756E-01
       -2   -1    0    0    0  501  0.00000000000E+00  0.00000000000E+00  0.57176256731E+03  0.57176256731E+03  0.25500000920E-02 0.  1.
        2   -1    0    0  501    0  0.00000000000E+00  0.00000000000E+00 -0.17901494979E+04  0.17901494979E+04  0.25500000920E-02 0. -1.
    10030    2    1    2    0    0  0.00000000000E+00  0.00000000000E+00 -0.12183869306E+04  0.23619120653E+04  0.20234035414E+04 0.  0.
        5    1    3    3  502    0  0.60562399638E+03 -0.10352118886E+03 -0.15474133750E+04  0.16649346247E+04  0.46999998093E+01 0. -1.
       -5    1    3    3    0  502 -0.60562399638E+03  0.10352118886E+03  0.32902644434E+03  0.69697744053E+03  0.46999998093E+01 0.  1.
</event>
<event>
 5   0  0.4577279E-05  0.1994137E+04  0.7818609E-02  0.8609367E-01
       -2   -1    0    0    0  501  0.00000000000E+00  0.00000000000E+00  0.12800836330E+04  0.12800836330E+04  0.25500000920E-02 0. -1.
        2   -1    0    0  501    0  0.00000000000E+00  0.00000000000E+00 -0.77662578617E+03  0.77662578618E+03  0.25500000920E-02 0.  1.
    10030    2    1    2    0    0  0.00000000000E+00  0.00000000000E+00  0.50345784685E+03  0.20567094192E+04  0.19941373652E+04 0.  0.
        1    1    3    3  502    0 -0.34103917435E+03 -0.84172799005E+03 -0.17268310113E+03  0.92446372623E+03  0.50400001928E-02 0.  1.
       -1    1    3    3    0  502  0.34103917435E+03  0.84172799005E+03  0.67614094798E+03  0.11322456930E+04  0.50400001928E-02 0. -1.
</event>
<event>
 5   0  0.2256868E-05  0.1999913E+04  0.7818609E-02  0.8606661E-01
       -1   -1    0    0    0  501  0.00000000000E+00  0.00000000000E+00  0.84350730475E+03  0.84350730477E+03  0.50400001928E-02 0. -1.
        1   -1    0    0  501    0  0.00000000000E+00  0.00000000000E+00 -0.11854233889E+04  0.11854233890E+04  0.50400001928E-02 0.  1.
    10030    2    1    2    0    0  0.00000000000E+00  0.00000000000E+00 -0.34191608420E+03  0.20289306937E+04  0.19999132859E+04 0.  0.
        5    1    3    3  502    0 -0.36910090733E+03  0.57753540532E+03 -0.90960763162E+03  0.11389428246E+04  0.46999998093E+01 0.  1.
       -5    1    3    3    0  502  0.36910090733E+03 -0.57753540532E+03  0.56769154742E+03  0.88998786913E+03  0.46999998093E+01 0. -1.
</event>
<event>
 5   0  0.4447313E-05  0.2068706E+04  0.7818609E-02  0.8575155E-01
       -2   -1    0    0    0  501  0.00000000000E+00  0.00000000000E+00  0.47751143916E+03  0.47751143917E+03  0.25500000920E-02 0. -1.
        2   -1    0    0  501    0  0.00000000000E+00  0.00000000000E+00 -0.22405465657E+04  0.22405465657E+04  0.25500000920E-02 0.  1.
    10030    2    1    2    0    0  0.00000000000E+00  0.00000000000E+00 -0.17630351266E+04  0.27180580049E+04  0.20687064703E+04 0.  0.
        5    1    3    3  502    0 -0.38713530542E+03 -0.36266264170E+02  0.37781642311E+03  0.54217739365E+03  0.46999998093E+01 0. -1.
       -5    1    3    3    0  502  0.38713530542E+03  0.36266264170E+02 -0.21408515497E+04  0.21758806112E+04  0.46999998093E+01 0.  1.
</event>
<event>
 5   0  0.2093980E-05  0.2004856E+04  0.7818609E-02  0.8604354E-01
        1   -1    0    0  501    0  0.00000000000E+00  0.00000000000E+00  0.13280019620E+04  0.13280019620E+04  0.50400001928E-02 0.  1.
       -1   -1    0    0    0  501  0.00000000000E+00  0.00000000000E+00 -0.75667189469E+03  0.75667189470E+03  0.50400001928E-02 0. -1.
    10030    2    1    2    0    0  0.00000000000E+00  0.00000000000E+00  0.57133006733E+03  0.20846738567E+04  0.20048558659E+04 0.  0.
        2    1    3    3  502    0 -0.78266313266E+03  0.35364563003E+03  0.82319365353E+03  0.11896531436E+04  0.25500000920E-02 0.  1.
       -2    1    3    3    0  502  0.78266313266E+03 -0.35364563003E+03 -0.25186358620E+03  0.89502071313E+03  0.25500000920E-02 0. -1.
</event>
<event>
 5   0  0.4447313E-05  0.2001153E+04  0.7818609E-02  0.8606082E-01
       -2   -1    0    0    0  501  0.00000000000E+00  0.00000000000E+00  0.59532538014E+03  0.59532538015E+03  0.25500000920E-02 0.  1.
        2   -1    0    0  501    0  0.00000000000E+00  0.00000000000E+00 -0.16816904391E+04  0.16816904391E+04  0.25500000920E-02 0. -1.
    10030    2    1    2    0    0  0.00000000000E+00  0.00000000000E+00 -0.10863650589E+04  0.22770158192E+04  0.20011526678E+04 0.  0.
        5    1    3    3  502    0 -0.20922371569E+03  0.59936647678E+03 -0.14231742755E+04  0.15583522853E+04  0.46999998093E+01 0. -1.
       -5    1    3    3    0  502  0.20922371569E+03 -0.59936647678E+03  0.33680921653E+03  0.71866353395E+03  0.46999998093E+01 0.  1.
</event>
<event>
 5   0  0.2142551E-05  0.2010940E+04  0.7818609E-02  0.8601523E-01
       -1   -1    0    0    0  501  0.00000000000E+00  0.00000000000E+00  0.79502533468E+03  0.79502533470E+03  0.50400001928E-02 0. -1.
        1   -1    0    0  501    0  0.00000000000E+00  0.00000000000E+00 -0.12716194963E+04  0.12716194963E+04  0.50400001928E-02 0.  1.
    10030    2    1    2    0    0  0.00000000000E+00  0.00000000000E+00 -0.47659416159E+03  0.20666448310E+04  0.20109397959E+04 0.  0.
        3    1    3    3  502    0 -0.70658791721E+03 -0.69772145426E+03 -0.76167703358E+02  0.99593335204E+03  0.10100000352E+00 0. -1.
       -3    1    3    3    0  502  0.70658791721E+03  0.69772145426E+03 -0.40042645823E+03  0.10707114789E+04  0.10100000352E+00 0.  1.
</event>
<event>
 5   0  0.2110896E-05  0.2007582E+04  0.7818609E-02  0.8603084E-01
       -1   -1    0    0    0  501  0.00000000000E+00  0.00000000000E+00  0.62819414702E+03  0.62819414704E+03  0.50400001928E-02 0.  1.
        1   -1    0    0  501    0  0.00000000000E+00  0.00000000000E+00 -0.16039576501E+04  0.16039576501E+04  0.50400001928E-02 0. -1.
    10030    2    1    2    0    0  0.00000000000E+00  0.00000000000E+00 -0.97576350311E+03  0.22321517972E+04  0.20075824346E+04 0.  0.
        4    1    3    3  502    0 -0.97500497918E+03  0.21577643202E+03 -0.60127527244E+03  0.11656447762E+04  0.12699999809E+01 0. -1.
       -4    1    3    3    0  502  0.97500497918E+03 -0.21577643202E+03 -0.37448823066E+03  0.10665070210E+04  0.12699999809E+01 0.  1.
</event>
<event>
 5   0  0.2142551E-05  0.2002293E+04  0.7818609E-02  0.8605549E-01
       -1   -1    0    0    0  501  0.00000000000E+00  0.00000000000E+00  0.67131219688E+03  0.67131219690E+03  0.50400001928E-02 0.  1.
        1   -1    0    0  501    0  0.00000000000E+00  0.00000000000E+00 -0.14930377077E+04  0.14930377077E+04  0.50400001928E-02 0. -1.
    10030    2    1    2    0    0  0.00000000000E+00  0.00000000000E+00 -0.82172551079E+03  0.21643499046E+04  0.20022931090E+04 0.  0.
        3    1    3    3  502    0 -0.89743382742E+03  0.60598062068E+02  0.64300125699E+02  0.90177276300E+03  0.10100000352E+00 0.  1.
       -3    1    3    3    0  502  0.89743382742E+03 -0.60598062068E+02 -0.88602563649E+03  0.12625771416E+04  0.10100000352E+00 0. -1.
</event>
<event>
 5   0  0.2142551E-05  0.2004978E+04  0.7818609E-02  0.8604297E-01
       -1   -1    0    0    0  501  0.00000000000E+00  0.00000000000E+00  0.74568709782E+03  0.74568709784E+03  0.50400001928E-02 0. -1.
        1   -1    0    0  501    0  0.00000000000E+00  0.00000000000E+00 -0.13477289462E+04  0.13477289462E+04  0.50400001928E-02 0.  1.
    10030    2    1    2    0    0  0.00000000000E+00  0.00000000000E+00 -0.60204184836E+03  0.20934160440E+04  0.20049778917E+04 0.  0.
        3    1    3    3  502    0 -0.98513476602E+03  0.16807603195E+03 -0.38352549047E+03  0.10704353655E+04  0.10100000352E+00 0.  1.
       -3    1    3    3    0  502  0.98513476602E+03 -0.16807603195E+03 -0.21851635789E+03  0.10229806785E+04  0.10100000352E+00 0. -1.
</event>
<event>
 5   0  0.4473361E-05  0.2000602E+04  0.7818609E-02  0.8606339E-01
       -2   -1    0    0    0  501  0.00000000000E+00  0.00000000000E+00  0.21950862559E+04  0.21950862559E+04  0.25500000920E-02 0. -1.
        2   -1    0    0  501    0  0.00000000000E+00  0.00000000000E+00 -0.45583736049E+03  0.45583736050E+03  0.25500000920E-02 0.  1.
    10030    2    1    2    0    0  0.00000000000E+00  0.00000000000E+00  0.17392488954E+04  0.26509236164E+04  0.20006022343E+04 0.  0.
        2    1    3    3  502    0 -0.54423441416E+02  0.89824816338E+03  0.14484064389E+04  0.17051958498E+04  0.25500000920E-02 0. -1.
       -2    1    3    3    0  502  0.54423441416E+02 -0.89824816338E+03  0.29084245652E+03  0.94572776659E+03  0.25500000920E-02 0.  1.
</event>
<event>
 5   0  0.2256868E-05  0.2002162E+04  0.7818609E-02  0.8605611E-01
        1   -1    0    0  501    0  0.00000000000E+00  0.00000000000E+00  0.41997604198E+03  0.41997604201E+03  0.50400001928E-02 0.  1.
       -1   -1    0    0    0  501  0.00000000000E+00  0.00000000000E+00 -0.23862387934E+04  0.23862387934E+04  0.50400001928E-02 0. -1.
    10030    2    1    2    0    0  0.00000000000E+00  0.00000000000E+00 -0.19662627514E+04  0.28062148354E+04  0.20021619552E+04 0.  0.
        5    1    3    3  502    0  0.64030031438E+03 -0.75220727236E+03 -0.12106075242E+04  0.15624957411E+04  0.46999998093E+01 0. -1.
       -5    1    3    3    0  502 -0.64030031438E+03  0.75220727236E+03 -0.75565522717E+03  0.12437190943E+04  0.46999998093E+01 0.  1.
</event>
<event>
 5   0  0.2093980E-05  0.2009499E+04  0.7818609E-02  0.8602192E-01
        1   -1    0    0  501    0  0.00000000000E+00  0.00000000000E+00  0.71912793763E+03  0.71912793764E+03  0.50400001928E-02 0.  1.
       -1   -1    0    0    0  501  0.00000000000E+00  0.00000000000E+00 -0.14038135200E+04  0.14038135200E+04  0.50400001928E-02 0. -1.
    10030    2    1    2    0    0  0.00000000000E+00  0.00000000000E+00 -0.68468558241E+03  0.21229414577E+04  0.20094989639E+04 0.  0.
        2    1    3    3  502    0 -0.21395657467E+03 -0.38376318610E+03 -0.12969403666E+04  0.13693450673E+04  0.25500000920E-02 0. -1.
       -2    1    3    3    0  502  0.21395657467E+03  0.38376318610E+03  0.61225478418E+03  0.75359639039E+03  0.25500000920E-02 0.  1.
</event>
<event>
 5   0  0.2142551E-05  0.1982681E+04  0.7818609E-02  0.8614761E-01
       -1   -1    0    0    0  501  0.00000000000E+00  0.00000000000E+00  0.14827375104E+04  0.14827375104E+04  0.50400001928E-02 0.  1.
        1   -1    0    0  501    0  0.00000000000E+00  0.00000000000E+00 -0.66279834986E+03  0.66279834988E+03  0.50400001928E-02 0. -1.
    10030    2    1    2    0    0  0.00000000000E+00  0.00000000000E+00  0.81993916058E+03  0.21455358603E+04  0.19826809882E+04 0.  0.
        3    1    3    3  502    0  0.20235750399E+03 -0.23105449672E+03  0.14299513235E+04  0.14625647123E+04  0.10100000352E+00 0.  1.
       -3    1    3    3    0  502 -0.20235750399E+03  0.23105449672E+03 -0.61001216294E+03  0.68297114801E+03  0.10100000352E+00 0. -1.
</event>
<event>
 5   0  0.4577279E-05  0.1996444E+04  0.7818609E-02  0.8608285E-01
       -2   -1    0    0    0  501  0.00000000000E+00  0.00000000000E+00  0.13962321836E+04  0.13962321836E+04  0.25500000920E-02 0. -1.
        2   -1    0    0  501    0  0.00000000000E+00  0.00000000000E+00 -0.71366839947E+03  0.71366839948E+03  0.25500000920E-02 0.  1.
    10030    2    1    2    0    0  0.00000000000E+00  0.00000000000E+00  0.68256378414E+03  0.21099005831E+04  0.19964436258E+04 0.  0.
        1    1    3    3  502    0 -0.32611905894E+03 -0.31643287753E+03 -0.59802697209E+03  0.75107900115E+03  0.50400001928E-02 0.  1.
       -1    1    3    3    0  502  0.32611905894E+03  0.31643287753E+03  0.12805907562E+04  0.13588215819E+04  0.50400001928E-02 0. -1.
</event>
<event>
 5   0  0.4473361E-05  0.2001556E+04  0.7818609E-02  0.8605894E-01
       -2   -1    0    0    0  501  0.00000000000E+00  0.00000000000E+00  0.10888299612E+04  0.10888299612E+04  0.25500000920E-02 0. -1.
        2   -1    0    0  501    0  0.00000000000E+00  0.00000000000E+00 -0.91984626072E+03  0.91984626073E+03  0.25500000920E-02 0.  1.
    10030    2    1    2    0    0  0.00000000000E+00  0.00000000000E+00  0.16898370047E+03  0.20086762219E+04  0.20015555634E+04 0.  0.
        2    1    3    3  502    0  0.28180055883E+03  0.41546665664E+03  0.95332703074E+03  0.10774305199E+04  0.25500000920E-02 0. -1.
       -2    1    3    3    0  502 -0.28180055883E+03 -0.41546665664E+03 -0.78434333027E+03  0.93124570199E+03  0.25500000920E-02 0.  1.
</event>
<event>
 5   0  0.2142551E-05  0.1998845E+04  0.7818609E-02  0.8607161E-01
       -1   -1    0    0    0  501  0.00000000000E+00  0.00000000000E+00  0.54488756447E+03  0.54488756449E+03  0.50400001928E-02 0. -1.
        1   -1    0    0  501    0  0.00000000000E+00  0.00000000000E+00 -0.18331227429E+04  0.18331227429E+04  0.50400001928E-02 0.  1.
    10030    2    1    2    0    0  0.00000000000E+00  0.00000000000E+00 -0.12882351784E+04  0.23780103074E+04  0.19988454535E+04 0.  0.
        3    1    3    3  502    0  0.68881632318E+03  0.22156215447E+03 -0.14643047541E+04  0.16333236478E+04  0.10100000352E+00 0.  1.
       -3    1    3    3    0  502 -0.68881632318E+03 -0.22156215447E+03  0.17606957563E+03  0.74468665963E+03  0.10100000352E+00 0. -1.
</event>
<event>
 5   0  0.4577279E-05  0.2009637E+04  0.7818609E-02  0.8602128E-01
        2   -1    0    0  501    0  0.00000000000E+00  0.00000000000E+00  0.26861261409E+04  0.26861261409E+04  0.25500000920E-02 0.  1.
       -2   -1    0    0    0  501  0.00000000000E+00  0.00000000000E+00 -0.37587961992E+03  0.37587961993E+03  0.25500000920E-02 0. -1.
    10030    2    1    2    0    0  0.00000000000E+00  0.00000000000E+00  0.23102465210E+04  0.30620057608E+04  0.20096368557E+04 0.  0.
        1    1    3    3  502    0 -0.77283169582E+02  0.49624393261E+03  0.24811719777E+04  0.25314906897E+04  0.50400001928E-02 0.  1.
       -1    1    3    3    0  502  0.77283169582E+02 -0.49624393261E+03 -0.17092545672E+03  0.53051507116E+03  0.50400001928E-02 0. -1.
</event>
<event>
 5   0  0.2007644E-05  0.1946230E+04  0.7818609E-02  0.8632181E-01
       -1   -1    0    0    0  501  0.00000000000E+00  0.00000000000E+00  0.69280845359E+03  0.69280845360E+03  0.50400001928E-02 0.  1.
        1   -1    0    0  501    0  0.00000000000E+00  0.00000000000E+00 -0.13668315616E+04  0.13668315616E+04  0.50400001928E-02 0. -1.
    10030    2    1    2    0    0  0.00000000000E+00  0.00000000000E+00 -0.67402310798E+03  0.20596400152E+04  0.19462296478E+04 0.  0.
        1    1    3    3  502    0  0.14547683858E+03 -0.59494681286E+03  0.46324576832E+03  0.76793350141E+03  0.50400001928E-02 0.  1.
       -1    1    3    3    0  502 -0.14547683858E+03  0.59494681286E+03 -0.11372688763E+04  0.12917065138E+04  0.50400001928E-02 0. -1.
</event>
<event>
 5   0  0.2142551E-05  0.2043049E+04  0.7818609E-02  0.8586754E-01
       -1   -1    0    0    0  501  0.00000000000E+00  0.00000000000E+00  0.31769819125E+04  0.31769819125E+04  0.50400001928E-02 0.  1.
        1   -1    0    0  501    0  0.00000000000E+00  0.00000000000E+00 -0.32846021023E+03  0.32846021027E+03  0.50400001928E-02 0. -1.
    10030    2    1    2    0    0  0.00000000000E+00  0.00000000000E+00  0.28485217022E+04  0.35054421227E+04  0.20430488462E+04 0.  0.
        3    1    3    3  502    0  0.30175620669E+03 -0.85355763827E+03  0.61239187785E+03  0.10929964649E+04  0.10100000352E+00 0. -1.
       -3    1    3    3    0  502 -0.30175620669E+03  0.85355763827E+03  0.22361298244E+04  0.24124456578E+04  0.10100000352E+00 0.  1.
</event>
<event>
 5   0  0.4412054E-05  0.2014843E+04  0.7818609E-02  0.8599712E-01
       -2   -1    0    0    0  501  0.00000000000E+00  0.00000000000E+00  0.42777806274E+03  0.42777806275E+03  0.25500000920E-02 0.  1.
        2   -1    0    0  501    0  0.00000000000E+00  0.00000000000E+00 -0.23724877996E+04  0.23724877996E+04  0.25500000920E-02 0. -1.
    10030    2    1    2    0    0  0.00000000000E+00  0.00000000000E+00 -0.19447097368E+04  0.28002658623E+04  0.20148431550E+04 0.  0.
        4    1    3    3  502    0  0.27265533750E+03  0.38741562662E+03  0.26330600500E+03  0.54199950736E+03  0.12699999809E+01 0.  1.
       -4    1    3    3    0  502 -0.27265533750E+03 -0.38741562662E+03 -0.22080157418E+04  0.22582663549E+04  0.12699999809E+01 0. -1.
</event>
<event>
 5   0  0.1601500E-05  0.1963167E+04  0.7818609E-02  0.8624038E-01
        4   -1    0    0  501    0  0.00000000000E+00  0.00000000000E+00  0.14784944909E+04  0.14784950363E+04  0.12699999809E+01 0. -1.
       -4   -1    0    0    0  501  0.00000000000E+00  0.00000000000E+00 -0.65167929013E+03  0.65168052762E+03  0.12699999809E+01 0.  1.
    10030    2    1    2    0    0  0.00000000000E+00  0.00000000000E+00  0.82681520073E+03  0.21301755639E+04  0.19631669713E+04 0.  0.
        2    1    3    3  502    0  0.39414762322E+03  0.15975356992E+03 -0.54651700339E+03  0.69249865486E+03  0.25500000920E-02 0.  1.
       -2    1    3    3    0  502 -0.39414762322E+03 -0.15975356992E+03  0.13733322041E+04  0.14376769091E+04  0.25500000920E-02 0. -1.
</event>
<event>
 5   0  0.4577279E-05  0.2013469E+04  0.7818609E-02  0.8600349E-01
        2   -1    0    0  501    0  0.00000000000E+00  0.00000000000E+00  0.14324524643E+04  0.14324524643E+04  0.25500000920E-02 0.  1.
       -2   -1    0    0    0  501  0.00000000000E+00  0.00000000000E+00 -0.70753787637E+03  0.70753787638E+03  0.25500000920E-02 0. -1.
    10030    2    1    2    0    0  0.00000000000E+00  0.00000000000E+00  0.72491458795E+03  0.21399903407E+04  0.20134690210E+04 0.  0.
        1    1    3    3  502    0 -0.52590227356E+02 -0.10035997452E+04  0.29925469917E+03  0.10485855022E+04  0.50400001928E-02 0. -1.
       -1    1    3    3    0  502  0.52590227356E+02  0.10035997452E+04  0.42565988878E+03  0.10914048385E+04  0.50400001928E-02 0.  1.
</event>
<event>
 5   0  0.4447313E-05  0.1999751E+04  0.7818609E-02  0.8606737E-01
       -2   -1    0    0    0  501  0.00000000000E+00  0.00000000000E+00  0.84620916534E+03  0.84620916534E+03  0.25500000920E-02 0. -1.
        2   -1    0    0  501    0  0.00000000000E+00  0.00000000000E+00 -0.11814462369E+04  0.11814462369E+04  0.25500000920E-02 0.  1.
    10030    2    1    2    0    0  0.00000000000E+00  0.00000000000E+00 -0.33523707160E+03  0.20276554023E+04  0.19997506185E+04 0.  0.
        5    1    3    3  502    0 -0.33311799626E+03  0.51230625421E+03  0.63481790097E+03  0.88115898391E+03  0.46999998093E+01 0. -1.
       -5    1    3    3    0  502  0.33311799626E+03 -0.51230625421E+03 -0.97005497256E+03  0.11464964184E+04  0.46999998093E+01 0.  1.
</event>
<event>
 5   0  0.4412054E-05  0.1987587E+04  0.7818609E-02  0.8612446E-01
       -2   -1    0    0    0  501  0.00000000000E+00  0.00000000000E+00  0.58276386643E+03  0.58276386644E+03  0.25500000920E-02 0. -1.
        2   -1    0    0  501    0  0.00000000000E+00  0.00000000000E+00 -0.16947265368E+04  0.16947265368E+04  0.25500000920E-02 0.  1.
    10030    2    1    2    0    0  0.00000000000E+00  0.00000000000E+00 -0.11119626704E+04  0.22774904033E+04  0.19875868677E+04 0.  0.
        4    1    3    3  502    0  0.71713481771E+01  0.37810931648E+03 -0.16090518165E+04  0.16528966829E+04  0.12699999809E+01 0.  1.
       -4    1    3    3    0  502 -0.71713481771E+01 -0.37810931648E+03  0.49708914607E+03  0.62459372034E+03  0.12699999809E+01 0. -1.
</event>
<event>
 5   0  0.2142551E-05  0.2003535E+04  0.7818609E-02  0.8604970E-01
        1   -1    0    0  501    0  0.00000000000E+00  0.00000000000E+00  0.11652143745E+04  0.11652143745E+04  0.50400001928E-02 0.  1.
       -1   -1    0    0    0  501  0.00000000000E+00  0.00000000000E+00 -0.86124775821E+03  0.86124775823E+03  0.50400001928E-02 0. -1.
    10030    2    1    2    0    0  0.00000000000E+00  0.00000000000E+00  0.30396661625E+03  0.20264621327E+04  0.20035351436E+04 0.  0.
        3    1    3    3  502    0  0.67669555205E+03  0.95591282236E+02  0.89281540723E+03  0.11243548928E+04  0.10100000352E+00 0.  1.
       -3    1    3    3    0  502 -0.67669555205E+03 -0.95591282236E+02 -0.58884879099E+03  0.90210723988E+03  0.10100000352E+00 0. -1.
</event>
<event>
 5   0  0.2142551E-05  0.1992035E+04  0.7818609E-02  0.8610353E-01
       -1   -1    0    0    0  501  0.00000000000E+00  0.00000000000E+00  0.64568826565E+03  0.64568826567E+03  0.50400001928E-02 0.  1.
        1   -1    0    0  501    0  0.00000000000E+00  0.00000000000E+00 -0.15364243185E+04  0.15364243185E+04  0.50400001928E-02 0. -1.
    10030    2    1    2    0    0  0.00000000000E+00  0.00000000000E+00 -0.89073605281E+03  0.21821125841E+04  0.19920352944E+04 0.  0.
        3    1    3    3  502    0 -0.57964366532E+03 -0.34698186014E+03 -0.12470976992E+04  0.14183214980E+04  0.10100000352E+00 0. -1.
       -3    1    3    3    0  502  0.57964366532E+03  0.34698186014E+03  0.35636164644E+03  0.76379108614E+03  0.10100000352E+00 0.  1.
</event>
<event>
 5   0  0.4514680E-05  0.2002583E+04  0.7818609E-02  0.8605414E-01
        2   -1    0    0  501    0  0.00000000000E+00  0.00000000000E+00  0.25338151154E+04  0.25338151154E+04  0.25500000920E-02 0.  1.
       -2   -1    0    0    0  501  0.00000000000E+00  0.00000000000E+00 -0.39568172991E+03  0.39568172992E+03  0.25500000920E-02 0. -1.
    10030    2    1    2    0    0  0.00000000000E+00  0.00000000000E+00  0.21381333855E+04  0.29294968453E+04  0.20025826806E+04 0.  0.
        3    1    3    3  502    0 -0.97557281741E+03  0.17235455013E+03  0.85639327633E+03  0.13095258176E+04  0.10100000352E+00 0.  1.
       -3    1    3    3    0  502  0.97557281741E+03 -0.17235455013E+03  0.12817401092E+04  0.16199710277E+04  0.10100000352E+00 0. -1.
</event>
<event>
 5   0  0.4412054E-05  0.2014634E+04  0.7818609E-02  0.8599809E-01
       -2   -1    0    0    0  501  0.00000000000E+00  0.00000000000E+00  0.11366684842E+04  0.11366684842E+04  0.25500000920E-02 0. -1.
        2   -1    0    0  501    0  0.00000000000E+00  0.00000000000E+00 -0.89268590684E+03  0.89268590684E+03  0.25500000920E-02 0.  1.
    10030    2    1    2    0    0  0.00000000000E+00  0.00000000000E+00  0.24398257734E+03  0.20293543910E+04  0.20146343952E+04 0.  0.
        4    1    3    3  502    0  0.59603879496E+03  0.33446140784E+03  0.86737065779E+03  0.11042916958E+04  0.12699999809E+01 0. -1.
       -4    1    3    3    0  502 -0.59603879496E+03 -0.33446140784E+03 -0.62338808045E+03  0.92506269527E+03  0.12699999809E+01 0.  1.
</event>
<event>
 5   0  0.2093980E-05  0.1994273E+04  0.7818609E-02  0.8609303E-01
        1   -1    0    0  501    0  0.00000000000E+00  0.00000000000E+00  0.13963574055E+04  0.13963574055E+04  0.50400001928E-02 0. -1.
       -1   -1    0    0    0  501  0.00000000000E+00  0.00000000000E+00 -0.71205367717E+03  0.71205367718E+03  0.50400001928E-02 0.  1.
    10030    2    1    2    0    0  0.00000000000E+00  0.00000000000E+00  0.68430372834E+03  0.21084110827E+04  0.19942732263E+04 0.  0.
        2    1    3    3  502    0 -0.32189592981E+03  0.94077372460E+03  0.42133312967E+03  0.10799045313E+04  0.25500000920E-02 0.  1.
       -2    1    3    3    0  502  0.32189592981E+03 -0.94077372460E+03  0.26297059867E+03  0.10285065514E+04  0.25500000920E-02 0. -1.
</event>
<event>
 5   0  0.2007644E-05  0.2010023E+04  0.7818609E-02  0.8601949E-01
        1   -1    0    0  501    0  0.00000000000E+00  0.00000000000E+00  0.77414994202E+03  0.77414994203E+03  0.50400001928E-02 0. -1.
       -1   -1    0    0    0  501  0.00000000000E+00  0.00000000000E+00 -0.13047193540E+04  0.13047193540E+04  0.50400001928E-02 0.  1.
    10030    2    1    2    0    0  0.00000000000E+00  0.00000000000E+00 -0.53056941194E+03  0.20788692960E+04  0.20100232956E+04 0.  0.
        1    1    3    3  502    0 -0.32053634349E+03  0.84220308420E+03  0.19492672932E+03  0.92197939910E+03  0.50400001928E-02 0. -1.
       -1    1    3    3    0  502  0.32053634349E+03 -0.84220308420E+03 -0.72549614126E+03  0.11568898969E+04  0.50400001928E-02 0.  1.
</event>
<event>
 5   0  0.2093980E-05  0.2005789E+04  0.7818609E-02  0.8603919E-01
       -1   -1    0    0    0  501  0.00000000000E+00  0.00000000000E+00  0.10035543764E+04  0.10035543764E+04  0.50400001928E-02 0.  1.
        1   -1    0    0  501    0  0.00000000000E+00  0.00000000000E+00 -0.10022351376E+04  0.10022351377E+04  0.50400001928E-02 0. -1.
    10030    2    1    2    0    0  0.00000000000E+00  0.00000000000E+00  0.13192387892E+01  0.20057895141E+04  0.20057890803E+04 0.  0.
        2    1    3    3  502    0  0.47827779320E+03 -0.75452943618E+03 -0.45511799188E+03  0.10025949851E+04  0.25500000920E-02 0. -1.
       -2    1    3    3    0  502 -0.47827779320E+03  0.75452943618E+03  0.45643723067E+03  0.10031945290E+04  0.25500000920E-02 0.  1.
</event>
<event>
 5   0  0.4412054E-05  0.2008861E+04  0.7818609E-02  0.8602489E-01
       -2   -1    0    0    0  501  0.00000000000E+00  0.00000000000E+00  0.55416940266E+03  0.55416940266E+03  0.25500000920E-02 0. -1.
        2   -1    0    0  501    0  0.00000000000E+00  0.00000000000E+00 -0.18205267874E+04  0.18205267874E+04  0.25500000920E-02 0.  1.
    10030    2    1    2    0    0  0.00000000000E+00  0.00000000000E+00 -0.12663573848E+04  0.23746961901E+04  0.20088606147E+04 0.  0.
        4    1    3    3  502    0 -0.41574168359E+03  0.91011423524E+03 -0.52924995317E+03  0.11319258785E+04  0.12699999809E+01 0. -1.
       -4    1    3    3    0  502  0.41574168359E+03 -0.91011423524E+03 -0.73710743159E+03  0.12427703116E+04  0.12699999809E+01 0.  1.
</event>
<event>
 5   0  0.4412054E-05  0.1996938E+04  0.7818609E-02  0.8608054E-01
       -2   -1    0    0    0  501  0.00000000000E+00  0.00000000000E+00  0.98373268313E+03  0.98373268313E+03  0.25500000920E-02 0.  1.
        2   -1    0    0  501    0  0.00000000000E+00  0.00000000000E+00 -0.10134260228E+04  0.10134260228E+04  0.25500000920E-02 0. -1.
    10030    2    1    2    0    0  0.00000000000E+00  0.00000000000E+00 -0.29693339709E+02  0.19971587060E+04  0.19969379566E+04 0.  0.
        4    1    3    3  502    0 -0.22764831103E+03 -0.14377855882E+02  0.95732467860E+03  0.98412531185E+03  0.12699999809E+01 0.  1.
       -4    1    3    3    0  502  0.22764831103E+03  0.14377855882E+02 -0.98701801831E+03  0.10130333941E+04  0.12699999809E+01 0. -1.
</event>
<event>
 5   0  0.4447313E-05  0.1997644E+04  0.7818609E-02  0.8607723E-01
        2   -1    0    0  501    0  0.00000000000E+00  0.00000000000E+00  0.23753429584E+04  0.23753429584E+04  0.25500000920E-02 0.  1.
       -2   -1    0    0    0  501  0.00000000000E+00  0.00000000000E+00 -0.42000060197E+03  0.42000060197E+03  0.25500000920E-02 0. -1.
    10030    2    1    2    0    0  0.00000000000E+00  0.00000000000E+00  0.19553423564E+04  0.27953435604E+04  0.19976440848E+04 0.  0.
        5    1    3    3  502    0 -0.11844723760E+03  0.27001936978E+03 -0.35769611492E+03  0.46358258032E+03  0.46999998093E+01 0. -1.
       -5    1    3    3    0  502  0.11844723760E+03 -0.27001936978E+03  0.23130384713E+04  0.23317609800E+04  0.46999998093E+01 0.  1.
</event>
<event>
 5   0  0.2142551E-05  0.2006266E+04  0.7818609E-02  0.8603697E-01
        1   -1    0    0  501    0  0.00000000000E+00  0.00000000000E+00  0.11564257903E+04  0.11564257903E+04  0.50400001928E-02 0.  1.
       -1   -1    0    0    0  501  0.00000000000E+00  0.00000000000E+00 -0.87016053124E+03  0.87016053126E+03  0.50400001928E-02 0. -1.
    10030    2    1    2    0    0  0.00000000000E+00  0.00000000000E+00  0.28626525906E+03  0.20265863216E+04  0.20062662635E+04 0.  0.
        3    1    3    3  502    0  0.69374630000E+03 -0.69198643950E+03  0.36012668839E+03  0.10439446360E+04  0.10100000352E+00 0. -1.
       -3    1    3    3    0  502 -0.69374630000E+03  0.69198643950E+03 -0.73861429329E+02  0.98264168554E+03  0.10100000352E+00 0.  1.
</event>
<event>
 5   0  0.2093980E-05  0.1998261E+04  0.7818609E-02  0.8607434E-01
       -1   -1    0    0    0  501  0.00000000000E+00  0.00000000000E+00  0.67939444704E+03  0.67939444706E+03  0.50400001928E-02 0. -1.
        1   -1    0    0  501    0  0.00000000000E+00  0.00000000000E+00 -0.14693398445E+04  0.14693398446E+04  0.50400001928E-02 0.  1.
    10030    2    1    2    0    0  0.00000000000E+00  0.00000000000E+00 -0.78994539751E+03  0.21487342916E+04  0.19982605748E+04 0.  0.
        2    1    3    3  502    0  0.38528053814E+02 -0.83248769827E+03 -0.98760103483E+03  0.12922368137E+04  0.25500000920E-02 0.  1.
       -2    1    3    3    0  502 -0.38528053814E+02  0.83248769827E+03  0.19765563732E+03  0.85649747791E+03  0.25500000920E-02 0. -1.
</event>
<event>
 5   0  0.4577279E-05  0.1893715E+04  0.7818609E-02  0.8657991E-01
        2   -1    0    0  501    0  0.00000000000E+00  0.00000000000E+00  0.39809912449E+03  0.39809912449E+03  0.25500000920E-02 0.  1.
       -2   -1    0    0    0  501  0.00000000000E+00  0.00000000000E+00 -0.22520496061E+04  0.22520496061E+04  0.25500000920E-02 0. -1.
    10030    2    1    2    0    0  0.00000000000E+00  0.00000000000E+00 -0.18539504816E+04  0.26501487306E+04  0.18937148428E+04 0.  0.
        1    1    3    3  502    0 -0.27864752200E+03  0.39925512937E+03  0.20949935312E+03  0.53003686554E+03  0.50400001928E-02 0.  1.
       -1    1    3    3    0  502  0.27864752200E+03 -0.39925512937E+03 -0.20634498347E+04  0.21201118650E+04  0.50400001928E-02 0. -1.
</event>
<event>
 5   0  0.2110896E-05  0.1997724E+04  0.7818609E-02  0.8607686E-01
        1   -1    0    0  501    0  0.00000000000E+00  0.00000000000E+00  0.24133355481E+04  0.24133355481E+04  0.50400001928E-02 0.  1.
       -1   -1    0    0    0  501  0.00000000000E+00  0.00000000000E+00 -0.41342167632E+03  0.41342167635E+03  0.50400001928E-02 0. -1.
    10030    2    1    2    0    0  0.00000000000E+00  0.00000000000E+00  0.19999138718E+04  0.28267572245E+04  0.19977239328E+04 0.  0.
        4    1    3    3  502    0  0.74191868218E+03 -0.35780123273E+03  0.17994676993E+04  0.19790277074E+04  0.12699999809E+01 0.  1.
       -4    1    3    3    0  502 -0.74191868218E+03  0.35780123273E+03  0.20044617253E+03  0.84772951706E+03  0.12699999809E+01 0. -1.
</event>
<event>
 5   0  0.4412054E-05  0.2002004E+04  0.7818609E-02  0.8605684E-01
       -2   -1    0    0    0  501  0.00000000000E+00  0.00000000000E+00  0.82495239388E+03  0.82495239388E+03  0.25500000920E-02 0. -1.
        2   -1    0    0  501    0  0.00000000000E+00  0.00000000000E+00 -0.12146214522E+04  0.12146214522E+04  0.25500000920E-02 0.  1.
    10030    2    1    2    0    0  0.00000000000E+00  0.00000000000E+00 -0.38966905833E+03  0.20395738461E+04  0.20020038708E+04 0.  0.
        4    1    3    3  502    0 -0.82766736898E+03  0.21778840493E+03 -0.72374806599E+03  0.11208380520E+04  0.12699999809E+01 0.  1.
       -4    1    3    3    0  502  0.82766736898E+03 -0.21778840493E+03  0.33407900765E+03  0.91873579404E+03  0.12699999809E+01 0. -1.
</event>
<event>
 5   0  0.1601500E-05  0.2010121E+04  0.7818609E-02  0.8601903E-01
        3   -1    0    0  501    0  0.00000000000E+00  0.00000000000E+00  0.18074723045E+04  0.18074723073E+04  0.10100000352E+00 0.  1.
       -3   -1    0    0    0  501  0.00000000000E+00  0.00000000000E+00 -0.55887244169E+03  0.55887245082E+03  0.10100000352E+00 0. -1.
    10030    2    1    2    0    0  0.00000000000E+00  0.00000000000E+00  0.12485998628E+04  0.23663447581E+04  0.20101208662E+04 0.  0.
        3    1    3    3  502    0  0.52320505358E+02  0.64178855544E+02  0.18034500813E+04  0.18053499845E+04  0.10100000352E+00 0.  1.
       -3    1    3    3    0  502 -0.52320505358E+02 -0.64178855544E+02 -0.55485021852E+03  0.56099477357E+03  0.10100000352E+00 0. -1.
</event>
<event>
 5   0  0.4473361E-05  0.2004714E+04  0.7818609E-02  0.8604420E-01
        2   -1    0    0  501    0  0.00000000000E+00  0.00000000000E+00  0.14379949422E+04  0.14379949422E+04  0.25500000920E-02 0. -1.
       -2   -1    0    0    0  501  0.00000000000E+00  0.00000000000E+00 -0.69869503653E+03  0.69869503653E+03  0.25500000920E-02 0.  1.
    10030    2    1    2    0    0  0.00000000000E+00  0.00000000000E+00  0.73929990563E+03  0.21366899787E+04  0.20047143723E+04 0.  0.
        2    1    3    3  502    0  0.32134234979E+03 -0.80617142177E+03  0.90421220513E+03  0.12533048228E+04  0.25500000920E-02 0.  1.
       -2    1    3    3    0  502 -0.32134234979E+03  0.80617142177E+03 -0.16491229950E+03  0.88338515585E+03  0.25500000920E-02 0. -1.
</event>
<event>
 5   0  0.2110896E-05  0.2013057E+04  0.7818609E-02  0.8600540E-01
       -1   -1    0    0    0  501  0.00000000000E+00  0.00000000000E+00  0.31161051489E+04  0.31161051489E+04  0.50400001928E-02 0. -1.
        1   -1    0    0  501    0  0.00000000000E+00  0.00000000000E+00 -0.32511734483E+03  0.32511734487E+03  0.50400001928E-02 0.  1.
    10030    2    1    2    0    0  0.00000000000E+00  0.00000000000E+00  0.27909878041E+04  0.34412224938E+04  0.20130572096E+04 0.  0.
        4    1    3    3  502    0  0.36154974784E+03  0.24272632476E+03  0.29467336564E+04  0.29787371726E+04  0.12699999809E+01 0. -1.
       -4    1    3    3    0  502 -0.36154974784E+03 -0.24272632476E+03 -0.15574585230E+03  0.46248532118E+03  0.12699999809E+01 0.  1.
</event>
<event>
 5   0  0.4412054E-05  0.1997711E+04  0.7818609E-02  0.8607691E-01
        2   -1    0    0  501    0  0.00000000000E+00  0.00000000000E+00  0.11340140658E+04  0.11340140658E+04  0.25500000920E-02 0.  1.
       -2   -1    0    0    0  501  0.00000000000E+00  0.00000000000E+00 -0.87980622030E+03  0.87980622030E+03  0.25500000920E-02 0. -1.
    10030    2    1    2    0    0  0.00000000000E+00  0.00000000000E+00  0.25420784552E+03  0.20138202861E+04  0.19977113195E+04 0.  0.
        4    1    3    3  502    0 -0.35273811062E+03 -0.89720588315E+03  0.39057028768E+03  0.10401679355E+04  0.12699999809E+01 0.  1.
       -4    1    3    3    0  502  0.35273811062E+03  0.89720588315E+03 -0.13636244216E+03  0.97365235067E+03  0.12699999809E+01 0. -1.
</event>
<event>
 5   0  0.2142551E-05  0.2001810E+04  0.7818609E-02  0.8605775E-01
       -1   -1    0    0    0  501  0.00000000000E+00  0.00000000000E+00  0.52046595274E+03  0.52046595276E+03  0.50400001928E-02 0.  1.
        1   -1    0    0  501    0  0.00000000000E+00  0.00000000000E+00 -0.19248336465E+04  0.19248336465E+04  0.50400001928E-02 0. -1.
    10030    2    1    2    0    0  0.00000000000E+00  0.00000000000E+00 -0.14043676938E+04  0.24452995993E+04  0.20018095591E+04 0.  0.
        3    1    3    3  502    0 -0.15479024563E+01 -0.83768281269E+02  0.51617496347E+03  0.52293032429E+03  0.10100000352E+00 0.  1.
       -3    1    3    3    0  502  0.15479024563E+01  0.83768281269E+02 -0.19205426572E+04  0.19223692750E+04  0.10100000352E+00 0. -1.
</event>
<event>
 5   0  0.4447313E-05  0.2003992E+04  0.7818609E-02  0.8604757E-01
       -2   -1    0    0    0  501  0.00000000000E+00  0.00000000000E+00  0.70662330187E+03  0.70662330187E+03  0.25500000920E-02 0. -1.
        2   -1    0    0  501    0  0.00000000000E+00  0.00000000000E+00 -0.14208356892E+04  0.14208356892E+04  0.25500000920E-02 0.  1.
    10030    2    1    2    0    0  0.00000000000E+00  0.00000000000E+00 -0.71421238729E+03  0.21274589910E+04  0.20039916228E+04 0.  0.
        5    1    3    3  502    0  0.66197806635E+03 -0.71871926415E+03 -0.59258565481E+03  0.11427826518E+04  0.46999998093E+01 0.  1.
       -5    1    3    3    0  502 -0.66197806635E+03  0.71871926415E+03 -0.12162673248E+03  0.98467633923E+03  0.46999998093E+01 0. -1.
</event>
<event>
 5   0  0.4447313E-05  0.1978416E+04  0.7818609E-02  0.8616779E-01
        2   -1    0    0  501    0  0.00000000000E+00  0.00000000000E+00  0.18016318739E+04  0.18016318739E+04  0.25500000920E-02 0.  1.
       -2   -1    0    0    0  501  0.00000000000E+00  0.00000000000E+00 -0.54313651564E+03  0.54313651565E+03  0.25500000920E-02 0. -1.
    10030    2    1    2    0    0  0.00000000000E+00  0.00000000000E+00  0.12584953583E+04  0.23447683896E+04  0.19784155868E+04 0.  0.
        5    1    3    3  502    0  0.16899845690E+03 -0.66286973889E+03  0.14760907273E+04  0.16269058653E+04  0.46999998093E+01 0.  1.
       -5    1    3    3    0  502 -0.16899845690E+03  0.66286973889E+03 -0.21759536905E+03  0.71786252430E+03  0.46999998093E+01 0. -1.
</event>
<event>
 5   0  0.4577279E-05  0.1999322E+04  0.7818609E-02  0.8606938E-01
        2   -1    0    0  501    0  0.00000000000E+00  0.00000000000E+00  0.14125175676E+04  0.14125175676E+04  0.25500000920E-02 0.  1.
       -2   -1    0    0    0  501  0.00000000000E+00  0.00000000000E+00 -0.70747581576E+03  0.70747581577E+03  0.25500000920E-02 0. -1.
    10030    2    1    2    0    0  0.00000000000E+00  0.00000000000E+00  0.70504175181E+03  0.21199933833E+04  0.19993219034E+04 0.  0.
        1    1    3    3  502    0 -0.32162557810E+03 -0.52568162840E+03 -0.48209318523E+03  0.78243084435E+03  0.50400001928E-02 0. -1.
       -1    1    3    3    0  502  0.32162557810E+03  0.52568162840E+03  0.11871349370E+04  0.13375625390E+04  0.50400001928E-02 0.  1.
</event>
<event>
 5   0  0.2110896E-05  0.1996095E+04  0.7818609E-02  0.8608449E-01
        1   -1    0    0  501    0  0.00000000000E+00  0.00000000000E+00  0.19768461554E+04  0.19768461554E+04  0.50400001928E-02 0. -1.
       -1   -1    0    0    0  501  0.00000000000E+00  0.00000000000E+00 -0.50388268643E+03  0.50388268645E+03  0.50400001928E-02 0.  1.
    10030    2    1    2    0    0  0.00000000000E+00  0.00000000000E+00  0.14729634690E+04  0.24807288419E+04  0.19960947387E+04 0.  0.
        4    1    3    3  502    0 -0.78657854441E+03 -0.50538575837E+03  0.11705279696E+04  0.14980847479E+04  0.12699999809E+01 0. -1.
       -4    1    3    3    0  502  0.78657854441E+03  0.50538575837E+03  0.30243549939E+03  0.98264409400E+03  0.12699999809E+01 0.  1.
</event>
<event>
 5   0  0.2142551E-05  0.1996308E+04  0.7818609E-02  0.8608349E-01
        1   -1    0    0  501    0  0.00000000000E+00  0.00000000000E+00  0.13172055064E+04  0.13172055064E+04  0.50400001928E-02 0.  1.
       -1   -1    0    0    0  501  0.00000000000E+00  0.00000000000E+00 -0.75638232846E+03  0.75638232847E+03  0.50400001928E-02 0. -1.
    10030    2    1    2    0    0  0.00000000000E+00  0.00000000000E+00  0.56082317798E+03  0.20735878349E+04  0.19963075595E+04 0.  0.
        3    1    3    3  502    0 -0.67784803786E+03 -0.36934304294E+03 -0.37687105893E+03  0.85902505846E+03  0.10100000352E+00 0. -1.
       -3    1    3    3    0  502  0.67784803786E+03  0.36934304294E+03  0.93769423691E+03  0.12145627765E+04  0.10100000352E+00 0.  1.
</event>
<event>
 5   0  0.2007644E-05  0.2019176E+04  0.7818609E-02  0.8597707E-01
        1   -1    0    0  501    0  0.00000000000E+00  0.00000000000E+00  0.11009693082E+04  0.11009693082E+04  0.50400001928E-02 0.  1.
       -1   -1    0    0    0  501  0.00000000000E+00  0.00000000000E+00 -0.92579165668E+03  0.92579165669E+03  0.50400001928E-02 0. -1.
    10030    2    1    2    0    0  0.00000000000E+00  0.00000000000E+00  0.17517765152E+03  0.20267609649E+04  0.20191762675E+04 0.  0.
        1    1    3    3  502    0 -0.95538827519E+01  0.62478292528E+03 -0.70837362956E+03  0.94458360110E+03  0.50400001928E-02 0. -1.
       -1    1    3    3    0  502  0.95538827519E+01 -0.62478292528E+03  0.88355128107E+03  0.10821773638E+04  0.50400001928E-02 0.  1.
</event>
<event>
 5   0  0.4412054E-05  0.2000667E+04  0.7818609E-02  0.8606309E-01
       -2   -1    0    0    0  501  0.00000000000E+00  0.00000000000E+00  0.97099838807E+03  0.97099838807E+03  0.25500000920E-02 0. -1.
        2   -1    0    0  501    0  0.00000000000E+00  0.00000000000E+00 -0.10305545119E+04  0.10305545119E+04  0.25500000920E-02 0.  1.
    10030    2    1    2    0    0  0.00000000000E+00  0.00000000000E+00 -0.59556123852E+02  0.20015529000E+04  0.20006666588E+04 0.  0.
        4    1    3    3  502    0  0.49946904756E+03 -0.42875591365E+03 -0.78334754071E+03  0.10231988787E+04  0.12699999809E+01 0.  1.
       -4    1    3    3    0  502 -0.49946904756E+03  0.42875591365E+03  0.72379141686E+03  0.97835402129E+03  0.12699999809E+01 0. -1.
</event>
<event>
 5   0  0.2256868E-05  0.2010433E+04  0.7818609E-02  0.8601758E-01
        1   -1    0    0  501    0  0.00000000000E+00  0.00000000000E+00  0.11158199265E+04  0.11158199265E+04  0.50400001928E-02 0.  1.
       -1   -1    0    0    0  501  0.00000000000E+00  0.00000000000E+00 -0.90557619848E+03  0.90557619849E+03  0.50400001928E-02 0. -1.
    10030    2    1    2    0    0  0.00000000000E+00  0.00000000000E+00  0.21024372799E+03  0.20213961250E+04  0.20104327566E+04 0.  0.
        5    1    3    3  502    0  0.90976539872E+03 -0.16682778268E+03  0.50088400343E+03  0.10518609531E+04  0.46999998093E+01 0.  1.
       -5    1    3    3    0  502 -0.90976539872E+03  0.16682778268E+03 -0.29064027544E+03  0.96953517187E+03  0.46999998093E+01 0. -1.
</event>
<event>
 5   0  0.2110896E-05  0.2000479E+04  0.7818609E-02  0.8606397E-01
       -1   -1    0    0    0  501  0.00000000000E+00  0.00000000000E+00  0.77568501208E+03  0.77568501210E+03  0.50400001928E-02 0.  1.
        1   -1    0    0  501    0  0.00000000000E+00  0.00000000000E+00 -0.12898009740E+04  0.12898009740E+04  0.50400001928E-02 0. -1.
    10030    2    1    2    0    0  0.00000000000E+00  0.00000000000E+00 -0.51411596191E+03  0.20654859861E+04  0.20004792267E+04 0.  0.
        4    1    3    3  502    0  0.68826566767E+03 -0.51353534169E+03 -0.78660794484E+03  0.11645522093E+04  0.12699999809E+01 0.  1.
       -4    1    3    3    0  502 -0.68826566767E+03  0.51353534169E+03  0.27249198293E+03  0.90093377677E+03  0.12699999809E+01 0. -1.
</event>
<event>
 5   0  0.2093980E-05  0.1994999E+04  0.7818609E-02  0.8608962E-01
       -1   -1    0    0    0  501  0.00000000000E+00  0.00000000000E+00  0.47291917006E+03  0.47291917008E+03  0.50400001928E-02 0.  1.
        1   -1    0    0  501    0  0.00000000000E+00  0.00000000000E+00 -0.21039643743E+04  0.21039643743E+04  0.50400001928E-02 0. -1.
    10030    2    1    2    0    0  0.00000000000E+00  0.00000000000E+00 -0.16310452043E+04  0.25768835444E+04  0.19949988329E+04 0.  0.
        2    1    3    3  502    0  0.11526339950E+03 -0.81667920150E+03 -0.90856191754E+02  0.82976226536E+03  0.25500000920E-02 0.  1.
       -2    1    3    3    0  502 -0.11526339950E+03  0.81667920150E+03 -0.15401890125E+04  0.17471212790E+04  0.25500000920E-02 0. -1.
</event>
<event>
 5   0  0.4514680E-05  0.2005999E+04  0.7818609E-02  0.8603821E-01
        2   -1    0    0  501    0  0.00000000000E+00  0.00000000000E+00  0.16352360543E+04  0.16352360543E+04  0.25500000920E-02 0.  1.
       -2   -1    0    0    0  501  0.00000000000E+00  0.00000000000E+00 -0.61520639774E+03  0.61520639774E+03  0.25500000920E-02 0. -1.
    10030    2    1    2    0    0  0.00000000000E+00  0.00000000000E+00  0.10200296565E+04  0.22504424520E+04  0.20059986864E+04 0.  0.
        3    1    3    3  502    0 -0.46673700628E+03  0.52622831998E+03 -0.29213053249E+03  0.76164291896E+03  0.10100000352E+00 0. -1.
       -3    1    3    3    0  502  0.46673700628E+03 -0.52622831998E+03  0.13121601890E+04  0.14887995331E+04  0.10100000352E+00 0.  1.
</event>
<event>
 5   0  0.4412054E-05  0.1998323E+04  0.7818609E-02  0.8607405E-01
        2   -1    0    0  501    0  0.00000000000E+00  0.00000000000E+00  0.28221190917E+04  0.28221190917E+04  0.25500000920E-02 0.  1.
       -2   -1    0    0    0  501  0.00000000000E+00  0.00000000000E+00 -0.35374968760E+03  0.35374968761E+03  0.25500000920E-02 0. -1.
    10030    2    1    2    0    0  0.00000000000E+00  0.00000000000E+00  0.24683694041E+04  0.31758687794E+04  0.19983230441E+04 0.  0.
        4    1    3    3  502    0  0.20613854014E+02 -0.96358438596E+03  0.16528663188E+04  0.19133448410E+04  0.12699999809E+01 0.  1.
       -4    1    3    3    0  502 -0.20613854014E+02  0.96358438596E+03  0.81550308537E+03  0.12625239384E+04  0.12699999809E+01 0. -1.
</event>
<event>
 5   0  0.4577279E-05  0.1999350E+04  0.7818609E-02  0.8606924E-01
       -2   -1    0    0    0  501  0.00000000000E+00  0.00000000000E+00  0.10964630391E+04  0.10964630391E+04  0.25500000920E-02 0.  1.
        2   -1    0    0  501    0  0.00000000000E+00  0.00000000000E+00 -0.91143113026E+03  0.91143113027E+03  0.25500000920E-02 0. -1.
    10030    2    1    2    0    0  0.00000000000E+00  0.00000000000E+00  0.18503190885E+03  0.20078941694E+04  0.19993504416E+04 0.  0.
        1    1    3    3  502    0 -0.83549019973E+03 -0.84518403826E+02  0.63720187493E+03  0.10541411025E+04  0.50400001928E-02 0.  1.
       -1    1    3    3    0  502  0.83549019973E+03  0.84518403826E+02 -0.45216996608E+03  0.95375306693E+03  0.50400001928E-02 0. -1.
</event>
<event>
 5   0  0.4514680E-05  0.2003873E+04  0.7818609E-02  0.8604812E-01
        2   -1    0    0  501    0  0.00000000000E+00  0.00000000000E+00  0.56250645153E+03  0.56250645153E+03  0.25500000920E-02 0.  1.
       -2   -1    0    0    0  501  0.00000000000E+00  0.00000000000E+00 -0.17846499032E+04  0.17846499032E+04  0.25500000920E-02 0. -1.
    10030    2    1    2    0    0  0.00000000000E+00  0.00000000000E+00 -0.12221434517E+04  0.23471563547E+04  0.20038733336E+04 0.  0.
        3    1    3    3  502    0  0.41157742637E+03  0.81922409696E+02 -0.16767510693E+04  0.17284679394E+04  0.10100000352E+00 0. -1.
       -3    1    3    3    0  502 -0.41157742637E+03 -0.81922409696E+02  0.45460761758E+03  0.61868841533E+03  0.10100000352E+00 0.  1.
</event>
<event>
 5   0  0.2256868E-05  0.1998413E+04  0.7818609E-02  0.8607363E-01
        1   -1    0    0  501    0  0.00000000000E+00  0.00000000000E+00  0.85883599291E+03  0.85883599293E+03  0.50400001928E-02 0.  1.
       -1   -1    0    0    0  501  0.00000000000E+00  0.00000000000E+00 -0.11625199734E+04  0.11625199734E+04  0.50400001928E-02 0. -1.
    10030    2    1    2    0    0  0.00000000000E+00  0.00000000000E+00 -0.30368398045E+03  0.20213559663E+04  0.19984133663E+04 0.  0.
        5    1    3    3  502    0 -0.12792308786E+03  0.72887389029E+03 -0.83094427230E+03  0.11127047848E+04  0.46999998093E+01 0. -1.
       -5    1    3    3    0  502  0.12792308786E+03 -0.72887389029E+03  0.52726029185E+03  0.90865118154E+03  0.46999998093E+01 0.  1.
</event>
<event>
 5   0  0.2110896E-05  0.1988613E+04  0.7818609E-02  0.8611963E-01
       -1   -1    0    0    0  501  0.00000000000E+00  0.00000000000E+00  0.10276705825E+04  0.10276705825E+04  0.50400001928E-02 0.  1.
        1   -1    0    0  501    0  0.00000000000E+00  0.00000000000E+00 -0.96202585126E+03  0.96202585127E+03  0.50400001928E-02 0. -1.
    10030    2    1    2    0    0  0.00000000000E+00  0.00000000000E+00  0.65644731278E+02  0.19896964338E+04  0.19886132525E+04 0.  0.
        4    1    3    3  502    0  0.26623232576E+03 -0.52704182764E+03  0.83325268781E+03  0.10212562822E+04  0.12699999809E+01 0.  1.
       -4    1    3    3    0  502 -0.26623232576E+03  0.52704182764E+03 -0.76760795653E+03  0.96844015158E+03  0.12699999809E+01 0. -1.
</event>
<event>
 5   0  0.2256868E-05  0.1992011E+04  0.7818609E-02  0.8610365E-01
       -1   -1    0    0    0  501  0.00000000000E+00  0.00000000000E+00  0.44800330849E+03  0.44800330852E+03  0.50400001928E-02 0. -1.
        1   -1    0    0  501    0  0.00000000000E+00  0.00000000000E+00 -0.22143296554E+04  0.22143296554E+04  0.50400001928E-02 0.  1.
    10030    2    1    2    0    0  0.00000000000E+00  0.00000000000E+00 -0.17663263469E+04  0.26623329640E+04  0.19920110560E+04 0.  0.
        5    1    3    3  502    0  0.25703409480E+03 -0.92691156407E+03 -0.53780304122E+03  0.11020371022E+04  0.46999998093E+01 0. -1.
       -5    1    3    3    0  502 -0.25703409480E+03  0.92691156407E+03 -0.12285233057E+04  0.15602958618E+04  0.46999998093E+01 0.  1.
</event>
<event>
 5   0  0.2007644E-05  0.2046606E+04  0.7818609E-02  0.8585136E-01
       -1   -1    0    0    0  501  0.00000000000E+00  0.00000000000E+00  0.12292506187E+04  0.12292506187E+04  0.50400001928E-02 0. -1.
        1   -1    0    0  501    0  0.00000000000E+00  0.00000000000E+00 -0.85185934930E+03  0.85185934931E+03  0.50400001928E-02 0.  1.
    10030    2    1    2    0    0  0.00000000000E+00  0.00000000000E+00  0.37739126939E+03  0.20811099680E+04  0.20466056114E+04 0.  0.
        1    1    3    3  502    0 -0.18679132974E+03 -0.56921749945E+03 -0.65489875989E+03  0.88757644644E+03  0.50400001928E-02 0.  1.
       -1    1    3    3    0  502  0.18679132974E+03  0.56921749945E+03  0.10322900293E+04  0.11935335216E+04  0.50400001928E-02 0. -1.
</event>
<event>
 5   0  0.4412054E-05  0.1978882E+04  0.7818609E-02  0.8616558E-01
       -2   -1    0    0    0  501  0.00000000000E+00  0.00000000000E+00  0.12501937169E+04  0.12501937169E+04  0.25500000920E-02 0. -1.
        2   -1    0    0  501    0  0.00000000000E+00  0.00000000000E+00 -0.78307383206E+03  0.78307383207E+03  0.25500000920E-02 0.  1.
    10030    2    1    2    0    0  0.00000000000E+00  0.00000000000E+00  0.46711988481E+03  0.20332675489E+04  0.19788824975E+04 0.  0.
        4    1    3    3  502    0  0.34185273444E+03 -0.18414369967E+03 -0.70151716656E+03  0.80181053999E+03  0.12699999809E+01 0.  1.
       -4    1    3    3    0  502 -0.34185273444E+03  0.18414369967E+03  0.11686370514E+04  0.12314570089E+04  0.12699999809E+01 0. -1.
</event>
<event>
 5   0  0.4577279E-05  0.1991473E+04  0.7818609E-02  0.8610618E-01
       -2   -1    0    0    0  501  0.00000000000E+00  0.00000000000E+00  0.98626557087E+03  0.98626557087E+03  0.25500000920E-02 0. -1.
        2   -1    0    0  501    0  0.00000000000E+00  0.00000000000E+00 -0.10052985750E+04  0.10052985750E+04  0.25500000920E-02 0.  1.
    10030    2    1    2    0    0  0.00000000000E+00  0.00000000000E+00 -0.19033004120E+02  0.19915641459E+04  0.19914731964E+04 0.  0.
        1    1    3    3  502    0 -0.45474215652E+03  0.30972728176E+03  0.82044305592E+03  0.98785030547E+03  0.50400001928E-02 0. -1.
       -1    1    3    3    0  502  0.45474215652E+03 -0.30972728176E+03 -0.83947606004E+03  0.10037138404E+04  0.50400001928E-02 0.  1.
</event>
<event>
 5   0  0.4473361E-05  0.1967825E+04  0.7818609E-02  0.8621813E-01
        2   -1    0    0  501    0  0.00000000000E+00  0.00000000000E+00  0.12311520849E+04  0.12311520849E+04  0.25500000920E-02 0.  1.
       -2   -1    0    0    0  501  0.00000000000E+00  0.00000000000E+00 -0.78632328299E+03  0.78632328300E+03  0.25500000920E-02 0. -1.
    10030    2    1    2    0    0  0.00000000000E+00  0.00000000000E+00  0.44482880189E+03  0.20174753679E+04  0.19678247374E+04 0.  0.
        2    1    3    3  502    0  0.57959190386E+03  0.29555068847E+03  0.97914795492E+03  0.11755882366E+04  0.25500000920E-02 0.  1.
       -2    1    3    3    0  502 -0.57959190386E+03 -0.29555068847E+03 -0.53431915303E+03  0.84188713125E+03  0.25500000920E-02 0. -1.
</event>
<event>
 5   0  0.2142551E-05  0.2002939E+04  0.7818609E-02  0.8605248E-01
        1   -1    0    0  501    0  0.00000000000E+00  0.00000000000E+00  0.17177895888E+04  0.17177895888E+04  0.50400001928E-02 0. -1.
       -1   -1    0    0    0  501  0.00000000000E+00  0.00000000000E+00 -0.58385541375E+03  0.58385541377E+03  0.50400001928E-02 0.  1.
    10030    2    1    2    0    0  0.00000000000E+00  0.00000000000E+00  0.11339341750E+04  0.23016450025E+04  0.20029385923E+04 0.  0.
        3    1    3    3  502    0 -0.41991603713E+03 -0.87132479507E+03  0.86530930547E+03  0.12978045234E+04  0.10100000352E+00 0. -1.
       -3    1    3    3    0  502  0.41991603713E+03  0.87132479507E+03  0.26862486954E+03  0.10038404791E+04  0.10100000352E+00 0.  1.
</event>
<event>
 5   0  0.4514680E-05  0.1998996E+04  0.7818609E-02  0.8607090E-01
       -2   -1    0    0    0  501  0.00000000000E+00  0.00000000000E+00  0.63860099583E+03  0.63860099583E+03  0.25500000920E-02 0. -1.
        2   -1    0    0  501    0  0.00000000000E+00  0.00000000000E+00 -0.15643519099E+04  0.15643519099E+04  0.25500000920E-02 0.  1.
    10030    2    1    2    0    0  0.00000000000E+00  0.00000000000E+00 -0.92575091406E+03  0.22029529057E+04  0.19989964357E+04 0.  0.
        3    1    3    3  502    0  0.30006701398E+03  0.34976246950E+03 -0.14402846625E+04  0.15122149044E+04  0.10100000352E+00 0.  1.
       -3    1    3    3    0  502 -0.30006701398E+03 -0.34976246950E+03  0.51453374844E+03  0.69073800129E+03  0.10100000352E+00 0. -1.
</event>
<event>
 5   0  0.4447313E-05  0.2002194E+04  0.7818609E-02  0.8605596E-01
        2   -1    0    0  501    0  0.00000000000E+00  0.00000000000E+00  0.41237673268E+03  0.41237673269E+03  0.25500000920E-02 0. -1.
       -2   -1    0    0    0  501  0.00000000000E+00  0.00000000000E+00 -0.24302907645E+04  0.24302907645E+04  0.25500000920E-02 0.  1.
    10030    2    1    2    0    0  0.00000000000E+00  0.00000000000E+00 -0.20179140318E+04  0.28426674972E+04  0.20021941614E+04 0.  0.
        5    1    3    3  502    0 -0.95600359734E+00  0.45046600902E+03 -0.22782501738E+04  0.23223622637E+04  0.46999998093E+01 0.  1.
       -5    1    3    3    0  502  0.95600359734E+00 -0.45046600902E+03  0.26033614199E+03  0.52030523354E+03  0.46999998093E+01 0. -1.
</event>
<event>
 5   0  0.4577279E-05  0.1997313E+04  0.7818609E-02  0.8607878E-01
        2   -1    0    0  501    0  0.00000000000E+00  0.00000000000E+00  0.79379870275E+03  0.79379870275E+03  0.25500000920E-02 0. -1.
       -2   -1    0    0    0  501  0.00000000000E+00  0.00000000000E+00 -0.12563826487E+04  0.12563826487E+04  0.25500000920E-02 0.  1.
    10030    2    1    2    0    0  0.00000000000E+00  0.00000000000E+00 -0.46258394598E+03  0.20501813515E+04  0.19973131119E+04 0.  0.
        1    1    3    3  502    0  0.67095456511E+03  0.59062902873E+03  0.22579514700E+03  0.92195776827E+03  0.50400001928E-02 0. -1.
       -1    1    3    3    0  502 -0.67095456511E+03 -0.59062902873E+03 -0.68837909298E+03  0.11282235832E+04  0.50400001928E-02 0.  1.
</event>
<event>
 5   0  0.2142551E-05  0.2004286E+04  0.7818609E-02  0.8604619E-01
        1   -1    0    0  501    0  0.00000000000E+00  0.00000000000E+00  0.86407620066E+03  0.86407620067E+03  0.50400001928E-02 0. -1.
       -1   -1    0    0    0  501  0.00000000000E+00  0.00000000000E+00 -0.11622708572E+04  0.11622708572E+04  0.50400001928E-02 0.  1.
    10030    2    1    2    0    0  0.00000000000E+00  0.00000000000E+00 -0.29819465658E+03  0.20263470579E+04  0.20042859940E+04 0.  0.
        3    1    3    3  502    0 -0.52466193108E+03  0.54269502700E+03 -0.81552082248E+03  0.11112435630E+04  0.10100000352E+00 0.  1.
       -3    1    3    3    0  502  0.52466193108E+03 -0.54269502700E+03  0.51732616590E+03  0.91510349490E+03  0.10100000352E+00 0. -1.
</event>
<event>
 5   0  0.2110896E-05  0.1995661E+04  0.7818609E-02  0.8608652E-01
       -1   -1    0    0    0  501  0.00000000000E+00  0.00000000000E+00  0.65804854472E+03  0.65804854474E+03  0.50400001928E-02 0.  1.
        1   -1    0    0  501    0  0.00000000000E+00  0.00000000000E+00 -0.15130588747E+04  0.15130588747E+04  0.50400001928E-02 0. -1.
    10030    2    1    2    0    0  0.00000000000E+00  0.00000000000E+00 -0.85501033001E+03  0.21711074195E+04  0.19956614849E+04 0.  0.
        4    1    3    3  502    0  0.94012236295E+03 -0.29988677979E+03 -0.58851065411E+03  0.11489597647E+04  0.12699999809E+01 0. -1.
       -4    1    3    3    0  502 -0.94012236295E+03  0.29988677979E+03 -0.26649967590E+03  0.10221476548E+04  0.12699999809E+01 0.  1.
</event>
<event>
 5   0  0.2142551E-05  0.2006622E+04  0.7818609E-02  0.8603531E-01
       -1   -1    0    0    0  501  0.00000000000E+00  0.00000000000E+00  0.11968294219E+04  0.11968294219E+04  0.50400001928E-02 0.  1.
        1   -1    0    0  501    0  0.00000000000E+00  0.00000000000E+00 -0.84108343488E+03  0.84108343489E+03  0.50400001928E-02 0. -1.
    10030    2    1    2    0    0  0.00000000000E+00  0.00000000000E+00  0.35574598698E+03  0.20379128568E+04  0.20066224370E+04 0.  0.
        3    1    3    3  502    0 -0.19092491359E+03  0.98431799666E+03  0.14126722323E+03  0.10125663829E+04  0.10100000352E+00 0. -1.
       -3    1    3    3    0  502  0.19092491359E+03 -0.98431799666E+03  0.21447876375E+03  0.10253464739E+04  0.10100000352E+00 0.  1.
</event>
<event>
 5   0  0.4412054E-05  0.2004927E+04  0.7818609E-02  0.8604321E-01
        2   -1    0    0  501    0  0.00000000000E+00  0.00000000000E+00  0.23843667379E+04  0.23843667379E+04  0.25500000920E-02 0.  1.
       -2   -1    0    0    0  501  0.00000000000E+00  0.00000000000E+00 -0.42146738925E+03  0.42146738926E+03  0.25500000920E-02 0. -1.
    10030    2    1    2    0    0  0.00000000000E+00  0.00000000000E+00  0.19628993486E+04  0.28058341271E+04  0.20049267558E+04 0.  0.
        4    1    3    3  502    0  0.37660753147E+02  0.31194721434E+03  0.23136696623E+04  0.23349086312E+04  0.12699999809E+01 0.  1.
       -4    1    3    3    0  502 -0.37660753147E+02 -0.31194721434E+03 -0.35077031368E+03  0.47092549594E+03  0.12699999809E+01 0. -1.
</event>
<event>
 5   0  0.4447313E-05  0.1996545E+04  0.7818609E-02  0.8608238E-01
       -2   -1    0    0    0  501  0.00000000000E+00  0.00000000000E+00  0.92176931598E+03  0.92176931598E+03  0.25500000920E-02 0. -1.
        2   -1    0    0  501    0  0.00000000000E+00  0.00000000000E+00 -0.10811250644E+04  0.10811250645E+04  0.25500000920E-02 0.  1.
    10030    2    1    2    0    0  0.00000000000E+00  0.00000000000E+00 -0.15935574847E+03  0.20028943804E+04  0.19965449268E+04 0.  0.
        5    1    3    3  502    0  0.89400819500E+02  0.83496860939E+03 -0.62117290252E+03  0.10445300139E+04  0.46999998093E+01 0.  1.
       -5    1    3    3    0  502 -0.89400819500E+02 -0.83496860939E+03  0.46181715404E+03  0.95836436649E+03  0.46999998093E+01 0. -1.
</event>
<event>
 5   0  0.4473361E-05  0.1876626E+04  0.7818609E-02  0.8666580E-01
       -2   -1    0    0    0  501  0.00000000000E+00  0.00000000000E+00  0.76228881762E+03  0.76228881762E+03  0.25500000920E-02 0.  1.
        2   -1    0    0  501    0  0.00000000000E+00  0.00000000000E+00 -0.11549835033E+04  0.11549835033E+04  0.25500000920E-02 0. -1.
    10030    2    1    2    0    0  0.00000000000E+00  0.00000000000E+00 -0.39269468571E+03  0.19172723209E+04  0.18766257050E+04 0.  0.
        2    1    3    3  502    0 -0.46079201463E+03  0.79301538566E+03  0.60039727387E+01  0.91719067284E+03  0.25500000920E-02 0.  1.
       -2    1    3    3    0  502  0.46079201463E+03 -0.79301538566E+03 -0.39869865845E+03  0.10000816481E+04  0.25500000920E-02 0. -1.
</event>
<event>
 5   0  0.4514680E-05  0.2004697E+04  0.7818609E-02  0.8604428E-01
       -2   -1    0    0    0  501  0.00000000000E+00  0.00000000000E+00  0.44692286806E+03  0.44692286806E+03  0.25500000920E-02 0. -1.
        2   -1    0    0  501    0  0.00000000000E+00  0.00000000000E+00 -0.22480435797E+04  0.22480435797E+04  0.25500000920E-02 0.  1.
    10030    2    1    2    0    0  0.00000000000E+00  0.00000000000E+00 -0.18011207116E+04  0.26949664477E+04  0.20046965697E+04 0.  0.
        3    1    3    3  502    0  0.38109850976E+03 -0.38553773179E+03  0.23284841338E+03  0.58999475472E+03  0.10100000352E+00 0. -1.
       -3    1    3    3    0  502 -0.38109850976E+03  0.38553773179E+03 -0.20339691250E+04  0.21049716930E+04  0.10100000352E+00 0.  1.
</event>
<event>
 5   0  0.4473361E-05  0.2003314E+04  0.7818609E-02  0.8605073E-01
       -2   -1    0    0    0  501  0.00000000000E+00  0.00000000000E+00  0.69900375839E+03  0.69900375839E+03  0.25500000920E-02 0.  1.
        2   -1    0    0  501    0  0.00000000000E+00  0.00000000000E+00 -0.14353526209E+04  0.14353526209E+04  0.25500000920E-02 0. -1.
    10030    2    1    2    0    0  0.00000000000E+00  0.00000000000E+00 -0.73634886252E+03  0.21343563793E+04  0.20033141308E+04 0.  0.
        2    1    3    3  502    0 -0.50608546680E+03  0.74123693540E+03 -0.84196837518E+03  0.12306361928E+04  0.25500000920E-02 0. -1.
       -2    1    3    3    0  502  0.50608546680E+03 -0.74123693540E+03  0.10561951266E+03  0.90372018655E+03  0.25500000920E-02 0.  1.
</event>
<event>
 5   0  0.4514680E-05  0.1999554E+04  0.7818609E-02  0.8606829E-01
        2   -1    0    0  501    0  0.00000000000E+00  0.00000000000E+00  0.82986635508E+03  0.82986635508E+03  0.25500000920E-02 0. -1.
       -2   -1    0    0    0  501  0.00000000000E+00  0.00000000000E+00 -0.12044758264E+04  0.12044758264E+04  0.25500000920E-02 0.  1.
    10030    2    1    2    0    0  0.00000000000E+00  0.00000000000E+00 -0.37460947130E+03  0.20343421815E+04  0.19995539141E+04 0.  0.
        3    1    3    3  502    0 -0.29622580415E+03 -0.12882268423E+03  0.77531129891E+03  0.83991227603E+03  0.10100000352E+00 0. -1.
       -3    1    3    3    0  502  0.29622580415E+03  0.12882268423E+03 -0.11499207702E+04  0.11944299054E+04  0.10100000352E+00 0.  1.
</event>
<event>
 5   0  0.4514680E-05  0.2000880E+04  0.7818609E-02  0.8606209E-01
        2   -1    0    0  501    0  0.00000000000E+00  0.00000000000E+00  0.11776111494E+04  0.11776111494E+04  0.25500000920E-02 0.  1.
       -2   -1    0    0    0  501  0.00000000000E+00  0.00000000000E+00 -0.84992413827E+03  0.84992413827E+03  0.25500000920E-02 0. -1.
    10030    2    1    2    0    0  0.00000000000E+00  0.00000000000E+00  0.32768701112E+03  0.20275352877E+04  0.20008799478E+04 0.  0.
        3    1    3    3  502    0 -0.38272616857E+03 -0.18860616034E+03 -0.75310273021E+03  0.86557225942E+03  0.10100000352E+00 0. -1.
       -3    1    3    3    0  502  0.38272616857E+03  0.18860616034E+03  0.10807897413E+04  0.11619630282E+04  0.10100000352E+00 0.  1.
</event>
<event>
 5   0  0.4412054E-05  0.1996880E+04  0.7818609E-02  0.8608081E-01
       -2   -1    0    0    0  501  0.00000000000E+00  0.00000000000E+00  0.76909114359E+03  0.76909114360E+03  0.25500000920E-02 0. -1.
        2   -1    0    0  501    0  0.00000000000E+00  0.00000000000E+00 -0.12961819659E+04  0.12961819659E+04  0.25500000920E-02 0.  1.
    10030    2    1    2    0    0  0.00000000000E+00  0.00000000000E+00 -0.52709082234E+03  0.20652731095E+04  0.19968796363E+04 0.  0.
        4    1    3    3  502    0 -0.23438784030E+03  0.48249040721E+03  0.60740488521E+03  0.81035607001E+03  0.12699999809E+01 0. -1.
       -4    1    3    3    0  502  0.23438784030E+03 -0.48249040721E+03 -0.11344957075E+04  0.12549170395E+04  0.12699999809E+01 0.  1.
</event>
<event>
 5   0  0.2142551E-05  0.2001089E+04  0.7818609E-02  0.8606112E-01
       -1   -1    0    0    0  501  0.00000000000E+00  0.00000000000E+00  0.13262888940E+04  0.13262888940E+04  0.50400001928E-02 0. -1.
        1   -1    0    0  501    0  0.00000000000E+00  0.00000000000E+00 -0.75480493551E+03  0.75480493552E+03  0.50400001928E-02 0.  1.
    10030    2    1    2    0    0  0.00000000000E+00  0.00000000000E+00  0.57148395848E+03  0.20810938295E+04  0.20010891066E+04 0.  0.
        3    1    3    3  502    0  0.48372266523E+03  0.56280990820E+03 -0.41216696835E+03  0.84889588857E+03  0.10100000352E+00 0.  1.
       -3    1    3    3    0  502 -0.48372266523E+03 -0.56280990820E+03  0.98365092683E+03  0.12321979409E+04  0.10100000352E+00 0. -1.
</event>
<event>
 5   0  0.2093980E-05  0.1941622E+04  0.7818609E-02  0.8634412E-01
       -1   -1    0    0    0  501  0.00000000000E+00  0.00000000000E+00  0.88146435989E+03  0.88146435991E+03  0.50400001928E-02 0. -1.
        1   -1    0    0  501    0  0.00000000000E+00  0.00000000000E+00 -0.10692135304E+04  0.10692135304E+04  0.50400001928E-02 0.  1.
    10030    2    1    2    0    0  0.00000000000E+00  0.00000000000E+00 -0.18774917046E+03  0.19506778903E+04  0.19416216111E+04 0.  0.
        2    1    3    3  502    0  0.23023852818E+03  0.89657807931E+03  0.20008473923E+03  0.94704589912E+03  0.25500000920E-02 0. -1.
       -2    1    3    3    0  502 -0.23023852818E+03 -0.89657807931E+03 -0.38783390969E+03  0.10036319912E+04  0.25500000920E-02 0.  1.
</event>
<event>
 5   0  0.2093980E-05  0.1996193E+04  0.7818609E-02  0.8608403E-01
        1   -1    0    0  501    0  0.00000000000E+00  0.00000000000E+00  0.90533400465E+03  0.90533400466E+03  0.50400001928E-02 0.  1.
       -1   -1    0    0    0  501  0.00000000000E+00  0.00000000000E+00 -0.11003634288E+04  0.11003634288E+04  0.50400001928E-02 0. -1.
    10030    2    1    2    0    0  0.00000000000E+00  0.00000000000E+00 -0.19502942418E+03  0.20056974335E+04  0.19961928059E+04 0.  0.
        2    1    3    3  502    0  0.72867261170E+03  0.46042010624E+03 -0.60314631815E+03  0.10520151759E+04  0.25500000920E-02 0. -1.
       -2    1    3    3    0  502 -0.72867261170E+03 -0.46042010624E+03  0.40811689397E+03  0.95368225758E+03  0.25500000920E-02 0.  1.
</event>
<event>
 5   0  0.2142551E-05  0.1999289E+04  0.7818609E-02  0.8606953E-01
       -1   -1    0    0    0  501  0.00000000000E+00  0.00000000000E+00  0.19403552514E+04  0.19403552514E+04  0.50400001928E-02 0.  1.
        1   -1    0    0  501    0  0.00000000000E+00  0.00000000000E+00 -0.51500331665E+03  0.51500331667E+03  0.50400001928E-02 0. -1.
    10030    2    1    2    0    0  0.00000000000E+00  0.00000000000E+00  0.14253519347E+04  0.24553585680E+04  0.19992892637E+04 0.  0.
        3    1    3    3  502    0  0.32566290777E+02  0.63768272337E+03  0.16572794455E+04  0.17760278685E+04  0.10100000352E+00 0.  1.
       -3    1    3    3    0  502 -0.32566290777E+02 -0.63768272337E+03 -0.23192751073E+03  0.67933069960E+03  0.10100000352E+00 0. -1.
</event>
<event>
 5   0  0.4577279E-05  0.1997878E+04  0.7818609E-02  0.8607614E-01
        2   -1    0    0  501    0  0.00000000000E+00  0.00000000000E+00  0.15681540731E+04  0.15681540731E+04  0.25500000920E-02 0. -1.
       -2   -1    0    0    0  501  0.00000000000E+00  0.00000000000E+00 -0.63633981996E+03  0.63633981997E+03  0.25500000920E-02 0.  1.
    10030    2    1    2    0    0  0.00000000000E+00  0.00000000000E+00  0.93181425316E+03  0.22044938931E+04  0.19978777546E+04 0.  0.
        1    1    3    3  502    0 -0.27431616393E+03  0.43446380085E+03 -0.47934958927E+03  0.70269778767E+03  0.50400001928E-02 0.  1.
       -1    1    3    3    0  502  0.27431616393E+03 -0.43446380085E+03  0.14111638424E+04  0.15017961054E+04  0.50400001928E-02 0. -1.
</event>
<event>
 5   0  0.2142551E-05  0.2005410E+04  0.7818609E-02  0.8604096E-01
       -1   -1    0    0    0  501  0.00000000000E+00  0.00000000000E+00  0.46550605840E+03  0.46550605842E+03  0.50400001928E-02 0.  1.
        1   -1    0    0  501    0  0.00000000000E+00  0.00000000000E+00 -0.21598361825E+04  0.21598361825E+04  0.50400001928E-02 0. -1.
    10030    2    1    2    0    0  0.00000000000E+00  0.00000000000E+00 -0.16943301241E+04  0.26253422409E+04  0.20054095124E+04 0.  0.
        3    1    3    3  502    0 -0.41217376323E+03 -0.55354706038E+03 -0.17994304486E+04  0.19272393491E+04  0.10100000352E+00 0. -1.
       -3    1    3    3    0  502  0.41217376323E+03  0.55354706038E+03  0.10510032451E+03  0.69810289182E+03  0.10100000352E+00 0.  1.
</event>
<event>
 5   0  0.4514680E-05  0.1995492E+04  0.7818609E-02  0.8608731E-01
       -2   -1    0    0    0  501  0.00000000000E+00  0.00000000000E+00  0.45415501873E+03  0.45415501874E+03  0.25500000920E-02 0. -1.
        2   -1    0    0  501    0  0.00000000000E+00  0.00000000000E+00 -0.21919764367E+04  0.21919764367E+04  0.25500000920E-02 0.  1.
    10030    2    1    2    0    0  0.00000000000E+00  0.00000000000E+00 -0.17378214180E+04  0.26461314555E+04  0.19954920192E+04 0.  0.
        3    1    3    3  502    0 -0.61115391353E+03  0.20281545542E+03 -0.18795469447E+04  0.19867913686E+04  0.10100000352E+00 0.  1.
       -3    1    3    3    0  502  0.61115391353E+03 -0.20281545542E+03  0.14172552670E+03  0.65934008683E+03  0.10100000352E+00 0. -1.
</event>
<event>
 5   0  0.2007644E-05  0.1986562E+04  0.7818609E-02  0.8612929E-01
       -1   -1    0    0    0  501  0.00000000000E+00  0.00000000000E+00  0.47998368142E+03  0.47998368144E+03  0.50400001928E-02 0. -1.
        1   -1    0    0  501    0  0.00000000000E+00  0.00000000000E+00 -0.20555013995E+04  0.20555013995E+04  0.50400001928E-02 0.  1.
    10030    2    1    2    0    0  0.00000000000E+00  0.00000000000E+00 -0.15755177181E+04  0.25354850810E+04  0.19865619839E+04 0.  0.
        1    1    3    3  502    0 -0.47306892768E+03 -0.80258154759E+03 -0.12274421716E+04  0.15409560784E+04  0.50400001928E-02 0.  1.
       -1    1    3    3    0  502  0.47306892768E+03  0.80258154759E+03 -0.34807554647E+03  0.99452900256E+03  0.50400001928E-02 0. -1.
</event>
<event>
 5   0  0.4412054E-05  0.2012454E+04  0.7818609E-02  0.8600820E-01
        2   -1    0    0  501    0  0.00000000000E+00  0.00000000000E+00  0.13515378847E+04  0.13515378847E+04  0.25500000920E-02 0.  1.
       -2   -1    0    0    0  501  0.00000000000E+00  0.00000000000E+00 -0.74914109937E+03  0.74914109937E+03  0.25500000920E-02 0. -1.
    10030    2    1    2    0    0  0.00000000000E+00  0.00000000000E+00  0.60239678529E+03  0.21006789840E+04  0.20124538025E+04 0.  0.
        4    1    3    3  502    0 -0.50067957686E+03 -0.86365044849E+03  0.16949731875E+03  0.10125725109E+04  0.12699999809E+01 0.  1.
       -4    1    3    3    0  502  0.50067957686E+03  0.86365044849E+03  0.43289946654E+03  0.10881064731E+04  0.12699999809E+01 0. -1.
</event>
<event>
 5   0  0.4412054E-05  0.2004391E+04  0.7818609E-02  0.8604570E-01
        2   -1    0    0  501    0  0.00000000000E+00  0.00000000000E+00  0.14402721912E+04  0.14402721912E+04  0.25500000920E-02 0. -1.
       -2   -1    0    0    0  501  0.00000000000E+00  0.00000000000E+00 -0.69736533572E+03  0.69736533572E+03  0.25500000920E-02 0.  1.
    10030    2    1    2    0    0  0.00000000000E+00  0.00000000000E+00  0.74290685546E+03  0.21376375269E+04  0.20043910797E+04 0.  0.
        4    1    3    3  502    0  0.27599151984E+03  0.26898356134E+03  0.13580865966E+04  0.14117097053E+04  0.12699999809E+01 0. -1.
       -4    1    3    3    0  502 -0.27599151984E+03 -0.26898356134E+03 -0.61517974116E+03  0.72592782157E+03  0.12699999809E+01 0.  1.
</event>
<event>
 5   0  0.2256868E-05  0.1998814E+04  0.7818609E-02  0.8607175E-01
        1   -1    0    0  501    0  0.00000000000E+00  0.00000000000E+00  0.20783762466E+04  0.20783762466E+04  0.50400001928E-02 0.  1.
       -1   -1    0    0    0  501  0.00000000000E+00  0.00000000000E+00 -0.48057431641E+03  0.48057431643E+03  0.50400001928E-02 0. -1.
    10030    2    1    2    0    0  0.00000000000E+00  0.00000000000E+00  0.15978019301E+04  0.25589505630E+04  0.19988138923E+04 0.  0.
        5    1    3    3  502    0 -0.24630833019E+03  0.56744692609E+03  0.18038062529E+04  0.19069354723E+04  0.46999998093E+01 0.  1.
       -5    1    3    3    0  502  0.24630833019E+03 -0.56744692609E+03 -0.20600432280E+03  0.65201509067E+03  0.46999998093E+01 0. -1.
</event>
<event>
 5   0  0.2142551E-05  0.1995271E+04  0.7818609E-02  0.8608835E-01
        1   -1    0    0  501    0  0.00000000000E+00  0.00000000000E+00  0.27097686028E+04  0.27097686028E+04  0.50400001928E-02 0.  1.
       -1   -1    0    0    0  501  0.00000000000E+00  0.00000000000E+00 -0.36729208755E+03  0.36729208758E+03  0.50400001928E-02 0. -1.
    10030    2    1    2    0    0  0.00000000000E+00  0.00000000000E+00  0.23424765153E+04  0.30770606904E+04  0.19952709760E+04 0.  0.
        3    1    3    3  502    0  0.77636152131E+02 -0.69514636277E+03  0.74208706199E+02  0.70339375891E+03  0.10100000352E+00 0. -1.
       -3    1    3    3    0  502 -0.77636152131E+02  0.69514636277E+03  0.22682678091E+04  0.23736669315E+04  0.10100000352E+00 0.  1.
</event>
<event>
 5   0  0.2093980E-05  0.2004668E+04  0.7818609E-02  0.8604441E-01
       -1   -1    0    0    0  501  0.00000000000E+00  0.00000000000E+00  0.72296847482E+03  0.72296847484E+03  0.50400001928E-02 0. -1.
        1   -1    0    0  501    0  0.00000000000E+00  0.00000000000E+00 -0.13896504939E+04  0.13896504939E+04  0.50400001928E-02 0.  1.
    10030    2    1    2    0    0  0.00000000000E+00  0.00000000000E+00 -0.66668201906E+03  0.21126189687E+04  0.20046680504E+04 0.  0.
        2    1    3    3  502    0  0.66718043972E+03  0.65545421760E+03  0.46518154318E+02  0.93643681538E+03  0.25500000920E-02 0. -1.
       -2    1    3    3    0  502 -0.66718043972E+03 -0.65545421760E+03 -0.71320017338E+03  0.11761821533E+04  0.25500000920E-02 0.  1.
</event>
<event>
 5   0  0.4412054E-05  0.2009182E+04  0.7818609E-02  0.8602340E-01
       -2   -1    0    0    0  501  0.00000000000E+00  0.00000000000E+00  0.81660460253E+03  0.81660460253E+03  0.25500000920E-02 0.  1.
        2   -1    0    0  501    0  0.00000000000E+00  0.00000000000E+00 -0.12358529678E+04  0.12358529678E+04  0.25500000920E-02 0. -1.
    10030    2    1    2    0    0  0.00000000000E+00  0.00000000000E+00 -0.41924836531E+03  0.20524575704E+04  0.20091821437E+04 0.  0.
        4    1    3    3  502    0  0.36689539216E+03  0.50777567636E+03  0.59262743004E+03  0.86235564011E+03  0.12699999809E+01 0.  1.
       -4    1    3    3    0  502 -0.36689539216E+03 -0.50777567636E+03 -0.10118757954E+04  0.11901019303E+04  0.12699999809E+01 0. -1.
</event>
<event>
 5   0  0.2142551E-05  0.2002664E+04  0.7818609E-02  0.8605376E-01
        1   -1    0    0  501    0  0.00000000000E+00  0.00000000000E+00  0.10302529313E+04  0.10302529313E+04  0.50400001928E-02 0. -1.
       -1   -1    0    0    0  501  0.00000000000E+00  0.00000000000E+00 -0.97322301734E+03  0.97322301735E+03  0.50400001928E-02 0.  1.
    10030    2    1    2    0    0  0.00000000000E+00  0.00000000000E+00  0.57029913990E+02  0.20034759487E+04  0.20026640921E+04 0.  0.
        3    1    3    3  502    0  0.40492135357E+03 -0.38967542565E+03  0.85761966527E+03  0.10253388417E+04  0.10100000352E+00 0. -1.
       -3    1    3    3    0  502 -0.40492135357E+03  0.38967542565E+03 -0.80058975128E+03  0.97813710695E+03  0.10100000352E+00 0.  1.
</event>
<event>
 5   0  0.4473361E-05  0.1999308E+04  0.7818609E-02  0.8606944E-01
       -2   -1    0    0    0  501  0.00000000000E+00  0.00000000000E+00  0.46214507145E+03  0.46214507146E+03  0.25500000920E-02 0.  1.
        2   -1    0    0  501    0  0.00000000000E+00  0.00000000000E+00 -0.21623249271E+04  0.21623249271E+04  0.25500000920E-02 0. -1.
    10030    2    1    2    0    0  0.00000000000E+00  0.00000000000E+00 -0.17001798557E+04  0.26244699986E+04  0.19993076881E+04 0.  0.
        2    1    3    3  502    0  0.50165128478E+03 -0.79515890870E+03 -0.40420795323E+03  0.10233844688E+04  0.25500000920E-02 0.  1.
       -2    1    3    3    0  502 -0.50165128478E+03  0.79515890870E+03 -0.12959719024E+04  0.16010855297E+04  0.25500000920E-02 0. -1.
</event>
<event>
 5   0  0.4412054E-05  0.2020801E+04  0.7818609E-02  0.8596957E-01
       -2   -1    0    0    0  501  0.00000000000E+00  0.00000000000E+00  0.97613360409E+03  0.97613360410E+03  0.25500000920E-02 0. -1.
        2   -1    0    0  501    0  0.00000000000E+00  0.00000000000E+00 -0.10458703739E+04  0.10458703739E+04  0.25500000920E-02 0.  1.
    10030    2    1    2    0    0  0.00000000000E+00  0.00000000000E+00 -0.69736769790E+02  0.20220039780E+04  0.20208010466E+04 0.  0.
        4    1    3    3  502    0 -0.41669474919E+03 -0.13602184327E+03 -0.94577899254E+03  0.10424183284E+04  0.12699999809E+01 0.  1.
       -4    1    3    3    0  502  0.41669474919E+03  0.13602184327E+03  0.87604222275E+03  0.97958564954E+03  0.12699999809E+01 0. -1.
</event>
<event>
 5   0  0.2256868E-05  0.2007034E+04  0.7818609E-02  0.8603339E-01
       -1   -1    0    0    0  501  0.00000000000E+00  0.00000000000E+00  0.91176295803E+03  0.91176295804E+03  0.50400001928E-02 0.  1.
        1   -1    0    0  501    0  0.00000000000E+00  0.00000000000E+00 -0.11045045275E+04  0.11045045275E+04  0.50400001928E-02 0. -1.
    10030    2    1    2    0    0  0.00000000000E+00  0.00000000000E+00 -0.19274156950E+03  0.20162674856E+04  0.20070339461E+04 0.  0.
        5    1    3    3  502    0 -0.18561675028E+03  0.61668712535E+03 -0.86950061400E+03  0.10820397388E+04  0.46999998093E+01 0. -1.
       -5    1    3    3    0  502  0.18561675028E+03 -0.61668712535E+03  0.67675904451E+03  0.93422774679E+03  0.46999998093E+01 0.  1.
</event>
<event>
 5   0  0.2093980E-05  0.2013653E+04  0.7818609E-02  0.8600264E-01
        1   -1    0    0  501    0  0.00000000000E+00  0.00000000000E+00  0.76123334832E+03  0.76123334834E+03  0.50400001928E-02 0. -1.
       -1   -1    0    0    0  501  0.00000000000E+00  0.00000000000E+00 -0.13316543553E+04  0.13316543554E+04  0.50400001928E-02 0.  1.
    10030    2    1    2    0    0  0.00000000000E+00  0.00000000000E+00 -0.57042100702E+03  0.20928877037E+04  0.20136531020E+04 0.  0.
        2    1    3    3  502    0 -0.11333017585E+03  0.97618322702E+03 -0.51273597205E+03  0.11084564035E+04  0.25500000920E-02 0. -1.
       -2    1    3    3    0  502  0.11333017585E+03 -0.97618322702E+03 -0.57685034975E+02  0.98443130017E+03  0.25500000920E-02 0.  1.
</event>
<event>
 5   0  0.4473361E-05  0.2005670E+04  0.7818609E-02  0.8603974E-01
        2   -1    0    0  501    0  0.00000000000E+00  0.00000000000E+00  0.11427399735E+04  0.11427399736E+04  0.25500000920E-02 0.  1.
       -2   -1    0    0    0  501  0.00000000000E+00  0.00000000000E+00 -0.88005868404E+03  0.88005868404E+03  0.25500000920E-02 0. -1.
    10030    2    1    2    0    0  0.00000000000E+00  0.00000000000E+00  0.26268128951E+03  0.20227986576E+04  0.20056701995E+04 0.  0.
        2    1    3    3  502    0  0.18633501279E+03  0.51186783913E+02 -0.86110445324E+03  0.88252008659E+03  0.25500000920E-02 0. -1.
       -2    1    3    3    0  502 -0.18633501279E+03 -0.51186783913E+02  0.11237857428E+04  0.11402785710E+04  0.25500000920E-02 0.  1.
</event>
<event>
 5   0  0.4514680E-05  0.2004881E+04  0.7818609E-02  0.8604342E-01
       -2   -1    0    0    0  501  0.00000000000E+00  0.00000000000E+00  0.51598513220E+03  0.51598513221E+03  0.25500000920E-02 0.  1.
        2   -1    0    0  501    0  0.00000000000E+00  0.00000000000E+00 -0.19475117618E+04  0.19475117618E+04  0.25500000920E-02 0. -1.
    10030    2    1    2    0    0  0.00000000000E+00  0.00000000000E+00 -0.14315266296E+04  0.24634968940E+04  0.20048811575E+04 0.  0.
        3    1    3    3  502    0  0.81022807775E+03 -0.35727000072E+03 -0.13841349826E+03  0.89625314397E+03  0.10100000352E+00 0.  1.
       -3    1    3    3    0  502 -0.81022807775E+03  0.35727000072E+03 -0.12931131313E+04  0.15672437500E+04  0.10100000352E+00 0. -1.
</event>
<event>
 5   0  0.4447313E-05  0.1999248E+04  0.7818609E-02  0.8606973E-01
        2   -1    0    0  501    0  0.00000000000E+00  0.00000000000E+00  0.10481586395E+04  0.10481586395E+04  0.25500000920E-02 0. -1.
       -2   -1    0    0    0  501  0.00000000000E+00  0.00000000000E+00 -0.95333632474E+03  0.95333632474E+03  0.25500000920E-02 0.  1.
    10030    2    1    2    0    0  0.00000000000E+00  0.00000000000E+00  0.94822314774E+02  0.20014949643E+04  0.19992475636E+04 0.  0.
        5    1    3    3  502    0  0.69629288929E+03  0.60339402834E+03  0.43555496414E+03  0.10191360841E+04  0.46999998093E+01 0. -1.
       -5    1    3    3    0  502 -0.69629288929E+03 -0.60339402834E+03 -0.34073264937E+03  0.98235888017E+03  0.46999998093E+01 0.  1.
</event>
<event>
 5   0  0.2093980E-05  0.2001950E+04  0.7818609E-02  0.8605709E-01
       -1   -1    0    0    0  501  0.00000000000E+00  0.00000000000E+00  0.55406597457E+03  0.55406597459E+03  0.50400001928E-02 0. -1.
        1   -1    0    0  501    0  0.00000000000E+00  0.00000000000E+00 -0.18083607964E+04  0.18083607964E+04  0.50400001928E-02 0.  1.
    10030    2    1    2    0    0  0.00000000000E+00  0.00000000000E+00 -0.12542948219E+04  0.23624267710E+04  0.20019502362E+04 0.  0.
        2    1    3    3  502    0 -0.28142327442E+02  0.45325978508E+03 -0.16797969041E+04  0.17401017391E+04  0.25500000920E-02 0.  1.
       -2    1    3    3    0  502  0.28142327442E+02 -0.45325978508E+03  0.42550208225E+03  0.62232503193E+03  0.25500000920E-02 0. -1.
</event>
<event>
 5   0  0.4473361E-05  0.2000733E+04  0.7818609E-02  0.8606278E-01
        2   -1    0    0  501    0  0.00000000000E+00  0.00000000000E+00  0.64394918308E+03  0.64394918309E+03  0.25500000920E-02 0.  1.
       -2   -1    0    0    0  501  0.00000000000E+00  0.00000000000E+00 -0.15540553982E+04  0.15540553982E+04  0.25500000920E-02 0. -1.
    10030    2    1    2    0    0  0.00000000000E+00  0.00000000000E+00 -0.91010621510E+03  0.21980045813E+04  0.20007325700E+04 0.  0.
        2    1    3    3  502    0  0.38976836354E+03  0.79541674534E+03  0.55678322644E+02  0.88752873283E+03  0.25500000920E-02 0.  1.
       -2    1    3    3    0  502 -0.38976836354E+03 -0.79541674534E+03 -0.96578453774E+03  0.13104758484E+04  0.25500000920E-02 0. -1.
</event>
<event>
 5   0  0.2093980E-05  0.2004532E+04  0.7818609E-02  0.8604505E-01
        1   -1    0    0  501    0  0.00000000000E+00  0.00000000000E+00  0.12175428626E+04  0.12175428626E+04  0.50400001928E-02 0.  1.
       -1   -1    0    0    0  501  0.00000000000E+00  0.00000000000E+00 -0.82505299139E+03  0.82505299140E+03  0.50400001928E-02 0. -1.
    10030    2    1    2    0    0  0.00000000000E+00  0.00000000000E+00  0.39248987118E+03  0.20425958540E+04  0.20045322456E+04 0.  0.
        2    1    3    3  502    0  0.13443742613E+03 -0.63641890905E+03  0.97324303972E+03  0.11706000443E+04  0.25500000920E-02 0.  1.
       -2    1    3    3    0  502 -0.13443742613E+03  0.63641890905E+03 -0.58075316854E+03  0.87199580969E+03  0.25500000920E-02 0. -1.
</event>
<event>
 5   0  0.4447313E-05  0.1997216E+04  0.7818609E-02  0.8607924E-01
       -2   -1    0    0    0  501  0.00000000000E+00  0.00000000000E+00  0.56969542188E+03  0.56969542189E+03  0.25500000920E-02 0. -1.
        2   -1    0    0  501    0  0.00000000000E+00  0.00000000000E+00 -0.17504396759E+04  0.17504396759E+04  0.25500000920E-02 0.  1.
    10030    2    1    2    0    0  0.00000000000E+00  0.00000000000E+00 -0.11807442541E+04  0.23201350978E+04  0.19972155314E+04 0.  0.
        5    1    3    3  502    0  0.37863641537E+03 -0.12823130499E+03  0.47267210835E+03  0.61907173626E+03  0.46999998093E+01 0. -1.
       -5    1    3    3    0  502 -0.37863641537E+03  0.12823130499E+03 -0.16534163624E+04  0.17010633616E+04  0.46999998093E+01 0.  1.
</event>
<event>
 5   0  0.2007644E-05  0.2004806E+04  0.7818609E-02  0.8604377E-01
        1   -1    0    0  501    0  0.00000000000E+00  0.00000000000E+00  0.71865047887E+03  0.71865047889E+03  0.50400001928E-02 0.  1.
       -1   -1    0    0    0  501  0.00000000000E+00  0.00000000000E+00 -0.13981929048E+04  0.13981929048E+04  0.50400001928E-02 0. -1.
    10030    2    1    2    0    0  0.00000000000E+00  0.00000000000E+00 -0.67954242593E+03  0.21168433837E+04  0.20048062257E+04 0.  0.
        1    1    3    3  502    0  0.62171141198E+03 -0.75879929647E+03 -0.55747434617E+03  0.11283080691E+04  0.50400001928E-02 0.  1.
       -1    1    3    3    0  502 -0.62171141198E+03  0.75879929647E+03 -0.12206807976E+03  0.98853531461E+03  0.50400001928E-02 0. -1.
</event>
<event>
 5   0  0.2093980E-05  0.1997539E+04  0.7818609E-02  0.8607772E-01
        1   -1    0    0  501    0  0.00000000000E+00  0.00000000000E+00  0.22794935847E+04  0.22794935848E+04  0.50400001928E-02 0. -1.
       -1   -1    0    0    0  501  0.00000000000E+00  0.00000000000E+00 -0.43761516770E+03  0.43761516773E+03  0.50400001928E-02 0.  1.
    10030    2    1    2    0    0  0.00000000000E+00  0.00000000000E+00  0.18418784170E+04  0.27171087525E+04  0.19975394538E+04 0.  0.
        2    1    3    3  502    0 -0.33587601889E+03 -0.77621383882E+03  0.16435522808E+04  0.18484005852E+04  0.25500000920E-02 0. -1.
       -2    1    3    3    0  502  0.33587601889E+03  0.77621383882E+03  0.19832613629E+03  0.86870816733E+03  0.25500000920E-02 0.  1.
</event>
<event>
 5   0  0.2007644E-05  0.2093472E+04  0.7818609E-02  0.8564124E-01
        1   -1    0    0  501    0  0.00000000000E+00  0.00000000000E+00  0.11803312989E+04  0.11803312989E+04  0.50400001928E-02 0. -1.
       -1   -1    0    0    0  501  0.00000000000E+00  0.00000000000E+00 -0.92826181543E+03  0.92826181545E+03  0.50400001928E-02 0.  1.
    10030    2    1    2    0    0  0.00000000000E+00  0.00000000000E+00  0.25206948348E+03  0.21085931144E+04  0.20934722108E+04 0.  0.
        1    1    3    3  502    0  0.63398171016E+03  0.65741378062E+03 -0.38905985430E+03  0.99272013076E+03  0.50400001928E-02 0.  1.
       -1    1    3    3    0  502 -0.63398171016E+03 -0.65741378062E+03  0.64112933778E+03  0.11158729836E+04  0.50400001928E-02 0. -1.
</event>
<event>
 5   0  0.4447313E-05  0.2006293E+04  0.7818609E-02  0.8603684E-01
        2   -1    0    0  501    0  0.00000000000E+00  0.00000000000E+00  0.13757231363E+04  0.13757231363E+04  0.25500000920E-02 0.  1.
       -2   -1    0    0    0  501  0.00000000000E+00  0.00000000000E+00 -0.73147196121E+03  0.73147196121E+03  0.25500000920E-02 0. -1.
    10030    2    1    2    0    0  0.00000000000E+00  0.00000000000E+00  0.64425117512E+03  0.21071950975E+04  0.20062930002E+04 0.  0.
        5    1    3    3  502    0 -0.81376925401E+03 -0.21722992305E+03 -0.25013613218E+03  0.87863497134E+03  0.46999998093E+01 0. -1.
       -5    1    3    3    0  502  0.81376925401E+03  0.21722992305E+03  0.89438730730E+03  0.12285601262E+04  0.46999998093E+01 0.  1.
</event>
<event>
 5   0  0.2256868E-05  0.2009158E+04  0.7818609E-02  0.8602351E-01
       -1   -1    0    0    0  501  0.00000000000E+00  0.00000000000E+00  0.13119270834E+04  0.13119270834E+04  0.50400001928E-02 0. -1.
        1   -1    0    0  501    0  0.00000000000E+00  0.00000000000E+00 -0.76923377828E+03  0.76923377830E+03  0.50400001928E-02 0.  1.
    10030    2    1    2    0    0  0.00000000000E+00  0.00000000000E+00  0.54269330515E+03  0.20811608617E+04  0.20091576616E+04 0.  0.
        5    1    3    3  502    0 -0.50188497073E+03  0.20634491644E+03 -0.60434340884E+03  0.81223136740E+03  0.46999998093E+01 0.  1.
       -5    1    3    3    0  502  0.50188497073E+03 -0.20634491644E+03  0.11470367140E+04  0.12689294943E+04  0.46999998093E+01 0. -1.
</event>
<event>
 5   0  0.2142551E-05  0.2007113E+04  0.7818609E-02  0.8603302E-01
       -1   -1    0    0    0  501  0.00000000000E+00  0.00000000000E+00  0.69706010292E+03  0.69706010294E+03  0.50400001928E-02 0. -1.
        1   -1    0    0  501    0  0.00000000000E+00  0.00000000000E+00 -0.14448189803E+04  0.14448189803E+04  0.50400001928E-02 0.  1.
    10030    2    1    2    0    0  0.00000000000E+00  0.00000000000E+00 -0.74775887735E+03  0.21418790832E+04  0.20071130184E+04 0.  0.
        3    1    3    3  502    0 -0.40927120070E+03  0.32484551586E+03 -0.12882035686E+04  0.13901424276E+04  0.10100000352E+00 0.  1.
       -3    1    3    3    0  502  0.40927120070E+03 -0.32484551586E+03  0.54044469121E+03  0.75173665558E+03  0.10100000352E+00 0. -1.
</event>
<event>
 5   0  0.4577279E-05  0.1998373E+04  0.7818609E-02  0.8607382E-01
        2   -1    0    0  501    0  0.00000000000E+00  0.00000000000E+00  0.16704051560E+04  0.16704051560E+04  0.25500000920E-02 0.  1.
       -2   -1    0    0    0  501  0.00000000000E+00  0.00000000000E+00 -0.59768362024E+03  0.59768362025E+03  0.25500000920E-02 0. -1.
    10030    2    1    2    0    0  0.00000000000E+00  0.00000000000E+00  0.10727215358E+04  0.22680887763E+04  0.19983731393E+04 0.  0.
        1    1    3    3  502    0  0.73437687832E+02 -0.48391333342E+03  0.15250267379E+04  0.16016465776E+04  0.50400001928E-02 0.  1.
       -1    1    3    3    0  502 -0.73437687832E+02  0.48391333342E+03 -0.45230520212E+03  0.66644219865E+03  0.50400001928E-02 0. -1.
</event>
<event>
 5   0  0.2007644E-05  0.2000278E+04  0.7818609E-02  0.8606491E-01
        1   -1    0    0  501    0  0.00000000000E+00  0.00000000000E+00  0.23577128798E+04  0.23577128798E+04  0.50400001928E-02 0. -1.
       -1   -1    0    0    0  501  0.00000000000E+00  0.00000000000E+00 -0.42425756473E+03  0.42425756476E+03  0.50400001928E-02 0.  1.
    10030    2    1    2    0    0  0.00000000000E+00  0.00000000000E+00  0.19334553150E+04  0.27819704445E+04  0.20002775055E+04 0.  0.
        1    1    3    3  502    0 -0.41510156312E+03 -0.29381185776E+03 -0.23100435089E+03  0.55856756585E+03  0.50400001928E-02 0.  1.
       -1    1    3    3    0  502  0.41510156312E+03  0.29381185776E+03  0.21644596659E+04  0.22234028787E+04  0.50400001928E-02 0. -1.
</event>
<event>
 5   0  0.4514680E-05  0.2000979E+04  0.7818609E-02  0.8606163E-01
       -2   -1    0    0    0  501  0.00000000000E+00  0.00000000000E+00  0.33665151036E+03  0.33665151037E+03  0.25500000920E-02 0.  1.
        2   -1    0    0  501    0  0.00000000000E+00  0.00000000000E+00 -0.29733407726E+04  0.29733407726E+04  0.25500000920E-02 0. -1.
    10030    2    1    2    0    0  0.00000000000E+00  0.00000000000E+00 -0.26366892623E+04  0.33099922830E+04  0.20009794221E+04 0.  0.
        3    1    3    3  502    0  0.86368604201E+03 -0.44161934624E+03 -0.91315876660E+03  0.13322312747E+04  0.10100000352E+00 0.  1.
       -3    1    3    3    0  502 -0.86368604201E+03  0.44161934624E+03 -0.17235304957E+04  0.19777610083E+04  0.10100000352E+00 0. -1.
</event>
<event>
 5   0  0.2007644E-05  0.1991438E+04  0.7818609E-02  0.8610634E-01
       -1   -1    0    0    0  501  0.00000000000E+00  0.00000000000E+00  0.10168538572E+04  0.10168538572E+04  0.50400001928E-02 0.  1.
        1   -1    0    0  501    0  0.00000000000E+00  0.00000000000E+00 -0.97502314666E+03  0.97502314667E+03  0.50400001928E-02 0. -1.
    10030    2    1    2    0    0  0.00000000000E+00  0.00000000000E+00  0.41830710549E+02  0.19918770039E+04  0.19914377194E+04 0.  0.
        1    1    3    3  502    0  0.84267336769E+03  0.42136086217E+02  0.54978731609E+03  0.10070451566E+04  0.50400001928E-02 0.  1.
       -1    1    3    3    0  502 -0.84267336769E+03 -0.42136086217E+02 -0.50795660554E+03  0.98483184733E+03  0.50400001928E-02 0. -1.
</event>
<event>
 5   0  0.2007644E-05  0.1990080E+04  0.7818609E-02  0.8611273E-01
       -1   -1    0    0    0  501  0.00000000000E+00  0.00000000000E+00  0.52353347624E+03  0.52353347626E+03  0.50400001928E-02 0.  1.
        1   -1    0    0  501    0  0.00000000000E+00  0.00000000000E+00 -0.18911967718E+04  0.18911967718E+04  0.50400001928E-02 0. -1.
    10030    2    1    2    0    0  0.00000000000E+00  0.00000000000E+00 -0.13676632956E+04  0.24147302481E+04  0.19900802197E+04 0.  0.
        1    1    3    3  502    0  0.88864320686E+03 -0.27715743709E+03 -0.11104214634E+04  0.14489785438E+04  0.50400001928E-02 0. -1.
       -1    1    3    3    0  502 -0.88864320686E+03  0.27715743709E+03 -0.25724183218E+03  0.96575170426E+03  0.50400001928E-02 0.  1.
</event>
<event>
 5   0  0.4577279E-05  0.1996842E+04  0.7818609E-02  0.8608099E-01
       -2   -1    0    0    0  501  0.00000000000E+00  0.00000000000E+00  0.64243908895E+03  0.64243908896E+03  0.25500000920E-02 0. -1.
        2   -1    0    0  501    0  0.00000000000E+00  0.00000000000E+00 -0.15516560226E+04  0.15516560226E+04  0.25500000920E-02 0.  1.
    10030    2    1    2    0    0  0.00000000000E+00  0.00000000000E+00 -0.90921693362E+03  0.21940951115E+04  0.19968419883E+04 0.  0.
        1    1    3    3  502    0  0.29354168289E+03  0.33297385256E+03  0.52805345216E+03  0.68983965850E+03  0.50400001928E-02 0. -1.
       -1    1    3    3    0  502 -0.29354168289E+03 -0.33297385256E+03 -0.14372703858E+04  0.15042554530E+04  0.50400001928E-02 0.  1.
</event>
<event>
 5   0  0.2007644E-05  0.2005725E+04  0.7818609E-02  0.8603949E-01
       -1   -1    0    0    0  501  0.00000000000E+00  0.00000000000E+00  0.11496312721E+04  0.11496312721E+04  0.50400001928E-02 0. -1.
        1   -1    0    0  501    0  0.00000000000E+00  0.00000000000E+00 -0.87483126336E+03  0.87483126337E+03  0.50400001928E-02 0.  1.
    10030    2    1    2    0    0  0.00000000000E+00  0.00000000000E+00  0.27480000873E+03  0.20244625355E+04  0.20057251837E+04 0.  0.
        1    1    3    3  502    0 -0.37313883053E+03  0.49798507325E+03  0.93120213748E+03  0.11199817592E+04  0.50400001928E-02 0. -1.
       -1    1    3    3    0  502  0.37313883053E+03 -0.49798507325E+03 -0.65640212875E+03  0.90448077629E+03  0.50400001928E-02 0.  1.
</event>
<event>
 5   0  0.2007644E-05  0.1995224E+04  0.7818609E-02  0.8608857E-01
        1   -1    0    0  501    0  0.00000000000E+00  0.00000000000E+00  0.76902790262E+03  0.76902790264E+03  0.50400001928E-02 0.  1.
       -1   -1    0    0    0  501  0.00000000000E+00  0.00000000000E+00 -0.12941394027E+04  0.12941394027E+04  0.50400001928E-02 0. -1.
    10030    2    1    2    0    0  0.00000000000E+00  0.00000000000E+00 -0.52511150007E+03  0.20631673053E+04  0.19952236071E+04 0.  0.
        1    1    3    3  502    0 -0.42516566441E+03 -0.67805146401E+03  0.35330055626E+03  0.87483764957E+03  0.50400001928E-02 0.  1.
       -1    1    3    3    0  502  0.42516566441E+03  0.67805146401E+03 -0.87841205632E+03  0.11883296558E+04  0.50400001928E-02 0. -1.
</event>
<event>
 5   0  0.4514680E-05  0.2002283E+04  0.7818609E-02  0.8605554E-01
        2   -1    0    0  501    0  0.00000000000E+00  0.00000000000E+00  0.14801609617E+04  0.14801609618E+04  0.25500000920E-02 0.  1.
       -2   -1    0    0    0  501  0.00000000000E+00  0.00000000000E+00 -0.67714580256E+03  0.67714580256E+03  0.25500000920E-02 0. -1.
    10030    2    1    2    0    0  0.00000000000E+00  0.00000000000E+00  0.80301515919E+03  0.21573067643E+04  0.20022834788E+04 0.  0.
        3    1    3    3  502    0 -0.29011167278E+02  0.49180829449E+03  0.13405162295E+04  0.14281809472E+04  0.10100000352E+00 0.  1.
       -3    1    3    3    0  502  0.29011167278E+02 -0.49180829449E+03 -0.53750107029E+03  0.72912581707E+03  0.10100000352E+00 0. -1.
</event>
<event>
 5   0  0.4447313E-05  0.2000526E+04  0.7818609E-02  0.8606375E-01
       -2   -1    0    0    0  501  0.00000000000E+00  0.00000000000E+00  0.71049560646E+03  0.71049560646E+03  0.25500000920E-02 0.  1.
        2   -1    0    0  501    0  0.00000000000E+00  0.00000000000E+00 -0.14082080484E+04  0.14082080484E+04  0.25500000920E-02 0. -1.
    10030    2    1    2    0    0  0.00000000000E+00  0.00000000000E+00 -0.69771244191E+03  0.21187036548E+04  0.20005255623E+04 0.  0.
        5    1    3    3  502    0  0.50497797949E+03  0.57105712428E+03  0.33700697369E+03  0.83348952560E+03  0.46999998093E+01 0.  1.
       -5    1    3    3    0  502 -0.50497797949E+03 -0.57105712428E+03 -0.10347194156E+04  0.12852141292E+04  0.46999998093E+01 0. -1.
</event>
<event>
 5   0  0.4473361E-05  0.2002680E+04  0.7818609E-02  0.8605369E-01
        2   -1    0    0  501    0  0.00000000000E+00  0.00000000000E+00  0.15155065332E+04  0.15155065332E+04  0.25500000920E-02 0. -1.
       -2   -1    0    0    0  501  0.00000000000E+00  0.00000000000E+00 -0.66161481427E+03  0.66161481427E+03  0.25500000920E-02 0.  1.
    10030    2    1    2    0    0  0.00000000000E+00  0.00000000000E+00  0.85389171890E+03  0.21771213474E+04  0.20026797782E+04 0.  0.
        2    1    3    3  502    0 -0.64974648552E+03  0.17039958213E+01  0.12552222713E+04  0.14134200895E+04  0.25500000920E-02 0. -1.
       -2    1    3    3    0  502  0.64974648552E+03 -0.17039958213E+01 -0.40133055241E+03  0.76370125792E+03  0.25500000920E-02 0.  1.
</event>
<event>
 5   0  0.4473361E-05  0.1996489E+04  0.7818609E-02  0.8608264E-01
       -2   -1    0    0    0  501  0.00000000000E+00  0.00000000000E+00  0.12052054973E+04  0.12052054973E+04  0.25500000920E-02 0.  1.
        2   -1    0    0  501    0  0.00000000000E+00  0.00000000000E+00 -0.82682338615E+03  0.82682338616E+03  0.25500000920E-02 0. -1.
    10030    2    1    2    0    0  0.00000000000E+00  0.00000000000E+00  0.37838211110E+03  0.20320288834E+04  0.19964890085E+04 0.  0.
        2    1    3    3  502    0 -0.93135358775E+03 -0.35453305586E+03  0.24835408969E+03  0.10270311324E+04  0.25500000920E-02 0. -1.
       -2    1    3    3    0  502  0.93135358775E+03  0.35453305586E+03  0.13002802140E+03  0.10049977510E+04  0.25500000920E-02 0.  1.
</event>
<event>
 5   0  0.4514680E-05  0.2003949E+04  0.7818609E-02  0.8604777E-01
       -2   -1    0    0    0  501  0.00000000000E+00  0.00000000000E+00  0.11403673084E+04  0.11403673084E+04  0.25500000920E-02 0. -1.
        2   -1    0    0  501    0  0.00000000000E+00  0.00000000000E+00 -0.88037636776E+03  0.88037636777E+03  0.25500000920E-02 0.  1.
    10030    2    1    2    0    0  0.00000000000E+00  0.00000000000E+00  0.25999094064E+03  0.20207436762E+04  0.20039485312E+04 0.  0.
        3    1    3    3  502    0  0.39667642494E+03  0.56444778569E+03 -0.60272982811E+03  0.91609865450E+03  0.10100000352E+00 0.  1.
       -3    1    3    3    0  502 -0.39667642494E+03 -0.56444778569E+03  0.86272076876E+03  0.11046450217E+04  0.10100000352E+00 0. -1.
</event>
<event>
 5   0  0.2093980E-05  0.2007717E+04  0.7818609E-02  0.8603021E-01
       -1   -1    0    0    0  501  0.00000000000E+00  0.00000000000E+00  0.13130846462E+04  0.13130846462E+04  0.50400001928E-02 0. -1.
        1   -1    0    0  501    0  0.00000000000E+00  0.00000000000E+00 -0.76745405080E+03  0.76745405082E+03  0.50400001928E-02 0.  1.
    10030    2    1    2    0    0  0.00000000000E+00  0.00000000000E+00  0.54563059536E+03  0.20805386970E+04  0.20077172418E+04 0.  0.
        2    1    3    3  502    0  0.46455624231E+03 -0.43547201615E+03  0.10770333597E+04  0.12511791386E+04  0.25500000920E-02 0. -1.
       -2    1    3    3    0  502 -0.46455624231E+03  0.43547201615E+03 -0.53140276431E+03  0.82935955836E+03  0.25500000920E-02 0.  1.
</event>
<event>
 5   0  0.4577279E-05  0.1986013E+04  0.7818609E-02  0.8613188E-01
       -2   -1    0    0    0  501  0.00000000000E+00  0.00000000000E+00  0.89239716210E+03  0.89239716211E+03  0.25500000920E-02 0. -1.
        2   -1    0    0  501    0  0.00000000000E+00  0.00000000000E+00 -0.11049588763E+04  0.11049588763E+04  0.25500000920E-02 0.  1.
    10030    2    1    2    0    0  0.00000000000E+00  0.00000000000E+00 -0.21256171421E+03  0.19973560384E+04  0.19860132582E+04 0.  0.
        1    1    3    3  502    0  0.12004648916E+03 -0.11892074549E+03 -0.10903933490E+04  0.11034087904E+04  0.50400001928E-02 0.  1.
       -1    1    3    3    0  502 -0.12004648916E+03  0.11892074549E+03  0.87783163474E+03  0.89394724802E+03  0.50400001928E-02 0. -1.
</event>
<event>
 5   0  0.2142551E-05  0.1961659E+04  0.7818609E-02  0.8624759E-01
        1   -1    0    0  501    0  0.00000000000E+00  0.00000000000E+00  0.13526619369E+04  0.13526619369E+04  0.50400001928E-02 0.  1.
       -1   -1    0    0    0  501  0.00000000000E+00  0.00000000000E+00 -0.71120958215E+03  0.71120958217E+03  0.50400001928E-02 0. -1.
    10030    2    1    2    0    0  0.00000000000E+00  0.00000000000E+00  0.64145235471E+03  0.20638715190E+04  0.19616586155E+04 0.  0.
        3    1    3    3  502    0 -0.55578191342E+03 -0.74804251366E+03  0.64254830367E+03  0.11319582458E+04  0.10100000352E+00 0. -1.
       -3    1    3    3    0  502  0.55578191342E+03  0.74804251366E+03 -0.10959489599E+01  0.93191327323E+03  0.10100000352E+00 0.  1.
</event>
<event>
 5   0  0.2142551E-05  0.2001242E+04  0.7818609E-02  0.8606040E-01
        1   -1    0    0  501    0  0.00000000000E+00  0.00000000000E+00  0.18696141329E+04  0.18696141329E+04  0.50400001928E-02 0.  1.
       -1   -1    0    0    0  501  0.00000000000E+00  0.00000000000E+00 -0.53553438534E+03  0.53553438536E+03  0.50400001928E-02 0. -1.
    10030    2    1    2    0    0  0.00000000000E+00  0.00000000000E+00  0.13340797476E+04  0.24051485183E+04  0.20012422697E+04 0.  0.
        3    1    3    3  502    0  0.84336578888E+03 -0.40774123177E+03  0.10897756428E+04  0.14370559237E+04  0.10100000352E+00 0. -1.
       -3    1    3    3    0  502 -0.84336578888E+03  0.40774123177E+03  0.24430410480E+03  0.96809259462E+03  0.10100000352E+00 0.  1.
</event>
<event>
 5   0  0.2110896E-05  0.1996568E+04  0.7818609E-02  0.8608227E-01
       -1   -1    0    0    0  501  0.00000000000E+00  0.00000000000E+00  0.81256009327E+03  0.81256009329E+03  0.50400001928E-02 0. -1.
        1   -1    0    0  501    0  0.00000000000E+00  0.00000000000E+00 -0.12264580313E+04  0.12264580313E+04  0.50400001928E-02 0.  1.
    10030    2    1    2    0    0  0.00000000000E+00  0.00000000000E+00 -0.41389793806E+03  0.20390181246E+04  0.19965679075E+04 0.  0.
        4    1    3    3  502    0  0.58413413091E+03 -0.42057586848E+03  0.49947510174E+03  0.87611285472E+03  0.12699999809E+01 0.  1.
       -4    1    3    3    0  502 -0.58413413091E+03  0.42057586848E+03 -0.91337303980E+03  0.11629052699E+04  0.12699999809E+01 0. -1.
</event>
<event>
 5   0  0.4412054E-05  0.2002834E+04  0.7818609E-02  0.8605297E-01
       -2   -1    0    0    0  501  0.00000000000E+00  0.00000000000E+00  0.51354474939E+03  0.51354474940E+03  0.25500000920E-02 0.  1.
        2   -1    0    0  501    0  0.00000000000E+00  0.00000000000E+00 -0.19527727044E+04  0.19527727044E+04  0.25500000920E-02 0. -1.
    10030    2    1    2    0    0  0.00000000000E+00  0.00000000000E+00 -0.14392279550E+04  0.24663174538E+04  0.20028341610E+04 0.  0.
        4    1    3    3  502    0 -0.52019724762E+02 -0.80639428920E+03  0.87511051365E+01  0.80811880077E+03  0.12699999809E+01 0.  1.
       -4    1    3    3    0  502  0.52019724762E+02  0.80639428920E+03 -0.14479790602E+04  0.16581986531E+04  0.12699999809E+01 0. -1.
</event>
<event>
 5   0  0.2142551E-05  0.2006935E+04  0.7818609E-02  0.8603385E-01
       -1   -1    0    0    0  501  0.00000000000E+00  0.00000000000E+00  0.88137432576E+03  0.88137432578E+03  0.50400001928E-02 0. -1.
        1   -1    0    0  501    0  0.00000000000E+00  0.00000000000E+00 -0.11424733511E+04  0.11424733512E+04  0.50400001928E-02 0.  1.
    10030    2    1    2    0    0  0.00000000000E+00  0.00000000000E+00 -0.26109902538E+03  0.20238476769E+04  0.20069346572E+04 0.  0.
        3    1    3    3  502    0 -0.30984789978E+03  0.87990375606E+03 -0.50340904738E+03  0.10600268959E+04  0.10100000352E+00 0.  1.
       -3    1    3    3    0  502  0.30984789978E+03 -0.87990375606E+03  0.24231002200E+03  0.96382078100E+03  0.10100000352E+00 0. -1.
</event>
<event>
 5   0  0.4447313E-05  0.2004993E+04  0.7818609E-02  0.8604290E-01
       -2   -1    0    0    0  501  0.00000000000E+00  0.00000000000E+00  0.13017492576E+04  0.13017492576E+04  0.25500000920E-02 0. -1.
        2   -1    0    0  501    0  0.00000000000E+00  0.00000000000E+00 -0.77203773165E+03  0.77203773165E+03  0.25500000920E-02 0.  1.
    10030    2    1    2    0    0  0.00000000000E+00  0.00000000000E+00  0.52971152592E+03  0.20737869892E+04  0.20049933107E+04 0.  0.
        5    1    3    3  502    0 -0.44570971799E+03  0.32175470002E+03  0.11319480162E+04  0.12583765895E+04  0.46999998093E+01 0. -1.
       -5    1    3    3    0  502  0.44570971799E+03 -0.32175470002E+03 -0.60223649029E+03  0.81541039969E+03  0.46999998093E+01 0.  1.
</event>
<event>
 5   0  0.2142551E-05  0.2002120E+04  0.7818609E-02  0.8605630E-01
        1   -1    0    0  501    0  0.00000000000E+00  0.00000000000E+00  0.10181919074E+04  0.10181919074E+04  0.50400001928E-02 0. -1.
       -1   -1    0    0    0  501  0.00000000000E+00  0.00000000000E+00 -0.98421655228E+03  0.98421655230E+03  0.50400001928E-02 0.  1.
    10030    2    1    2    0    0  0.00000000000E+00  0.00000000000E+00  0.33975355131E+02  0.20024084597E+04  0.20021202049E+04 0.  0.
        3    1    3    3  502    0 -0.16756071279E+03  0.49245060966E+03  0.87241025387E+03  0.10157183944E+04  0.10100000352E+00 0. -1.
       -3    1    3    3    0  502  0.16756071279E+03 -0.49245060966E+03 -0.83843489874E+03  0.98669006534E+03  0.10100000352E+00 0.  1.
</event>
<event>
 5   0  0.4577279E-05  0.2003529E+04  0.7818609E-02  0.8604973E-01
        2   -1    0    0  501    0  0.00000000000E+00  0.00000000000E+00  0.16761727323E+04  0.16761727323E+04  0.25500000920E-02 0. -1.
       -2   -1    0    0    0  501  0.00000000000E+00  0.00000000000E+00 -0.59870437797E+03  0.59870437798E+03  0.25500000920E-02 0.  1.
    10030    2    1    2    0    0  0.00000000000E+00  0.00000000000E+00  0.10774683543E+04  0.22748771103E+04  0.20035288399E+04 0.  0.
        1    1    3    3  502    0 -0.64309977984E+03 -0.19082510665E+03 -0.30603295101E+03  0.73732470140E+03  0.50400001928E-02 0.  1.
       -1    1    3    3    0  502  0.64309977984E+03  0.19082510665E+03  0.13835013053E+04  0.15375524089E+04  0.50400001928E-02 0. -1.
</event>
<event>
 5   0  0.2142551E-05  0.1997536E+04  0.7818609E-02  0.8607774E-01
       -1   -1    0    0    0  501  0.00000000000E+00  0.00000000000E+00  0.10084638121E+04  0.10084638121E+04  0.50400001928E-02 0. -1.
        1   -1    0    0  501    0  0.00000000000E+00  0.00000000000E+00 -0.98916541350E+03  0.98916541351E+03  0.50400001928E-02 0.  1.
    10030    2    1    2    0    0  0.00000000000E+00  0.00000000000E+00  0.19298398555E+02  0.19976292256E+04  0.19975360059E+04 0.  0.
        3    1    3    3  502    0  0.69926063634E+03  0.67855308642E+03 -0.20976428682E+03  0.99669493570E+03  0.10100000352E+00 0.  1.
       -3    1    3    3    0  502 -0.69926063634E+03 -0.67855308642E+03  0.22906268538E+03  0.10009342899E+04  0.10100000352E+00 0. -1.
</event>
<event>
 5   0  0.4447313E-05  0.1999248E+04  0.7818609E-02  0.8606973E-01
        2   -1    0    0  501    0  0.00000000000E+00  0.00000000000E+00  0.29857064890E+03  0.29857064891E+03  0.25500000920E-02 0.  1.
       -2   -1    0    0    0  501  0.00000000000E+00  0.00000000000E+00 -0.33467714932E+04  0.33467714932E+04  0.25500000920E-02 0. -1.
    10030    2    1    2    0    0  0.00000000000E+00  0.00000000000E+00 -0.30482008443E+04  0.36453421421E+04  0.19992475949E+04 0.  0.
        5    1    3    3  502    0 -0.30108885849E+03 -0.86380867993E+03 -0.22589058600E+04  0.24371084733E+04  0.46999998093E+01 0. -1.
       -5    1    3    3    0  502  0.30108885849E+03  0.86380867993E+03 -0.78929498429E+03  0.12082336688E+04  0.46999998093E+01 0.  1.
</event>
<event>
 5   0  0.4514680E-05  0.1995031E+04  0.7818609E-02  0.8608947E-01
       -2   -1    0    0    0  501  0.00000000000E+00  0.00000000000E+00  0.50787807589E+03  0.50787807590E+03  0.25500000920E-02 0. -1.
        2   -1    0    0  501    0  0.00000000000E+00  0.00000000000E+00 -0.19592046332E+04  0.19592046332E+04  0.25500000920E-02 0.  1.
    10030    2    1    2    0    0  0.00000000000E+00  0.00000000000E+00 -0.14513265573E+04  0.24670827091E+04  0.19950309064E+04 0.  0.
        3    1    3    3  502    0 -0.35803756331E+02 -0.58203469568E+03  0.27514680525E+03  0.64478839210E+03  0.10100000352E+00 0. -1.
       -3    1    3    3    0  502  0.35803756331E+02  0.58203469568E+03 -0.17264733626E+04  0.18222943170E+04  0.10100000352E+00 0.  1.
</event>
<event>
 5   0  0.4514680E-05  0.1998747E+04  0.7818609E-02  0.8607207E-01
       -2   -1    0    0    0  501  0.00000000000E+00  0.00000000000E+00  0.88307853941E+03  0.88307853941E+03  0.25500000920E-02 0.  1.
        2   -1    0    0  501    0  0.00000000000E+00  0.00000000000E+00 -0.11309836714E+04  0.11309836714E+04  0.25500000920E-02 0. -1.
    10030    2    1    2    0    0  0.00000000000E+00  0.00000000000E+00 -0.24790513202E+03  0.20140622108E+04  0.19987470162E+04 0.  0.
        3    1    3    3  502    0  0.99420714968E+02  0.36808246356E+03  0.80691056597E+03  0.89245383647E+03  0.10100000352E+00 0.  1.
       -3    1    3    3    0  502 -0.99420714968E+02 -0.36808246356E+03 -0.10548156980E+04  0.11216083744E+04  0.10100000352E+00 0. -1.
</event>
<event>
 5   0  0.2007644E-05  0.1994164E+04  0.7818609E-02  0.8609354E-01
       -1   -1    0    0    0  501  0.00000000000E+00  0.00000000000E+00  0.13729375437E+04  0.13729375437E+04  0.50400001928E-02 0.  1.
        1   -1    0    0  501    0  0.00000000000E+00  0.00000000000E+00 -0.72412039373E+03  0.72412039374E+03  0.50400001928E-02 0. -1.
    10030    2    1    2    0    0  0.00000000000E+00  0.00000000000E+00  0.64881714995E+03  0.20970579374E+04  0.19941635587E+04 0.  0.
        1    1    3    3  502    0  0.71217876166E+03  0.21118963390E+03  0.10238376427E+04  0.12649281278E+04  0.50400001928E-02 0. -1.
       -1    1    3    3    0  502 -0.71217876166E+03 -0.21118963390E+03 -0.37502049272E+03  0.83212980959E+03  0.50400001928E-02 0.  1.
</event>
<event>
 5   0  0.2110896E-05  0.1997295E+04  0.7818609E-02  0.8607886E-01
       -1   -1    0    0    0  501  0.00000000000E+00  0.00000000000E+00  0.69656752886E+03  0.69656752888E+03  0.50400001928E-02 0.  1.
        1   -1    0    0  501    0  0.00000000000E+00  0.00000000000E+00 -0.14317308643E+04  0.14317308643E+04  0.50400001928E-02 0. -1.
    10030    2    1    2    0    0  0.00000000000E+00  0.00000000000E+00 -0.73516333539E+03  0.21282983931E+04  0.19972954014E+04 0.  0.
        4    1    3    3  502    0  0.15489113071E+03 -0.46745551706E+03 -0.12933518656E+04  0.13839315676E+04  0.12699999809E+01 0. -1.
       -4    1    3    3    0  502 -0.15489113071E+03  0.46745551706E+03  0.55818853017E+03  0.74436682551E+03  0.12699999809E+01 0.  1.
</event>
<event>
 5   0  0.2007644E-05  0.2108426E+04  0.7818609E-02  0.8557541E-01
       -1   -1    0    0    0  501  0.00000000000E+00  0.00000000000E+00  0.71833455665E+03  0.71833455667E+03  0.50400001928E-02 0. -1.
        1   -1    0    0  501    0  0.00000000000E+00  0.00000000000E+00 -0.15471417885E+04  0.15471417886E+04  0.50400001928E-02 0.  1.
    10030    2    1    2    0    0  0.00000000000E+00  0.00000000000E+00 -0.82880723189E+03  0.22654763452E+04  0.21084263428E+04 0.  0.
        1    1    3    3  502    0 -0.17324343423E+03 -0.82892503852E+02  0.69937906253E+03  0.72526927953E+03  0.50400001928E-02 0. -1.
       -1    1    3    3    0  502  0.17324343423E+03  0.82892503852E+02 -0.15281862944E+04  0.15402070657E+04  0.50400001928E-02 0.  1.
</event>
<event>
 5   0  0.1601500E-05  0.1999859E+04  0.7818609E-02  0.8606687E-01
       -3   -1    0    0    0  501  0.00000000000E+00  0.00000000000E+00  0.17872605554E+04  0.17872605583E+04  0.10100000352E+00 0. -1.
        3   -1    0    0  501    0  0.00000000000E+00  0.00000000000E+00 -0.55943636328E+03  0.55943637240E+03  0.10100000352E+00 0.  1.
    10030    2    1    2    0    0  0.00000000000E+00  0.00000000000E+00  0.12278241922E+04  0.23466969307E+04  0.19998585544E+04 0.  0.
        2    1    3    3  502    0  0.34529013487E+03  0.55053699487E+03 -0.27785126312E+03  0.70676557951E+03  0.25500000920E-02 0.  1.
       -2    1    3    3    0  502 -0.34529013487E+03 -0.55053699487E+03  0.15056754553E+04  0.16399313512E+04  0.25500000920E-02 0. -1.
</event>
<event>
 5   0  0.2142551E-05  0.1992755E+04  0.7818609E-02  0.8610016E-01
        1   -1    0    0  501    0  0.00000000000E+00  0.00000000000E+00  0.96328579490E+03  0.96328579491E+03  0.50400001928E-02 0.  1.
       -1   -1    0    0    0  501  0.00000000000E+00  0.00000000000E+00 -0.10306058373E+04  0.10306058373E+04  0.50400001928E-02 0. -1.
    10030    2    1    2    0    0  0.00000000000E+00  0.00000000000E+00 -0.67320042367E+02  0.19938916322E+04  0.19927548401E+04 0.  0.
        3    1    3    3  502    0  0.25878187598E+03 -0.60425907499E+03 -0.78286675494E+03  0.10222413879E+04  0.10100000352E+00 0. -1.
       -3    1    3    3    0  502 -0.25878187598E+03  0.60425907499E+03  0.71554671257E+03  0.97165024423E+03  0.10100000352E+00 0.  1.
</event>
<event>
 5   0  0.2110896E-05  0.2008104E+04  0.7818609E-02  0.8602841E-01
        1   -1    0    0  501    0  0.00000000000E+00  0.00000000000E+00  0.89471344825E+03  0.89471344826E+03  0.50400001928E-02 0.  1.
       -1   -1    0    0    0  501  0.00000000000E+00  0.00000000000E+00 -0.11267520630E+04  0.11267520630E+04  0.50400001928E-02 0. -1.
    10030    2    1    2    0    0  0.00000000000E+00  0.00000000000E+00 -0.23203861478E+03  0.20214655113E+04  0.20081038057E+04 0.  0.
        4    1    3    3  502    0 -0.90304950282E+02 -0.86637225168E+03 -0.61870435204E+03  0.10684346263E+04  0.12699999809E+01 0. -1.
       -4    1    3    3    0  502  0.90304950282E+02  0.86637225168E+03  0.38666573726E+03  0.95303088501E+03  0.12699999809E+01 0.  1.
</event>
<event>
 5   0  0.2093980E-05  0.1935468E+04  0.7818609E-02  0.8637400E-01
        1   -1    0    0  501    0  0.00000000000E+00  0.00000000000E+00  0.97169477613E+03  0.97169477615E+03  0.50400001928E-02 0.  1.
       -1   -1    0    0    0  501  0.00000000000E+00  0.00000000000E+00 -0.96378960227E+03  0.96378960229E+03  0.50400001928E-02 0. -1.
    10030    2    1    2    0    0  0.00000000000E+00  0.00000000000E+00  0.79051738576E+01  0.19354843784E+04  0.19354682347E+04 0.  0.
        2    1    3    3  502    0 -0.73005952572E+03  0.28149758071E+03  0.57341455449E+03  0.97006806480E+03  0.25500000920E-02 0.  1.
       -2    1    3    3    0  502  0.73005952572E+03 -0.28149758071E+03 -0.56550938063E+03  0.96541631363E+03  0.25500000920E-02 0. -1.
</event>
<event>
 5   0  0.4473361E-05  0.1998246E+04  0.7818609E-02  0.8607441E-01
        2   -1    0    0  501    0  0.00000000000E+00  0.00000000000E+00  0.17318872751E+04  0.17318872751E+04  0.25500000920E-02 0.  1.
       -2   -1    0    0    0  501  0.00000000000E+00  0.00000000000E+00 -0.57639271006E+03  0.57639271007E+03  0.25500000920E-02 0. -1.
    10030    2    1    2    0    0  0.00000000000E+00  0.00000000000E+00  0.11554945651E+04  0.23082799852E+04  0.19982464313E+04 0.  0.
        2    1    3    3  502    0 -0.53204102344E+03  0.84528773059E+03  0.54788704208E+03  0.11391923494E+04  0.25500000920E-02 0. -1.
       -2    1    3    3    0  502  0.53204102344E+03 -0.84528773059E+03  0.60760752299E+03  0.11690876358E+04  0.25500000920E-02 0.  1.
</event>
<event>
 5   0  0.2256868E-05  0.2003733E+04  0.7818609E-02  0.8604877E-01
       -1   -1    0    0    0  501  0.00000000000E+00  0.00000000000E+00  0.87139224888E+03  0.87139224890E+03  0.50400001928E-02 0. -1.
        1   -1    0    0  501    0  0.00000000000E+00  0.00000000000E+00 -0.11518764934E+04  0.11518764934E+04  0.50400001928E-02 0.  1.
    10030    2    1    2    0    0  0.00000000000E+00  0.00000000000E+00 -0.28048424450E+03  0.20232687423E+04  0.20037327646E+04 0.  0.
        5    1    3    3  502    0  0.67522992381E+03 -0.53852736003E+03  0.37241550475E+03  0.94056502470E+03  0.46999998093E+01 0. -1.
       -5    1    3    3    0  502 -0.67522992381E+03  0.53852736003E+03 -0.65289974925E+03  0.10827037176E+04  0.46999998093E+01 0.  1.
</event>
<event>
 5   0  0.2142551E-05  0.1997215E+04  0.7818609E-02  0.8607924E-01
       -1   -1    0    0    0  501  0.00000000000E+00  0.00000000000E+00  0.80300798952E+03  0.80300798954E+03  0.50400001928E-02 0. -1.
        1   -1    0    0  501    0  0.00000000000E+00  0.00000000000E+00 -0.12418513534E+04  0.12418513534E+04  0.50400001928E-02 0.  1.
    10030    2    1    2    0    0  0.00000000000E+00  0.00000000000E+00 -0.43884336390E+03  0.20448593430E+04  0.19972146190E+04 0.  0.
        3    1    3    3  502    0  0.80543859194E+03  0.54464414143E+03 -0.45255515510E+03  0.10724620016E+04  0.10100000352E+00 0.  1.
       -3    1    3    3    0  502 -0.80543859194E+03 -0.54464414143E+03  0.13711791202E+02  0.97239734141E+03  0.10100000352E+00 0. -1.
</event>
<event>
 5   0  0.4473361E-05  0.2001165E+04  0.7818609E-02  0.8606076E-01
       -2   -1    0    0    0  501  0.00000000000E+00  0.00000000000E+00  0.59827448456E+03  0.59827448456E+03  0.25500000920E-02 0.  1.
        2   -1    0    0  501    0  0.00000000000E+00  0.00000000000E+00 -0.16734211516E+04  0.16734211516E+04  0.25500000920E-02 0. -1.
    10030    2    1    2    0    0  0.00000000000E+00  0.00000000000E+00 -0.10751466670E+04  0.22716956361E+04  0.20011648377E+04 0.  0.
        2    1    3    3  502    0 -0.75917944100E+03 -0.43926687194E+03 -0.10841823549E+04  0.13945465883E+04  0.25500000920E-02 0. -1.
       -2    1    3    3    0  502  0.75917944100E+03  0.43926687194E+03  0.90356878403E+01  0.87714904781E+03  0.25500000920E-02 0.  1.
</event>
<event>
 5   0  0.2093980E-05  0.1981725E+04  0.7818609E-02  0.8615213E-01
        1   -1    0    0  501    0  0.00000000000E+00  0.00000000000E+00  0.14102319397E+04  0.14102319397E+04  0.50400001928E-02 0.  1.
       -1   -1    0    0    0  501  0.00000000000E+00  0.00000000000E+00 -0.69620333284E+03  0.69620333286E+03  0.50400001928E-02 0. -1.
    10030    2    1    2    0    0  0.00000000000E+00  0.00000000000E+00  0.71402860690E+03  0.21064352726E+04  0.19817246797E+04 0.  0.
        2    1    3    3  502    0  0.82560578334E+03 -0.54715137223E+03  0.32678812820E+03  0.10429717227E+04  0.25500000920E-02 0.  1.
       -2    1    3    3    0  502 -0.82560578334E+03  0.54715137223E+03  0.38724047870E+03  0.10634635499E+04  0.25500000920E-02 0. -1.
</event>
<event>
 5   0  0.2256868E-05  0.2006794E+04  0.7818609E-02  0.8603451E-01
       -1   -1    0    0    0  501  0.00000000000E+00  0.00000000000E+00  0.54238056958E+03  0.54238056961E+03  0.50400001928E-02 0.  1.
        1   -1    0    0  501    0  0.00000000000E+00  0.00000000000E+00 -0.18562722575E+04  0.18562722575E+04  0.50400001928E-02 0. -1.
    10030    2    1    2    0    0  0.00000000000E+00  0.00000000000E+00 -0.13138916879E+04  0.23986528271E+04  0.20067944632E+04 0.  0.
        5    1    3    3  502    0 -0.99208423148E+02 -0.74599571698E+03 -0.14501846087E+04  0.16338327363E+04  0.46999998093E+01 0. -1.
       -5    1    3    3    0  502  0.99208423148E+02  0.74599571698E+03  0.13629292081E+03  0.76482009077E+03  0.46999998093E+01 0.  1.
</event>
<event>
 5   0  0.4577279E-05  0.2000937E+04  0.7818609E-02  0.8606182E-01
       -2   -1    0    0    0  501  0.00000000000E+00  0.00000000000E+00  0.98673022287E+03  0.98673022287E+03  0.25500000920E-02 0. -1.
        2   -1    0    0  501    0  0.00000000000E+00  0.00000000000E+00 -0.10143985525E+04  0.10143985525E+04  0.25500000920E-02 0.  1.
    10030    2    1    2    0    0  0.00000000000E+00  0.00000000000E+00 -0.27668329633E+02  0.20011287754E+04  0.20009374901E+04 0.  0.
        1    1    3    3  502    0  0.89537669756E+03 -0.42353772177E+03 -0.15475213270E+03  0.10025127704E+04  0.50400001928E-02 0.  1.
       -1    1    3    3    0  502 -0.89537669756E+03  0.42353772177E+03  0.12708380306E+03  0.99861600494E+03  0.50400001928E-02 0. -1.
</event>
<event>
 5   0  0.4473361E-05  0.2004860E+04  0.7818609E-02  0.8604352E-01
        2   -1    0    0  501    0  0.00000000000E+00  0.00000000000E+00  0.17135971188E+04  0.17135971188E+04  0.25500000920E-02 0.  1.
       -2   -1    0    0    0  501  0.00000000000E+00  0.00000000000E+00 -0.58640717961E+03  0.58640717962E+03  0.25500000920E-02 0. -1.
    10030    2    1    2    0    0  0.00000000000E+00  0.00000000000E+00  0.11271899392E+04  0.23000042984E+04  0.20048597491E+04 0.  0.
        2    1    3    3  502    0  0.62209473204E+03 -0.56430059551E+03 -0.64161672677E+02  0.84235012790E+03  0.25500000920E-02 0.  1.
       -2    1    3    3    0  502 -0.62209473204E+03  0.56430059551E+03  0.11913516119E+04  0.14576541705E+04  0.25500000920E-02 0. -1.
</event>
<event>
 5   0  0.4412054E-05  0.1983277E+04  0.7818609E-02  0.8614480E-01
        2   -1    0    0  501    0  0.00000000000E+00  0.00000000000E+00  0.13315559511E+04  0.13315559511E+04  0.25500000920E-02 0. -1.
       -2   -1    0    0    0  501  0.00000000000E+00  0.00000000000E+00 -0.73849431051E+03  0.73849431051E+03  0.25500000920E-02 0.  1.
    10030    2    1    2    0    0  0.00000000000E+00  0.00000000000E+00  0.59306164060E+03  0.20700502616E+04  0.19832765758E+04 0.  0.
        4    1    3    3  502    0  0.54090814266E+03 -0.63964476756E+03 -0.25736448552E+03  0.87633620191E+03  0.12699999809E+01 0.  1.
       -4    1    3    3    0  502 -0.54090814266E+03  0.63964476756E+03  0.85042612612E+03  0.11937140597E+04  0.12699999809E+01 0. -1.
</event>
<event>
 5   0  0.4447313E-05  0.2020015E+04  0.7818609E-02  0.8597320E-01
       -2   -1    0    0    0  501  0.00000000000E+00  0.00000000000E+00  0.94711360548E+03  0.94711360549E+03  0.25500000920E-02 0. -1.
        2   -1    0    0  501    0  0.00000000000E+00  0.00000000000E+00 -0.10770784103E+04  0.10770784103E+04  0.25500000920E-02 0.  1.
    10030    2    1    2    0    0  0.00000000000E+00  0.00000000000E+00 -0.12996480477E+03  0.20241920157E+04  0.20200154619E+04 0.  0.
        5    1    3    3  502    0  0.53708785866E+03 -0.65026985450E+03 -0.62181042773E+03  0.10478475794E+04  0.46999998093E+01 0. -1.
       -5    1    3    3    0  502 -0.53708785866E+03  0.65026985450E+03  0.49184562296E+03  0.97634443636E+03  0.46999998093E+01 0.  1.
</event>
<event>
 5   0  0.4412054E-05  0.1999147E+04  0.7818609E-02  0.8607020E-01
        2   -1    0    0  501    0  0.00000000000E+00  0.00000000000E+00  0.78242222445E+03  0.78242222445E+03  0.25500000920E-02 0. -1.
       -2   -1    0    0    0  501  0.00000000000E+00  0.00000000000E+00 -0.12769920093E+04  0.12769920093E+04  0.25500000920E-02 0.  1.
    10030    2    1    2    0    0  0.00000000000E+00  0.00000000000E+00 -0.49456978487E+03  0.20594142338E+04  0.19991467465E+04 0.  0.
        4    1    3    3  502    0 -0.55755396390E+03  0.37303775187E+03 -0.10106518369E+04  0.12130302285E+04  0.12699999809E+01 0.  1.
       -4    1    3    3    0  502  0.55755396390E+03 -0.37303775187E+03  0.51608205204E+03  0.84638400524E+03  0.12699999809E+01 0. -1.
</event>
<event>
 5   0  0.4577279E-05  0.2003768E+04  0.7818609E-02  0.8604861E-01
       -2   -1    0    0    0  501  0.00000000000E+00  0.00000000000E+00  0.76873773051E+03  0.76873773051E+03  0.25500000920E-02 0.  1.
        2   -1    0    0  501    0  0.00000000000E+00  0.00000000000E+00 -0.13057393755E+04  0.13057393755E+04  0.25500000920E-02 0. -1.
    10030    2    1    2    0    0  0.00000000000E+00  0.00000000000E+00 -0.53700164502E+03  0.20744771060E+04  0.20037675755E+04 0.  0.
        1    1    3    3  502    0  0.61490730119E+03  0.78472821745E+03 -0.37131156903E+03  0.10638522668E+04  0.50400001928E-02 0. -1.
       -1    1    3    3    0  502 -0.61490730119E+03 -0.78472821745E+03 -0.16569007599E+03  0.10106248392E+04  0.50400001928E-02 0.  1.
</event>
<event>
 5   0  0.2093980E-05  0.1999221E+04  0.7818609E-02  0.8606985E-01
        1   -1    0    0  501    0  0.00000000000E+00  0.00000000000E+00  0.75392509130E+03  0.75392509132E+03  0.50400001928E-02 0.  1.
       -1   -1    0    0    0  501  0.00000000000E+00  0.00000000000E+00 -0.13253587754E+04  0.13253587754E+04  0.50400001928E-02 0. -1.
    10030    2    1    2    0    0  0.00000000000E+00  0.00000000000E+00 -0.57143368410E+03  0.20792838667E+04  0.19992210841E+04 0.  0.
        2    1    3    3  502    0 -0.58349471279E+03 -0.62450844160E+03  0.25344933693E+03  0.89146701558E+03  0.25500000920E-02 0.  1.
       -2    1    3    3    0  502  0.58349471279E+03  0.62450844160E+03 -0.82488302103E+03  0.11878168511E+04  0.25500000920E-02 0. -1.
</event>
<event>
 5   0  0.4473361E-05  0.1999883E+04  0.7818609E-02  0.8606676E-01
        2   -1    0    0  501    0  0.00000000000E+00  0.00000000000E+00  0.13527371442E+04  0.13527371442E+04  0.25500000920E-02 0. -1.
       -2   -1    0    0    0  501  0.00000000000E+00  0.00000000000E+00 -0.73915506207E+03  0.73915506207E+03  0.25500000920E-02 0.  1.
    10030    2    1    2    0    0  0.00000000000E+00  0.00000000000E+00  0.61358208214E+03  0.20918922063E+04  0.19998825043E+04 0.  0.
        2    1    3    3  502    0 -0.81440030766E+03  0.22057656690E+02 -0.29966615748E+03  0.86806348113E+03  0.25500000920E-02 0.  1.
       -2    1    3    3    0  502  0.81440030766E+03 -0.22057656690E+02  0.91324823962E+03  0.12238287252E+04  0.25500000920E-02 0. -1.
</event>
<event>
 5   0  0.4514680E-05  0.2005041E+04  0.7818609E-02  0.8604267E-01
        2   -1    0    0  501    0  0.00000000000E+00  0.00000000000E+00  0.94824367295E+03  0.94824367295E+03  0.25500000920E-02 0.  1.
       -2   -1    0    0    0  501  0.00000000000E+00  0.00000000000E+00 -0.10599045478E+04  0.10599045478E+04  0.25500000920E-02 0. -1.
    10030    2    1    2    0    0  0.00000000000E+00  0.00000000000E+00 -0.11166087489E+03  0.20081482208E+04  0.20050414274E+04 0.  0.
        3    1    3    3  502    0  0.88358409913E+03  0.46754799961E+03  0.19955688448E+02  0.99986010615E+03  0.10100000352E+00 0. -1.
       -3    1    3    3    0  502 -0.88358409913E+03 -0.46754799961E+03 -0.13161656334E+03  0.10082881146E+04  0.10100000352E+00 0.  1.
</event>
<event>
 5   0  0.4447313E-05  0.2005269E+04  0.7818609E-02  0.8604161E-01
        2   -1    0    0  501    0  0.00000000000E+00  0.00000000000E+00  0.73248009664E+03  0.73248009664E+03  0.25500000920E-02 0.  1.
       -2   -1    0    0    0  501  0.00000000000E+00  0.00000000000E+00 -0.13724277493E+04  0.13724277493E+04  0.25500000920E-02 0. -1.
    10030    2    1    2    0    0  0.00000000000E+00  0.00000000000E+00 -0.63994765264E+03  0.21049078459E+04  0.20052690697E+04 0.  0.
        5    1    3    3  502    0  0.44143296360E+03 -0.10274731628E+03 -0.12587462448E+04  0.13378655654E+04  0.46999998093E+01 0. -1.
       -5    1    3    3    0  502 -0.44143296360E+03  0.10274731628E+03  0.61879859218E+03  0.76704228048E+03  0.46999998093E+01 0.  1.
</event>
<event>
 5   0  0.4577279E-05  0.1997922E+04  0.7818609E-02  0.8607593E-01
        2   -1    0    0  501    0  0.00000000000E+00  0.00000000000E+00  0.69500873208E+03  0.69500873208E+03  0.25500000920E-02 0. -1.
       -2   -1    0    0    0  501  0.00000000000E+00  0.00000000000E+00 -0.14358422009E+04  0.14358422009E+04  0.25500000920E-02 0.  1.
    10030    2    1    2    0    0  0.00000000000E+00  0.00000000000E+00 -0.74083346886E+03  0.21308509330E+04  0.19979217878E+04 0.  0.
        1    1    3    3  502    0 -0.49610932149E+03 -0.37230546193E+03 -0.12055794039E+04  0.13557866776E+04  0.50400001928E-02 0.  1.
       -1    1    3    3    0  502  0.49610932149E+03  0.37230546193E+03  0.46474593509E+03  0.77506425544E+03  0.50400001928E-02 0. -1.
</event>
<event>
 5   0  0.2007644E-05  0.2026472E+04  0.7818609E-02  0.8594343E-01
       -1   -1    0    0    0  501  0.00000000000E+00  0.00000000000E+00  0.64441849403E+03  0.64441849405E+03  0.50400001928E-02 0. -1.
        1   -1    0    0  501    0  0.00000000000E+00  0.00000000000E+00 -0.15931378288E+04  0.15931378288E+04  0.50400001928E-02 0.  1.
    10030    2    1    2    0    0  0.00000000000E+00  0.00000000000E+00 -0.94871933475E+03  0.22375563228E+04  0.20264722850E+04 0.  0.
        1    1    3    3  502    0  0.20510266326E+03  0.91297254071E+03 -0.90351076691E+03  0.13007373557E+04  0.50400001928E-02 0.  1.
       -1    1    3    3    0  502 -0.20510266326E+03 -0.91297254071E+03 -0.45208567846E+02  0.93681896714E+03  0.50400001928E-02 0. -1.
</event>
<event>
 5   0  0.4473361E-05  0.1987714E+04  0.7818609E-02  0.8612386E-01
       -2   -1    0    0    0  501  0.00000000000E+00  0.00000000000E+00  0.56985166353E+03  0.56985166354E+03  0.25500000920E-02 0.  1.
        2   -1    0    0  501    0  0.00000000000E+00  0.00000000000E+00 -0.17333487760E+04  0.17333487760E+04  0.25500000920E-02 0. -1.
    10030    2    1    2    0    0  0.00000000000E+00  0.00000000000E+00 -0.11634971124E+04  0.23032004395E+04  0.19877139467E+04 0.  0.
        2    1    3    3  502    0  0.75974220311E+03  0.62126562266E+03 -0.40011232924E+03  0.10598438871E+04  0.25500000920E-02 0.  1.
       -2    1    3    3    0  502 -0.75974220311E+03 -0.62126562266E+03 -0.76338478318E+03  0.12433565524E+04  0.25500000920E-02 0. -1.
</event>
<event>
 5   0  0.2142551E-05  0.2000640E+04  0.7818609E-02  0.8606322E-01
       -1   -1    0    0    0  501  0.00000000000E+00  0.00000000000E+00  0.10309059284E+04  0.10309059284E+04  0.50400001928E-02 0. -1.
        1   -1    0    0  501    0  0.00000000000E+00  0.00000000000E+00 -0.97064107911E+03  0.97064107913E+03  0.50400001928E-02 0.  1.
    10030    2    1    2    0    0  0.00000000000E+00  0.00000000000E+00  0.60264849314E+02  0.20015470076E+04  0.20006395406E+04 0.  0.
        3    1    3    3  502    0  0.68838410954E+03  0.67208982235E+03  0.30423155131E+03  0.10090263914E+04  0.10100000352E+00 0.  1.
       -3    1    3    3    0  502 -0.68838410954E+03 -0.67208982235E+03 -0.24396670199E+03  0.99252061614E+03  0.10100000352E+00 0. -1.
</event>
<event>
 5   0  0.4447313E-05  0.1974883E+04  0.7818609E-02  0.8618454E-01
        2   -1    0    0  501    0  0.00000000000E+00  0.00000000000E+00  0.16619645345E+04  0.16619645345E+04  0.25500000920E-02 0.  1.
       -2   -1    0    0    0  501  0.00000000000E+00  0.00000000000E+00 -0.58667970296E+03  0.58667970296E+03  0.25500000920E-02 0. -1.
    10030    2    1    2    0    0  0.00000000000E+00  0.00000000000E+00  0.10752848315E+04  0.22486442375E+04  0.19748831453E+04 0.  0.
        5    1    3    3  502    0  0.14472206804E+03  0.45078359619E+03  0.15242882188E+04  0.15961287515E+04  0.46999998093E+01 0.  1.
       -5    1    3    3    0  502 -0.14472206804E+03 -0.45078359619E+03 -0.44900338726E+03  0.65251548590E+03  0.46999998093E+01 0. -1.
</event>
<event>
 5   0  0.2110896E-05  0.1994792E+04  0.7818609E-02  0.8609060E-01
       -1   -1    0    0    0  501  0.00000000000E+00  0.00000000000E+00  0.11792509672E+04  0.11792509672E+04  0.50400001928E-02 0.  1.
        1   -1    0    0  501    0  0.00000000000E+00  0.00000000000E+00 -0.84358500095E+03  0.84358500096E+03  0.50400001928E-02 0. -1.
    10030    2    1    2    0    0  0.00000000000E+00  0.00000000000E+00  0.33566596628E+03  0.20228359682E+04  0.19947916466E+04 0.  0.
        4    1    3    3  502    0 -0.64957080403E+03  0.25007533678E+03  0.89224076481E+03  0.11316249815E+04  0.12699999809E+01 0.  1.
       -4    1    3    3    0  502  0.64957080403E+03 -0.25007533678E+03 -0.55657479853E+03  0.89121098668E+03  0.12699999809E+01 0. -1.
</event>
<event>
 5   0  0.4412054E-05  0.2011177E+04  0.7818609E-02  0.8601413E-01
       -2   -1    0    0    0  501  0.00000000000E+00  0.00000000000E+00  0.79506874126E+03  0.79506874126E+03  0.25500000920E-02 0. -1.
        2   -1    0    0  501    0  0.00000000000E+00  0.00000000000E+00 -0.12718495214E+04  0.12718495214E+04  0.25500000920E-02 0.  1.
    10030    2    1    2    0    0  0.00000000000E+00  0.00000000000E+00 -0.47678078019E+03  0.20669182627E+04  0.20111765692E+04 0.  0.
        4    1    3    3  502    0 -0.27980845626E+03 -0.51475387226E+03 -0.10783191149E+04  0.12272074183E+04  0.12699999809E+01 0.  1.
       -4    1    3    3    0  502  0.27980845626E+03  0.51475387226E+03  0.60153833467E+03  0.83971084439E+03  0.12699999809E+01 0. -1.
</event>
<event>
 5   0  0.2007644E-05  0.1996935E+04  0.7818609E-02  0.8608055E-01
       -1   -1    0    0    0  501  0.00000000000E+00  0.00000000000E+00  0.60908514863E+03  0.60908514865E+03  0.50400001928E-02 0.  1.
        1   -1    0    0  501    0  0.00000000000E+00  0.00000000000E+00 -0.16367785077E+04  0.16367785077E+04  0.50400001928E-02 0. -1.
    10030    2    1    2    0    0  0.00000000000E+00  0.00000000000E+00 -0.10276933591E+04  0.22458636564E+04  0.19969351323E+04 0.  0.
        1    1    3    3  502    0  0.26067881752E+03 -0.85682562181E+03 -0.17423926426E+02  0.89577183776E+03  0.50400001928E-02 0.  1.
       -1    1    3    3    0  502 -0.26067881752E+03  0.85682562181E+03 -0.10102694327E+04  0.13500918186E+04  0.50400001928E-02 0. -1.
</event>
<event>
 5   0  0.4577279E-05  0.1998982E+04  0.7818609E-02  0.8607097E-01
       -2   -1    0    0    0  501  0.00000000000E+00  0.00000000000E+00  0.75062708601E+03  0.75062708601E+03  0.25500000920E-02 0. -1.
        2   -1    0    0  501    0  0.00000000000E+00  0.00000000000E+00 -0.13308638506E+04  0.13308638506E+04  0.25500000920E-02 0.  1.
    10030    2    1    2    0    0  0.00000000000E+00  0.00000000000E+00 -0.58023676459E+03  0.20814909366E+04  0.19989821951E+04 0.  0.
        1    1    3    3  502    0 -0.70244899877E+03 -0.59644597383E+03 -0.69313373407E+03  0.11530900957E+04  0.50400001928E-02 0.  1.
       -1    1    3    3    0  502  0.70244899877E+03  0.59644597383E+03  0.11289696948E+03  0.92840084086E+03  0.50400001928E-02 0. -1.
</event>
<event>
 5   0  0.2110896E-05  0.2003710E+04  0.7818609E-02  0.8604888E-01
       -1   -1    0    0    0  501  0.00000000000E+00  0.00000000000E+00  0.54572745276E+03  0.54572745278E+03  0.50400001928E-02 0.  1.
        1   -1    0    0  501    0  0.00000000000E+00  0.00000000000E+00 -0.18392211389E+04  0.18392211389E+04  0.50400001928E-02 0. -1.
    10030    2    1    2    0    0  0.00000000000E+00  0.00000000000E+00 -0.12934936862E+04  0.23849485917E+04  0.20037100262E+04 0.  0.
        4    1    3    3  502    0 -0.14835556643E+03  0.41621147434E+03 -0.17169746647E+04  0.17729199016E+04  0.12699999809E+01 0. -1.
       -4    1    3    3    0  502  0.14835556643E+03 -0.41621147434E+03  0.42348097851E+03  0.61202869011E+03  0.12699999809E+01 0.  1.
</event>
<event>
 5   0  0.4514680E-05  0.1954940E+04  0.7818609E-02  0.8627982E-01
       -2   -1    0    0    0  501  0.00000000000E+00  0.00000000000E+00  0.90536723127E+03  0.90536723128E+03  0.25500000920E-02 0.  1.
        2   -1    0    0  501    0  0.00000000000E+00  0.00000000000E+00 -0.10553146260E+04  0.10553146260E+04  0.25500000920E-02 0. -1.
    10030    2    1    2    0    0  0.00000000000E+00  0.00000000000E+00 -0.14994739477E+03  0.19606818573E+04  0.19549396728E+04 0.  0.
        3    1    3    3  502    0  0.85997774731E+03 -0.93910819457E+01  0.39093071808E+03  0.94470987865E+03  0.10100000352E+00 0.  1.
       -3    1    3    3    0  502 -0.85997774731E+03  0.93910819457E+01 -0.54087811285E+03  0.10159719787E+04  0.10100000352E+00 0. -1.
</event>
<event>
 5   0  0.2142551E-05  0.2015228E+04  0.7818609E-02  0.8599534E-01
        1   -1    0    0  501    0  0.00000000000E+00  0.00000000000E+00  0.15241199061E+04  0.15241199061E+04  0.50400001928E-02 0.  1.
       -1   -1    0    0    0  501  0.00000000000E+00  0.00000000000E+00 -0.66614558100E+03  0.66614558102E+03  0.50400001928E-02 0. -1.
    10030    2    1    2    0    0  0.00000000000E+00  0.00000000000E+00  0.85797432507E+03  0.21902654871E+04  0.20152277691E+04 0.  0.
        3    1    3    3  502    0  0.15895733871E+03  0.17091853830E+03  0.14943321861E+04  0.15124514124E+04  0.10100000352E+00 0.  1.
       -3    1    3    3    0  502 -0.15895733871E+03 -0.17091853830E+03 -0.63635786106E+03  0.67781407466E+03  0.10100000352E+00 0. -1.
</event>
<event>
 5   0  0.4577279E-05  0.1991709E+04  0.7818609E-02  0.8610507E-01
        2   -1    0    0  501    0  0.00000000000E+00  0.00000000000E+00  0.12756794126E+04  0.12756794126E+04  0.25500000920E-02 0. -1.
       -2   -1    0    0    0  501  0.00000000000E+00  0.00000000000E+00 -0.77741016733E+03  0.77741016733E+03  0.25500000920E-02 0.  1.
    10030    2    1    2    0    0  0.00000000000E+00  0.00000000000E+00  0.49826924523E+03  0.20530895799E+04  0.19917089602E+04 0.  0.
        1    1    3    3  502    0  0.59494782146E+03  0.20927120042E+03 -0.54531038114E+03  0.83373902235E+03  0.50400001928E-02 0.  1.
       -1    1    3    3    0  502 -0.59494782146E+03 -0.20927120042E+03  0.10435796264E+04  0.12193505575E+04  0.50400001928E-02 0. -1.
</event>
<event>
 5   0  0.2110896E-05  0.1996765E+04  0.7818609E-02  0.8608134E-01
       -1   -1    0    0    0  501  0.00000000000E+00  0.00000000000E+00  0.58838442229E+03  0.58838442231E+03  0.50400001928E-02 0.  1.
        1   -1    0    0  501    0  0.00000000000E+00  0.00000000000E+00 -0.16940759168E+04  0.16940759168E+04  0.50400001928E-02 0. -1.
    10030    2    1    2    0    0  0.00000000000E+00  0.00000000000E+00 -0.11056914945E+04  0.22824603391E+04  0.19967652638E+04 0.  0.
        4    1    3    3  502    0  0.92447295962E+03  0.36086838731E+03 -0.67748864379E+03  0.12016108860E+04  0.12699999809E+01 0. -1.
       -4    1    3    3    0  502 -0.92447295962E+03 -0.36086838731E+03 -0.42820285073E+03  0.10808494531E+04  0.12699999809E+01 0.  1.
</event>
<event>
 5   0  0.4514680E-05  0.1996083E+04  0.7818609E-02  0.8608454E-01
        2   -1    0    0  501    0  0.00000000000E+00  0.00000000000E+00  0.12760335652E+04  0.12760335652E+04  0.25500000920E-02 0.  1.
       -2   -1    0    0    0  501  0.00000000000E+00  0.00000000000E+00 -0.78061171083E+03  0.78061171083E+03  0.25500000920E-02 0. -1.
    10030    2    1    2    0    0  0.00000000000E+00  0.00000000000E+00  0.49542185435E+03  0.20566452760E+04  0.19960829085E+04 0.  0.
        3    1    3    3  502    0 -0.17792265262E+03  0.53431425627E+03  0.10966881666E+04  0.12328313509E+04  0.10100000352E+00 0.  1.
       -3    1    3    3    0  502  0.17792265262E+03 -0.53431425627E+03 -0.60126631226E+03  0.82381392512E+03  0.10100000352E+00 0. -1.
</event>
<event>
 5   0  0.2110896E-05  0.1994440E+04  0.7818609E-02  0.8609224E-01
        1   -1    0    0  501    0  0.00000000000E+00  0.00000000000E+00  0.10423872765E+04  0.10423872765E+04  0.50400001928E-02 0. -1.
       -1   -1    0    0    0  501  0.00000000000E+00  0.00000000000E+00 -0.95401025531E+03  0.95401025533E+03  0.50400001928E-02 0.  1.
    10030    2    1    2    0    0  0.00000000000E+00  0.00000000000E+00  0.88377021186E+02  0.19963975318E+04  0.19944404246E+04 0.  0.
        4    1    3    3  502    0  0.56521398354E+03  0.18622388640E+03 -0.75678439908E+03  0.96274109845E+03  0.12699999809E+01 0.  1.
       -4    1    3    3    0  502 -0.56521398354E+03 -0.18622388640E+03  0.84516142027E+03  0.10336564334E+04  0.12699999809E+01 0. -1.
</event>
<event>
 5   0  0.1601500E-05  0.2002538E+04  0.7818609E-02  0.8605435E-01
        3   -1    0    0  501    0  0.00000000000E+00  0.00000000000E+00  0.14097464180E+04  0.14097464216E+04  0.10100000352E+00 0.  1.
       -3   -1    0    0    0  501  0.00000000000E+00  0.00000000000E+00 -0.71114922714E+03  0.71114923431E+03  0.10100000352E+00 0. -1.
    10030    2    1    2    0    0  0.00000000000E+00  0.00000000000E+00  0.69859719086E+03  0.21208956559E+04  0.20025384761E+04 0.  0.
        2    1    3    3  502    0  0.35192104902E+03  0.93515040983E+03  0.41781673039E+03  0.10830168669E+04  0.25500000920E-02 0. -1.
       -2    1    3    3    0  502 -0.35192104902E+03 -0.93515040983E+03  0.28078046047E+03  0.10378787890E+04  0.25500000920E-02 0.  1.
</event>
<event>
 5   0  0.2110896E-05  0.2017361E+04  0.7818609E-02  0.8598547E-01
       -1   -1    0    0    0  501  0.00000000000E+00  0.00000000000E+00  0.10061427260E+04  0.10061427260E+04  0.50400001928E-02 0.  1.
        1   -1    0    0  501    0  0.00000000000E+00  0.00000000000E+00 -0.10112245884E+04  0.10112245884E+04  0.50400001928E-02 0. -1.
    10030    2    1    2    0    0  0.00000000000E+00  0.00000000000E+00 -0.50818623830E+01  0.20173673143E+04  0.20173609136E+04 0.  0.
        4    1    3    3  502    0  0.53053730082E+03  0.43746932335E+03  0.73542171715E+03  0.10068246875E+04  0.12699999809E+01 0.  1.
       -4    1    3    3    0  502 -0.53053730082E+03 -0.43746932335E+03 -0.74050357953E+03  0.10105426268E+04  0.12699999809E+01 0. -1.
</event>
<event>
 5   0  0.2256868E-05  0.2001164E+04  0.7818609E-02  0.8606077E-01
        1   -1    0    0  501    0  0.00000000000E+00  0.00000000000E+00  0.13527547790E+04  0.13527547790E+04  0.50400001928E-02 0.  1.
       -1   -1    0    0    0  501  0.00000000000E+00  0.00000000000E+00 -0.74009273597E+03  0.74009273599E+03  0.50400001928E-02 0. -1.
    10030    2    1    2    0    0  0.00000000000E+00  0.00000000000E+00  0.61266204302E+03  0.20928475150E+04  0.20011636470E+04 0.  0.
        5    1    3    3  502    0  0.69936692922E+03 -0.66795304045E+03  0.57473402580E+03  0.11249962917E+04  0.46999998093E+01 0.  1.
       -5    1    3    3    0  502 -0.69936692922E+03  0.66795304045E+03  0.37928017224E+02  0.96785122329E+03  0.46999998093E+01 0. -1.
</event>
<event>
 5   0  0.4473361E-05  0.1996959E+04  0.7818609E-02  0.8608044E-01
       -2   -1    0    0    0  501  0.00000000000E+00  0.00000000000E+00  0.23909656517E+04  0.23909656517E+04  0.25500000920E-02 0.  1.
        2   -1    0    0  501    0  0.00000000000E+00  0.00000000000E+00 -0.41697001115E+03  0.41697001116E+03  0.25500000920E-02 0. -1.
    10030    2    1    2    0    0  0.00000000000E+00  0.00000000000E+00  0.19739956405E+04  0.28079356628E+04  0.19969586620E+04 0.  0.
        2    1    3    3  502    0  0.14665739743E+03 -0.26119224007E+03 -0.35229970264E+03  0.46243362657E+03  0.25500000920E-02 0. -1.
       -2    1    3    3    0  502 -0.14665739743E+03  0.26119224007E+03  0.23262953432E+04  0.23455020363E+04  0.25500000920E-02 0.  1.
</event>
<event>
 5   0  0.4412054E-05  0.2004480E+04  0.7818609E-02  0.8604529E-01
        2   -1    0    0  501    0  0.00000000000E+00  0.00000000000E+00  0.14166985391E+04  0.14166985391E+04  0.25500000920E-02 0.  1.
       -2   -1    0    0    0  501  0.00000000000E+00  0.00000000000E+00 -0.70903214089E+03  0.70903214090E+03  0.25500000920E-02 0. -1.
    10030    2    1    2    0    0  0.00000000000E+00  0.00000000000E+00  0.70766639819E+03  0.21257306800E+04  0.20044797811E+04 0.  0.
        4    1    3    3  502    0  0.46210751232E+02 -0.61189037070E+03  0.11941923194E+04  0.13426251033E+04  0.12699999809E+01 0.  1.
       -4    1    3    3    0  502 -0.46210751232E+02  0.61189037070E+03 -0.48652592125E+03  0.78310557669E+03  0.12699999809E+01 0. -1.
</event>
<event>
 5   0  0.4447313E-05  0.1985903E+04  0.7818609E-02  0.8613240E-01
       -2   -1    0    0    0  501  0.00000000000E+00  0.00000000000E+00  0.17264112196E+04  0.17264112197E+04  0.25500000920E-02 0.  1.
        2   -1    0    0  501    0  0.00000000000E+00  0.00000000000E+00 -0.57109935346E+03  0.57109935346E+03  0.25500000920E-02 0. -1.
    10030    2    1    2    0    0  0.00000000000E+00  0.00000000000E+00  0.11553118662E+04  0.22975105731E+04  0.19859026475E+04 0.  0.
        5    1    3    3  502    0  0.81037254701E+03 -0.90628306893E+02  0.12331381781E+04  0.14783670083E+04  0.46999998093E+01 0.  1.
       -5    1    3    3    0  502 -0.81037254701E+03  0.90628306893E+02 -0.77826311905E+02  0.81914356482E+03  0.46999998093E+01 0. -1.
</event>
<event>
 5   0  0.4447313E-05  0.2004435E+04  0.7818609E-02  0.8604550E-01
        2   -1    0    0  501    0  0.00000000000E+00  0.00000000000E+00  0.89762026480E+03  0.89762026480E+03  0.25500000920E-02 0.  1.
       -2   -1    0    0    0  501  0.00000000000E+00  0.00000000000E+00 -0.11190034667E+04  0.11190034667E+04  0.25500000920E-02 0. -1.
    10030    2    1    2    0    0  0.00000000000E+00  0.00000000000E+00 -0.22138320194E+03  0.20166237316E+04  0.20044352702E+04 0.  0.
        5    1    3    3  502    0 -0.63922220379E+03  0.25749433702E+03  0.62140739904E+03  0.92794267333E+03  0.46999998093E+01 0.  1.
       -5    1    3    3    0  502  0.63922220379E+03 -0.25749433702E+03 -0.84279060098E+03  0.10886810582E+04  0.46999998093E+01 0. -1.
</event>
<event>
 5   0  0.2110896E-05  0.2002295E+04  0.7818609E-02  0.8605548E-01
        1   -1    0    0  501    0  0.00000000000E+00  0.00000000000E+00  0.12747278591E+04  0.12747278591E+04  0.50400001928E-02 0. -1.
       -1   -1    0    0    0  501  0.00000000000E+00  0.00000000000E+00 -0.78628274113E+03  0.78628274115E+03  0.50400001928E-02 0.  1.
    10030    2    1    2    0    0  0.00000000000E+00  0.00000000000E+00  0.48844511799E+03  0.20610106003E+04  0.20022951983E+04 0.  0.
        4    1    3    3  502    0 -0.91436695200E+03  0.38742254805E+03  0.37495785187E+03  0.10614886515E+04  0.12699999809E+01 0.  1.
       -4    1    3    3    0  502  0.91436695200E+03 -0.38742254805E+03  0.11348726611E+03  0.99952194879E+03  0.12699999809E+01 0. -1.
</event>
<event>
 5   0  0.2007644E-05  0.2000751E+04  0.7818609E-02  0.8606270E-01
       -1   -1    0    0    0  501  0.00000000000E+00  0.00000000000E+00  0.65927878955E+03  0.65927878957E+03  0.50400001928E-02 0. -1.
        1   -1    0    0  501    0  0.00000000000E+00  0.00000000000E+00 -0.15179483932E+04  0.15179483932E+04  0.50400001928E-02 0.  1.
    10030    2    1    2    0    0  0.00000000000E+00  0.00000000000E+00 -0.85866960363E+03  0.21772271828E+04  0.20007510383E+04 0.  0.
        1    1    3    3  502    0  0.29559481933E+03 -0.37457622856E+03 -0.13861309395E+04  0.14659613330E+04  0.50400001928E-02 0.  1.
       -1    1    3    3    0  502 -0.29559481933E+03  0.37457622856E+03  0.52746133589E+03  0.71126584980E+03  0.50400001928E-02 0. -1.
</event>
<event>
 5   0  0.4514680E-05  0.1998361E+04  0.7818609E-02  0.8607387E-01
       -2   -1    0    0    0  501  0.00000000000E+00  0.00000000000E+00  0.73981238766E+03  0.73981238766E+03  0.25500000920E-02 0. -1.
        2   -1    0    0  501    0  0.00000000000E+00  0.00000000000E+00 -0.13494790557E+04  0.13494790557E+04  0.25500000920E-02 0.  1.
    10030    2    1    2    0    0  0.00000000000E+00  0.00000000000E+00 -0.60966666803E+03  0.20892914434E+04  0.19983606504E+04 0.  0.
        3    1    3    3  502    0 -0.13011308768E+03  0.56964900081E+00 -0.13405838745E+04  0.13468833932E+04  0.10100000352E+00 0.  1.
       -3    1    3    3    0  502  0.13011308768E+03 -0.56964900081E+00  0.73091720645E+03  0.74240805018E+03  0.10100000352E+00 0. -1.
</event>
<event>
 5   0  0.4577279E-05  0.1974570E+04  0.7818609E-02  0.8618603E-01
       -2   -1    0    0    0  501  0.00000000000E+00  0.00000000000E+00  0.11245730704E+04  0.11245730704E+04  0.25500000920E-02 0.  1.
        2   -1    0    0  501    0  0.00000000000E+00  0.00000000000E+00 -0.86675676906E+03  0.86675676906E+03  0.25500000920E-02 0. -1.
    10030    2    1    2    0    0  0.00000000000E+00  0.00000000000E+00  0.25781630133E+03  0.19913298395E+04  0.19745696453E+04 0.  0.
        1    1    3    3  502    0  0.28056617836E+03  0.11797254525E+03  0.10760799840E+04  0.11182946991E+04  0.50400001928E-02 0.  1.
       -1    1    3    3    0  502 -0.28056617836E+03 -0.11797254525E+03 -0.81826368272E+03  0.87303514039E+03  0.50400001928E-02 0. -1.
</event>
<event>
 5   0  0.4447313E-05  0.2004095E+04  0.7818609E-02  0.8604709E-01
       -2   -1    0    0    0  501  0.00000000000E+00  0.00000000000E+00  0.34147662067E+03  0.34147662068E+03  0.25500000920E-02 0.  1.
        2   -1    0    0  501    0  0.00000000000E+00  0.00000000000E+00 -0.29404622919E+04  0.29404622919E+04  0.25500000920E-02 0. -1.
    10030    2    1    2    0    0  0.00000000000E+00  0.00000000000E+00 -0.25989856712E+04  0.32819389126E+04  0.20040949346E+04 0.  0.
        5    1    3    3  502    0  0.44606607485E+03  0.35594500776E+03 -0.26483215454E+04  0.27091144105E+04  0.46999998093E+01 0. -1.
       -5    1    3    3    0  502 -0.44606607485E+03 -0.35594500776E+03  0.49335874144E+02  0.57282450205E+03  0.46999998093E+01 0.  1.
</event>
<event>
 5   0  0.2142551E-05  0.1994255E+04  0.7818609E-02  0.8609311E-01
       -1   -1    0    0    0  501  0.00000000000E+00  0.00000000000E+00  0.63579817935E+03  0.63579817937E+03  0.50400001928E-02 0. -1.
        1   -1    0    0  501    0  0.00000000000E+00  0.00000000000E+00 -0.15638038458E+04  0.15638038458E+04  0.50400001928E-02 0.  1.
    10030    2    1    2    0    0  0.00000000000E+00  0.00000000000E+00 -0.92800566645E+03  0.21996020252E+04  0.19942553879E+04 0.  0.
        3    1    3    3  502    0  0.47371131229E+02  0.50487872087E+03 -0.14109627018E+04  0.14993206138E+04  0.10100000352E+00 0.  1.
       -3    1    3    3    0  502 -0.47371131229E+02 -0.50487872087E+03  0.48295703538E+03  0.70028141136E+03  0.10100000352E+00 0. -1.
</event>
<event>
 5   0  0.4473361E-05  0.1997882E+04  0.7818609E-02  0.8607611E-01
        2   -1    0    0  501    0  0.00000000000E+00  0.00000000000E+00  0.14537361412E+04  0.14537361412E+04  0.25500000920E-02 0.  1.
       -2   -1    0    0    0  501  0.00000000000E+00  0.00000000000E+00 -0.68642690265E+03  0.68642690265E+03  0.25500000920E-02 0. -1.
    10030    2    1    2    0    0  0.00000000000E+00  0.00000000000E+00  0.76730923851E+03  0.21401630438E+04  0.19978824757E+04 0.  0.
        2    1    3    3  502    0 -0.44902443957E+03 -0.61817123626E+03 -0.30569990888E+03  0.82292834376E+03  0.25500000920E-02 0. -1.
       -2    1    3    3    0  502  0.44902443957E+03  0.61817123626E+03  0.10730091474E+04  0.13172347001E+04  0.25500000920E-02 0.  1.
</event>
<event>
 5   0  0.2007644E-05  0.2003641E+04  0.7818609E-02  0.8604920E-01
        1   -1    0    0  501    0  0.00000000000E+00  0.00000000000E+00  0.25470335501E+04  0.25470335501E+04  0.50400001928E-02 0.  1.
       -1   -1    0    0    0  501  0.00000000000E+00  0.00000000000E+00 -0.39404443610E+03  0.39404443613E+03  0.50400001928E-02 0. -1.
    10030    2    1    2    0    0  0.00000000000E+00  0.00000000000E+00  0.21529891140E+04  0.29410779862E+04  0.20036410847E+04 0.  0.
        1    1    3    3  502    0  0.38524350445E+03  0.21143050238E+03  0.23980058749E+04  0.24379392099E+04  0.50400001928E-02 0.  1.
       -1    1    3    3    0  502 -0.38524350445E+03 -0.21143050238E+03 -0.24501676093E+03  0.50313877631E+03  0.50400001928E-02 0. -1.
</event>
<event>
 5   0  0.4514680E-05  0.2024761E+04  0.7818609E-02  0.8595131E-01
       -2   -1    0    0    0  501  0.00000000000E+00  0.00000000000E+00  0.47847891347E+03  0.47847891348E+03  0.25500000920E-02 0.  1.
        2   -1    0    0  501    0  0.00000000000E+00  0.00000000000E+00 -0.21420267655E+04  0.21420267655E+04  0.25500000920E-02 0. -1.
    10030    2    1    2    0    0  0.00000000000E+00  0.00000000000E+00 -0.16635478520E+04  0.26205056790E+04  0.20247613582E+04 0.  0.
        3    1    3    3  502    0 -0.87844149600E+03 -0.38803081651E+03 -0.41704003252E+03  0.10469717166E+04  0.10100000352E+00 0.  1.
       -3    1    3    3    0  502  0.87844149600E+03  0.38803081651E+03 -0.12465078195E+04  0.15735339624E+04  0.10100000352E+00 0. -1.
</event>
<event>
 5   0  0.4473361E-05  0.1943112E+04  0.7818609E-02  0.8633689E-01
        2   -1    0    0  501    0  0.00000000000E+00  0.00000000000E+00  0.16632048940E+04  0.16632048940E+04  0.25500000920E-02 0.  1.
       -2   -1    0    0    0  501  0.00000000000E+00  0.00000000000E+00 -0.56753161247E+03  0.56753161248E+03  0.25500000920E-02 0. -1.
    10030    2    1    2    0    0  0.00000000000E+00  0.00000000000E+00  0.10956732815E+04  0.22307365065E+04  0.19431123028E+04 0.  0.
        2    1    3    3  502    0 -0.55977420610E+03 -0.65361069686E+03  0.30121481646E+02  0.86108153419E+03  0.25500000920E-02 0. -1.
       -2    1    3    3    0  502  0.55977420610E+03  0.65361069686E+03  0.10655517999E+04  0.13696549723E+04  0.25500000920E-02 0.  1.
</event>
<event>
 5   0  0.2007644E-05  0.2000290E+04  0.7818609E-02  0.8606485E-01
       -1   -1    0    0    0  501  0.00000000000E+00  0.00000000000E+00  0.83126992599E+03  0.83126992600E+03  0.50400001928E-02 0.  1.
        1   -1    0    0  501    0  0.00000000000E+00  0.00000000000E+00 -0.12033278685E+04  0.12033278685E+04  0.50400001928E-02 0. -1.
    10030    2    1    2    0    0  0.00000000000E+00  0.00000000000E+00 -0.37205794252E+03  0.20345977945E+04  0.20002902472E+04 0.  0.
        1    1    3    3  502    0  0.66621766955E+03  0.50763305933E+03  0.36992861647E+03  0.91563338048E+03  0.50400001928E-02 0.  1.
       -1    1    3    3    0  502 -0.66621766955E+03 -0.50763305933E+03 -0.74198655899E+03  0.11189644140E+04  0.50400001928E-02 0. -1.
</event>
<event>
 5   0  0.4447313E-05  0.2001061E+04  0.7818609E-02  0.8606125E-01
        2   -1    0    0  501    0  0.00000000000E+00  0.00000000000E+00  0.18072321019E+04  0.18072321019E+04  0.25500000920E-02 0. -1.
       -2   -1    0    0    0  501  0.00000000000E+00  0.00000000000E+00 -0.55391948409E+03  0.55391948409E+03  0.25500000920E-02 0.  1.
    10030    2    1    2    0    0  0.00000000000E+00  0.00000000000E+00  0.12533126178E+04  0.23611515860E+04  0.20010607922E+04 0.  0.
        5    1    3    3  502    0  0.83687704384E+03 -0.15822599741E+03  0.12461472617E+04  0.15094050949E+04  0.46999998093E+01 0. -1.
       -5    1    3    3    0  502 -0.83687704384E+03  0.15822599741E+03  0.71653561550E+01  0.85174649110E+03  0.46999998093E+01 0.  1.
</event>
<event>
 5   0  0.4473361E-05  0.1996451E+04  0.7818609E-02  0.8608282E-01
       -2   -1    0    0    0  501  0.00000000000E+00  0.00000000000E+00  0.74937790262E+03  0.74937790263E+03  0.25500000920E-02 0. -1.
        2   -1    0    0  501    0  0.00000000000E+00  0.00000000000E+00 -0.13297081492E+04  0.13297081492E+04  0.25500000920E-02 0.  1.
    10030    2    1    2    0    0  0.00000000000E+00  0.00000000000E+00 -0.58033024658E+03  0.20790860518E+04  0.19964507547E+04 0.  0.
        2    1    3    3  502    0 -0.59404182237E+02  0.99349239594E+03 -0.37014169741E+03  0.10618666931E+04  0.25500000920E-02 0. -1.
       -2    1    3    3    0  502  0.59404182237E+02 -0.99349239594E+03 -0.21018854917E+03  0.10172193588E+04  0.25500000920E-02 0.  1.
</event>
<event>
 5   0  0.4447313E-05  0.1996993E+04  0.7818609E-02  0.8608028E-01
       -2   -1    0    0    0  501  0.00000000000E+00  0.00000000000E+00  0.95992638164E+03  0.95992638164E+03  0.25500000920E-02 0.  1.
        2   -1    0    0  501    0  0.00000000000E+00  0.00000000000E+00 -0.10386168244E+04  0.10386168244E+04  0.25500000920E-02 0. -1.
    10030    2    1    2    0    0  0.00000000000E+00  0.00000000000E+00 -0.78690442791E+02  0.19985432061E+04  0.19969934303E+04 0.  0.
        5    1    3    3  502    0 -0.11083321909E+03  0.83700083050E+03  0.49409677412E+03  0.97826791060E+03  0.46999998093E+01 0.  1.
       -5    1    3    3    0  502  0.11083321909E+03 -0.83700083050E+03 -0.57278721691E+03  0.10202752955E+04  0.46999998093E+01 0. -1.
</event>
<event>
 5   0  0.2007644E-05  0.1992315E+04  0.7818609E-02  0.8610222E-01
        1   -1    0    0  501    0  0.00000000000E+00  0.00000000000E+00  0.96609845595E+03  0.96609845596E+03  0.50400001928E-02 0.  1.
       -1   -1    0    0    0  501  0.00000000000E+00  0.00000000000E+00 -0.10271517454E+04  0.10271517454E+04  0.50400001928E-02 0. -1.
    10030    2    1    2    0    0  0.00000000000E+00  0.00000000000E+00 -0.61053289485E+02  0.19932502014E+04  0.19923149503E+04 0.  0.
        1    1    3    3  502    0 -0.44605683122E+03 -0.12225696105E+02 -0.92157010114E+03  0.10239177778E+04  0.50400001928E-02 0. -1.
       -1    1    3    3    0  502  0.44605683122E+03  0.12225696105E+02  0.86051681165E+03  0.96933242362E+03  0.50400001928E-02 0.  1.
</event>
<event>
 5   0  0.4412054E-05  0.1989936E+04  0.7818609E-02  0.8611340E-01
        2   -1    0    0  501    0  0.00000000000E+00  0.00000000000E+00  0.14164179878E+04  0.14164179878E+04  0.25500000920E-02 0.  1.
       -2   -1    0    0    0  501  0.00000000000E+00  0.00000000000E+00 -0.69891905999E+03  0.69891906000E+03  0.25500000920E-02 0. -1.
    10030    2    1    2    0    0  0.00000000000E+00  0.00000000000E+00  0.71749892780E+03  0.21153370478E+04  0.19899362086E+04 0.  0.
        4    1    3    3  502    0 -0.21355140719E+03  0.67381770708E+03 -0.38560984019E+03  0.80519008168E+03  0.12699999809E+01 0. -1.
       -4    1    3    3    0  502  0.21355140719E+03 -0.67381770708E+03  0.11031087680E+04  0.13101469661E+04  0.12699999809E+01 0.  1.
</event>
<event>
 5   0  0.4514680E-05  0.1998262E+04  0.7818609E-02  0.8607434E-01
       -2   -1    0    0    0  501  0.00000000000E+00  0.00000000000E+00  0.67408978488E+03  0.67408978488E+03  0.25500000920E-02 0. -1.
        2   -1    0    0  501    0  0.00000000000E+00  0.00000000000E+00 -0.14809048857E+04  0.14809048857E+04  0.25500000920E-02 0.  1.
    10030    2    1    2    0    0  0.00000000000E+00  0.00000000000E+00 -0.80681510078E+03  0.21549946705E+04  0.19982621007E+04 0.  0.
        3    1    3    3  502    0 -0.32080828319E+03 -0.50012012399E+03 -0.12696695404E+04  0.14018198333E+04  0.10100000352E+00 0.  1.
       -3    1    3    3    0  502  0.32080828319E+03  0.50012012399E+03  0.46285443963E+03  0.75317483725E+03  0.10100000352E+00 0. -1.
</event>
<event>
 5   0  0.4447313E-05  0.2002534E+04  0.7818609E-02  0.8605437E-01
        2   -1    0    0  501    0  0.00000000000E+00  0.00000000000E+00  0.14653330598E+04  0.14653330598E+04  0.25500000920E-02 0.  1.
       -2   -1    0    0    0  501  0.00000000000E+00  0.00000000000E+00 -0.68416935351E+03  0.68416935352E+03  0.25500000920E-02 0. -1.
    10030    2    1    2    0    0  0.00000000000E+00  0.00000000000E+00  0.78116370631E+03  0.21495024133E+04  0.20025343665E+04 0.  0.
        5    1    3    3  502    0  0.30657629650E+03  0.52166735780E+03  0.12468680796E+04  0.13859393766E+04  0.46999998093E+01 0.  1.
       -5    1    3    3    0  502 -0.30657629650E+03 -0.52166735780E+03 -0.46570437327E+03  0.76356303673E+03  0.46999998093E+01 0. -1.
</event>
<event>
 5   0  0.4514680E-05  0.2003473E+04  0.7818609E-02  0.8604999E-01
       -2   -1    0    0    0  501  0.00000000000E+00  0.00000000000E+00  0.85365227313E+03  0.85365227314E+03  0.25500000920E-02 0. -1.
        2   -1    0    0  501    0  0.00000000000E+00  0.00000000000E+00 -0.11755090715E+04  0.11755090715E+04  0.25500000920E-02 0.  1.
    10030    2    1    2    0    0  0.00000000000E+00  0.00000000000E+00 -0.32185679840E+03  0.20291613447E+04  0.20034729756E+04 0.  0.
        3    1    3    3  502    0 -0.59550185457E+02 -0.90852581239E+03  0.26217255339E+03  0.94747022872E+03  0.10100000352E+00 0. -1.
       -3    1    3    3    0  502  0.59550185457E+02  0.90852581239E+03 -0.58402935179E+03  0.10816911159E+04  0.10100000352E+00 0.  1.
</event>
<event>
 5   0  0.2142551E-05  0.2014414E+04  0.7818609E-02  0.8599911E-01
        1   -1    0    0  501    0  0.00000000000E+00  0.00000000000E+00  0.11686535263E+04  0.11686535263E+04  0.50400001928E-02 0.  1.
       -1   -1    0    0    0  501  0.00000000000E+00  0.00000000000E+00 -0.86806373009E+03  0.86806373011E+03  0.50400001928E-02 0. -1.
    10030    2    1    2    0    0  0.00000000000E+00  0.00000000000E+00  0.30058979620E+03  0.20367172564E+04  0.20144137998E+04 0.  0.
        3    1    3    3  502    0  0.80024790682E+03 -0.17486705776E+03 -0.44227479857E+03  0.93090397352E+03  0.10100000352E+00 0. -1.
       -3    1    3    3    0  502 -0.80024790682E+03  0.17486705776E+03  0.74286459477E+03  0.11058132829E+04  0.10100000352E+00 0.  1.
</event>
<event>
 5   0  0.2142551E-05  0.2002647E+04  0.7818609E-02  0.8605384E-01
       -1   -1    0    0    0  501  0.00000000000E+00  0.00000000000E+00  0.66703826757E+03  0.66703826759E+03  0.50400001928E-02 0. -1.
        1   -1    0    0  501    0  0.00000000000E+00  0.00000000000E+00 -0.15031352152E+04  0.15031352152E+04  0.50400001928E-02 0.  1.
    10030    2    1    2    0    0  0.00000000000E+00  0.00000000000E+00 -0.83609694760E+03  0.21701734828E+04  0.20026469583E+04 0.  0.
        3    1    3    3  502    0 -0.76826089966E+03 -0.55011944923E+03 -0.58980759308E+02  0.94674968103E+03  0.10100000352E+00 0. -1.
       -3    1    3    3    0  502  0.76826089966E+03  0.55011944923E+03 -0.77711618829E+03  0.12234238017E+04  0.10100000352E+00 0.  1.
</event>
<event>
 5   0  0.4412054E-05  0.1996174E+04  0.7818609E-02  0.8608411E-01
        2   -1    0    0  501    0  0.00000000000E+00  0.00000000000E+00  0.68801541748E+03  0.68801541748E+03  0.25500000920E-02 0. -1.
       -2   -1    0    0    0  501  0.00000000000E+00  0.00000000000E+00 -0.14479008839E+04  0.14479008839E+04  0.25500000920E-02 0.  1.
    10030    2    1    2    0    0  0.00000000000E+00  0.00000000000E+00 -0.75988546640E+03  0.21359163014E+04  0.19961744724E+04 0.  0.
        4    1    3    3  502    0  0.25863540468E+02  0.63597146658E+03  0.44267310743E+03  0.77529976265E+03  0.12699999809E+01 0. -1.
       -4    1    3    3    0  502 -0.25863540468E+02 -0.63597146658E+03 -0.12025585738E+04  0.13606165387E+04  0.12699999809E+01 0.  1.
</event>
<event>
 5   0  0.2256868E-05  0.1993190E+04  0.7818609E-02  0.8609811E-01
       -1   -1    0    0    0  501  0.00000000000E+00  0.00000000000E+00  0.14943842604E+04  0.14943842604E+04  0.50400001928E-02 0. -1.
        1   -1    0    0  501    0  0.00000000000E+00  0.00000000000E+00 -0.66462293818E+03  0.66462293820E+03  0.50400001928E-02 0.  1.
    10030    2    1    2    0    0  0.00000000000E+00  0.00000000000E+00  0.82976132219E+03  0.21590071986E+04  0.19931904655E+04 0.  0.
        5    1    3    3  502    0  0.79656636385E+03 -0.48841200885E+03  0.39471222423E+02  0.93522421365E+03  0.46999998093E+01 0.  1.
       -5    1    3    3    0  502 -0.79656636385E+03  0.48841200885E+03  0.79029009977E+03  0.12237829849E+04  0.46999998093E+01 0. -1.
</event>
<event>
 5   0  0.1601500E-05  0.1998131E+04  0.7818609E-02  0.8607495E-01
       -3   -1    0    0    0  501  0.00000000000E+00  0.00000000000E+00  0.13510033610E+04  0.13510033648E+04  0.10100000352E+00 0.  1.
        3   -1    0    0  501    0  0.00000000000E+00  0.00000000000E+00 -0.73880798596E+03  0.73880799287E+03  0.10100000352E+00 0. -1.
    10030    2    1    2    0    0  0.00000000000E+00  0.00000000000E+00  0.61219537505E+03  0.20898113577E+04  0.19981312102E+04 0.  0.
        3    1    3    3  502    0  0.74196448627E+03  0.62565249270E+03  0.55399562632E+03  0.11175256170E+04  0.10100000352E+00 0.  1.
       -3    1    3    3    0  502 -0.74196448627E+03 -0.62565249270E+03  0.58199748736E+02  0.97228574065E+03  0.10100000352E+00 0. -1.
</event>
<event>
 5   0  0.2142551E-05  0.2002720E+04  0.7818609E-02  0.8605350E-01
        1   -1    0    0  501    0  0.00000000000E+00  0.00000000000E+00  0.72527363029E+03  0.72527363030E+03  0.50400001928E-02 0. -1.
       -1   -1    0    0    0  501  0.00000000000E+00  0.00000000000E+00 -0.13825425685E+04  0.13825425685E+04  0.50400001928E-02 0.  1.
    10030    2    1    2    0    0  0.00000000000E+00  0.00000000000E+00 -0.65726893821E+03  0.21078161988E+04  0.20027198184E+04 0.  0.
        3    1    3    3  502    0 -0.29639432156E+03 -0.11928683763E+03 -0.13274581084E+04  0.13653658789E+04  0.10100000352E+00 0.  1.
       -3    1    3    3    0  502  0.29639432156E+03  0.11928683763E+03  0.67018917020E+03  0.74245031991E+03  0.10100000352E+00 0. -1.
</event>
<event>
 5   0  0.1601500E-05  0.1995780E+04  0.7818609E-02  0.8608596E-01
       -3   -1    0    0    0  501  0.00000000000E+00  0.00000000000E+00  0.70876651537E+03  0.70876652256E+03  0.10100000352E+00 0. -1.
        3   -1    0    0  501    0  0.00000000000E+00  0.00000000000E+00 -0.14049543924E+04  0.14049543961E+04  0.10100000352E+00 0.  1.
    10030    2    1    2    0    0  0.00000000000E+00  0.00000000000E+00 -0.69618787707E+03  0.21137209186E+04  0.19957801887E+04 0.  0.
        4    1    3    3  502    0  0.32892059880E+03 -0.67714890066E+03 -0.10418324296E+04  0.12853543551E+04  0.12699999809E+01 0.  1.
       -4    1    3    3    0  502 -0.32892059880E+03  0.67714890066E+03  0.34564455251E+03  0.82836656352E+03  0.12699999809E+01 0. -1.
</event>
<event>
 5   0  0.2142551E-05  0.1949062E+04  0.7818609E-02  0.8630813E-01
        1   -1    0    0  501    0  0.00000000000E+00  0.00000000000E+00  0.17475496405E+04  0.17475496405E+04  0.50400001928E-02 0. -1.
       -1   -1    0    0    0  501  0.00000000000E+00  0.00000000000E+00 -0.54345267607E+03  0.54345267609E+03  0.50400001928E-02 0.  1.
    10030    2    1    2    0    0  0.00000000000E+00  0.00000000000E+00  0.12040969644E+04  0.22910023166E+04  0.19490618551E+04 0.  0.
        3    1    3    3  502    0  0.25610914525E+03  0.75567304268E+03 -0.55647823876E+02  0.79983143987E+03  0.10100000352E+00 0.  1.
       -3    1    3    3    0  502 -0.25610914525E+03 -0.75567304268E+03  0.12597447883E+04  0.14911708767E+04  0.10100000352E+00 0. -1.
</event>
<event>
 5   0  0.4577279E-05  0.1999600E+04  0.7818609E-02  0.8606808E-01
        2   -1    0    0  501    0  0.00000000000E+00  0.00000000000E+00  0.23171015863E+04  0.23171015863E+04  0.25500000920E-02 0. -1.
       -2   -1    0    0    0  501  0.00000000000E+00  0.00000000000E+00 -0.43140106137E+03  0.43140106138E+03  0.25500000920E-02 0.  1.
    10030    2    1    2    0    0  0.00000000000E+00  0.00000000000E+00  0.18857005250E+04  0.27485026477E+04  0.19996000437E+04 0.  0.
        1    1    3    3  502    0 -0.28329748803E+03 -0.41499707453E+03  0.21309371873E+04  0.21893773852E+04  0.50400001928E-02 0. -1.
       -1    1    3    3    0  502  0.28329748803E+03  0.41499707453E+03 -0.24523666234E+03  0.55912526251E+03  0.50400001928E-02 0.  1.
</event>
<event>
 5   0  0.2093980E-05  0.1994255E+04  0.7818609E-02  0.8609311E-01
       -1   -1    0    0    0  501  0.00000000000E+00  0.00000000000E+00  0.98600203347E+03  0.98600203348E+03  0.50400001928E-02 0. -1.
        1   -1    0    0  501    0  0.00000000000E+00  0.00000000000E+00 -0.10083783120E+04  0.10083783120E+04  0.50400001928E-02 0.  1.
    10030    2    1    2    0    0  0.00000000000E+00  0.00000000000E+00 -0.22376278561E+02  0.19943803455E+04  0.19942548144E+04 0.  0.
        2    1    3    3  502    0 -0.61490220002E+03  0.31969293373E+03 -0.72813966061E+03  0.10052341284E+04  0.25500000920E-02 0.  1.
       -2    1    3    3    0  502  0.61490220002E+03 -0.31969293373E+03  0.70576338205E+03  0.98914621716E+03  0.25500000920E-02 0. -1.
</event>
<event>
 5   0  0.2142551E-05  0.2002386E+04  0.7818609E-02  0.8605506E-01
       -1   -1    0    0    0  501  0.00000000000E+00  0.00000000000E+00  0.63649476482E+03  0.63649476484E+03  0.50400001928E-02 0.  1.
        1   -1    0    0  501    0  0.00000000000E+00  0.00000000000E+00 -0.15748553786E+04  0.15748553786E+04  0.50400001928E-02 0. -1.
    10030    2    1    2    0    0  0.00000000000E+00  0.00000000000E+00 -0.93836061380E+03  0.22113501435E+04  0.20023857809E+04 0.  0.
        3    1    3    3  502    0  0.96960420002E+03  0.24702309551E+03 -0.50798208766E+03  0.11221401543E+04  0.10100000352E+00 0.  1.
       -3    1    3    3    0  502 -0.96960420002E+03 -0.24702309551E+03 -0.43037852615E+03  0.10892099891E+04  0.10100000352E+00 0. -1.
</event>
<event>
 5   0  0.2093980E-05  0.1969701E+04  0.7818609E-02  0.8620919E-01
       -1   -1    0    0    0  501  0.00000000000E+00  0.00000000000E+00  0.11533109437E+04  0.11533109437E+04  0.50400001928E-02 0. -1.
        1   -1    0    0  501    0  0.00000000000E+00  0.00000000000E+00 -0.84099693243E+03  0.84099693245E+03  0.50400001928E-02 0.  1.
    10030    2    1    2    0    0  0.00000000000E+00  0.00000000000E+00  0.31231401130E+03  0.19943078762E+04  0.19697014655E+04 0.  0.
        2    1    3    3  502    0  0.71562152258E+03 -0.44199963248E+03  0.67485870676E+03  0.10783840284E+04  0.25500000920E-02 0. -1.
       -2    1    3    3    0  502 -0.71562152258E+03  0.44199963248E+03 -0.36254469545E+03  0.91592384776E+03  0.25500000920E-02 0.  1.
</event>
<event>
 5   0  0.2142551E-05  0.2002550E+04  0.7818609E-02  0.8605429E-01
       -1   -1    0    0    0  501  0.00000000000E+00  0.00000000000E+00  0.12937540130E+04  0.12937540130E+04  0.50400001928E-02 0. -1.
        1   -1    0    0  501    0  0.00000000000E+00  0.00000000000E+00 -0.77491659609E+03  0.77491659610E+03  0.50400001928E-02 0.  1.
    10030    2    1    2    0    0  0.00000000000E+00  0.00000000000E+00  0.51883741695E+03  0.20686706091E+04  0.20025498306E+04 0.  0.
        3    1    3    3  502    0 -0.83063021925E+02 -0.20907815947E+03 -0.74846961420E+03  0.78154968873E+03  0.10100000352E+00 0.  1.
       -3    1    3    3    0  502  0.83063021925E+02  0.20907815947E+03  0.12673070311E+04  0.12871209204E+04  0.10100000352E+00 0. -1.
</event>
<event>
 5   0  0.4447313E-05  0.1999090E+04  0.7818609E-02  0.8607046E-01
        2   -1    0    0  501    0  0.00000000000E+00  0.00000000000E+00  0.13355254116E+04  0.13355254116E+04  0.25500000920E-02 0. -1.
       -2   -1    0    0    0  501  0.00000000000E+00  0.00000000000E+00 -0.74808750796E+03  0.74808750797E+03  0.25500000920E-02 0.  1.
    10030    2    1    2    0    0  0.00000000000E+00  0.00000000000E+00  0.58743790359E+03  0.20836129195E+04  0.19990896698E+04 0.  0.
        5    1    3    3  502    0 -0.52668947580E+03  0.29973400352E+03 -0.53476355917E+03  0.80823043187E+03  0.46999998093E+01 0.  1.
       -5    1    3    3    0  502  0.52668947580E+03 -0.29973400352E+03  0.11222014628E+04  0.12753824877E+04  0.46999998093E+01 0. -1.
</event>
<event>
 5   0  0.4577279E-05  0.1991181E+04  0.7818609E-02  0.8610755E-01
       -2   -1    0    0    0  501  0.00000000000E+00  0.00000000000E+00  0.45094404849E+03  0.45094404850E+03  0.25500000920E-02 0.  1.
        2   -1    0    0  501    0  0.00000000000E+00  0.00000000000E+00 -0.21980558981E+04  0.21980558981E+04  0.25500000920E-02 0. -1.
    10030    2    1    2    0    0  0.00000000000E+00  0.00000000000E+00 -0.17471118496E+04  0.26489999466E+04  0.19911807809E+04 0.  0.
        1    1    3    3  502    0  0.25136851604E+03 -0.66514627550E+03 -0.18006165789E+04  0.19359302061E+04  0.50400001928E-02 0. -1.
       -1    1    3    3    0  502 -0.25136851604E+03  0.66514627550E+03  0.53504729332E+02  0.71306974046E+03  0.50400001928E-02 0.  1.
</event>
<event>
 5   0  0.2007644E-05  0.2003077E+04  0.7818609E-02  0.8605184E-01
        1   -1    0    0  501    0  0.00000000000E+00  0.00000000000E+00  0.12941590026E+04  0.12941590027E+04  0.50400001928E-02 0. -1.
       -1   -1    0    0    0  501  0.00000000000E+00  0.00000000000E+00 -0.77508167656E+03  0.77508167658E+03  0.50400001928E-02 0.  1.
    10030    2    1    2    0    0  0.00000000000E+00  0.00000000000E+00  0.51907732608E+03  0.20692406792E+04  0.20030765632E+04 0.  0.
        1    1    3    3  502    0  0.32397287025E+03  0.39148741424E+03 -0.63202063660E+03  0.81096911241E+03  0.50400001928E-02 0.  1.
       -1    1    3    3    0  502 -0.32397287025E+03 -0.39148741424E+03  0.11510979627E+04  0.12582715668E+04  0.50400001928E-02 0. -1.
</event>
<event>
 5   0  0.4473361E-05  0.2119691E+04  0.7818609E-02  0.8552619E-01
       -2   -1    0    0    0  501  0.00000000000E+00  0.00000000000E+00  0.52604585332E+03  0.52604585332E+03  0.25500000920E-02 0.  1.
        2   -1    0    0  501    0  0.00000000000E+00  0.00000000000E+00 -0.21353133399E+04  0.21353133399E+04  0.25500000920E-02 0. -1.
    10030    2    1    2    0    0  0.00000000000E+00  0.00000000000E+00 -0.16092674866E+04  0.26613591932E+04  0.21196912304E+04 0.  0.
        2    1    3    3  502    0 -0.53631301723E+03  0.91019693802E+03 -0.69822629703E+03  0.12663372696E+04  0.25500000920E-02 0.  1.
       -2    1    3    3    0  502  0.53631301723E+03 -0.91019693802E+03 -0.91104118958E+03  0.13950219237E+04  0.25500000920E-02 0. -1.
</event>
<event>
 5   0  0.4447313E-05  0.2010800E+04  0.7818609E-02  0.8601588E-01
        2   -1    0    0  501    0  0.00000000000E+00  0.00000000000E+00  0.11731604092E+04  0.11731604092E+04  0.25500000920E-02 0.  1.
       -2   -1    0    0    0  501  0.00000000000E+00  0.00000000000E+00 -0.86162930743E+03  0.86162930743E+03  0.25500000920E-02 0. -1.
    10030    2    1    2    0    0  0.00000000000E+00  0.00000000000E+00  0.31153110178E+03  0.20347897166E+04  0.20108002296E+04 0.  0.
        5    1    3    3  502    0  0.67242987729E+03 -0.41743329861E+03 -0.47162700476E+03  0.92133957924E+03  0.46999998093E+01 0. -1.
       -5    1    3    3    0  502 -0.67242987729E+03  0.41743329861E+03  0.78315810653E+03  0.11134501374E+04  0.46999998093E+01 0.  1.
</event>
<event>
 5   0  0.2093980E-05  0.2072482E+04  0.7818609E-02  0.8573463E-01
       -1   -1    0    0    0  501  0.00000000000E+00  0.00000000000E+00  0.78989962739E+03  0.78989962740E+03  0.50400001928E-02 0. -1.
        1   -1    0    0  501    0  0.00000000000E+00  0.00000000000E+00 -0.13594073027E+04  0.13594073027E+04  0.50400001928E-02 0.  1.
    10030    2    1    2    0    0  0.00000000000E+00  0.00000000000E+00 -0.56950767527E+03  0.21493069301E+04  0.20724819149E+04 0.  0.
        2    1    3    3  502    0  0.81718589638E+03  0.67462831476E+02 -0.94184272622E+03  0.12487640865E+04  0.25500000920E-02 0.  1.
       -2    1    3    3    0  502 -0.81718589638E+03 -0.67462831476E+02  0.37233505095E+03  0.90054284354E+03  0.25500000920E-02 0. -1.
</event>
<event>
 5   0  0.4473361E-05  0.2013292E+04  0.7818609E-02  0.8600431E-01
       -2   -1    0    0    0  501  0.00000000000E+00  0.00000000000E+00  0.46992020025E+03  0.46992020026E+03  0.25500000920E-02 0.  1.
        2   -1    0    0  501    0  0.00000000000E+00  0.00000000000E+00 -0.21564010548E+04  0.21564010548E+04  0.25500000920E-02 0. -1.
    10030    2    1    2    0    0  0.00000000000E+00  0.00000000000E+00 -0.16864808546E+04  0.26263212551E+04  0.20132922446E+04 0.  0.
        2    1    3    3  502    0  0.78708995213E+03  0.46187787285E+03 -0.28903190640E+03  0.95727801870E+03  0.25500000920E-02 0.  1.
       -2    1    3    3    0  502 -0.78708995213E+03 -0.46187787285E+03 -0.13974489482E+04  0.16690432364E+04  0.25500000920E-02 0. -1.
</event>
<event>
 5   0  0.4514680E-05  0.1997422E+04  0.7818609E-02  0.8607827E-01
        2   -1    0    0  501    0  0.00000000000E+00  0.00000000000E+00  0.13918875460E+04  0.13918875460E+04  0.25500000920E-02 0. -1.
       -2   -1    0    0    0  501  0.00000000000E+00  0.00000000000E+00 -0.71659762737E+03  0.71659762737E+03  0.25500000920E-02 0.  1.
    10030    2    1    2    0    0  0.00000000000E+00  0.00000000000E+00  0.67528991867E+03  0.21084851734E+04  0.19974216511E+04 0.  0.
        3    1    3    3  502    0 -0.63775212324E+02  0.89388825276E+03  0.80297312916E+03  0.12032744253E+04  0.10100000352E+00 0. -1.
       -3    1    3    3    0  502  0.63775212324E+02 -0.89388825276E+03 -0.12768321049E+03  0.90521074815E+03  0.10100000352E+00 0.  1.
</event>
<event>
 5   0  0.1601500E-05  0.1995580E+04  0.7818609E-02  0.8608690E-01
       -3   -1    0    0    0  501  0.00000000000E+00  0.00000000000E+00  0.15647319366E+04  0.15647319398E+04  0.10100000352E+00 0. -1.
        3   -1    0    0  501    0  0.00000000000E+00  0.00000000000E+00 -0.63626556290E+03  0.63626557091E+03  0.10100000352E+00 0.  1.
    10030    2    1    2    0    0  0.00000000000E+00  0.00000000000E+00  0.92846637367E+03  0.22009975107E+04  0.19955801751E+04 0.  0.
        2    1    3    3  502    0 -0.22439231869E+03 -0.87330191151E+03 -0.70406234638E+01  0.90169712860E+03  0.25500000920E-02 0. -1.
       -2    1    3    3    0  502  0.22439231869E+03  0.87330191151E+03  0.93550699713E+03  0.12993003821E+04  0.25500000920E-02 0.  1.
</event>
<event>
 5   0  0.2256868E-05  0.2000139E+04  0.7818609E-02  0.8606556E-01
        1   -1    0    0  501    0  0.00000000000E+00  0.00000000000E+00  0.18263346830E+04  0.18263346830E+04  0.50400001928E-02 0.  1.
       -1   -1    0    0    0  501  0.00000000000E+00  0.00000000000E+00 -0.54762063379E+03  0.54762063381E+03  0.50400001928E-02 0. -1.
    10030    2    1    2    0    0  0.00000000000E+00  0.00000000000E+00  0.12787140492E+04  0.23739553168E+04  0.20001385519E+04 0.  0.
        5    1    3    3  502    0 -0.50288418476E+03 -0.84528619134E+03  0.42467910921E+03  0.10713429350E+04  0.46999998093E+01 0. -1.
       -5    1    3    3    0  502  0.50288418476E+03  0.84528619134E+03  0.85403494002E+03  0.13026123818E+04  0.46999998093E+01 0.  1.
</event>
<event>
 5   0  0.4577279E-05  0.1969532E+04  0.7818609E-02  0.8620999E-01
        2   -1    0    0  501    0  0.00000000000E+00  0.00000000000E+00  0.14872348158E+04  0.14872348158E+04  0.25500000920E-02 0.  1.
       -2   -1    0    0    0  501  0.00000000000E+00  0.00000000000E+00 -0.65205875565E+03  0.65205875566E+03  0.25500000920E-02 0. -1.
    10030    2    1    2    0    0  0.00000000000E+00  0.00000000000E+00  0.83517606010E+03  0.21392935714E+04  0.19695324149E+04 0.  0.
        1    1    3    3  502    0  0.79375367040E+03 -0.32720495902E+03  0.94150788439E+03  0.12741840804E+04  0.50400001928E-02 0. -1.
       -1    1    3    3    0  502 -0.79375367040E+03  0.32720495902E+03 -0.10633182429E+03  0.86510949097E+03  0.50400001928E-02 0.  1.
</event>
<event>
 5   0  0.2110896E-05  0.2008003E+04  0.7818609E-02  0.8602888E-01
        1   -1    0    0  501    0  0.00000000000E+00  0.00000000000E+00  0.16185399255E+04  0.16185399255E+04  0.50400001928E-02 0. -1.
       -1   -1    0    0    0  501  0.00000000000E+00  0.00000000000E+00 -0.62279546373E+03  0.62279546375E+03  0.50400001928E-02 0.  1.
    10030    2    1    2    0    0  0.00000000000E+00  0.00000000000E+00  0.99574446177E+03  0.22413353893E+04  0.20080033103E+04 0.  0.
        4    1    3    3  502    0 -0.64245213270E+02 -0.84066010151E+03 -0.11061691995E+03  0.85033791494E+03  0.12699999809E+01 0.  1.
       -4    1    3    3    0  502  0.64245213270E+02  0.84066010151E+03  0.11063613817E+04  0.13909974743E+04  0.12699999809E+01 0. -1.
</event>
<event>
 5   0  0.2093980E-05  0.2005779E+04  0.7818609E-02  0.8603924E-01
       -1   -1    0    0    0  501  0.00000000000E+00  0.00000000000E+00  0.52856071153E+03  0.52856071155E+03  0.50400001928E-02 0.  1.
        1   -1    0    0  501    0  0.00000000000E+00  0.00000000000E+00 -0.19028788386E+04  0.19028788386E+04  0.50400001928E-02 0. -1.
    10030    2    1    2    0    0  0.00000000000E+00  0.00000000000E+00 -0.13743181271E+04  0.24314395502E+04  0.20057786448E+04 0.  0.
        2    1    3    3  502    0 -0.80601649800E+03 -0.59271660465E+03 -0.60307429965E+03  0.11681926979E+04  0.25500000920E-02 0.  1.
       -2    1    3    3    0  502  0.80601649800E+03  0.59271660465E+03 -0.77124382744E+03  0.12632468523E+04  0.25500000920E-02 0. -1.
</event>
<event>
 5   0  0.4412054E-05  0.2019987E+04  0.7818609E-02  0.8597333E-01
       -2   -1    0    0    0  501  0.00000000000E+00  0.00000000000E+00  0.67450390260E+03  0.67450390260E+03  0.25500000920E-02 0.  1.
        2   -1    0    0  501    0  0.00000000000E+00  0.00000000000E+00 -0.15123511095E+04  0.15123511095E+04  0.25500000920E-02 0. -1.
    10030    2    1    2    0    0  0.00000000000E+00  0.00000000000E+00 -0.83784720693E+03  0.21868550121E+04  0.20199868569E+04 0.  0.
        4    1    3    3  502    0 -0.37886207776E+03 -0.46051335259E+03 -0.13014163125E+04  0.14315359071E+04  0.12699999809E+01 0. -1.
       -4    1    3    3    0  502  0.37886207776E+03  0.46051335259E+03  0.46356910560E+03  0.75531910504E+03  0.12699999809E+01 0.  1.
</event>
<event>
 5   0  0.4473361E-05  0.2003432E+04  0.7818609E-02  0.8605018E-01
       -2   -1    0    0    0  501  0.00000000000E+00  0.00000000000E+00  0.50954045367E+03  0.50954045367E+03  0.25500000920E-02 0. -1.
        2   -1    0    0  501    0  0.00000000000E+00  0.00000000000E+00 -0.19692948088E+04  0.19692948088E+04  0.25500000920E-02 0.  1.
    10030    2    1    2    0    0  0.00000000000E+00  0.00000000000E+00 -0.14597543551E+04  0.24788352624E+04  0.20034324249E+04 0.  0.
        2    1    3    3  502    0  0.13827002915E+03  0.97379239886E+03 -0.96478435396E+03  0.13777514604E+04  0.25500000920E-02 0.  1.
       -2    1    3    3    0  502 -0.13827002915E+03 -0.97379239886E+03 -0.49497000114E+03  0.11010838020E+04  0.25500000920E-02 0. -1.
</event>
<event>
 5   0  0.4514680E-05  0.2005752E+04  0.7818609E-02  0.8603936E-01
       -2   -1    0    0    0  501  0.00000000000E+00  0.00000000000E+00  0.76484955285E+03  0.76484955286E+03  0.25500000920E-02 0.  1.
        2   -1    0    0  501    0  0.00000000000E+00  0.00000000000E+00 -0.13149784772E+04  0.13149784772E+04  0.25500000920E-02 0. -1.
    10030    2    1    2    0    0  0.00000000000E+00  0.00000000000E+00 -0.55012892432E+03  0.20798280300E+04  0.20057524277E+04 0.  0.
        3    1    3    3  502    0  0.76837578080E+03  0.32512682333E+02 -0.94249912767E+03  0.12164551085E+04  0.10100000352E+00 0. -1.
       -3    1    3    3    0  502 -0.76837578080E+03 -0.32512682333E+02  0.39237020335E+03  0.86337292158E+03  0.10100000352E+00 0.  1.
</event>
<event>
 5   0  0.1601500E-05  0.1998475E+04  0.7818609E-02  0.8607334E-01
       -4   -1    0    0    0  501  0.00000000000E+00  0.00000000000E+00  0.72674350328E+03  0.72674461296E+03  0.12699999809E+01 0.  1.
        4   -1    0    0  501    0  0.00000000000E+00  0.00000000000E+00 -0.13739006455E+04  0.13739012325E+04  0.12699999809E+01 0. -1.
    10030    2    1    2    0    0  0.00000000000E+00  0.00000000000E+00 -0.64715714221E+03  0.21006458454E+04  0.19984745686E+04 0.  0.
        5    1    3    3  502    0 -0.99190478546E+02 -0.31867825118E+03 -0.13135675043E+04  0.13553140807E+04  0.46999998093E+01 0. -1.
       -5    1    3    3    0  502  0.99190478546E+02  0.31867825118E+03  0.66641036212E+03  0.74533176476E+03  0.46999998093E+01 0.  1.
</event>
<event>
 5   0  0.4412054E-05  0.2013745E+04  0.7818609E-02  0.8600221E-01
       -2   -1    0    0    0  501  0.00000000000E+00  0.00000000000E+00  0.45884718748E+03  0.45884718749E+03  0.25500000920E-02 0. -1.
        2   -1    0    0  501    0  0.00000000000E+00  0.00000000000E+00 -0.22094323586E+04  0.22094323586E+04  0.25500000920E-02 0.  1.
    10030    2    1    2    0    0  0.00000000000E+00  0.00000000000E+00 -0.17505851711E+04  0.26682795461E+04  0.20137445952E+04 0.  0.
        4    1    3    3  502    0  0.80953935208E+02 -0.59727741073E+03 -0.19439767560E+04  0.20352742041E+04  0.12699999809E+01 0.  1.
       -4    1    3    3    0  502 -0.80953935208E+02  0.59727741073E+03  0.19339158490E+03  0.63300534200E+03  0.12699999809E+01 0. -1.
</event>
<event>
 5   0  0.4514680E-05  0.1995543E+04  0.7818609E-02  0.8608707E-01
       -2   -1    0    0    0  501  0.00000000000E+00  0.00000000000E+00  0.94835636040E+03  0.94835636041E+03  0.25500000920E-02 0.  1.
        2   -1    0    0  501    0  0.00000000000E+00  0.00000000000E+00 -0.10497619921E+04  0.10497619921E+04  0.25500000920E-02 0. -1.
    10030    2    1    2    0    0  0.00000000000E+00  0.00000000000E+00 -0.10140563171E+03  0.19981183525E+04  0.19955434970E+04 0.  0.
        3    1    3    3  502    0 -0.77921876641E+03  0.27601672990E+03 -0.61015564453E+03  0.10274517224E+04  0.10100000352E+00 0. -1.
       -3    1    3    3    0  502  0.77921876641E+03 -0.27601672990E+03  0.50875001281E+03  0.97066663013E+03  0.10100000352E+00 0.  1.
</event>
<event>
 5   0  0.2142551E-05  0.2009529E+04  0.7818609E-02  0.8602178E-01
        1   -1    0    0  501    0  0.00000000000E+00  0.00000000000E+00  0.79578651425E+03  0.79578651427E+03  0.50400001928E-02 0.  1.
       -1   -1    0    0    0  501  0.00000000000E+00  0.00000000000E+00 -0.12686212799E+04  0.12686212799E+04  0.50400001928E-02 0. -1.
    10030    2    1    2    0    0  0.00000000000E+00  0.00000000000E+00 -0.47283476564E+03  0.20644077942E+04  0.20095290058E+04 0.  0.
        3    1    3    3  502    0  0.65976481538E+03  0.84683738122E+02 -0.10100370325E+04  0.12093947926E+04  0.10100000352E+00 0. -1.
       -3    1    3    3    0  502 -0.65976481538E+03 -0.84683738122E+02  0.53720226688E+03  0.85501300157E+03  0.10100000352E+00 0.  1.
</event>
<event>
 5   0  0.4514680E-05  0.1994239E+04  0.7818609E-02  0.8609319E-01
        2   -1    0    0  501    0  0.00000000000E+00  0.00000000000E+00  0.11364280414E+04  0.11364280414E+04  0.25500000920E-02 0.  1.
       -2   -1    0    0    0  501  0.00000000000E+00  0.00000000000E+00 -0.87488822108E+03  0.87488822108E+03  0.25500000920E-02 0. -1.
    10030    2    1    2    0    0  0.00000000000E+00  0.00000000000E+00  0.26153982034E+03  0.20113162625E+04  0.19942392109E+04 0.  0.
        3    1    3    3  502    0  0.92580819371E+03  0.33891486897E+03 -0.19717037425E+02  0.98608968746E+03  0.10100000352E+00 0. -1.
       -3    1    3    3    0  502 -0.92580819371E+03 -0.33891486897E+03  0.28125685777E+03  0.10252265750E+04  0.10100000352E+00 0.  1.
</event>
<event>
 5   0  0.2093980E-05  0.2032766E+04  0.7818609E-02  0.8591453E-01
       -1   -1    0    0    0  501  0.00000000000E+00  0.00000000000E+00  0.11328421752E+04  0.11328421752E+04  0.50400001928E-02 0.  1.
        1   -1    0    0  501    0  0.00000000000E+00  0.00000000000E+00 -0.91189620831E+03  0.91189620832E+03  0.50400001928E-02 0. -1.
    10030    2    1    2    0    0  0.00000000000E+00  0.00000000000E+00  0.22094596693E+03  0.20447383836E+04  0.20327660802E+04 0.  0.
        2    1    3    3  502    0  0.22324124213E+03  0.58293255370E+03 -0.69636557294E+03  0.93518555674E+03  0.25500000920E-02 0. -1.
       -2    1    3    3    0  502 -0.22324124213E+03 -0.58293255370E+03  0.91731153987E+03  0.11095528268E+04  0.25500000920E-02 0.  1.
</event>
<event>
 5   0  0.2007644E-05  0.1992394E+04  0.7818609E-02  0.8610185E-01
       -1   -1    0    0    0  501  0.00000000000E+00  0.00000000000E+00  0.44358017947E+03  0.44358017950E+03  0.50400001928E-02 0.  1.
        1   -1    0    0  501    0  0.00000000000E+00  0.00000000000E+00 -0.22372689160E+04  0.22372689160E+04  0.50400001928E-02 0. -1.
    10030    2    1    2    0    0  0.00000000000E+00  0.00000000000E+00 -0.17936887365E+04  0.26808490955E+04  0.19923936833E+04 0.  0.
        1    1    3    3  502    0 -0.46809706100E+02 -0.13808060689E+03  0.42914650824E+03  0.45323738608E+03  0.50400001928E-02 0.  1.
       -1    1    3    3    0  502  0.46809706100E+02  0.13808060689E+03 -0.22228352448E+04  0.22276117094E+04  0.50400001928E-02 0. -1.
</event>
<event>
 5   0  0.4412054E-05  0.2014427E+04  0.7818609E-02  0.8599905E-01
       -2   -1    0    0    0  501  0.00000000000E+00  0.00000000000E+00  0.56006644514E+03  0.56006644515E+03  0.25500000920E-02 0. -1.
        2   -1    0    0  501    0  0.00000000000E+00  0.00000000000E+00 -0.18113547606E+04  0.18113547606E+04  0.25500000920E-02 0.  1.
    10030    2    1    2    0    0  0.00000000000E+00  0.00000000000E+00 -0.12512883154E+04  0.23714212057E+04  0.20144269872E+04 0.  0.
        4    1    3    3  502    0  0.73370778543E+03 -0.34141683502E+03  0.80279691298E+02  0.81322752743E+03  0.12699999809E+01 0. -1.
       -4    1    3    3    0  502 -0.73370778543E+03  0.34141683502E+03 -0.13315680067E+04  0.15581936783E+04  0.12699999809E+01 0.  1.
</event>
<event>
 5   0  0.4412054E-05  0.1999287E+04  0.7818609E-02  0.8606954E-01
       -2   -1    0    0    0  501  0.00000000000E+00  0.00000000000E+00  0.47318097064E+03  0.47318097065E+03  0.25500000920E-02 0.  1.
        2   -1    0    0  501    0  0.00000000000E+00  0.00000000000E+00 -0.21118487959E+04  0.21118487959E+04  0.25500000920E-02 0. -1.
    10030    2    1    2    0    0  0.00000000000E+00  0.00000000000E+00 -0.16386678252E+04  0.25850297665E+04  0.19992865358E+04 0.  0.
        4    1    3    3  502    0  0.37651958192E+02  0.68068623176E+03 -0.17646521265E+04  0.18917584826E+04  0.12699999809E+01 0. -1.
       -4    1    3    3    0  502 -0.37651958192E+02 -0.68068623176E+03  0.12598430125E+03  0.69327128393E+03  0.12699999809E+01 0.  1.
</event>
<event>
 5   0  0.4412054E-05  0.1989657E+04  0.7818609E-02  0.8611472E-01
        2   -1    0    0  501    0  0.00000000000E+00  0.00000000000E+00  0.18060068851E+04  0.18060068851E+04  0.25500000920E-02 0. -1.
       -2   -1    0    0    0  501  0.00000000000E+00  0.00000000000E+00 -0.54799537794E+03  0.54799537794E+03  0.25500000920E-02 0.  1.
    10030    2    1    2    0    0  0.00000000000E+00  0.00000000000E+00  0.12580115071E+04  0.23540022630E+04  0.19896566795E+04 0.  0.
        4    1    3    3  502    0  0.78170903406E+03 -0.80091885214E+02  0.13508039642E+04  0.15627401212E+04  0.12699999809E+01 0. -1.
       -4    1    3    3    0  502 -0.78170903406E+03  0.80091885214E+02 -0.92792457040E+02  0.79126214177E+03  0.12699999809E+01 0.  1.
</event>
<event>
 5   0  0.1601500E-05  0.1996307E+04  0.7818609E-02  0.8608349E-01
       -3   -1    0    0    0  501  0.00000000000E+00  0.00000000000E+00  0.16973502873E+04  0.16973502903E+04  0.10100000352E+00 0. -1.
        3   -1    0    0  501    0  0.00000000000E+00  0.00000000000E+00 -0.58697989282E+03  0.58697990151E+03  0.10100000352E+00 0.  1.
    10030    2    1    2    0    0  0.00000000000E+00  0.00000000000E+00  0.11103703945E+04  0.22843301918E+04  0.19963070937E+04 0.  0.
        5    1    3    3  502    0 -0.79594526397E+03  0.21934181732E+03  0.11970514056E+04  0.14541643146E+04  0.46999998093E+01 0. -1.
       -5    1    3    3    0  502  0.79594526397E+03 -0.21934181732E+03 -0.86681011130E+02  0.83016587725E+03  0.46999998093E+01 0.  1.
</event>
<event>
 5   0  0.2007644E-05  0.2004313E+04  0.7818609E-02  0.8604607E-01
        1   -1    0    0  501    0  0.00000000000E+00  0.00000000000E+00  0.31814663210E+03  0.31814663214E+03  0.50400001928E-02 0. -1.
       -1   -1    0    0    0  501  0.00000000000E+00  0.00000000000E+00 -0.31567750538E+04  0.31567750538E+04  0.50400001928E-02 0.  1.
    10030    2    1    2    0    0  0.00000000000E+00  0.00000000000E+00 -0.28386284217E+04  0.34749216860E+04  0.20043127019E+04 0.  0.
        1    1    3    3  502    0  0.64985387284E+03  0.19317348642E+03 -0.26988568474E+04  0.27827062969E+04  0.50400001928E-02 0.  1.
       -1    1    3    3    0  502 -0.64985387284E+03 -0.19317348642E+03 -0.13977157434E+03  0.69221538911E+03  0.50400001928E-02 0. -1.
</event>
<event>
 5   0  0.4514680E-05  0.2009427E+04  0.7818609E-02  0.8602226E-01
       -2   -1    0    0    0  501  0.00000000000E+00  0.00000000000E+00  0.99297996289E+03  0.99297996289E+03  0.25500000920E-02 0.  1.
        2   -1    0    0  501    0  0.00000000000E+00  0.00000000000E+00 -0.10165853115E+04  0.10165853115E+04  0.25500000920E-02 0. -1.
    10030    2    1    2    0    0  0.00000000000E+00  0.00000000000E+00 -0.23605348623E+02  0.20095652744E+04  0.20094266296E+04 0.  0.
        3    1    3    3  502    0  0.60667831732E+03 -0.65061253745E+03  0.45523445146E+03  0.99929658790E+03  0.10100000352E+00 0.  1.
       -3    1    3    3    0  502 -0.60667831732E+03  0.65061253745E+03 -0.47883980008E+03  0.10102686865E+04  0.10100000352E+00 0. -1.
</event>
<event>
 5   0  0.4577279E-05  0.1999750E+04  0.7818609E-02  0.8606738E-01
        2   -1    0    0  501    0  0.00000000000E+00  0.00000000000E+00  0.14845439192E+04  0.14845439192E+04  0.25500000920E-02 0. -1.
       -2   -1    0    0    0  501  0.00000000000E+00  0.00000000000E+00 -0.67343889286E+03  0.67343889286E+03  0.25500000920E-02 0.  1.
    10030    2    1    2    0    0  0.00000000000E+00  0.00000000000E+00  0.81110502632E+03  0.21579828120E+04  0.19997495977E+04 0.  0.
        1    1    3    3  502    0  0.28625333953E+03 -0.83645829362E+03 -0.98465608403E+02  0.88954984538E+03  0.50400001928E-02 0.  1.
       -1    1    3    3    0  502 -0.28625333953E+03  0.83645829362E+03  0.90957063472E+03  0.12684329667E+04  0.50400001928E-02 0. -1.
</event>
<event>
 5   0  0.2093980E-05  0.1994201E+04  0.7818609E-02  0.8609337E-01
       -1   -1    0    0    0  501  0.00000000000E+00  0.00000000000E+00  0.46335881980E+03  0.46335881983E+03  0.50400001928E-02 0. -1.
        1   -1    0    0  501    0  0.00000000000E+00  0.00000000000E+00 -0.21456581437E+04  0.21456581437E+04  0.50400001928E-02 0.  1.
    10030    2    1    2    0    0  0.00000000000E+00  0.00000000000E+00 -0.16822993239E+04  0.26090169636E+04  0.19942012187E+04 0.  0.
        2    1    3    3  502    0  0.29119802759E+03 -0.77707522025E+03 -0.15643547294E+04  0.17708325467E+04  0.25500000920E-02 0.  1.
       -2    1    3    3    0  502 -0.29119802759E+03  0.77707522025E+03 -0.11794459451E+03  0.83818441681E+03  0.25500000920E-02 0. -1.
</event>
<event>
 5   0  0.2007644E-05  0.2012580E+04  0.7818609E-02  0.8600762E-01
       -1   -1    0    0    0  501  0.00000000000E+00  0.00000000000E+00  0.50930219095E+03  0.50930219098E+03  0.50400001928E-02 0.  1.
        1   -1    0    0  501    0  0.00000000000E+00  0.00000000000E+00 -0.19882491848E+04  0.19882491848E+04  0.50400001928E-02 0. -1.
    10030    2    1    2    0    0  0.00000000000E+00  0.00000000000E+00 -0.14789469939E+04  0.24975513758E+04  0.20125801013E+04 0.  0.
        1    1    3    3  502    0  0.43456236555E+03  0.62579228286E+03  0.76325478060E+02  0.76569315621E+03  0.50400001928E-02 0.  1.
       -1    1    3    3    0  502 -0.43456236555E+03 -0.62579228286E+03 -0.15552724719E+04  0.17318582196E+04  0.50400001928E-02 0. -1.
</event>
<event>
 5   0  0.2093980E-05  0.1988815E+04  0.7818609E-02  0.8611868E-01
       -1   -1    0    0    0  501  0.00000000000E+00  0.00000000000E+00  0.50217143787E+03  0.50217143789E+03  0.50400001928E-02 0.  1.
        1   -1    0    0  501    0  0.00000000000E+00  0.00000000000E+00 -0.19691404777E+04  0.19691404777E+04  0.50400001928E-02 0. -1.
    10030    2    1    2    0    0  0.00000000000E+00  0.00000000000E+00 -0.14669690398E+04  0.24713119156E+04  0.19888148281E+04 0.  0.
        2    1    3    3  502    0  0.67774124417E+02 -0.52997486745E+03 -0.17756292586E+04  0.18542723522E+04  0.25500000920E-02 0. -1.
       -2    1    3    3    0  502 -0.67774124417E+02  0.52997486745E+03  0.30866021882E+03  0.61703956336E+03  0.25500000920E-02 0.  1.
</event>
<event>
 5   0  0.4514680E-05  0.1995541E+04  0.7818609E-02  0.8608708E-01
        2   -1    0    0  501    0  0.00000000000E+00  0.00000000000E+00  0.22739724246E+04  0.22739724246E+04  0.25500000920E-02 0.  1.
       -2   -1    0    0    0  501  0.00000000000E+00  0.00000000000E+00 -0.43780020525E+03  0.43780020525E+03  0.25500000920E-02 0. -1.
    10030    2    1    2    0    0  0.00000000000E+00  0.00000000000E+00  0.18361722193E+04  0.27117726298E+04  0.19955406227E+04 0.  0.
        3    1    3    3  502    0 -0.67129152918E+03  0.10209628633E+03  0.19115734463E+04  0.20285879373E+04  0.10100000352E+00 0.  1.
       -3    1    3    3    0  502  0.67129152918E+03 -0.10209628633E+03 -0.75401226935E+02  0.68318469250E+03  0.10100000352E+00 0. -1.
</event>
<event>
 5   0  0.2093980E-05  0.2011585E+04  0.7818609E-02  0.8601224E-01
       -1   -1    0    0    0  501  0.00000000000E+00  0.00000000000E+00  0.83377724364E+03  0.83377724365E+03  0.50400001928E-02 0.  1.
        1   -1    0    0  501    0  0.00000000000E+00  0.00000000000E+00 -0.12132954209E+04  0.12132954209E+04  0.50400001928E-02 0. -1.
    10030    2    1    2    0    0  0.00000000000E+00  0.00000000000E+00 -0.37951817729E+03  0.20470726646E+04  0.20115845613E+04 0.  0.
        2    1    3    3  502    0  0.42332228862E+03  0.57374126744E+03 -0.91166630183E+03  0.11573747223E+04  0.25500000920E-02 0. -1.
       -2    1    3    3    0  502 -0.42332228862E+03 -0.57374126744E+03  0.53214812453E+03  0.88969794226E+03  0.25500000920E-02 0.  1.
</event>
<event>
 5   0  0.4412054E-05  0.1992296E+04  0.7818609E-02  0.8610231E-01
       -2   -1    0    0    0  501  0.00000000000E+00  0.00000000000E+00  0.50198846162E+03  0.50198846163E+03  0.25500000920E-02 0. -1.
        2   -1    0    0  501    0  0.00000000000E+00  0.00000000000E+00 -0.19767597814E+04  0.19767597814E+04  0.25500000920E-02 0.  1.
    10030    2    1    2    0    0  0.00000000000E+00  0.00000000000E+00 -0.14747713198E+04  0.24787482430E+04  0.19922957629E+04 0.  0.
        4    1    3    3  502    0 -0.45279584485E+03  0.73121201099E+03 -0.11205858088E+03  0.86732567158E+03  0.12699999809E+01 0. -1.
       -4    1    3    3    0  502  0.45279584485E+03 -0.73121201099E+03 -0.13627127389E+04  0.16114225715E+04  0.12699999809E+01 0.  1.
</event>
<event>
 5   0  0.2142551E-05  0.1987345E+04  0.7818609E-02  0.8612560E-01
        1   -1    0    0  501    0  0.00000000000E+00  0.00000000000E+00  0.16635862111E+04  0.16635862111E+04  0.50400001928E-02 0.  1.
       -1   -1    0    0    0  501  0.00000000000E+00  0.00000000000E+00 -0.59352825148E+03  0.59352825150E+03  0.50400001928E-02 0. -1.
    10030    2    1    2    0    0  0.00000000000E+00  0.00000000000E+00  0.10700579597E+04  0.22571144626E+04  0.19873453803E+04 0.  0.
        3    1    3    3  502    0  0.20178448058E+02  0.94212164009E+03  0.17698138135E+03  0.95881321123E+03  0.10100000352E+00 0. -1.
       -3    1    3    3    0  502 -0.20178448058E+02 -0.94212164009E+03  0.89307657830E+03  0.12983012514E+04  0.10100000352E+00 0.  1.
</event>
<event>
 5   0  0.2007644E-05  0.1999991E+04  0.7818609E-02  0.8606625E-01
        1   -1    0    0  501    0  0.00000000000E+00  0.00000000000E+00  0.20908149374E+04  0.20908149374E+04  0.50400001928E-02 0. -1.
       -1   -1    0    0    0  501  0.00000000000E+00  0.00000000000E+00 -0.47827792660E+03  0.47827792663E+03  0.50400001928E-02 0.  1.
    10030    2    1    2    0    0  0.00000000000E+00  0.00000000000E+00  0.16125370108E+04  0.25690928641E+04  0.19999906332E+04 0.  0.
        1    1    3    3  502    0 -0.18655982790E+03  0.26113440614E+03 -0.41032872821E+03  0.52092745432E+03  0.50400001928E-02 0.  1.
       -1    1    3    3    0  502  0.18655982790E+03 -0.26113440614E+03  0.20228657390E+04  0.20481654097E+04  0.50400001928E-02 0. -1.
</event>
<event>
 5   0  0.4412054E-05  0.2000629E+04  0.7818609E-02  0.8606327E-01
       -2   -1    0    0    0  501  0.00000000000E+00  0.00000000000E+00  0.65268822720E+03  0.65268822720E+03  0.25500000920E-02 0. -1.
        2   -1    0    0  501    0  0.00000000000E+00  0.00000000000E+00 -0.15330883242E+04  0.15330883242E+04  0.25500000920E-02 0.  1.
    10030    2    1    2    0    0  0.00000000000E+00  0.00000000000E+00 -0.88040009697E+03  0.21857765514E+04  0.20006286017E+04 0.  0.
        4    1    3    3  502    0 -0.49874500255E+03  0.59872782122E+03 -0.11254665562E+04  0.13689040008E+04  0.12699999809E+01 0. -1.
       -4    1    3    3    0  502  0.49874500255E+03 -0.59872782122E+03  0.24506645924E+03  0.81687255053E+03  0.12699999809E+01 0.  1.
</event>
<event>
 5   0  0.4447313E-05  0.2002016E+04  0.7818609E-02  0.8605679E-01
       -2   -1    0    0    0  501  0.00000000000E+00  0.00000000000E+00  0.58195783680E+03  0.58195783680E+03  0.25500000920E-02 0. -1.
        2   -1    0    0  501    0  0.00000000000E+00  0.00000000000E+00 -0.17218040486E+04  0.17218040486E+04  0.25500000920E-02 0.  1.
    10030    2    1    2    0    0  0.00000000000E+00  0.00000000000E+00 -0.11398462119E+04  0.23037618855E+04  0.20020163431E+04 0.  0.
        5    1    3    3  502    0  0.61576355404E+02  0.31739962827E+03 -0.16600518387E+04  0.16912505339E+04  0.46999998093E+01 0.  1.
       -5    1    3    3    0  502 -0.61576355404E+02 -0.31739962827E+03  0.52020562680E+03  0.61251135150E+03  0.46999998093E+01 0. -1.
</event>
<event>
 5   0  0.2093980E-05  0.1997272E+04  0.7818609E-02  0.8607897E-01
        1   -1    0    0  501    0  0.00000000000E+00  0.00000000000E+00  0.89155691166E+03  0.89155691168E+03  0.50400001928E-02 0.  1.
       -1   -1    0    0    0  501  0.00000000000E+00  0.00000000000E+00 -0.11185751909E+04  0.11185751909E+04  0.50400001928E-02 0. -1.
    10030    2    1    2    0    0  0.00000000000E+00  0.00000000000E+00 -0.22701827923E+03  0.20101321026E+04  0.19972715816E+04 0.  0.
        2    1    3    3  502    0  0.68404494882E+03  0.57880331582E+03 -0.55719088621E+03  0.10551741345E+04  0.25500000920E-02 0. -1.
       -2    1    3    3    0  502 -0.68404494882E+03 -0.57880331582E+03  0.33017260699E+03  0.95495796809E+03  0.25500000920E-02 0.  1.
</event>
<event>
 5   0  0.2093980E-05  0.2001064E+04  0.7818609E-02  0.8606124E-01
        1   -1    0    0  501    0  0.00000000000E+00  0.00000000000E+00  0.17051566071E+04  0.17051566071E+04  0.50400001928E-02 0. -1.
       -1   -1    0    0    0  501  0.00000000000E+00  0.00000000000E+00 -0.58708025916E+03  0.58708025918E+03  0.50400001928E-02 0.  1.
    10030    2    1    2    0    0  0.00000000000E+00  0.00000000000E+00  0.11180763479E+04  0.22922368663E+04  0.20010635001E+04 0.  0.
        2    1    3    3  502    0  0.65127217052E+03 -0.38540380479E+02 -0.30990669731E+03  0.72227623667E+03  0.25500000920E-02 0.  1.
       -2    1    3    3    0  502 -0.65127217052E+03  0.38540380479E+02  0.14279830452E+04  0.15699606296E+04  0.25500000920E-02 0. -1.
</event>
<event>
 5   0  0.2007644E-05  0.2015246E+04  0.7818609E-02  0.8599526E-01
       -1   -1    0    0    0  501  0.00000000000E+00  0.00000000000E+00  0.38763675680E+03  0.38763675684E+03  0.50400001928E-02 0.  1.
        1   -1    0    0  501    0  0.00000000000E+00  0.00000000000E+00 -0.26192142354E+04  0.26192142354E+04  0.50400001928E-02 0. -1.
    10030    2    1    2    0    0  0.00000000000E+00  0.00000000000E+00 -0.22315774786E+04  0.30068509922E+04  0.20152456045E+04 0.  0.
        1    1    3    3  502    0  0.38390880334E+03  0.90762369916E+03 -0.14292509179E+04  0.17360659362E+04  0.50400001928E-02 0.  1.
       -1    1    3    3    0  502 -0.38390880334E+03 -0.90762369916E+03 -0.80232656070E+03  0.12707850560E+04  0.50400001928E-02 0. -1.
</event>
<event>
 5   0  0.2256868E-05  0.2000518E+04  0.7818609E-02  0.8606378E-01
        1   -1    0    0  501    0  0.00000000000E+00  0.00000000000E+00  0.95594930771E+03  0.95594930773E+03  0.50400001928E-02 0. -1.
       -1   -1    0    0    0  501  0.00000000000E+00  0.00000000000E+00 -0.10466226810E+04  0.10466226810E+04  0.50400001928E-02 0.  1.
    10030    2    1    2    0    0  0.00000000000E+00  0.00000000000E+00 -0.90673373271E+02  0.20025719887E+04  0.20005181602E+04 0.  0.
        5    1    3    3  502    0 -0.91555734678E+03 -0.30074679874E+03  0.22289782296E+03  0.98914074917E+03  0.46999998093E+01 0. -1.
       -5    1    3    3    0  502  0.91555734678E+03  0.30074679874E+03 -0.31357119623E+03  0.10134312396E+04  0.46999998093E+01 0.  1.
</event>
<event>
 5   0  0.2142551E-05  0.2004697E+04  0.7818609E-02  0.8604428E-01
       -1   -1    0    0    0  501  0.00000000000E+00  0.00000000000E+00  0.59709991169E+03  0.59709991171E+03  0.50400001928E-02 0.  1.
        1   -1    0    0  501    0  0.00000000000E+00  0.00000000000E+00 -0.16826370170E+04  0.16826370170E+04  0.50400001928E-02 0. -1.
    10030    2    1    2    0    0  0.00000000000E+00  0.00000000000E+00 -0.10855371053E+04  0.22797369287E+04  0.20046968991E+04 0.  0.
        3    1    3    3  502    0  0.63118734182E+03  0.65481156500E+03 -0.10219146186E+04  0.13680223478E+04  0.10100000352E+00 0. -1.
       -3    1    3    3    0  502 -0.63118734182E+03 -0.65481156500E+03 -0.63622486749E+02  0.91171458097E+03  0.10100000352E+00 0.  1.
</event>
<event>
 5   0  0.4577279E-05  0.2010829E+04  0.7818609E-02  0.8601574E-01
       -2   -1    0    0    0  501  0.00000000000E+00  0.00000000000E+00  0.10853496611E+04  0.10853496611E+04  0.25500000920E-02 0. -1.
        2   -1    0    0  501    0  0.00000000000E+00  0.00000000000E+00 -0.93136650818E+03  0.93136650818E+03  0.25500000920E-02 0.  1.
    10030    2    1    2    0    0  0.00000000000E+00  0.00000000000E+00  0.15398315291E+03  0.20167161693E+04  0.20108290072E+04 0.  0.
        1    1    3    3  502    0 -0.28748560453E+03  0.87047276083E+03  0.49110178841E+03  0.10399768107E+04  0.50400001928E-02 0. -1.
       -1    1    3    3    0  502  0.28748560453E+03 -0.87047276083E+03 -0.33711863551E+03  0.97673935858E+03  0.50400001928E-02 0.  1.
</event>
<event>
 5   0  0.2256868E-05  0.1995328E+04  0.7818609E-02  0.8608808E-01
       -1   -1    0    0    0  501  0.00000000000E+00  0.00000000000E+00  0.66925869091E+03  0.66925869093E+03  0.50400001928E-02 0. -1.
        1   -1    0    0  501    0  0.00000000000E+00  0.00000000000E+00 -0.14872182848E+04  0.14872182848E+04  0.50400001928E-02 0.  1.
    10030    2    1    2    0    0  0.00000000000E+00  0.00000000000E+00 -0.81795959387E+03  0.21564769757E+04  0.19953283062E+04 0.  0.
        5    1    3    3  502    0 -0.46110306863E+03  0.24634375412E+03  0.50935741951E+03  0.72990982724E+03  0.46999998093E+01 0. -1.
       -5    1    3    3    0  502  0.46110306863E+03 -0.24634375412E+03 -0.13273170134E+04  0.14265671485E+04  0.46999998093E+01 0.  1.
</event>
<event>
 5   0  0.2007644E-05  0.1997938E+04  0.7818609E-02  0.8607585E-01
        1   -1    0    0  501    0  0.00000000000E+00  0.00000000000E+00  0.14803385014E+04  0.14803385014E+04  0.50400001928E-02 0.  1.
       -1   -1    0    0    0  501  0.00000000000E+00  0.00000000000E+00 -0.67412889344E+03  0.67412889346E+03  0.50400001928E-02 0. -1.
    10030    2    1    2    0    0  0.00000000000E+00  0.00000000000E+00  0.80620960793E+03  0.21544673948E+04  0.19979378928E+04 0.  0.
        1    1    3    3  502    0 -0.54414236384E+03  0.75698363020E+03  0.16064634572E+02  0.93240184525E+03  0.50400001928E-02 0. -1.
       -1    1    3    3    0  502  0.54414236384E+03 -0.75698363020E+03  0.79014497336E+03  0.12220655496E+04  0.50400001928E-02 0.  1.
</event>
<event>
 5   0  0.2007644E-05  0.2001980E+04  0.7818609E-02  0.8605695E-01
       -1   -1    0    0    0  501  0.00000000000E+00  0.00000000000E+00  0.10175123026E+04  0.10175123026E+04  0.50400001928E-02 0. -1.
        1   -1    0    0  501    0  0.00000000000E+00  0.00000000000E+00 -0.98473614982E+03  0.98473614983E+03  0.50400001928E-02 0.  1.
    10030    2    1    2    0    0  0.00000000000E+00  0.00000000000E+00  0.32776152775E+02  0.20022484524E+04  0.20019801670E+04 0.  0.
        1    1    3    3  502    0 -0.33156961061E+03 -0.84548798512E+02 -0.92442615955E+03  0.98572340466E+03  0.50400001928E-02 0.  1.
       -1    1    3    3    0  502  0.33156961061E+03  0.84548798512E+02  0.95720231233E+03  0.10165250478E+04  0.50400001928E-02 0. -1.
</event>
<event>
 5   0  0.2110896E-05  0.2007297E+04  0.7818609E-02  0.8603217E-01
        1   -1    0    0  501    0  0.00000000000E+00  0.00000000000E+00  0.10360752479E+04  0.10360752479E+04  0.50400001928E-02 0. -1.
       -1   -1    0    0    0  501  0.00000000000E+00  0.00000000000E+00 -0.97223688234E+03  0.97223688235E+03  0.50400001928E-02 0.  1.
    10030    2    1    2    0    0  0.00000000000E+00  0.00000000000E+00  0.63838365589E+02  0.20083121303E+04  0.20072972564E+04 0.  0.
        4    1    3    3  502    0  0.96717732471E+03  0.25199165837E+03 -0.59654043274E+02  0.10012452203E+04  0.12699999809E+01 0. -1.
       -4    1    3    3    0  502 -0.96717732471E+03 -0.25199165837E+03  0.12349240886E+03  0.10070669100E+04  0.12699999809E+01 0.  1.
</event>
<event>
 5   0  0.2142551E-05  0.1999165E+04  0.7818609E-02  0.8607011E-01
       -1   -1    0    0    0  501  0.00000000000E+00  0.00000000000E+00  0.66804275945E+03  0.66804275946E+03  0.50400001928E-02 0.  1.
        1   -1    0    0  501    0  0.00000000000E+00  0.00000000000E+00 -0.14956599798E+04  0.14956599798E+04  0.50400001928E-02 0. -1.
    10030    2    1    2    0    0  0.00000000000E+00  0.00000000000E+00 -0.82761722039E+03  0.21637027393E+04  0.19991646457E+04 0.  0.
        3    1    3    3  502    0  0.35890511753E+03 -0.86182153626E+03 -0.80044333602E+03  0.12297393171E+04  0.10100000352E+00 0. -1.
       -3    1    3    3    0  502 -0.35890511753E+03  0.86182153626E+03 -0.27173884372E+02  0.93396342217E+03  0.10100000352E+00 0.  1.
</event>
<event>
 5   0  0.4577279E-05  0.1916610E+04  0.7818609E-02  0.8646632E-01
        2   -1    0    0  501    0  0.00000000000E+00  0.00000000000E+00  0.19114561301E+04  0.19114561302E+04  0.25500000920E-02 0. -1.
       -2   -1    0    0    0  501  0.00000000000E+00  0.00000000000E+00 -0.48044436832E+03  0.48044436833E+03  0.25500000920E-02 0.  1.
    10030    2    1    2    0    0  0.00000000000E+00  0.00000000000E+00  0.14310117618E+04  0.23919004985E+04  0.19166098539E+04 0.  0.
        1    1    3    3  502    0  0.89379736463E+02 -0.34258477402E+03  0.18268401095E+04  0.18608325692E+04  0.50400001928E-02 0. -1.
       -1    1    3    3    0  502 -0.89379736463E+02  0.34258477402E+03 -0.39582834770E+03  0.53106792931E+03  0.50400001928E-02 0.  1.
</event>
<event>
 5   0  0.4514680E-05  0.2002312E+04  0.7818609E-02  0.8605540E-01
       -2   -1    0    0    0  501  0.00000000000E+00  0.00000000000E+00  0.14491126884E+04  0.14491126884E+04  0.25500000920E-02 0.  1.
        2   -1    0    0  501    0  0.00000000000E+00  0.00000000000E+00 -0.69167396058E+03  0.69167396059E+03  0.25500000920E-02 0. -1.
    10030    2    1    2    0    0  0.00000000000E+00  0.00000000000E+00  0.75743872784E+03  0.21407866490E+04  0.20023121760E+04 0.  0.
        3    1    3    3  502    0  0.44331958675E+03  0.45665019693E+03  0.12049862517E+04  0.13627375152E+04  0.10100000352E+00 0.  1.
       -3    1    3    3    0  502 -0.44331958675E+03 -0.45665019693E+03 -0.44754752384E+03  0.77804913383E+03  0.10100000352E+00 0. -1.
</event>
<event>
 5   0  0.2142551E-05  0.2009772E+04  0.7818609E-02  0.8602066E-01
       -1   -1    0    0    0  501  0.00000000000E+00  0.00000000000E+00  0.75206513890E+03  0.75206513892E+03  0.50400001928E-02 0.  1.
        1   -1    0    0  501    0  0.00000000000E+00  0.00000000000E+00 -0.13426969636E+04  0.13426969637E+04  0.50400001928E-02 0. -1.
    10030    2    1    2    0    0  0.00000000000E+00  0.00000000000E+00 -0.59063182474E+03  0.20947621026E+04  0.20097717069E+04 0.  0.
        3    1    3    3  502    0 -0.72603111778E+03 -0.42953527885E+03 -0.86446067145E+03  0.12078551248E+04  0.10100000352E+00 0. -1.
       -3    1    3    3    0  502  0.72603111778E+03  0.42953527885E+03  0.27382884671E+03  0.88690697779E+03  0.10100000352E+00 0.  1.
</event>
<event>
 5   0  0.1601500E-05  0.1996096E+04  0.7818609E-02  0.8608448E-01
       -4   -1    0    0    0  501  0.00000000000E+00  0.00000000000E+00  0.94349585196E+03  0.94349670671E+03  0.12699999809E+01 0.  1.
        4   -1    0    0  501    0  0.00000000000E+00  0.00000000000E+00 -0.10557530212E+04  0.10557537851E+04  0.12699999809E+01 0. -1.
    10030    2    1    2    0    0  0.00000000000E+00  0.00000000000E+00 -0.11225716923E+03  0.19992504918E+04  0.19960964047E+04 0.  0.
        2    1    3    3  502    0  0.79975700720E+03 -0.49821005833E+03  0.27344406373E+03  0.98111986464E+03  0.25500000920E-02 0.  1.
       -2    1    3    3    0  502 -0.79975700720E+03  0.49821005833E+03 -0.38570123296E+03  0.10181306271E+04  0.25500000920E-02 0. -1.
</event>
<event>
 5   0  0.2110896E-05  0.2001133E+04  0.7818609E-02  0.8606091E-01
        1   -1    0    0  501    0  0.00000000000E+00  0.00000000000E+00  0.20756108534E+04  0.20756108535E+04  0.50400001928E-02 0. -1.
       -1   -1    0    0    0  501  0.00000000000E+00  0.00000000000E+00 -0.48233177689E+03  0.48233177692E+03  0.50400001928E-02 0.  1.
    10030    2    1    2    0    0  0.00000000000E+00  0.00000000000E+00  0.15932790766E+04  0.25579426304E+04  0.20011327503E+04 0.  0.
        4    1    3    3  502    0 -0.81603992374E+03  0.56531246282E+03  0.63682221714E+03  0.11794250662E+04  0.12699999809E+01 0. -1.
       -4    1    3    3    0  502  0.81603992374E+03 -0.56531246282E+03  0.95645685942E+03  0.13785175641E+04  0.12699999809E+01 0.  1.
</event>
<event>
 5   0  0.2093980E-05  0.1992938E+04  0.7818609E-02  0.8609929E-01
       -1   -1    0    0    0  501  0.00000000000E+00  0.00000000000E+00  0.85369813172E+03  0.85369813173E+03  0.50400001928E-02 0. -1.
        1   -1    0    0  501    0  0.00000000000E+00  0.00000000000E+00 -0.11631169940E+04  0.11631169941E+04  0.50400001928E-02 0.  1.
    10030    2    1    2    0    0  0.00000000000E+00  0.00000000000E+00 -0.30941886232E+03  0.20168151258E+04  0.19929383380E+04 0.  0.
        2    1    3    3  502    0 -0.40041510432E+03 -0.99896113963E+02  0.76315165706E+03  0.86758973083E+03  0.25500000920E-02 0. -1.
       -2    1    3    3    0  502  0.40041510432E+03  0.99896113963E+02 -0.10725705194E+04  0.11492253950E+04  0.25500000920E-02 0.  1.
</event>
<event>
 5   0  0.2007644E-05  0.1997178E+04  0.7818609E-02  0.8607941E-01
        1   -1    0    0  501    0  0.00000000000E+00  0.00000000000E+00  0.79252234811E+03  0.79252234812E+03  0.50400001928E-02 0.  1.
       -1   -1    0    0    0  501  0.00000000000E+00  0.00000000000E+00 -0.12582361700E+04  0.12582361700E+04  0.50400001928E-02 0. -1.
    10030    2    1    2    0    0  0.00000000000E+00  0.00000000000E+00 -0.46571382190E+03  0.20507585181E+04  0.19971782935E+04 0.  0.
        1    1    3    3  502    0  0.65423267648E+03 -0.19679458419E+03 -0.98070339342E+03  0.11952102950E+04  0.50400001928E-02 0. -1.
       -1    1    3    3    0  502 -0.65423267648E+03  0.19679458419E+03  0.51498957152E+03  0.85554822316E+03  0.50400001928E-02 0.  1.
</event>
<event>
 5   0  0.2256868E-05  0.1994398E+04  0.7818609E-02  0.8609244E-01
       -1   -1    0    0    0  501  0.00000000000E+00  0.00000000000E+00  0.51574912877E+03  0.51574912879E+03  0.50400001928E-02 0. -1.
        1   -1    0    0  501    0  0.00000000000E+00  0.00000000000E+00 -0.19280796465E+04  0.19280796465E+04  0.50400001928E-02 0.  1.
    10030    2    1    2    0    0  0.00000000000E+00  0.00000000000E+00 -0.14123305177E+04  0.24438287753E+04  0.19943975510E+04 0.  0.
        5    1    3    3  502    0 -0.64969040771E+03 -0.74014675691E+03 -0.51449163118E+03  0.11111429144E+04  0.46999998093E+01 0. -1.
       -5    1    3    3    0  502  0.64969040771E+03  0.74014675691E+03 -0.89783888652E+03  0.13326858609E+04  0.46999998093E+01 0.  1.
</event>
<event>
 5   0  0.4447313E-05  0.2015148E+04  0.7818609E-02  0.8599571E-01
       -2   -1    0    0    0  501  0.00000000000E+00  0.00000000000E+00  0.93218602273E+03  0.93218602273E+03  0.25500000920E-02 0. -1.
        2   -1    0    0  501    0  0.00000000000E+00  0.00000000000E+00 -0.10890589794E+04  0.10890589794E+04  0.25500000920E-02 0.  1.
    10030    2    1    2    0    0  0.00000000000E+00  0.00000000000E+00 -0.15687295671E+03  0.20212450022E+04  0.20151481916E+04 0.  0.
        5    1    3    3  502    0  0.63332132775E+02 -0.47240754010E+03 -0.96881787567E+03  0.10797268216E+04  0.46999998093E+01 0.  1.
       -5    1    3    3    0  502 -0.63332132775E+02  0.47240754010E+03  0.81194491897E+03  0.94151818061E+03  0.46999998093E+01 0. -1.
</event>
<event>
 5   0  0.4412054E-05  0.1998711E+04  0.7818609E-02  0.8607223E-01
        2   -1    0    0  501    0  0.00000000000E+00  0.00000000000E+00  0.10466984029E+04  0.10466984029E+04  0.25500000920E-02 0.  1.
       -2   -1    0    0    0  501  0.00000000000E+00  0.00000000000E+00 -0.95415426915E+03  0.95415426915E+03  0.25500000920E-02 0. -1.
    10030    2    1    2    0    0  0.00000000000E+00  0.00000000000E+00  0.92544133706E+02  0.20008526720E+04  0.19987113344E+04 0.  0.
        4    1    3    3  502    0 -0.87063695820E+03 -0.33124275410E+02 -0.44374618323E+03  0.97776184147E+03  0.12699999809E+01 0. -1.
       -4    1    3    3    0  502  0.87063695820E+03  0.33124275410E+02  0.53629031693E+03  0.10230908305E+04  0.12699999809E+01 0.  1.
</event>
<event>
 5   0  0.2256868E-05  0.1888499E+04  0.7818609E-02  0.8660602E-01
        1   -1    0    0  501    0  0.00000000000E+00  0.00000000000E+00  0.12909170095E+04  0.12909170095E+04  0.50400001928E-02 0.  1.
       -1   -1    0    0    0  501  0.00000000000E+00  0.00000000000E+00 -0.69067733944E+03  0.69067733946E+03  0.50400001928E-02 0. -1.
    10030    2    1    2    0    0  0.00000000000E+00  0.00000000000E+00  0.60023967008E+03  0.19815943490E+04  0.18884990078E+04 0.  0.
        5    1    3    3  502    0 -0.16639204534E+03 -0.80313557422E+03  0.79101987764E+03  0.11394944494E+04  0.46999998093E+01 0.  1.
       -5    1    3    3    0  502  0.16639204534E+03  0.80313557422E+03 -0.19078020756E+03  0.84209989961E+03  0.46999998093E+01 0. -1.
</event>
<event>
 5   0  0.1601500E-05  0.1984950E+04  0.7818609E-02  0.8613690E-01
        3   -1    0    0  501    0  0.00000000000E+00  0.00000000000E+00  0.53828691880E+03  0.53828692828E+03  0.10100000352E+00 0.  1.
       -3   -1    0    0    0  501  0.00000000000E+00  0.00000000000E+00 -0.18298907758E+04  0.18298907786E+04  0.10100000352E+00 0. -1.
    10030    2    1    2    0    0  0.00000000000E+00  0.00000000000E+00 -0.12916038570E+04  0.23681777068E+04  0.19849496537E+04 0.  0.
        4    1    3    3  502    0  0.12861415415E+03 -0.64136254250E+03  0.24470655164E+03  0.69840562776E+03  0.12699999809E+01 0.  1.
       -4    1    3    3    0  502 -0.12861415415E+03  0.64136254250E+03 -0.15363104086E+04  0.16697720791E+04  0.12699999809E+01 0. -1.
</event>
<event>
 5   0  0.4577279E-05  0.1998078E+04  0.7818609E-02  0.8607520E-01
       -2   -1    0    0    0  501  0.00000000000E+00  0.00000000000E+00  0.35061718117E+03  0.35061718118E+03  0.25500000920E-02 0. -1.
        2   -1    0    0  501    0  0.00000000000E+00  0.00000000000E+00 -0.28466352533E+04  0.28466352533E+04  0.25500000920E-02 0.  1.
    10030    2    1    2    0    0  0.00000000000E+00  0.00000000000E+00 -0.24960180721E+04  0.31972524345E+04  0.19980783051E+04 0.  0.
        1    1    3    3  502    0 -0.12890393983E+03  0.82872184551E+03 -0.21166534703E+04  0.22767560336E+04  0.50400001928E-02 0.  1.
       -1    1    3    3    0  502  0.12890393983E+03 -0.82872184551E+03 -0.37936460178E+03  0.92049640088E+03  0.50400001928E-02 0. -1.
</event>
<event>
 5   0  0.4412054E-05  0.2001340E+04  0.7818609E-02  0.8605994E-01
       -2   -1    0    0    0  501  0.00000000000E+00  0.00000000000E+00  0.11165658516E+04  0.11165658516E+04  0.25500000920E-02 0. -1.
        2   -1    0    0  501    0  0.00000000000E+00  0.00000000000E+00 -0.89680361949E+03  0.89680361950E+03  0.25500000920E-02 0.  1.
    10030    2    1    2    0    0  0.00000000000E+00  0.00000000000E+00  0.21976223213E+03  0.20133694711E+04  0.20013398484E+04 0.  0.
        4    1    3    3  502    0  0.30476993086E+03 -0.10496575423E+03  0.10629063932E+04  0.11107088430E+04  0.12699999809E+01 0. -1.
       -4    1    3    3    0  502 -0.30476993086E+03  0.10496575423E+03 -0.84314416107E+03  0.90266062812E+03  0.12699999809E+01 0.  1.
</event>
<event>
 5   0  0.4412054E-05  0.2000255E+04  0.7818609E-02  0.8606501E-01
        2   -1    0    0  501    0  0.00000000000E+00  0.00000000000E+00  0.10288602817E+04  0.10288602817E+04  0.25500000920E-02 0.  1.
       -2   -1    0    0    0  501  0.00000000000E+00  0.00000000000E+00 -0.97219752105E+03  0.97219752105E+03  0.25500000920E-02 0. -1.
    10030    2    1    2    0    0  0.00000000000E+00  0.00000000000E+00  0.56662760672E+02  0.20010578028E+04  0.20002553991E+04 0.  0.
        4    1    3    3  502    0 -0.35395311815E+03 -0.24151351270E+03  0.93237647894E+03  0.10261282074E+04  0.12699999809E+01 0.  1.
       -4    1    3    3    0  502  0.35395311815E+03  0.24151351270E+03 -0.87571371827E+03  0.97492959537E+03  0.12699999809E+01 0. -1.
</event>
<event>
 5   0  0.2110896E-05  0.1995100E+04  0.7818609E-02  0.8608915E-01
       -1   -1    0    0    0  501  0.00000000000E+00  0.00000000000E+00  0.96913154784E+03  0.96913154785E+03  0.50400001928E-02 0.  1.
        1   -1    0    0  501    0  0.00000000000E+00  0.00000000000E+00 -0.10268020662E+04  0.10268020662E+04  0.50400001928E-02 0. -1.
    10030    2    1    2    0    0  0.00000000000E+00  0.00000000000E+00 -0.57670518392E+02  0.19959336141E+04  0.19951002740E+04 0.  0.
        4    1    3    3  502    0 -0.40092561775E+03  0.85921682394E+03  0.28130997609E+03  0.98900546867E+03  0.12699999809E+01 0. -1.
       -4    1    3    3    0  502  0.40092561775E+03 -0.85921682394E+03 -0.33898049449E+03  0.10069281454E+04  0.12699999809E+01 0.  1.
</event>
<event>
 5   0  0.2142551E-05  0.1999328E+04  0.7818609E-02  0.8606935E-01
        1   -1    0    0  501    0  0.00000000000E+00  0.00000000000E+00  0.22572658843E+04  0.22572658843E+04  0.50400001928E-02 0.  1.
       -1   -1    0    0    0  501  0.00000000000E+00  0.00000000000E+00 -0.44271627310E+03  0.44271627313E+03  0.50400001928E-02 0. -1.
    10030    2    1    2    0    0  0.00000000000E+00  0.00000000000E+00  0.18145496112E+04  0.26999821575E+04  0.19993282269E+04 0.  0.
        3    1    3    3  502    0  0.51819233833E+03 -0.16439603923E+03  0.20401835791E+04  0.21113735822E+04  0.10100000352E+00 0.  1.
       -3    1    3    3    0  502 -0.51819233833E+03  0.16439603923E+03 -0.22563396783E+03  0.58860857525E+03  0.10100000352E+00 0. -1.
</event>
<event>
 5   0  0.2142551E-05  0.2093367E+04  0.7818609E-02  0.8564171E-01
        1   -1    0    0  501    0  0.00000000000E+00  0.00000000000E+00  0.10964967842E+04  0.10964967842E+04  0.50400001928E-02 0.  1.
       -1   -1    0    0    0  501  0.00000000000E+00  0.00000000000E+00 -0.99913294517E+03  0.99913294519E+03  0.50400001928E-02 0. -1.
    10030    2    1    2    0    0  0.00000000000E+00  0.00000000000E+00  0.97363839059E+02  0.20956297294E+04  0.20933667251E+04 0.  0.
        3    1    3    3  502    0  0.62515483477E+03  0.76978725112E+03 -0.28657572792E+03  0.10322386533E+04  0.10100000352E+00 0. -1.
       -3    1    3    3    0  502 -0.62515483477E+03 -0.76978725112E+03  0.38393956698E+03  0.10633910761E+04  0.10100000352E+00 0.  1.
</event>
<event>
 5   0  0.4412054E-05  0.1996536E+04  0.7818609E-02  0.8608242E-01
       -2   -1    0    0    0  501  0.00000000000E+00  0.00000000000E+00  0.94194847303E+03  0.94194847303E+03  0.25500000920E-02 0. -1.
        2   -1    0    0  501    0  0.00000000000E+00  0.00000000000E+00 -0.10579549649E+04  0.10579549649E+04  0.25500000920E-02 0.  1.
    10030    2    1    2    0    0  0.00000000000E+00  0.00000000000E+00 -0.11600649184E+03  0.19999034379E+04  0.19965360640E+04 0.  0.
        4    1    3    3  502    0  0.78945072146E+03 -0.30441981645E+03 -0.58864532925E+03  0.10307321683E+04  0.12699999809E+01 0.  1.
       -4    1    3    3    0  502 -0.78945072146E+03  0.30441981645E+03  0.47263883741E+03  0.96917126959E+03  0.12699999809E+01 0. -1.
</event>
<event>
 5   0  0.2110896E-05  0.1997412E+04  0.7818609E-02  0.8607832E-01
        1   -1    0    0  501    0  0.00000000000E+00  0.00000000000E+00  0.26615269000E+04  0.26615269000E+04  0.50400001928E-02 0.  1.
       -1   -1    0    0    0  501  0.00000000000E+00  0.00000000000E+00 -0.37475225594E+03  0.37475225597E+03  0.50400001928E-02 0. -1.
    10030    2    1    2    0    0  0.00000000000E+00  0.00000000000E+00  0.22867746440E+04  0.30362791559E+04  0.19974115350E+04 0.  0.
        4    1    3    3  502    0 -0.26764991367E+03 -0.82242471946E+03  0.19025170772E+04  0.20898784025E+04  0.12699999809E+01 0.  1.
       -4    1    3    3    0  502  0.26764991367E+03  0.82242471946E+03  0.38425756681E+03  0.94640075339E+03  0.12699999809E+01 0. -1.
</event>
<event>
 5   0  0.4577279E-05  0.1988162E+04  0.7818609E-02  0.8612175E-01
        2   -1    0    0  501    0  0.00000000000E+00  0.00000000000E+00  0.24412248312E+04  0.24412248312E+04  0.25500000920E-02 0.  1.
       -2   -1    0    0    0  501  0.00000000000E+00  0.00000000000E+00 -0.40479561436E+03  0.40479561437E+03  0.25500000920E-02 0. -1.
    10030    2    1    2    0    0  0.00000000000E+00  0.00000000000E+00  0.20364292168E+04  0.28460204456E+04  0.19881620712E+04 0.  0.
        1    1    3    3  502    0 -0.95071421755E+03  0.22710700265E+03  0.12773169729E+04  0.16084072131E+04  0.50400001928E-02 0.  1.
       -1    1    3    3    0  502  0.95071421755E+03 -0.22710700265E+03  0.75911224397E+03  0.12376132324E+04  0.50400001928E-02 0. -1.
</event>
<event>
 5   0  0.2256868E-05  0.1994574E+04  0.7818609E-02  0.8609162E-01
        1   -1    0    0  501    0  0.00000000000E+00  0.00000000000E+00  0.10940843082E+04  0.10940843082E+04  0.50400001928E-02 0.  1.
       -1   -1    0    0    0  501  0.00000000000E+00  0.00000000000E+00 -0.90905360547E+03  0.90905360548E+03  0.50400001928E-02 0. -1.
    10030    2    1    2    0    0  0.00000000000E+00  0.00000000000E+00  0.18503070274E+03  0.20031379137E+04  0.19945739245E+04 0.  0.
        5    1    3    3  502    0 -0.70376784492E+03 -0.67918043011E+03  0.28824689787E+03  0.10196487632E+04  0.46999998093E+01 0.  1.
       -5    1    3    3    0  502  0.70376784492E+03  0.67918043011E+03 -0.10321619513E+03  0.98348915049E+03  0.46999998093E+01 0. -1.
</event>
<event>
 5   0  0.4514680E-05  0.1996145E+04  0.7818609E-02  0.8608425E-01
        2   -1    0    0  501    0  0.00000000000E+00  0.00000000000E+00  0.13445857899E+04  0.13445857899E+04  0.25500000920E-02 0. -1.
       -2   -1    0    0    0  501  0.00000000000E+00  0.00000000000E+00 -0.74085939806E+03  0.74085939807E+03  0.25500000920E-02 0.  1.
    10030    2    1    2    0    0  0.00000000000E+00  0.00000000000E+00  0.60372639187E+03  0.20854451880E+04  0.19961453043E+04 0.  0.
        3    1    3    3  502    0 -0.15402415823E+03 -0.51879607690E+03  0.11779952867E+04  0.12963586373E+04  0.10100000352E+00 0.  1.
       -3    1    3    3    0  502  0.15402415823E+03  0.51879607690E+03 -0.57426889485E+03  0.78908655072E+03  0.10100000352E+00 0. -1.
</event>
<event>
 5   0  0.4577279E-05  0.1970034E+04  0.7818609E-02  0.8620761E-01
        2   -1    0    0  501    0  0.00000000000E+00  0.00000000000E+00  0.15213743647E+04  0.15213743647E+04  0.25500000920E-02 0. -1.
       -2   -1    0    0    0  501  0.00000000000E+00  0.00000000000E+00 -0.63775101784E+03  0.63775101784E+03  0.25500000920E-02 0.  1.
    10030    2    1    2    0    0  0.00000000000E+00  0.00000000000E+00  0.88362334688E+03  0.21591253826E+04  0.19700335526E+04 0.  0.
        1    1    3    3  502    0  0.38230473269E+03  0.13354586477E+03  0.14259215406E+04  0.14823102397E+04  0.50400001928E-02 0. -1.
       -1    1    3    3    0  502 -0.38230473269E+03 -0.13354586477E+03 -0.54229819376E+03  0.67681514287E+03  0.50400001928E-02 0.  1.
</event>
<event>
 5   0  0.2256868E-05  0.1993614E+04  0.7818609E-02  0.8609612E-01
       -1   -1    0    0    0  501  0.00000000000E+00  0.00000000000E+00  0.10773097244E+04  0.10773097244E+04  0.50400001928E-02 0. -1.
        1   -1    0    0  501    0  0.00000000000E+00  0.00000000000E+00 -0.92231948496E+03  0.92231948498E+03  0.50400001928E-02 0.  1.
    10030    2    1    2    0    0  0.00000000000E+00  0.00000000000E+00  0.15499023940E+03  0.19996292094E+04  0.19936135535E+04 0.  0.
        5    1    3    3  502    0 -0.48774946004E+03 -0.21488407635E+03 -0.76738082482E+03  0.93432870144E+03  0.46999998093E+01 0.  1.
       -5    1    3    3    0  502  0.48774946004E+03  0.21488407635E+03  0.92237106422E+03  0.10653005079E+04  0.46999998093E+01 0. -1.
</event>
<event>
 5   0  0.2093980E-05  0.1952303E+04  0.7818609E-02  0.8629251E-01
        1   -1    0    0  501    0  0.00000000000E+00  0.00000000000E+00  0.89724739143E+03  0.89724739144E+03  0.50400001928E-02 0. -1.
       -1   -1    0    0    0  501  0.00000000000E+00  0.00000000000E+00 -0.10619939524E+04  0.10619939524E+04  0.50400001928E-02 0.  1.
    10030    2    1    2    0    0  0.00000000000E+00  0.00000000000E+00 -0.16474656093E+03  0.19592413438E+04  0.19523025416E+04 0.  0.
        2    1    3    3  502    0  0.37508442486E+03  0.22617771854E+03  0.79309565477E+03  0.90600518970E+03  0.25500000920E-02 0. -1.
       -2    1    3    3    0  502 -0.37508442486E+03 -0.22617771854E+03 -0.95784221570E+03  0.10532361541E+04  0.25500000920E-02 0.  1.
</event>
<event>
 5   0  0.4473361E-05  0.1997831E+04  0.7818609E-02  0.8607635E-01
       -2   -1    0    0    0  501  0.00000000000E+00  0.00000000000E+00  0.54219249551E+03  0.54219249552E+03  0.25500000920E-02 0. -1.
        2   -1    0    0  501    0  0.00000000000E+00  0.00000000000E+00 -0.18403659033E+04  0.18403659033E+04  0.25500000920E-02 0.  1.
    10030    2    1    2    0    0  0.00000000000E+00  0.00000000000E+00 -0.12981734078E+04  0.23825583988E+04  0.19978314061E+04 0.  0.
        2    1    3    3  502    0 -0.13171681316E+03 -0.52271140343E+03 -0.16520223207E+04  0.17377440198E+04  0.25500000920E-02 0.  1.
       -2    1    3    3    0  502  0.13171681316E+03  0.52271140343E+03  0.35384891297E+03  0.64481437900E+03  0.25500000920E-02 0. -1.
</event>
<event>
 5   0  0.4473361E-05  0.2000065E+04  0.7818609E-02  0.8606590E-01
        2   -1    0    0  501    0  0.00000000000E+00  0.00000000000E+00  0.11286055103E+04  0.11286055103E+04  0.25500000920E-02 0. -1.
       -2   -1    0    0    0  501  0.00000000000E+00  0.00000000000E+00 -0.88610645370E+03  0.88610645371E+03  0.25500000920E-02 0.  1.
    10030    2    1    2    0    0  0.00000000000E+00  0.00000000000E+00  0.24249905655E+03  0.20147119640E+04  0.20000646253E+04 0.  0.
        2    1    3    3  502    0  0.89703234618E+03  0.72089959699E+02  0.56056340012E+03  0.10602336148E+04  0.25500000920E-02 0. -1.
       -2    1    3    3    0  502 -0.89703234618E+03 -0.72089959699E+02 -0.31806434356E+03  0.95447834917E+03  0.25500000920E-02 0.  1.
</event>
<event>
 5   0  0.2142551E-05  0.1985980E+04  0.7818609E-02  0.8613204E-01
       -1   -1    0    0    0  501  0.00000000000E+00  0.00000000000E+00  0.56725155613E+03  0.56725155615E+03  0.50400001928E-02 0. -1.
        1   -1    0    0  501    0  0.00000000000E+00  0.00000000000E+00 -0.17382570851E+04  0.17382570851E+04  0.50400001928E-02 0.  1.
    10030    2    1    2    0    0  0.00000000000E+00  0.00000000000E+00 -0.11710055289E+04  0.23055086412E+04  0.19859798957E+04 0.  0.
        3    1    3    3  502    0 -0.76743204672E+03  0.67098431479E+02  0.14186350952E+03  0.78331309920E+03  0.10100000352E+00 0. -1.
       -3    1    3    3    0  502  0.76743204672E+03 -0.67098431479E+02 -0.13128690384E+04  0.15221955420E+04  0.10100000352E+00 0.  1.
</event>
<event>
 5   0  0.2093980E-05  0.2026323E+04  0.7818609E-02  0.8594412E-01
        1   -1    0    0  501    0  0.00000000000E+00  0.00000000000E+00  0.16111275110E+04  0.16111275110E+04  0.50400001928E-02 0.  1.
       -1   -1    0    0    0  501  0.00000000000E+00  0.00000000000E+00 -0.63712879012E+03  0.63712879014E+03  0.50400001928E-02 0. -1.
    10030    2    1    2    0    0  0.00000000000E+00  0.00000000000E+00  0.97399872091E+03  0.22482563012E+04  0.20263225033E+04 0.  0.
        2    1    3    3  502    0 -0.13477888905E+03 -0.96577871735E+03  0.18192659394E+03  0.99196328833E+03  0.25500000920E-02 0. -1.
       -2    1    3    3    0  502  0.13477888905E+03  0.96577871735E+03  0.79207212697E+03  0.12562930129E+04  0.25500000920E-02 0.  1.
</event>
<event>
 5   0  0.4577279E-05  0.1999896E+04  0.7818609E-02  0.8606669E-01
       -2   -1    0    0    0  501  0.00000000000E+00  0.00000000000E+00  0.10771411141E+04  0.10771411141E+04  0.25500000920E-02 0. -1.
        2   -1    0    0  501    0  0.00000000000E+00  0.00000000000E+00 -0.92828726118E+03  0.92828726118E+03  0.25500000920E-02 0.  1.
    10030    2    1    2    0    0  0.00000000000E+00  0.00000000000E+00  0.14885385291E+03  0.20054283753E+04  0.19998963720E+04 0.  0.
        1    1    3    3  502    0  0.62743940190E+03  0.74286706901E+03  0.30823425440E+03  0.10200686452E+04  0.50400001928E-02 0.  1.
       -1    1    3    3    0  502 -0.62743940190E+03 -0.74286706901E+03 -0.15938040148E+03  0.98535973009E+03  0.50400001928E-02 0. -1.
</event>
<event>
 5   0  0.2110896E-05  0.1999664E+04  0.7818609E-02  0.8606778E-01
        1   -1    0    0  501    0  0.00000000000E+00  0.00000000000E+00  0.15710087471E+04  0.15710087471E+04  0.50400001928E-02 0.  1.
       -1   -1    0    0    0  501  0.00000000000E+00  0.00000000000E+00 -0.63631986814E+03  0.63631986816E+03  0.50400001928E-02 0. -1.
    10030    2    1    2    0    0  0.00000000000E+00  0.00000000000E+00  0.93468887894E+03  0.22073286153E+04  0.19996640506E+04 0.  0.
        4    1    3    3  502    0  0.50887014663E+03  0.24721272175E+03  0.13773341525E+04  0.14889976281E+04  0.12699999809E+01 0.  1.
       -4    1    3    3    0  502 -0.50887014663E+03 -0.24721272175E+03 -0.44264527360E+03  0.71833098712E+03  0.12699999809E+01 0. -1.
</event>
<event>
 5   0  0.4577279E-05  0.1999442E+04  0.7818609E-02  0.8606882E-01
       -2   -1    0    0    0  501  0.00000000000E+00  0.00000000000E+00  0.56093189956E+03  0.56093189957E+03  0.25500000920E-02 0. -1.
        2   -1    0    0  501    0  0.00000000000E+00  0.00000000000E+00 -0.17817522611E+04  0.17817522611E+04  0.25500000920E-02 0.  1.
    10030    2    1    2    0    0  0.00000000000E+00  0.00000000000E+00 -0.12208203616E+04  0.23426841607E+04  0.19994416024E+04 0.  0.
        1    1    3    3  502    0  0.24848434905E+03  0.93910220553E+03 -0.33367725140E+03  0.10271309227E+04  0.50400001928E-02 0. -1.
       -1    1    3    3    0  502 -0.24848434905E+03 -0.93910220553E+03 -0.88714311017E+03  0.13155532380E+04  0.50400001928E-02 0.  1.
</event>
<event>
 5   0  0.2007644E-05  0.1998055E+04  0.7818609E-02  0.8607531E-01
        1   -1    0    0  501    0  0.00000000000E+00  0.00000000000E+00  0.13909745705E+04  0.13909745705E+04  0.50400001928E-02 0.  1.
       -1   -1    0    0    0  501  0.00000000000E+00  0.00000000000E+00 -0.71752279188E+03  0.71752279190E+03  0.50400001928E-02 0. -1.
    10030    2    1    2    0    0  0.00000000000E+00  0.00000000000E+00  0.67345177859E+03  0.21084973624E+04  0.19980550115E+04 0.  0.
        1    1    3    3  502    0 -0.69014954999E+03 -0.17715670373E+03 -0.40224167959E+03  0.81822323840E+03  0.50400001928E-02 0. -1.
       -1    1    3    3    0  502  0.69014954999E+03  0.17715670373E+03  0.10756934582E+04  0.12902741240E+04  0.50400001928E-02 0.  1.
</event>
<event>
 5   0  0.4412054E-05  0.1999673E+04  0.7818609E-02  0.8606773E-01
        2   -1    0    0  501    0  0.00000000000E+00  0.00000000000E+00  0.10901976866E+04  0.10901976866E+04  0.25500000920E-02 0. -1.
       -2   -1    0    0    0  501  0.00000000000E+00  0.00000000000E+00 -0.91696526710E+03  0.91696526711E+03  0.25500000920E-02 0.  1.
    10030    2    1    2    0    0  0.00000000000E+00  0.00000000000E+00  0.17323241952E+03  0.20071629537E+04  0.19996733862E+04 0.  0.
        4    1    3    3  502    0  0.89016141105E+03 -0.10305173270E+03  0.53174623164E+03  0.10419993595E+04  0.12699999809E+01 0.  1.
       -4    1    3    3    0  502 -0.89016141105E+03  0.10305173270E+03 -0.35851381212E+03  0.96516359428E+03  0.12699999809E+01 0. -1.
</event>
<event>
 5   0  0.1601500E-05  0.1997577E+04  0.7818609E-02  0.8607754E-01
       -3   -1    0    0    0  501  0.00000000000E+00  0.00000000000E+00  0.83182175530E+03  0.83182176143E+03  0.10100000352E+00 0.  1.
        3   -1    0    0  501    0  0.00000000000E+00  0.00000000000E+00 -0.11992692039E+04  0.11992692082E+04  0.10100000352E+00 0. -1.
    10030    2    1    2    0    0  0.00000000000E+00  0.00000000000E+00 -0.36744744864E+03  0.20310909696E+04  0.19975767568E+04 0.  0.
        2    1    3    3  502    0 -0.14866798435E+03 -0.98032675676E+03 -0.30588734433E+03  0.10376462726E+04  0.25500000920E-02 0. -1.
       -2    1    3    3    0  502  0.14866798435E+03  0.98032675676E+03 -0.61560104317E+02  0.99344469703E+03  0.25500000920E-02 0.  1.
</event>
<event>
 5   0  0.4514680E-05  0.2001420E+04  0.7818609E-02  0.8605957E-01
       -2   -1    0    0    0  501  0.00000000000E+00  0.00000000000E+00  0.97403355535E+03  0.97403355535E+03  0.25500000920E-02 0. -1.
        2   -1    0    0  501    0  0.00000000000E+00  0.00000000000E+00 -0.10281171586E+04  0.10281171586E+04  0.25500000920E-02 0.  1.
    10030    2    1    2    0    0  0.00000000000E+00  0.00000000000E+00 -0.54083603203E+02  0.20021507139E+04  0.20014201071E+04 0.  0.
        3    1    3    3  502    0  0.55364488319E+03 -0.63779751294E+03  0.50991505207E+03  0.98657067396E+03  0.10100000352E+00 0. -1.
       -3    1    3    3    0  502 -0.55364488319E+03  0.63779751294E+03 -0.56399865527E+03  0.10155800399E+04  0.10100000352E+00 0.  1.
</event>
<event>
 5   0  0.4473361E-05  0.2000772E+04  0.7818609E-02  0.8606260E-01
        2   -1    0    0  501    0  0.00000000000E+00  0.00000000000E+00  0.61940468144E+03  0.61940468144E+03  0.25500000920E-02 0. -1.
       -2   -1    0    0    0  501  0.00000000000E+00  0.00000000000E+00 -0.16157002244E+04  0.16157002244E+04  0.25500000920E-02 0.  1.
    10030    2    1    2    0    0  0.00000000000E+00  0.00000000000E+00 -0.99629554300E+03  0.22351049059E+04  0.20007721338E+04 0.  0.
        2    1    3    3  502    0  0.20285361634E+03  0.77057947149E+03 -0.11738259966E+04  0.14187352754E+04  0.25500000920E-02 0.  1.
       -2    1    3    3    0  502 -0.20285361634E+03 -0.77057947149E+03  0.17753045358E+03  0.81636963044E+03  0.25500000920E-02 0. -1.
</event>
<event>
 5   0  0.4577279E-05  0.2034783E+04  0.7818609E-02  0.8590529E-01
       -2   -1    0    0    0  501  0.00000000000E+00  0.00000000000E+00  0.67063134778E+03  0.67063134778E+03  0.25500000920E-02 0. -1.
        2   -1    0    0  501    0  0.00000000000E+00  0.00000000000E+00 -0.15434494036E+04  0.15434494036E+04  0.25500000920E-02 0.  1.
    10030    2    1    2    0    0  0.00000000000E+00  0.00000000000E+00 -0.87281805578E+03  0.22140807513E+04  0.20347830879E+04 0.  0.
        1    1    3    3  502    0  0.39178717489E+03  0.15201818170E+03  0.57177574408E+03  0.70960145118E+03  0.50400001928E-02 0. -1.
       -1    1    3    3    0  502 -0.39178717489E+03 -0.15201818170E+03 -0.14445937999E+04  0.15044793002E+04  0.50400001928E-02 0.  1.
</event>
<event>
 5   0  0.2093980E-05  0.1999860E+04  0.7818609E-02  0.8606686E-01
        1   -1    0    0  501    0  0.00000000000E+00  0.00000000000E+00  0.71212976644E+03  0.71212976646E+03  0.50400001928E-02 0.  1.
       -1   -1    0    0    0  501  0.00000000000E+00  0.00000000000E+00 -0.14040417114E+04  0.14040417114E+04  0.50400001928E-02 0. -1.
    10030    2    1    2    0    0  0.00000000000E+00  0.00000000000E+00 -0.69191194498E+03  0.21161714779E+04  0.19998598911E+04 0.  0.
        2    1    3    3  502    0 -0.29409439754E+03  0.71995547673E+03  0.31911454492E+03  0.84063160536E+03  0.25500000920E-02 0.  1.
       -2    1    3    3    0  502  0.29409439754E+03 -0.71995547673E+03 -0.10110264899E+04  0.12755398725E+04  0.25500000920E-02 0. -1.
</event>
<event>
 5   0  0.4473361E-05  0.1998839E+04  0.7818609E-02  0.8607164E-01
       -2   -1    0    0    0  501  0.00000000000E+00  0.00000000000E+00  0.46439004472E+03  0.46439004473E+03  0.25500000920E-02 0.  1.
        2   -1    0    0  501    0  0.00000000000E+00  0.00000000000E+00 -0.21508625129E+04  0.21508625129E+04  0.25500000920E-02 0. -1.
    10030    2    1    2    0    0  0.00000000000E+00  0.00000000000E+00 -0.16864724682E+04  0.26152525576E+04  0.19988388015E+04 0.  0.
        2    1    3    3  502    0  0.61882078185E+02  0.97673252986E+03 -0.57829757530E+03  0.11367778640E+04  0.25500000920E-02 0.  1.
       -2    1    3    3    0  502 -0.61882078185E+02 -0.97673252986E+03 -0.11081748929E+04  0.14784746936E+04  0.25500000920E-02 0. -1.
</event>
<event>
 5   0  0.2142551E-05  0.2001090E+04  0.7818609E-02  0.8606111E-01
       -1   -1    0    0    0  501  0.00000000000E+00  0.00000000000E+00  0.74619551057E+03  0.74619551059E+03  0.50400001928E-02 0.  1.
        1   -1    0    0  501    0  0.00000000000E+00  0.00000000000E+00 -0.13415928905E+04  0.13415928905E+04  0.50400001928E-02 0. -1.
    10030    2    1    2    0    0  0.00000000000E+00  0.00000000000E+00 -0.59539737989E+03  0.20877884011E+04  0.20010902947E+04 0.  0.
        3    1    3    3  502    0 -0.33488404675E+03 -0.14135062249E+03 -0.12702678674E+04  0.13212523560E+04  0.10100000352E+00 0. -1.
       -3    1    3    3    0  502  0.33488404675E+03  0.14135062249E+03  0.67487048748E+03  0.76653604503E+03  0.10100000352E+00 0.  1.
</event>
<event>
 5   0  0.2110896E-05  0.1998563E+04  0.7818609E-02  0.8607293E-01
        1   -1    0    0  501    0  0.00000000000E+00  0.00000000000E+00  0.12316952087E+04  0.12316952087E+04  0.50400001928E-02 0.  1.
       -1   -1    0    0    0  501  0.00000000000E+00  0.00000000000E+00 -0.81072250983E+03  0.81072250985E+03  0.50400001928E-02 0. -1.
    10030    2    1    2    0    0  0.00000000000E+00  0.00000000000E+00  0.42097269887E+03  0.20424177186E+04  0.19985625144E+04 0.  0.
        4    1    3    3  502    0  0.67434755278E+03  0.41758183017E+03  0.83164149833E+03  0.11492381831E+04  0.12699999809E+01 0.  1.
       -4    1    3    3    0  502 -0.67434755278E+03 -0.41758183017E+03 -0.41066879946E+03  0.89317953547E+03  0.12699999809E+01 0. -1.
</event>
<event>
 5   0  0.2093980E-05  0.1994410E+04  0.7818609E-02  0.8609239E-01
       -1   -1    0    0    0  501  0.00000000000E+00  0.00000000000E+00  0.78771383037E+03  0.78771383038E+03  0.50400001928E-02 0. -1.
        1   -1    0    0  501    0  0.00000000000E+00  0.00000000000E+00 -0.12624096205E+04  0.12624096205E+04  0.50400001928E-02 0.  1.
    10030    2    1    2    0    0  0.00000000000E+00  0.00000000000E+00 -0.47469579012E+03  0.20501234509E+04  0.19944097048E+04 0.  0.
        2    1    3    3  502    0  0.80372473918E+03  0.40527875653E+03  0.20381849672E+03  0.92291186279E+03  0.25500000920E-02 0. -1.
       -2    1    3    3    0  502 -0.80372473918E+03 -0.40527875653E+03 -0.67851428685E+03  0.11272115881E+04  0.25500000920E-02 0.  1.
</event>
<event>
 5   0  0.2256868E-05  0.2006658E+04  0.7818609E-02  0.8603514E-01
        1   -1    0    0  501    0  0.00000000000E+00  0.00000000000E+00  0.20917055462E+04  0.20917055462E+04  0.50400001928E-02 0. -1.
       -1   -1    0    0    0  501  0.00000000000E+00  0.00000000000E+00 -0.48126696947E+03  0.48126696950E+03  0.50400001928E-02 0.  1.
    10030    2    1    2    0    0  0.00000000000E+00  0.00000000000E+00  0.16104385768E+04  0.25729725157E+04  0.20066577080E+04 0.  0.
        5    1    3    3  502    0 -0.39111588285E+03 -0.10837619300E+03 -0.37130190772E+03  0.55009474611E+03  0.46999998093E+01 0.  1.
       -5    1    3    3    0  502  0.39111588285E+03  0.10837619300E+03  0.19817404845E+04  0.20228777696E+04  0.46999998093E+01 0. -1.
</event>
<event>
 5   0  0.4577279E-05  0.1993951E+04  0.7818609E-02  0.8609454E-01
        2   -1    0    0  501    0  0.00000000000E+00  0.00000000000E+00  0.98839348108E+03  0.98839348108E+03  0.25500000920E-02 0. -1.
       -2   -1    0    0    0  501  0.00000000000E+00  0.00000000000E+00 -0.10056320557E+04  0.10056320557E+04  0.25500000920E-02 0.  1.
    10030    2    1    2    0    0  0.00000000000E+00  0.00000000000E+00 -0.17238574582E+02  0.19940255367E+04  0.19939510206E+04 0.  0.
        1    1    3    3  502    0 -0.37930890745E+02  0.69699723083E+03 -0.72048595295E+03  0.10031669356E+04  0.50400001928E-02 0.  1.
       -1    1    3    3    0  502  0.37930890745E+02 -0.69699723083E+03  0.70324737836E+03  0.99085860115E+03  0.50400001928E-02 0. -1.
</event>
<event>
 5   0  0.4412054E-05  0.1992001E+04  0.7818609E-02  0.8610370E-01
        2   -1    0    0  501    0  0.00000000000E+00  0.00000000000E+00  0.11609028792E+04  0.11609028792E+04  0.25500000920E-02 0. -1.
       -2   -1    0    0    0  501  0.00000000000E+00  0.00000000000E+00 -0.85452157409E+03  0.85452157409E+03  0.25500000920E-02 0.  1.
    10030    2    1    2    0    0  0.00000000000E+00  0.00000000000E+00  0.30638130506E+03  0.20154244532E+04  0.19920005579E+04 0.  0.
        4    1    3    3  502    0  0.33432094443E+03 -0.93816571851E+03  0.16276413257E+03  0.10091675703E+04  0.12699999809E+01 0. -1.
       -4    1    3    3    0  502 -0.33432094443E+03  0.93816571851E+03  0.14361717249E+03  0.10062568829E+04  0.12699999809E+01 0.  1.
</event>
<event>
 5   0  0.4514680E-05  0.2009875E+04  0.7818609E-02  0.8602018E-01
       -2   -1    0    0    0  501  0.00000000000E+00  0.00000000000E+00  0.10943155670E+04  0.10943155670E+04  0.25500000920E-02 0.  1.
        2   -1    0    0  501    0  0.00000000000E+00  0.00000000000E+00 -0.92285936311E+03  0.92285936311E+03  0.25500000920E-02 0. -1.
    10030    2    1    2    0    0  0.00000000000E+00  0.00000000000E+00  0.17145620385E+03  0.20171749301E+04  0.20098749883E+04 0.  0.
        3    1    3    3  502    0  0.92304099354E+02  0.67415810432E+03 -0.65647808667E+03  0.94550128760E+03  0.10100000352E+00 0. -1.
       -3    1    3    3    0  502 -0.92304099354E+02 -0.67415810432E+03  0.82793429052E+03  0.10716736425E+04  0.10100000352E+00 0.  1.
</event>
<event>
 5   0  0.2093980E-05  0.1998642E+04  0.7818609E-02  0.8607256E-01
       -1   -1    0    0    0  501  0.00000000000E+00  0.00000000000E+00  0.65676346340E+03  0.65676346342E+03  0.50400001928E-02 0.  1.
        1   -1    0    0  501    0  0.00000000000E+00  0.00000000000E+00 -0.15205515796E+04  0.15205515796E+04  0.50400001928E-02 0. -1.
    10030    2    1    2    0    0  0.00000000000E+00  0.00000000000E+00 -0.86378811622E+03  0.21773150430E+04  0.19986422609E+04 0.  0.
        2    1    3    3  502    0 -0.36099858117E+03 -0.51194449715E+03  0.41632283362E+03  0.75215147781E+03  0.25500000920E-02 0.  1.
       -2    1    3    3    0  502  0.36099858117E+03  0.51194449715E+03 -0.12801109498E+04  0.14251635652E+04  0.25500000920E-02 0. -1.
</event>
<event>
 5   0  0.2093980E-05  0.2003779E+04  0.7818609E-02  0.8604856E-01
       -1   -1    0    0    0  501  0.00000000000E+00  0.00000000000E+00  0.11200296748E+04  0.11200296748E+04  0.50400001928E-02 0.  1.
        1   -1    0    0  501    0  0.00000000000E+00  0.00000000000E+00 -0.89621068238E+03  0.89621068240E+03  0.50400001928E-02 0. -1.
    10030    2    1    2    0    0  0.00000000000E+00  0.00000000000E+00  0.22381899238E+03  0.20162403572E+04  0.20037789889E+04 0.  0.
        2    1    3    3  502    0 -0.86312950474E+03 -0.41902379614E+03 -0.17834424965E+03  0.97589966445E+03  0.25500000920E-02 0. -1.
       -2    1    3    3    0  502  0.86312950474E+03  0.41902379614E+03  0.40216324203E+03  0.10403406927E+04  0.25500000920E-02 0.  1.
</event>
<event>
 5   0  0.1601500E-05  0.1995996E+04  0.7818609E-02  0.8608495E-01
       -3   -1    0    0    0  501  0.00000000000E+00  0.00000000000E+00  0.14224181588E+04  0.14224181624E+04  0.10100000352E+00 0.  1.
        3   -1    0    0  501    0  0.00000000000E+00  0.00000000000E+00 -0.70021609343E+03  0.70021610071E+03  0.10100000352E+00 0. -1.
    10030    2    1    2    0    0  0.00000000000E+00  0.00000000000E+00  0.72220206542E+03  0.21226342631E+04  0.19959960901E+04 0.  0.
        1    1    3    3  502    0 -0.83669723759E+02 -0.79542171207E+03 -0.27368256438E+03  0.84533926253E+03  0.50400001928E-02 0. -1.
       -1    1    3    3    0  502  0.83669723759E+02  0.79542171207E+03  0.99588462980E+03  0.12772950006E+04  0.50400001928E-02 0.  1.
</event>
<event>
 5   0  0.1601500E-05  0.1996662E+04  0.7818609E-02  0.8608183E-01
       -3   -1    0    0    0  501  0.00000000000E+00  0.00000000000E+00  0.77864459768E+03  0.77864460423E+03  0.10100000352E+00 0. -1.
        3   -1    0    0  501    0  0.00000000000E+00  0.00000000000E+00 -0.12799996579E+04  0.12799996619E+04  0.10100000352E+00 0.  1.
    10030    2    1    2    0    0  0.00000000000E+00  0.00000000000E+00 -0.50135506022E+03  0.20586442661E+04  0.19966620440E+04 0.  0.
        2    1    3    3  502    0 -0.13355652841E+03 -0.17388331077E+03 -0.12548689154E+04  0.12738794083E+04  0.25500000920E-02 0.  1.
       -2    1    3    3    0  502  0.13355652841E+03  0.17388331077E+03  0.75351385520E+03  0.78476485779E+03  0.25500000920E-02 0. -1.
</event>
<event>
 5   0  0.2110896E-05  0.1932266E+04  0.7818609E-02  0.8638960E-01
       -1   -1    0    0    0  501  0.00000000000E+00  0.00000000000E+00  0.17603991670E+04  0.17603991670E+04  0.50400001928E-02 0. -1.
        1   -1    0    0  501    0  0.00000000000E+00  0.00000000000E+00 -0.53022801615E+03  0.53022801617E+03  0.50400001928E-02 0.  1.
    10030    2    1    2    0    0  0.00000000000E+00  0.00000000000E+00  0.12301711508E+04  0.22906271831E+04  0.19322659837E+04 0.  0.
        4    1    3    3  502    0 -0.73799614723E+03  0.40087982652E+03  0.48950508561E+02  0.84127326942E+03  0.12699999809E+01 0.  1.
       -4    1    3    3    0  502  0.73799614723E+03 -0.40087982652E+03  0.11812206422E+04  0.14493539137E+04  0.12699999809E+01 0. -1.
</event>
<event>
 5   0  0.2007644E-05  0.1997144E+04  0.7818609E-02  0.8607957E-01
       -1   -1    0    0    0  501  0.00000000000E+00  0.00000000000E+00  0.49021486182E+03  0.49021486184E+03  0.50400001928E-02 0. -1.
        1   -1    0    0  501    0  0.00000000000E+00  0.00000000000E+00 -0.20341006277E+04  0.20341006277E+04  0.50400001928E-02 0.  1.
    10030    2    1    2    0    0  0.00000000000E+00  0.00000000000E+00 -0.15438857658E+04  0.25243154895E+04  0.19971443194E+04 0.  0.
        1    1    3    3  502    0  0.53658767284E+03  0.50550884366E+03 -0.16232953528E+04  0.17828497761E+04  0.50400001928E-02 0.  1.
       -1    1    3    3    0  502 -0.53658767284E+03 -0.50550884366E+03  0.79409586945E+02  0.74146571343E+03  0.50400001928E-02 0. -1.
</event>
<event>
 5   0  0.4412054E-05  0.2000255E+04  0.7818609E-02  0.8606501E-01
       -2   -1    0    0    0  501  0.00000000000E+00  0.00000000000E+00  0.77619314733E+03  0.77619314733E+03  0.25500000920E-02 0. -1.
        2   -1    0    0  501    0  0.00000000000E+00  0.00000000000E+00 -0.12886679947E+04  0.12886679948E+04  0.25500000920E-02 0.  1.
    10030    2    1    2    0    0  0.00000000000E+00  0.00000000000E+00 -0.51247484742E+03  0.20648611421E+04  0.20002552504E+04 0.  0.
        4    1    3    3  502    0  0.23402206384E+03  0.71673052531E+03  0.42208948860E+03  0.86407761316E+03  0.12699999809E+01 0. -1.
       -4    1    3    3    0  502 -0.23402206384E+03 -0.71673052531E+03 -0.93456433602E+03  0.12007835289E+04  0.12699999809E+01 0.  1.
</event>
<event>
 5   0  0.4447313E-05  0.1917258E+04  0.7818609E-02  0.8646313E-01
       -2   -1    0    0    0  501  0.00000000000E+00  0.00000000000E+00  0.60898693075E+03  0.60898693075E+03  0.25500000920E-02 0.  1.
        2   -1    0    0  501    0  0.00000000000E+00  0.00000000000E+00 -0.15090138143E+04  0.15090138143E+04  0.25500000920E-02 0. -1.
    10030    2    1    2    0    0  0.00000000000E+00  0.00000000000E+00 -0.90002688356E+03  0.21180007451E+04  0.19172581373E+04 0.  0.
        5    1    3    3  502    0 -0.76536371458E+02  0.68906006457E+03  0.28133497276E+03  0.74821991796E+03  0.46999998093E+01 0.  1.
       -5    1    3    3    0  502  0.76536371458E+02 -0.68906006457E+03 -0.11813618563E+04  0.13697808271E+04  0.46999998093E+01 0. -1.
</event>
<event>
 5   0  0.2256868E-05  0.1987197E+04  0.7818609E-02  0.8612630E-01
        1   -1    0    0  501    0  0.00000000000E+00  0.00000000000E+00  0.14513514886E+04  0.14513514886E+04  0.50400001928E-02 0. -1.
       -1   -1    0    0    0  501  0.00000000000E+00  0.00000000000E+00 -0.68022011387E+03  0.68022011389E+03  0.50400001928E-02 0.  1.
    10030    2    1    2    0    0  0.00000000000E+00  0.00000000000E+00  0.77113137476E+03  0.21315716025E+04  0.19871974989E+04 0.  0.
        5    1    3    3  502    0 -0.81266344176E+03  0.49678528014E+03  0.82175937709E+02  0.95602952825E+03  0.46999998093E+01 0.  1.
       -5    1    3    3    0  502  0.81266344176E+03 -0.49678528014E+03  0.68895543705E+03  0.11755420743E+04  0.46999998093E+01 0. -1.
</event>
<event>
 5   0  0.4577279E-05  0.1999289E+04  0.7818609E-02  0.8606953E-01
       -2   -1    0    0    0  501  0.00000000000E+00  0.00000000000E+00  0.29770392363E+04  0.29770392363E+04  0.25500000920E-02 0. -1.
        2   -1    0    0  501    0  0.00000000000E+00  0.00000000000E+00 -0.33566543323E+03  0.33566543324E+03  0.25500000920E-02 0.  1.
    10030    2    1    2    0    0  0.00000000000E+00  0.00000000000E+00  0.26413738031E+04  0.33127046696E+04  0.19992890387E+04 0.  0.
        1    1    3    3  502    0 -0.19214983581E+03  0.19085779789E+03  0.29150923524E+04  0.29276460991E+04  0.50400001928E-02 0. -1.
       -1    1    3    3    0  502  0.19214983581E+03 -0.19085779789E+03 -0.27371854933E+03  0.38505857046E+03  0.50400001928E-02 0.  1.
</event>
<event>
 5   0  0.4473361E-05  0.1996792E+04  0.7818609E-02  0.8608122E-01
        2   -1    0    0  501    0  0.00000000000E+00  0.00000000000E+00  0.16976296162E+04  0.16976296162E+04  0.25500000920E-02 0. -1.
       -2   -1    0    0    0  501  0.00000000000E+00  0.00000000000E+00 -0.58716830844E+03  0.58716830845E+03  0.25500000920E-02 0.  1.
    10030    2    1    2    0    0  0.00000000000E+00  0.00000000000E+00  0.11104613078E+04  0.22847979247E+04  0.19967917369E+04 0.  0.
        2    1    3    3  502    0  0.41543966382E+03  0.40004818686E+03 -0.37727876716E+03  0.68917917426E+03  0.25500000920E-02 0.  1.
       -2    1    3    3    0  502 -0.41543966382E+03 -0.40004818686E+03  0.14877400750E+04  0.15956187504E+04  0.25500000920E-02 0. -1.
</event>
<event>
 5   0  0.4473361E-05  0.1992344E+04  0.7818609E-02  0.8610208E-01
       -2   -1    0    0    0  501  0.00000000000E+00  0.00000000000E+00  0.86004207400E+03  0.86004207400E+03  0.25500000920E-02 0. -1.
        2   -1    0    0  501    0  0.00000000000E+00  0.00000000000E+00 -0.11538495313E+04  0.11538495313E+04  0.25500000920E-02 0.  1.
    10030    2    1    2    0    0  0.00000000000E+00  0.00000000000E+00 -0.29380745726E+03  0.20138916053E+04  0.19923444922E+04 0.  0.
        2    1    3    3  502    0 -0.75046890094E+03  0.27208742075E+02 -0.80851686937E+03  0.11034688102E+04  0.25500000920E-02 0.  1.
       -2    1    3    3    0  502  0.75046890094E+03 -0.27208742075E+02  0.51470941211E+03  0.91042279511E+03  0.25500000920E-02 0. -1.
</event>
<event>
 5   0  0.2110896E-05  0.1999977E+04  0.7818609E-02  0.8606631E-01
       -1   -1    0    0    0  501  0.00000000000E+00  0.00000000000E+00  0.46628982875E+03  0.46628982877E+03  0.50400001928E-02 0. -1.
        1   -1    0    0  501    0  0.00000000000E+00  0.00000000000E+00 -0.21445399910E+04  0.21445399910E+04  0.50400001928E-02 0.  1.
    10030    2    1    2    0    0  0.00000000000E+00  0.00000000000E+00 -0.16782501623E+04  0.26108298198E+04  0.19999771851E+04 0.  0.
        4    1    3    3  502    0  0.13631897962E+03 -0.56390684292E+02 -0.21302557384E+04  0.21353580255E+04  0.12699999809E+01 0.  1.
       -4    1    3    3    0  502 -0.13631897962E+03  0.56390684292E+02  0.45200557606E+03  0.47547179430E+03  0.12699999809E+01 0. -1.
</event>
<event>
 5   0  0.2007644E-05  0.1991107E+04  0.7818609E-02  0.8610790E-01
        1   -1    0    0  501    0  0.00000000000E+00  0.00000000000E+00  0.85978527087E+03  0.85978527089E+03  0.50400001928E-02 0.  1.
       -1   -1    0    0    0  501  0.00000000000E+00  0.00000000000E+00 -0.11527610075E+04  0.11527610075E+04  0.50400001928E-02 0. -1.
    10030    2    1    2    0    0  0.00000000000E+00  0.00000000000E+00 -0.29297573661E+03  0.20125462784E+04  0.19911071645E+04 0.  0.
        1    1    3    3  502    0  0.38756778429E+03  0.74212998042E+03  0.39797835113E+03  0.92701265539E+03  0.50400001928E-02 0.  1.
       -1    1    3    3    0  502 -0.38756778429E+03 -0.74212998042E+03 -0.69095408775E+03  0.10855336230E+04  0.50400001928E-02 0. -1.
</event>
<event>
 5   0  0.4447313E-05  0.2009580E+04  0.7818609E-02  0.8602155E-01
       -2   -1    0    0    0  501  0.00000000000E+00  0.00000000000E+00  0.46101394292E+03  0.46101394292E+03  0.25500000920E-02 0.  1.
        2   -1    0    0  501    0  0.00000000000E+00  0.00000000000E+00 -0.21899618542E+04  0.21899618542E+04  0.25500000920E-02 0. -1.
    10030    2    1    2    0    0  0.00000000000E+00  0.00000000000E+00 -0.17289479113E+04  0.26509757971E+04  0.20095800051E+04 0.  0.
        5    1    3    3  502    0 -0.45150202743E+03  0.64751051623E+02 -0.20455053929E+04  0.20957483585E+04  0.46999998093E+01 0. -1.
       -5    1    3    3    0  502  0.45150202743E+03 -0.64751051623E+02  0.31655748165E+03  0.55522743867E+03  0.46999998093E+01 0.  1.
</event>
<event>
 5   0  0.2256868E-05  0.1990290E+04  0.7818609E-02  0.8611174E-01
       -1   -1    0    0    0  501  0.00000000000E+00  0.00000000000E+00  0.50988016371E+03  0.50988016373E+03  0.50400001928E-02 0. -1.
        1   -1    0    0  501    0  0.00000000000E+00  0.00000000000E+00 -0.19422480873E+04  0.19422480873E+04  0.50400001928E-02 0.  1.
    10030    2    1    2    0    0  0.00000000000E+00  0.00000000000E+00 -0.14323679236E+04  0.24521282510E+04  0.19902902027E+04 0.  0.
        5    1    3    3  502    0  0.42214144317E+03  0.83697827490E+03 -0.30468137915E+03  0.98569207336E+03  0.46999998093E+01 0. -1.
       -5    1    3    3    0  502 -0.42214144317E+03 -0.83697827490E+03 -0.11276865444E+04  0.14664361777E+04  0.46999998093E+01 0.  1.
</event>
<event>
 5   0  0.4473361E-05  0.2001442E+04  0.7818609E-02  0.8605947E-01
       -2   -1    0    0    0  501  0.00000000000E+00  0.00000000000E+00  0.10640948332E+04  0.10640948332E+04  0.25500000920E-02 0.  1.
        2   -1    0    0  501    0  0.00000000000E+00  0.00000000000E+00 -0.94112185515E+03  0.94112185516E+03  0.25500000920E-02 0. -1.
    10030    2    1    2    0    0  0.00000000000E+00  0.00000000000E+00  0.12297297807E+03  0.20052166884E+04  0.20014423834E+04 0.  0.
        2    1    3    3  502    0  0.25295725034E+03 -0.29264940597E+03 -0.86319051846E+03  0.94590111348E+03  0.25500000920E-02 0. -1.
       -2    1    3    3    0  502 -0.25295725034E+03  0.29264940597E+03  0.98616349653E+03  0.10593155749E+04  0.25500000920E-02 0.  1.
</event>
<event>
 5   0  0.4412054E-05  0.1984966E+04  0.7818609E-02  0.8613682E-01
        2   -1    0    0  501    0  0.00000000000E+00  0.00000000000E+00  0.63907750104E+03  0.63907750104E+03  0.25500000920E-02 0. -1.
       -2   -1    0    0    0  501  0.00000000000E+00  0.00000000000E+00 -0.15413197843E+04  0.15413197843E+04  0.25500000920E-02 0.  1.
    10030    2    1    2    0    0  0.00000000000E+00  0.00000000000E+00 -0.90224228329E+03  0.21803972854E+04  0.19849662930E+04 0.  0.
        4    1    3    3  502    0 -0.23517024389E+03  0.86801143749E+03  0.10063156085E+02  0.89936187335E+03  0.12699999809E+01 0. -1.
       -4    1    3    3    0  502  0.23517024389E+03 -0.86801143749E+03 -0.91230543937E+03  0.12810354120E+04  0.12699999809E+01 0.  1.
</event>
<event>
 5   0  0.2110896E-05  0.1994693E+04  0.7818609E-02  0.8609106E-01
       -1   -1    0    0    0  501  0.00000000000E+00  0.00000000000E+00  0.38921720547E+03  0.38921720550E+03  0.50400001928E-02 0. -1.
        1   -1    0    0  501    0  0.00000000000E+00  0.00000000000E+00 -0.25556425055E+04  0.25556425055E+04  0.50400001928E-02 0.  1.
    10030    2    1    2    0    0  0.00000000000E+00  0.00000000000E+00 -0.21664253000E+04  0.29448597110E+04  0.19946929931E+04 0.  0.
        4    1    3    3  502    0 -0.98749358111E+03 -0.10321864952E+03 -0.94392838109E+03  0.13699635265E+04  0.12699999809E+01 0. -1.
       -4    1    3    3    0  502  0.98749358111E+03  0.10321864952E+03 -0.12224969189E+04  0.15748961845E+04  0.12699999809E+01 0.  1.
</event>
<event>
 5   0  0.4447313E-05  0.1998340E+04  0.7818609E-02  0.8607397E-01
        2   -1    0    0  501    0  0.00000000000E+00  0.00000000000E+00  0.94653430200E+03  0.94653430200E+03  0.25500000920E-02 0.  1.
       -2   -1    0    0    0  501  0.00000000000E+00  0.00000000000E+00 -0.10547325103E+04  0.10547325103E+04  0.25500000920E-02 0. -1.
    10030    2    1    2    0    0  0.00000000000E+00  0.00000000000E+00 -0.10819820831E+03  0.20012668123E+04  0.19983398114E+04 0.  0.
        5    1    3    3  502    0 -0.48739117831E+03  0.30243985545E+03 -0.87340398270E+03  0.10449290090E+04  0.46999998093E+01 0. -1.
       -5    1    3    3    0  502  0.48739117831E+03 -0.30243985545E+03  0.76520577440E+03  0.95633780330E+03  0.46999998093E+01 0.  1.
</event>
<event>
 5   0  0.4514680E-05  0.1998270E+04  0.7818609E-02  0.8607430E-01
        2   -1    0    0  501    0  0.00000000000E+00  0.00000000000E+00  0.15545197585E+04  0.15545197585E+04  0.25500000920E-02 0.  1.
       -2   -1    0    0    0  501  0.00000000000E+00  0.00000000000E+00 -0.64217336929E+03  0.64217336929E+03  0.25500000920E-02 0. -1.
    10030    2    1    2    0    0  0.00000000000E+00  0.00000000000E+00  0.91234638924E+03  0.21966931278E+04  0.19982704431E+04 0.  0.
        3    1    3    3  502    0 -0.10040373776E+03  0.23084796480E+03  0.15190858735E+04  0.15398031025E+04  0.10100000352E+00 0.  1.
       -3    1    3    3    0  502  0.10040373776E+03 -0.23084796480E+03 -0.60673948423E+03  0.65689002529E+03  0.10100000352E+00 0. -1.
</event>
<event>
 5   0  0.4412054E-05  0.2006554E+04  0.7818609E-02  0.8603563E-01
       -2   -1    0    0    0  501  0.00000000000E+00  0.00000000000E+00  0.89018074871E+03  0.89018074871E+03  0.25500000920E-02 0.  1.
        2   -1    0    0  501    0  0.00000000000E+00  0.00000000000E+00 -0.11307417560E+04  0.11307417560E+04  0.25500000920E-02 0. -1.
    10030    2    1    2    0    0  0.00000000000E+00  0.00000000000E+00 -0.24056100730E+03  0.20209225047E+04  0.20065538049E+04 0.  0.
        4    1    3    3  502    0 -0.24957540133E+03  0.26839919582E+02 -0.10986037751E+04  0.11269162036E+04  0.12699999809E+01 0. -1.
       -4    1    3    3    0  502  0.24957540133E+03 -0.26839919582E+02  0.85804276782E+03  0.89400630117E+03  0.12699999809E+01 0.  1.
</event>
<event>
 5   0  0.2093980E-05  0.1997921E+04  0.7818609E-02  0.8607593E-01
       -1   -1    0    0    0  501  0.00000000000E+00  0.00000000000E+00  0.51205567003E+03  0.51205567005E+03  0.50400001928E-02 0. -1.
        1   -1    0    0  501    0  0.00000000000E+00  0.00000000000E+00 -0.19488539763E+04  0.19488539763E+04  0.50400001928E-02 0.  1.
    10030    2    1    2    0    0  0.00000000000E+00  0.00000000000E+00 -0.14367983063E+04  0.24609096464E+04  0.19979206477E+04 0.  0.
        2    1    3    3  502    0  0.79217711272E+03  0.42575380619E+03 -0.18275588192E+03  0.91772032438E+03  0.25500000920E-02 0. -1.
       -2    1    3    3    0  502 -0.79217711272E+03 -0.42575380619E+03 -0.12540424244E+04  0.15431893220E+04  0.25500000920E-02 0.  1.
</event>
<event>
 5   0  0.4447313E-05  0.2005442E+04  0.7818609E-02  0.8604080E-01
       -2   -1    0    0    0  501  0.00000000000E+00  0.00000000000E+00  0.96159931967E+03  0.96159931968E+03  0.25500000920E-02 0. -1.
        2   -1    0    0  501    0  0.00000000000E+00  0.00000000000E+00 -0.10456016699E+04  0.10456016699E+04  0.25500000920E-02 0.  1.
    10030    2    1    2    0    0  0.00000000000E+00  0.00000000000E+00 -0.84002350235E+02  0.20072009896E+04  0.20054424494E+04 0.  0.
        5    1    3    3  502    0 -0.12486210426E+03 -0.95966477905E+03  0.22068035258E+03  0.99260714345E+03  0.46999998093E+01 0. -1.
       -5    1    3    3    0  502  0.12486210426E+03  0.95966477905E+03 -0.30468270281E+03  0.10145938461E+04  0.46999998093E+01 0.  1.
</event>
<event>
 5   0  0.2142551E-05  0.1996138E+04  0.7818609E-02  0.8608429E-01
        1   -1    0    0  501    0  0.00000000000E+00  0.00000000000E+00  0.10401196337E+04  0.10401196338E+04  0.50400001928E-02 0. -1.
       -1   -1    0    0    0  501  0.00000000000E+00  0.00000000000E+00 -0.95771813421E+03  0.95771813422E+03  0.50400001928E-02 0.  1.
    10030    2    1    2    0    0  0.00000000000E+00  0.00000000000E+00  0.82401499536E+02  0.19978377680E+04  0.19961377057E+04 0.  0.
        3    1    3    3  502    0  0.17595567304E+03 -0.66185929446E+02  0.10222398554E+04  0.10393821762E+04  0.10100000352E+00 0. -1.
       -3    1    3    3    0  502 -0.17595567304E+03  0.66185929446E+02 -0.93983835582E+03  0.95845559177E+03  0.10100000352E+00 0.  1.
</event>
<event>
 5   0  0.4412054E-05  0.1999831E+04  0.7818609E-02  0.8606700E-01
        2   -1    0    0  501    0  0.00000000000E+00  0.00000000000E+00  0.17404309158E+04  0.17404309158E+04  0.25500000920E-02 0. -1.
       -2   -1    0    0    0  501  0.00000000000E+00  0.00000000000E+00 -0.57447340434E+03  0.57447340434E+03  0.25500000920E-02 0.  1.
    10030    2    1    2    0    0  0.00000000000E+00  0.00000000000E+00  0.11659575115E+04  0.23149043202E+04  0.19998312661E+04 0.  0.
        4    1    3    3  502    0  0.63013173107E+03  0.37552176461E+03 -0.20359918702E+03  0.76127316783E+03  0.12699999809E+01 0.  1.
       -4    1    3    3    0  502 -0.63013173107E+03 -0.37552176461E+03  0.13695566985E+04  0.15536311523E+04  0.12699999809E+01 0. -1.
</event>
<event>
 5   0  0.2007644E-05  0.1997286E+04  0.7818609E-02  0.8607890E-01
       -1   -1    0    0    0  501  0.00000000000E+00  0.00000000000E+00  0.20968703174E+04  0.20968703174E+04  0.50400001928E-02 0. -1.
        1   -1    0    0  501    0  0.00000000000E+00  0.00000000000E+00 -0.47560799145E+03  0.47560799148E+03  0.50400001928E-02 0.  1.
    10030    2    1    2    0    0  0.00000000000E+00  0.00000000000E+00  0.16212623260E+04  0.25724783089E+04  0.19972864392E+04 0.  0.
        1    1    3    3  502    0 -0.12110069124E+02 -0.18766092459E+03  0.20738598365E+04  0.20823683386E+04  0.50400001928E-02 0. -1.
       -1    1    3    3    0  502  0.12110069124E+02  0.18766092459E+03 -0.45259751052E+03  0.49010997025E+03  0.50400001928E-02 0.  1.
</event>
<event>
 5   0  0.4447313E-05  0.1990355E+04  0.7818609E-02  0.8611143E-01
       -2   -1    0    0    0  501  0.00000000000E+00  0.00000000000E+00  0.78527331222E+03  0.78527331223E+03  0.25500000920E-02 0. -1.
        2   -1    0    0  501    0  0.00000000000E+00  0.00000000000E+00 -0.12611893126E+04  0.12611893126E+04  0.25500000920E-02 0.  1.
    10030    2    1    2    0    0  0.00000000000E+00  0.00000000000E+00 -0.47591600035E+03  0.20464626248E+04  0.19903550526E+04 0.  0.
        5    1    3    3  502    0 -0.26880480612E+02  0.88192940688E+03 -0.71118692260E+03  0.11332832690E+04  0.46999998093E+01 0.  1.
       -5    1    3    3    0  502  0.26880480612E+02 -0.88192940688E+03  0.23527092225E+03  0.91317935578E+03  0.46999998093E+01 0. -1.
</event>
<event>
 5   0  0.2256868E-05  0.2000761E+04  0.7818609E-02  0.8606265E-01
       -1   -1    0    0    0  501  0.00000000000E+00  0.00000000000E+00  0.16680360900E+04  0.16680360900E+04  0.50400001928E-02 0.  1.
        1   -1    0    0  501    0  0.00000000000E+00  0.00000000000E+00 -0.59996370064E+03  0.59996370066E+03  0.50400001928E-02 0. -1.
    10030    2    1    2    0    0  0.00000000000E+00  0.00000000000E+00  0.10680723894E+04  0.22679997907E+04  0.20007609606E+04 0.  0.
        5    1    3    3  502    0  0.61790723387E+03  0.45800229394E+03  0.12591334848E+04  0.14754710006E+04  0.46999998093E+01 0.  1.
       -5    1    3    3    0  502 -0.61790723387E+03 -0.45800229394E+03 -0.19106109548E+03  0.79252879009E+03  0.46999998093E+01 0. -1.
</event>
<event>
 5   0  0.2256868E-05  0.2008433E+04  0.7818609E-02  0.8602688E-01
        1   -1    0    0  501    0  0.00000000000E+00  0.00000000000E+00  0.58454060868E+03  0.58454060870E+03  0.50400001928E-02 0.  1.
       -1   -1    0    0    0  501  0.00000000000E+00  0.00000000000E+00 -0.17252024321E+04  0.17252024321E+04  0.50400001928E-02 0. -1.
    10030    2    1    2    0    0  0.00000000000E+00  0.00000000000E+00 -0.11406618234E+04  0.23097430408E+04  0.20084331005E+04 0.  0.
        5    1    3    3  502    0 -0.79674451747E+03  0.60726230146E+03 -0.49016304218E+03  0.11152807838E+04  0.46999998093E+01 0. -1.
       -5    1    3    3    0  502  0.79674451747E+03 -0.60726230146E+03 -0.65049878122E+03  0.11944622569E+04  0.46999998093E+01 0.  1.
</event>
<event>
 5   0  0.4447313E-05  0.2002269E+04  0.7818609E-02  0.8605560E-01
        2   -1    0    0  501    0  0.00000000000E+00  0.00000000000E+00  0.13032349094E+04  0.13032349094E+04  0.25500000920E-02 0.  1.
       -2   -1    0    0    0  501  0.00000000000E+00  0.00000000000E+00 -0.76906357874E+03  0.76906357874E+03  0.25500000920E-02 0. -1.
    10030    2    1    2    0    0  0.00000000000E+00  0.00000000000E+00  0.53417133067E+03  0.20722984882E+04  0.20022692160E+04 0.  0.
        5    1    3    3  502    0  0.30781425380E+03 -0.88542915191E+02  0.12487630642E+04  0.12891938346E+04  0.46999998093E+01 0.  1.
       -5    1    3    3    0  502 -0.30781425380E+03  0.88542915191E+02 -0.71459173357E+03  0.78310465351E+03  0.46999998093E+01 0. -1.
</event>
<event>
 5   0  0.2110896E-05  0.2004537E+04  0.7818609E-02  0.8604502E-01
        1   -1    0    0  501    0  0.00000000000E+00  0.00000000000E+00  0.12285662233E+04  0.12285662233E+04  0.50400001928E-02 0. -1.
       -1   -1    0    0    0  501  0.00000000000E+00  0.00000000000E+00 -0.81765408751E+03  0.81765408753E+03  0.50400001928E-02 0.  1.
    10030    2    1    2    0    0  0.00000000000E+00  0.00000000000E+00  0.41091213580E+03  0.20462203108E+04  0.20045370481E+04 0.  0.
        4    1    3    3  502    0 -0.52078400784E+02 -0.99597354719E+03  0.30684472643E+03  0.10434705389E+04  0.12699999809E+01 0.  1.
       -4    1    3    3    0  502  0.52078400784E+02  0.99597354719E+03  0.10406740937E+03  0.10027497719E+04  0.12699999809E+01 0. -1.
</event>
<event>
 5   0  0.2110896E-05  0.1994523E+04  0.7818609E-02  0.8609185E-01
        1   -1    0    0  501    0  0.00000000000E+00  0.00000000000E+00  0.73783263011E+03  0.73783263012E+03  0.50400001928E-02 0. -1.
       -1   -1    0    0    0  501  0.00000000000E+00  0.00000000000E+00 -0.13479086563E+04  0.13479086563E+04  0.50400001928E-02 0.  1.
    10030    2    1    2    0    0  0.00000000000E+00  0.00000000000E+00 -0.61007602618E+03  0.20857412864E+04  0.19945234910E+04 0.  0.
        4    1    3    3  502    0 -0.24962018868E+03  0.22470582206E+03 -0.12869853848E+04  0.13300886958E+04  0.12699999809E+01 0.  1.
       -4    1    3    3    0  502  0.24962018868E+03 -0.22470582206E+03  0.67690935862E+03  0.75565259064E+03  0.12699999809E+01 0. -1.
</event>
<event>
 5   0  0.2256868E-05  0.2000818E+04  0.7818609E-02  0.8606238E-01
        1   -1    0    0  501    0  0.00000000000E+00  0.00000000000E+00  0.93446437361E+03  0.93446437363E+03  0.50400001928E-02 0. -1.
       -1   -1    0    0    0  501  0.00000000000E+00  0.00000000000E+00 -0.10710070277E+04  0.10710070277E+04  0.50400001928E-02 0.  1.
    10030    2    1    2    0    0  0.00000000000E+00  0.00000000000E+00 -0.13654265411E+03  0.20054714014E+04  0.20008177441E+04 0.  0.
        5    1    3    3  502    0  0.12798487475E+03  0.57266124971E+03  0.74384448833E+03  0.94744274123E+03  0.46999998093E+01 0. -1.
       -5    1    3    3    0  502 -0.12798487475E+03 -0.57266124971E+03 -0.88038714244E+03  0.10580286601E+04  0.46999998093E+01 0.  1.
</event>
<event>
 5   0  0.2110896E-05  0.1999919E+04  0.7818609E-02  0.8606659E-01
        1   -1    0    0  501    0  0.00000000000E+00  0.00000000000E+00  0.94684638907E+03  0.94684638909E+03  0.50400001928E-02 0.  1.
       -1   -1    0    0    0  501  0.00000000000E+00  0.00000000000E+00 -0.10560515156E+04  0.10560515156E+04  0.50400001928E-02 0. -1.
    10030    2    1    2    0    0  0.00000000000E+00  0.00000000000E+00 -0.10920512649E+03  0.20028979047E+04  0.19999185626E+04 0.  0.
        4    1    3    3  502    0  0.84947439498E+03 -0.19958191613E+03  0.43446627227E+03  0.97478317775E+03  0.12699999809E+01 0.  1.
       -4    1    3    3    0  502 -0.84947439498E+03  0.19958191613E+03 -0.54367139876E+03  0.10281147269E+04  0.12699999809E+01 0. -1.
</event>
<event>
 5   0  0.2110896E-05  0.1999391E+04  0.7818609E-02  0.8606906E-01
       -1   -1    0    0    0  501  0.00000000000E+00  0.00000000000E+00  0.88939467861E+03  0.88939467863E+03  0.50400001928E-02 0. -1.
        1   -1    0    0  501    0  0.00000000000E+00  0.00000000000E+00 -0.11236750722E+04  0.11236750722E+04  0.50400001928E-02 0.  1.
    10030    2    1    2    0    0  0.00000000000E+00  0.00000000000E+00 -0.23428039362E+03  0.20130697509E+04  0.19993905369E+04 0.  0.
        4    1    3    3  502    0 -0.41374461190E+03 -0.14644736801E+03  0.78720183929E+03  0.90128784756E+03  0.12699999809E+01 0. -1.
       -4    1    3    3    0  502  0.41374461190E+03  0.14644736801E+03 -0.10214822329E+04  0.11117819033E+04  0.12699999809E+01 0.  1.
</event>
<event>
 5   0  0.2110896E-05  0.1995528E+04  0.7818609E-02  0.8608714E-01
       -1   -1    0    0    0  501  0.00000000000E+00  0.00000000000E+00  0.67891501288E+03  0.67891501290E+03  0.50400001928E-02 0. -1.
        1   -1    0    0  501    0  0.00000000000E+00  0.00000000000E+00 -0.14663582636E+04  0.14663582636E+04  0.50400001928E-02 0.  1.
    10030    2    1    2    0    0  0.00000000000E+00  0.00000000000E+00 -0.78744325075E+03  0.21452732765E+04  0.19955276390E+04 0.  0.
        4    1    3    3  502    0  0.56120165978E+02  0.42964998861E+02 -0.14636628266E+04  0.14653688775E+04  0.12699999809E+01 0.  1.
       -4    1    3    3    0  502 -0.56120165978E+02 -0.42964998861E+02  0.67621957587E+03  0.67990439905E+03  0.12699999809E+01 0. -1.
</event>
<event>
 5   0  0.2007644E-05  0.1990791E+04  0.7818609E-02  0.8610938E-01
       -1   -1    0    0    0  501  0.00000000000E+00  0.00000000000E+00  0.92707528075E+03  0.92707528077E+03  0.50400001928E-02 0.  1.
        1   -1    0    0  501    0  0.00000000000E+00  0.00000000000E+00 -0.10687503384E+04  0.10687503384E+04  0.50400001928E-02 0. -1.
    10030    2    1    2    0    0  0.00000000000E+00  0.00000000000E+00 -0.14167505762E+03  0.19958256192E+04  0.19907908178E+04 0.  0.
        1    1    3    3  502    0 -0.48760559045E+03 -0.57324806849E+03  0.58230030400E+03  0.95154937020E+03  0.50400001928E-02 0.  1.
       -1    1    3    3    0  502  0.48760559045E+03  0.57324806849E+03 -0.72397536162E+03  0.10442762490E+04  0.50400001928E-02 0. -1.
</event>
<event>
 5   0  0.4473361E-05  0.2019555E+04  0.7818609E-02  0.8597532E-01
       -2   -1    0    0    0  501  0.00000000000E+00  0.00000000000E+00  0.11162551128E+04  0.11162551128E+04  0.25500000920E-02 0. -1.
        2   -1    0    0  501    0  0.00000000000E+00  0.00000000000E+00 -0.91345638163E+03  0.91345638163E+03  0.25500000920E-02 0.  1.
    10030    2    1    2    0    0  0.00000000000E+00  0.00000000000E+00  0.20279873115E+03  0.20297114944E+04  0.20195547591E+04 0.  0.
        2    1    3    3  502    0  0.20433295132E+03  0.23750897705E+03 -0.86336997432E+03  0.91846076766E+03  0.25500000920E-02 0.  1.
       -2    1    3    3    0  502 -0.20433295132E+03 -0.23750897705E+03  0.10661687055E+04  0.11112507267E+04  0.25500000920E-02 0. -1.
</event>
<event>
 5   0  0.2007644E-05  0.2000693E+04  0.7818609E-02  0.8606297E-01
       -1   -1    0    0    0  501  0.00000000000E+00  0.00000000000E+00  0.78241325733E+03  0.78241325734E+03  0.50400001928E-02 0. -1.
        1   -1    0    0  501    0  0.00000000000E+00  0.00000000000E+00 -0.12789823330E+04  0.12789823330E+04  0.50400001928E-02 0.  1.
    10030    2    1    2    0    0  0.00000000000E+00  0.00000000000E+00 -0.49656907570E+03  0.20613955904E+04  0.20006926134E+04 0.  0.
        1    1    3    3  502    0 -0.30250481822E+03 -0.83212266918E+03 -0.72798039595E+03  0.11462516122E+04  0.50400001928E-02 0.  1.
       -1    1    3    3    0  502  0.30250481822E+03  0.83212266918E+03  0.23141132025E+03  0.91514397816E+03  0.50400001928E-02 0. -1.
</event>
<event>
 5   0  0.2110896E-05  0.2001156E+04  0.7818609E-02  0.8606081E-01
       -1   -1    0    0    0  501  0.00000000000E+00  0.00000000000E+00  0.14526104340E+04  0.14526104340E+04  0.50400001928E-02 0.  1.
        1   -1    0    0  501    0  0.00000000000E+00  0.00000000000E+00 -0.68921156885E+03  0.68921156887E+03  0.50400001928E-02 0. -1.
    10030    2    1    2    0    0  0.00000000000E+00  0.00000000000E+00  0.76339886512E+03  0.21418220029E+04  0.20011555823E+04 0.  0.
        4    1    3    3  502    0  0.82645484218E+03  0.20827912002E+03 -0.17930799281E+03  0.87095394091E+03  0.12699999809E+01 0. -1.
       -4    1    3    3    0  502 -0.82645484218E+03 -0.20827912002E+03  0.94270685793E+03  0.12708680619E+04  0.12699999809E+01 0.  1.
</event>
<event>
 5   0  0.4447313E-05  0.2005248E+04  0.7818609E-02  0.8604171E-01
        2   -1    0    0  501    0  0.00000000000E+00  0.00000000000E+00  0.12662984673E+04  0.12662984673E+04  0.25500000920E-02 0.  1.
       -2   -1    0    0    0  501  0.00000000000E+00  0.00000000000E+00 -0.79385292318E+03  0.79385292319E+03  0.25500000920E-02 0. -1.
    10030    2    1    2    0    0  0.00000000000E+00  0.00000000000E+00  0.47244554408E+03  0.20601513905E+04  0.20052478549E+04 0.  0.
        5    1    3    3  502    0 -0.21553592051E+02 -0.91129927183E+03  0.66514832887E+03  0.11284393247E+04  0.46999998093E+01 0. -1.
       -5    1    3    3    0  502  0.21553592051E+02  0.91129927183E+03 -0.19270278479E+03  0.93171206574E+03  0.46999998093E+01 0.  1.
</event>
<event>
 5   0  0.1601500E-05  0.1969791E+04  0.7818609E-02  0.8620876E-01
       -4   -1    0    0    0  501  0.00000000000E+00  0.00000000000E+00  0.61744488352E+03  0.61744618962E+03  0.12699999809E+01 0.  1.
        4   -1    0    0  501    0  0.00000000000E+00  0.00000000000E+00 -0.15710176013E+04  0.15710181147E+04  0.12699999809E+01 0. -1.
    10030    2    1    2    0    0  0.00000000000E+00  0.00000000000E+00 -0.95357271781E+03  0.21884643043E+04  0.19697906191E+04 0.  0.
        4    1    3    3  502    0  0.87943699605E+03 -0.43332964418E+03 -0.37236793382E+03  0.10487342378E+04  0.12699999809E+01 0.  1.
       -4    1    3    3    0  502 -0.87943699605E+03  0.43332964418E+03 -0.58120478399E+03  0.11397300665E+04  0.12699999809E+01 0. -1.
</event>
<event>
 5   0  0.2142551E-05  0.2007579E+04  0.7818609E-02  0.8603085E-01
       -1   -1    0    0    0  501  0.00000000000E+00  0.00000000000E+00  0.56902614413E+03  0.56902614415E+03  0.50400001928E-02 0.  1.
        1   -1    0    0  501    0  0.00000000000E+00  0.00000000000E+00 -0.17707328306E+04  0.17707328306E+04  0.50400001928E-02 0. -1.
    10030    2    1    2    0    0  0.00000000000E+00  0.00000000000E+00 -0.12017066865E+04  0.23397589748E+04  0.20075789149E+04 0.  0.
        3    1    3    3  502    0  0.36680251772E+03  0.38046480986E+03 -0.15954623113E+04  0.16807134067E+04  0.10100000352E+00 0. -1.
       -3    1    3    3    0  502 -0.36680251772E+03 -0.38046480986E+03  0.39375562480E+03  0.65904556808E+03  0.10100000352E+00 0.  1.
</event>
<event>
 5   0  0.2110896E-05  0.1992259E+04  0.7818609E-02  0.8610248E-01
        1   -1    0    0  501    0  0.00000000000E+00  0.00000000000E+00  0.97261709559E+03  0.97261709560E+03  0.50400001928E-02 0. -1.
       -1   -1    0    0    0  501  0.00000000000E+00  0.00000000000E+00 -0.10202106061E+04  0.10202106061E+04  0.50400001928E-02 0.  1.
    10030    2    1    2    0    0  0.00000000000E+00  0.00000000000E+00 -0.47593510523E+02  0.19928277017E+04  0.19922592970E+04 0.  0.
        4    1    3    3  502    0 -0.90235324209E+03  0.41691840028E+03  0.41108872605E+02  0.99486374862E+03  0.12699999809E+01 0. -1.
       -4    1    3    3    0  502  0.90235324209E+03 -0.41691840028E+03 -0.88702383128E+02  0.99796395310E+03  0.12699999809E+01 0.  1.
</event>
<event>
 5   0  0.2110896E-05  0.2001280E+04  0.7818609E-02  0.8606022E-01
       -1   -1    0    0    0  501  0.00000000000E+00  0.00000000000E+00  0.46475917406E+03  0.46475917409E+03  0.50400001928E-02 0. -1.
        1   -1    0    0  501    0  0.00000000000E+00  0.00000000000E+00 -0.21544071856E+04  0.21544071856E+04  0.50400001928E-02 0.  1.
    10030    2    1    2    0    0  0.00000000000E+00  0.00000000000E+00 -0.16896480115E+04  0.26191663597E+04  0.20012800945E+04 0.  0.
        4    1    3    3  502    0  0.55872487478E+03 -0.24594790429E+03  0.19281810875E+03  0.64019082568E+03  0.12699999809E+01 0. -1.
       -4    1    3    3    0  502 -0.55872487478E+03  0.24594790429E+03 -0.18824661203E+04  0.19789755340E+04  0.12699999809E+01 0.  1.
</event>
<event>
 5   0  0.4412054E-05  0.1982003E+04  0.7818609E-02  0.8615081E-01
       -2   -1    0    0    0  501  0.00000000000E+00  0.00000000000E+00  0.46609328054E+03  0.46609328055E+03  0.25500000920E-02 0.  1.
        2   -1    0    0  501    0  0.00000000000E+00  0.00000000000E+00 -0.21070551595E+04  0.21070551596E+04  0.25500000920E-02 0. -1.
    10030    2    1    2    0    0  0.00000000000E+00  0.00000000000E+00 -0.16409618790E+04  0.25731484401E+04  0.19820032811E+04 0.  0.
        4    1    3    3  502    0  0.68054070712E+01 -0.89160283940E+03 -0.13820135296E+04  0.16446777635E+04  0.12699999809E+01 0. -1.
       -4    1    3    3    0  502 -0.68054070712E+01  0.89160283940E+03 -0.25894834941E+03  0.92847067662E+03  0.12699999809E+01 0.  1.
</event>
<event>
 5   0  0.1601500E-05  0.2029640E+04  0.7818609E-02  0.8592887E-01
        3   -1    0    0  501    0  0.00000000000E+00  0.00000000000E+00  0.12081777102E+04  0.12081777145E+04  0.10100000352E+00 0.  1.
       -3   -1    0    0    0  501  0.00000000000E+00  0.00000000000E+00 -0.85240762213E+03  0.85240762812E+03  0.10100000352E+00 0. -1.
    10030    2    1    2    0    0  0.00000000000E+00  0.00000000000E+00  0.35577008811E+03  0.20605853426E+04  0.20296402633E+04 0.  0.
        1    1    3    3  502    0 -0.21705404971E+03  0.24642884126E+03  0.11527439641E+04  0.11986068084E+04  0.50400001928E-02 0.  1.
       -1    1    3    3    0  502  0.21705404971E+03 -0.24642884126E+03 -0.79697387602E+03  0.86197853418E+03  0.50400001928E-02 0. -1.
</event>
<event>
 5   0  0.2142551E-05  0.2002707E+04  0.7818609E-02  0.8605356E-01
       -1   -1    0    0    0  501  0.00000000000E+00  0.00000000000E+00  0.13466305695E+04  0.13466305695E+04  0.50400001928E-02 0. -1.
        1   -1    0    0  501    0  0.00000000000E+00  0.00000000000E+00 -0.74460572386E+03  0.74460572388E+03  0.50400001928E-02 0.  1.
    10030    2    1    2    0    0  0.00000000000E+00  0.00000000000E+00  0.60202484559E+03  0.20912362933E+04  0.20027069980E+04 0.  0.
        3    1    3    3  502    0  0.81614152529E+02 -0.90811101447E+03 -0.13127113806E+03  0.92117240861E+03  0.10100000352E+00 0.  1.
       -3    1    3    3    0  502 -0.81614152529E+02  0.90811101447E+03  0.73329598365E+03  0.11700638847E+04  0.10100000352E+00 0. -1.
</event>
<event>
 5   0  0.4473361E-05  0.1989921E+04  0.7818609E-02  0.8611348E-01
        2   -1    0    0  501    0  0.00000000000E+00  0.00000000000E+00  0.14172621635E+04  0.14172621635E+04  0.25500000920E-02 0. -1.
       -2   -1    0    0    0  501  0.00000000000E+00  0.00000000000E+00 -0.69849201572E+03  0.69849201572E+03  0.25500000920E-02 0.  1.
    10030    2    1    2    0    0  0.00000000000E+00  0.00000000000E+00  0.71877014774E+03  0.21157541792E+04  0.19899209083E+04 0.  0.
        2    1    3    3  502    0 -0.23713290022E+03 -0.94957540522E+03  0.54964431990E+03  0.11225125126E+04  0.25500000920E-02 0.  1.
       -2    1    3    3    0  502  0.23713290022E+03  0.94957540522E+03  0.16912582784E+03  0.99324166657E+03  0.25500000920E-02 0. -1.
</event>
<event>
 5   0  0.4447313E-05  0.1857763E+04  0.7818609E-02  0.8676171E-01
       -2   -1    0    0    0  501  0.00000000000E+00  0.00000000000E+00  0.13666129131E+04  0.13666129131E+04  0.25500000920E-02 0. -1.
        2   -1    0    0  501    0  0.00000000000E+00  0.00000000000E+00 -0.63135709640E+03  0.63135709641E+03  0.25500000920E-02 0.  1.
    10030    2    1    2    0    0  0.00000000000E+00  0.00000000000E+00  0.73525581667E+03  0.19979700095E+04  0.18577629135E+04 0.  0.
        5    1    3    3  502    0  0.61438359764E+03  0.24485340565E+03 -0.33380530996E+03  0.74085657874E+03  0.46999998093E+01 0.  1.
       -5    1    3    3    0  502 -0.61438359764E+03 -0.24485340565E+03  0.10690611266E+04  0.12571134308E+04  0.46999998093E+01 0. -1.
</event>
<event>
 5   0  0.4514680E-05  0.1997404E+04  0.7818609E-02  0.8607835E-01
       -2   -1    0    0    0  501  0.00000000000E+00  0.00000000000E+00  0.74431167881E+03  0.74431167881E+03  0.25500000920E-02 0. -1.
        2   -1    0    0  501    0  0.00000000000E+00  0.00000000000E+00 -0.13400374341E+04  0.13400374341E+04  0.25500000920E-02 0.  1.
    10030    2    1    2    0    0  0.00000000000E+00  0.00000000000E+00 -0.59572575524E+03  0.20843491129E+04  0.19974038272E+04 0.  0.
        3    1    3    3  502    0 -0.68179272537E+02  0.45787165271E+03  0.62559299189E+03  0.77824254912E+03  0.10100000352E+00 0. -1.
       -3    1    3    3    0  502  0.68179272537E+02 -0.45787165271E+03 -0.12213187471E+04  0.13061065637E+04  0.10100000352E+00 0.  1.
</event>
<event>
 5   0  0.2093980E-05  0.2003370E+04  0.7818609E-02  0.8605047E-01
        1   -1    0    0  501    0  0.00000000000E+00  0.00000000000E+00  0.13044291444E+04  0.13044291444E+04  0.50400001928E-02 0.  1.
       -1   -1    0    0    0  501  0.00000000000E+00  0.00000000000E+00 -0.76920461358E+03  0.76920461360E+03  0.50400001928E-02 0. -1.
    10030    2    1    2    0    0  0.00000000000E+00  0.00000000000E+00  0.53522453081E+03  0.20736337580E+04  0.20033700766E+04 0.  0.
        2    1    3    3  502    0 -0.70434865603E+03  0.67780642250E+03  0.41207190551E+02  0.97837958288E+03  0.25500000920E-02 0.  1.
       -2    1    3    3    0  502  0.70434865603E+03 -0.67780642250E+03  0.49401734026E+03  0.10952541751E+04  0.25500000920E-02 0. -1.
</event>
<event>
 5   0  0.4514680E-05  0.1964674E+04  0.7818609E-02  0.8623317E-01
       -2   -1    0    0    0  501  0.00000000000E+00  0.00000000000E+00  0.99093364913E+03  0.99093364913E+03  0.25500000920E-02 0.  1.
        2   -1    0    0  501    0  0.00000000000E+00  0.00000000000E+00 -0.97381517265E+03  0.97381517266E+03  0.25500000920E-02 0. -1.
    10030    2    1    2    0    0  0.00000000000E+00  0.00000000000E+00  0.17118476472E+02  0.19647488218E+04  0.19646742454E+04 0.  0.
        3    1    3    3  502    0  0.27460186342E+03  0.48323821910E+03 -0.80144734196E+03  0.97531698023E+03  0.10100000352E+00 0. -1.
       -3    1    3    3    0  502 -0.27460186342E+03 -0.48323821910E+03  0.81856581843E+03  0.98943184156E+03  0.10100000352E+00 0.  1.
</event>
<event>
 5   0  0.2256868E-05  0.2013863E+04  0.7818609E-02  0.8600167E-01
       -1   -1    0    0    0  501  0.00000000000E+00  0.00000000000E+00  0.61803779238E+03  0.61803779240E+03  0.50400001928E-02 0.  1.
        1   -1    0    0  501    0  0.00000000000E+00  0.00000000000E+00 -0.16405325639E+04  0.16405325639E+04  0.50400001928E-02 0. -1.
    10030    2    1    2    0    0  0.00000000000E+00  0.00000000000E+00 -0.10224947715E+04  0.22585703563E+04  0.20138630779E+04 0.  0.
        5    1    3    3  502    0  0.24789602355E+03 -0.14365585390E+03 -0.15938397059E+04  0.16193938807E+04  0.46999998093E+01 0. -1.
       -5    1    3    3    0  502 -0.24789602355E+03  0.14365585390E+03  0.57134493439E+03  0.63917647556E+03  0.46999998093E+01 0.  1.
</event>
<event>
 5   0  0.2142551E-05  0.1993799E+04  0.7818609E-02  0.8609525E-01
       -1   -1    0    0    0  501  0.00000000000E+00  0.00000000000E+00  0.65259933256E+03  0.65259933258E+03  0.50400001928E-02 0. -1.
        1   -1    0    0  501    0  0.00000000000E+00  0.00000000000E+00 -0.15228471859E+04  0.15228471859E+04  0.50400001928E-02 0.  1.
    10030    2    1    2    0    0  0.00000000000E+00  0.00000000000E+00 -0.87024785331E+03  0.21754465185E+04  0.19937994454E+04 0.  0.
        3    1    3    3  502    0  0.13347012969E+03  0.70111231186E+03 -0.11945496058E+04  0.13915177039E+04  0.10100000352E+00 0.  1.
       -3    1    3    3    0  502 -0.13347012969E+03 -0.70111231186E+03  0.32430175252E+03  0.78392881453E+03  0.10100000352E+00 0. -1.
</event>
<event>
 5   0  0.2110896E-05  0.2006686E+04  0.7818609E-02  0.8603501E-01
        1   -1    0    0  501    0  0.00000000000E+00  0.00000000000E+00  0.79909649152E+03  0.79909649154E+03  0.50400001928E-02 0. -1.
       -1   -1    0    0    0  501  0.00000000000E+00  0.00000000000E+00 -0.12597937740E+04  0.12597937740E+04  0.50400001928E-02 0.  1.
    10030    2    1    2    0    0  0.00000000000E+00  0.00000000000E+00 -0.46069728244E+03  0.20588902655E+04  0.20066856105E+04 0.  0.
        4    1    3    3  502    0  0.19479758936E+03 -0.94559340832E+03  0.49891030170E+02  0.96673870434E+03  0.12699999809E+01 0. -1.
       -4    1    3    3    0  502 -0.19479758936E+03  0.94559340832E+03 -0.51058831261E+03  0.10921515612E+04  0.12699999809E+01 0.  1.
</event>
<event>
 5   0  0.4412054E-05  0.1997525E+04  0.7818609E-02  0.8607779E-01
       -2   -1    0    0    0  501  0.00000000000E+00  0.00000000000E+00  0.14918341072E+04  0.14918341072E+04  0.25500000920E-02 0.  1.
        2   -1    0    0  501    0  0.00000000000E+00  0.00000000000E+00 -0.66865776534E+03  0.66865776534E+03  0.25500000920E-02 0. -1.
    10030    2    1    2    0    0  0.00000000000E+00  0.00000000000E+00  0.82317634186E+03  0.21604918725E+04  0.19975249289E+04 0.  0.
        4    1    3    3  502    0  0.97426066031E+03  0.16401824439E+02  0.64872908781E+03  0.11705998020E+04  0.12699999809E+01 0. -1.
       -4    1    3    3    0  502 -0.97426066031E+03 -0.16401824439E+02  0.17444725405E+03  0.98989207059E+03  0.12699999809E+01 0.  1.
</event>
<event>
 5   0  0.2110896E-05  0.1999215E+04  0.7818609E-02  0.8606988E-01
       -1   -1    0    0    0  501  0.00000000000E+00  0.00000000000E+00  0.76928927372E+03  0.76928927373E+03  0.50400001928E-02 0.  1.
        1   -1    0    0  501    0  0.00000000000E+00  0.00000000000E+00 -0.12988813721E+04  0.12988813721E+04  0.50400001928E-02 0. -1.
    10030    2    1    2    0    0  0.00000000000E+00  0.00000000000E+00 -0.52959209841E+03  0.20681706459E+04  0.19992153535E+04 0.  0.
        4    1    3    3  502    0 -0.24334157291E+03  0.95989630511E+03 -0.40587370732E+03  0.10702107815E+04  0.12699999809E+01 0. -1.
       -4    1    3    3    0  502  0.24334157291E+03 -0.95989630511E+03 -0.12371839109E+03  0.99795986436E+03  0.12699999809E+01 0.  1.
</event>
<event>
 5   0  0.4447313E-05  0.1998160E+04  0.7818609E-02  0.8607481E-01
       -2   -1    0    0    0  501  0.00000000000E+00  0.00000000000E+00  0.45717381180E+03  0.45717381181E+03  0.25500000920E-02 0.  1.
        2   -1    0    0  501    0  0.00000000000E+00  0.00000000000E+00 -0.21833290350E+04  0.21833290350E+04  0.25500000920E-02 0. -1.
    10030    2    1    2    0    0  0.00000000000E+00  0.00000000000E+00 -0.17261552232E+04  0.26405028468E+04  0.19981600110E+04 0.  0.
        5    1    3    3  502    0  0.61865036801E+03  0.73843786587E+03 -0.12130045319E+04  0.15490064054E+04  0.46999998093E+01 0.  1.
       -5    1    3    3    0  502 -0.61865036801E+03 -0.73843786587E+03 -0.51315069127E+03  0.10914964414E+04  0.46999998093E+01 0. -1.
</event>
<event>
 5   0  0.2142551E-05  0.2004410E+04  0.7818609E-02  0.8604562E-01
       -1   -1    0    0    0  501  0.00000000000E+00  0.00000000000E+00  0.59916992500E+03  0.59916992502E+03  0.50400001928E-02 0.  1.
        1   -1    0    0  501    0  0.00000000000E+00  0.00000000000E+00 -0.16763436378E+04  0.16763436378E+04  0.50400001928E-02 0. -1.
    10030    2    1    2    0    0  0.00000000000E+00  0.00000000000E+00 -0.10771737128E+04  0.22755135628E+04  0.20044098301E+04 0.  0.
        3    1    3    3  502    0 -0.56083025012E+02  0.93154172550E+03 -0.95338093143E+03  0.13341103787E+04  0.10100000352E+00 0. -1.
       -3    1    3    3    0  502  0.56083025012E+02 -0.93154172550E+03 -0.12379278134E+03  0.94140318406E+03  0.10100000352E+00 0.  1.
</event>
<event>
 5   0  0.4473361E-05  0.2065078E+04  0.7818609E-02  0.8576785E-01
        2   -1    0    0  501    0  0.00000000000E+00  0.00000000000E+00  0.17526256544E+04  0.17526256544E+04  0.25500000920E-02 0. -1.
       -2   -1    0    0    0  501  0.00000000000E+00  0.00000000000E+00 -0.60830838858E+03  0.60830838859E+03  0.25500000920E-02 0.  1.
    10030    2    1    2    0    0  0.00000000000E+00  0.00000000000E+00  0.11443172658E+04  0.23609340430E+04  0.20650780979E+04 0.  0.
        2    1    3    3  502    0  0.39260040303E+03  0.70201934862E+03  0.13123479358E+04  0.15392281660E+04  0.25500000920E-02 0. -1.
       -2    1    3    3    0  502 -0.39260040303E+03 -0.70201934862E+03 -0.16803066997E+03  0.82170587703E+03  0.25500000920E-02 0.  1.
</event>
<event>
 5   0  0.4412054E-05  0.1991318E+04  0.7818609E-02  0.8610690E-01
        2   -1    0    0  501    0  0.00000000000E+00  0.00000000000E+00  0.13485634554E+04  0.13485634554E+04  0.25500000920E-02 0. -1.
       -2   -1    0    0    0  501  0.00000000000E+00  0.00000000000E+00 -0.73510599435E+03  0.73510599436E+03  0.25500000920E-02 0.  1.
    10030    2    1    2    0    0  0.00000000000E+00  0.00000000000E+00  0.61345746107E+03  0.20836694498E+04  0.19913182366E+04 0.  0.
        4    1    3    3  502    0 -0.18204938470E+03 -0.17438043433E+03  0.13146156653E+04  0.13385688159E+04  0.12699999809E+01 0. -1.
       -4    1    3    3    0  502  0.18204938470E+03  0.17438043433E+03 -0.70115820427E+03  0.74510063392E+03  0.12699999809E+01 0.  1.
</event>
<event>
 5   0  0.4473361E-05  0.1955958E+04  0.7818609E-02  0.8627493E-01
       -2   -1    0    0    0  501  0.00000000000E+00  0.00000000000E+00  0.95833289646E+03  0.95833289647E+03  0.25500000920E-02 0. -1.
        2   -1    0    0  501    0  0.00000000000E+00  0.00000000000E+00 -0.99802765109E+03  0.99802765109E+03  0.25500000920E-02 0.  1.
    10030    2    1    2    0    0  0.00000000000E+00  0.00000000000E+00 -0.39694754623E+02  0.19563605476E+04  0.19559578008E+04 0.  0.
        2    1    3    3  502    0 -0.76678921252E+02 -0.83884829594E+03  0.47714185329E+03  0.96809631171E+03  0.25500000920E-02 0. -1.
       -2    1    3    3    0  502  0.76678921252E+02  0.83884829594E+03 -0.51683660792E+03  0.98826423585E+03  0.25500000920E-02 0.  1.
</event>
<event>
 5   0  0.2110896E-05  0.2001092E+04  0.7818609E-02  0.8606110E-01
        1   -1    0    0  501    0  0.00000000000E+00  0.00000000000E+00  0.11901768838E+04  0.11901768838E+04  0.50400001928E-02 0. -1.
       -1   -1    0    0    0  501  0.00000000000E+00  0.00000000000E+00 -0.84112870154E+03  0.84112870155E+03  0.50400001928E-02 0.  1.
    10030    2    1    2    0    0  0.00000000000E+00  0.00000000000E+00  0.34904818226E+03  0.20313055854E+04  0.20010916390E+04 0.  0.
        4    1    3    3  502    0  0.62558065051E+03  0.44801796516E+03  0.82372641724E+03  0.11272080867E+04  0.12699999809E+01 0.  1.
       -4    1    3    3    0  502 -0.62558065051E+03 -0.44801796516E+03 -0.47467823498E+03  0.90409749864E+03  0.12699999809E+01 0. -1.
</event>
<event>
 5   0  0.4447313E-05  0.2004147E+04  0.7818609E-02  0.8604684E-01
        2   -1    0    0  501    0  0.00000000000E+00  0.00000000000E+00  0.18184470575E+04  0.18184470575E+04  0.25500000920E-02 0.  1.
       -2   -1    0    0    0  501  0.00000000000E+00  0.00000000000E+00 -0.55220240675E+03  0.55220240675E+03  0.25500000920E-02 0. -1.
    10030    2    1    2    0    0  0.00000000000E+00  0.00000000000E+00  0.12662446507E+04  0.23706494642E+04  0.20041465432E+04 0.  0.
        5    1    3    3  502    0  0.15309642927E+03 -0.11626498211E+03 -0.53017272451E+03  0.56396921062E+03  0.46999998093E+01 0. -1.
       -5    1    3    3    0  502 -0.15309642927E+03  0.11626498211E+03  0.17964173752E+04  0.18066802536E+04  0.46999998093E+01 0.  1.
</event>
<event>
 5   0  0.2093980E-05  0.1992600E+04  0.7818609E-02  0.8610088E-01
        1   -1    0    0  501    0  0.00000000000E+00  0.00000000000E+00  0.12680439952E+04  0.12680439952E+04  0.50400001928E-02 0. -1.
       -1   -1    0    0    0  501  0.00000000000E+00  0.00000000000E+00 -0.78279101922E+03  0.78279101923E+03  0.50400001928E-02 0.  1.
    10030    2    1    2    0    0  0.00000000000E+00  0.00000000000E+00  0.48525297602E+03  0.20508350145E+04  0.19925997606E+04 0.  0.
        2    1    3    3  502    0 -0.90490573622E+03  0.22439160822E+03  0.60418731210E+03  0.11109672783E+04  0.25500000920E-02 0. -1.
       -2    1    3    3    0  502  0.90490573622E+03 -0.22439160822E+03 -0.11893433608E+03  0.93986773622E+03  0.25500000920E-02 0.  1.
</event>
<event>
 5   0  0.2007644E-05  0.2001634E+04  0.7818609E-02  0.8605857E-01
        1   -1    0    0  501    0  0.00000000000E+00  0.00000000000E+00  0.13847817218E+04  0.13847817218E+04  0.50400001928E-02 0.  1.
       -1   -1    0    0    0  501  0.00000000000E+00  0.00000000000E+00 -0.72331616034E+03  0.72331616035E+03  0.50400001928E-02 0. -1.
    10030    2    1    2    0    0  0.00000000000E+00  0.00000000000E+00  0.66146556144E+03  0.21080978821E+04  0.20016343302E+04 0.  0.
        1    1    3    3  502    0  0.20151073481E+02  0.29665190803E+03  0.13371899598E+04  0.13698486811E+04  0.50400001928E-02 0.  1.
       -1    1    3    3    0  502 -0.20151073481E+02 -0.29665190803E+03 -0.67572439839E+03  0.73824920109E+03  0.50400001928E-02 0. -1.
</event>
<event>
 5   0  0.2256868E-05  0.2007507E+04  0.7818609E-02  0.8603119E-01
        1   -1    0    0  501    0  0.00000000000E+00  0.00000000000E+00  0.80731914411E+03  0.80731914412E+03  0.50400001928E-02 0. -1.
       -1   -1    0    0    0  501  0.00000000000E+00  0.00000000000E+00 -0.12479834244E+04  0.12479834244E+04  0.50400001928E-02 0.  1.
    10030    2    1    2    0    0  0.00000000000E+00  0.00000000000E+00 -0.44066428031E+03  0.20553025686E+04  0.20075068220E+04 0.  0.
        5    1    3    3  502    0  0.28581873600E+03  0.55378158235E+03  0.58525126519E+03  0.85493129795E+03  0.46999998093E+01 0. -1.
       -5    1    3    3    0  502 -0.28581873600E+03 -0.55378158235E+03 -0.10259155455E+04  0.12003712706E+04  0.46999998093E+01 0.  1.
</event>
<event>
 5   0  0.2110896E-05  0.2005447E+04  0.7818609E-02  0.8604078E-01
       -1   -1    0    0    0  501  0.00000000000E+00  0.00000000000E+00  0.81643966185E+03  0.81643966186E+03  0.50400001928E-02 0.  1.
        1   -1    0    0  501    0  0.00000000000E+00  0.00000000000E+00 -0.12315105467E+04  0.12315105467E+04  0.50400001928E-02 0. -1.
    10030    2    1    2    0    0  0.00000000000E+00  0.00000000000E+00 -0.41507088482E+03  0.20479502085E+04  0.20054466378E+04 0.  0.
        4    1    3    3  502    0  0.21931764923E+03 -0.13266129656E+03 -0.11974898359E+04  0.12246153563E+04  0.12699999809E+01 0. -1.
       -4    1    3    3    0  502 -0.21931764923E+03  0.13266129656E+03  0.78241895113E+03  0.82333485220E+03  0.12699999809E+01 0.  1.
</event>
<event>
 5   0  0.4577279E-05  0.1997802E+04  0.7818609E-02  0.8607649E-01
        2   -1    0    0  501    0  0.00000000000E+00  0.00000000000E+00  0.10548866073E+04  0.10548866073E+04  0.25500000920E-02 0. -1.
       -2   -1    0    0    0  501  0.00000000000E+00  0.00000000000E+00 -0.94588697719E+03  0.94588697719E+03  0.25500000920E-02 0.  1.
    10030    2    1    2    0    0  0.00000000000E+00  0.00000000000E+00  0.10899963009E+03  0.20007735845E+04  0.19978022968E+04 0.  0.
        1    1    3    3  502    0 -0.13305443648E+03 -0.78957632703E+03  0.65260596502E+03  0.10329708635E+04  0.50400001928E-02 0. -1.
       -1    1    3    3    0  502  0.13305443648E+03  0.78957632703E+03 -0.54360633493E+03  0.96780272095E+03  0.50400001928E-02 0.  1.
</event>
<event>
 5   0  0.2007644E-05  0.1970343E+04  0.7818609E-02  0.8620613E-01
       -1   -1    0    0    0  501  0.00000000000E+00  0.00000000000E+00  0.94186785964E+03  0.94186785965E+03  0.50400001928E-02 0.  1.
        1   -1    0    0  501    0  0.00000000000E+00  0.00000000000E+00 -0.10304657838E+04  0.10304657838E+04  0.50400001928E-02 0. -1.
    10030    2    1    2    0    0  0.00000000000E+00  0.00000000000E+00 -0.88597924172E+02  0.19723336435E+04  0.19703427136E+04 0.  0.
        1    1    3    3  502    0  0.14405392545E+03 -0.54685364882E+02  0.92973131120E+03  0.94241303770E+03  0.50400001928E-02 0.  1.
       -1    1    3    3    0  502 -0.14405392545E+03  0.54685364882E+02 -0.10183292354E+04  0.10299206058E+04  0.50400001928E-02 0. -1.
</event>
<event>
 5   0  0.4514680E-05  0.2002219E+04  0.7818609E-02  0.8605584E-01
       -2   -1    0    0    0  501  0.00000000000E+00  0.00000000000E+00  0.52242414355E+03  0.52242414355E+03  0.25500000920E-02 0.  1.
        2   -1    0    0  501    0  0.00000000000E+00  0.00000000000E+00 -0.19184040988E+04  0.19184040988E+04  0.25500000920E-02 0. -1.
    10030    2    1    2    0    0  0.00000000000E+00  0.00000000000E+00 -0.13959799552E+04  0.24408282423E+04  0.20022193869E+04 0.  0.
        3    1    3    3  502    0 -0.47545428092E+03 -0.38544392942E+03 -0.16637426577E+04  0.17727558877E+04  0.10100000352E+00 0. -1.
       -3    1    3    3    0  502  0.47545428092E+03  0.38544392942E+03  0.26776270251E+03  0.66807235464E+03  0.10100000352E+00 0.  1.
</event>
<event>
 5   0  0.4577279E-05  0.1982875E+04  0.7818609E-02  0.8614669E-01
       -2   -1    0    0    0  501  0.00000000000E+00  0.00000000000E+00  0.86051479951E+03  0.86051479951E+03  0.25500000920E-02 0. -1.
        2   -1    0    0  501    0  0.00000000000E+00  0.00000000000E+00 -0.11422799093E+04  0.11422799094E+04  0.25500000920E-02 0.  1.
    10030    2    1    2    0    0  0.00000000000E+00  0.00000000000E+00 -0.28176510984E+03  0.20027947089E+04  0.19828754547E+04 0.  0.
        1    1    3    3  502    0  0.78451936354E+03 -0.91317371617E+02  0.46441991796E+03  0.91623979085E+03  0.50400001928E-02 0. -1.
       -1    1    3    3    0  502 -0.78451936354E+03  0.91317371617E+02 -0.74618502780E+03  0.10865549180E+04  0.50400001928E-02 0.  1.
</event>
<event>
 5   0  0.4577279E-05  0.1998459E+04  0.7818609E-02  0.8607341E-01
        2   -1    0    0  501    0  0.00000000000E+00  0.00000000000E+00  0.35099761570E+03  0.35099761571E+03  0.25500000920E-02 0. -1.
       -2   -1    0    0    0  501  0.00000000000E+00  0.00000000000E+00 -0.28446339008E+04  0.28446339008E+04  0.25500000920E-02 0.  1.
    10030    2    1    2    0    0  0.00000000000E+00  0.00000000000E+00 -0.24936362851E+04  0.31956315165E+04  0.19984591232E+04 0.  0.
        1    1    3    3  502    0 -0.26507877321E+03  0.82451112298E+03 -0.44989798100E+03  0.97595775588E+03  0.50400001928E-02 0. -1.
       -1    1    3    3    0  502  0.26507877321E+03 -0.82451112298E+03 -0.20437383041E+04  0.22196737607E+04  0.50400001928E-02 0.  1.
</event>
<event>
 5   0  0.4447313E-05  0.2006766E+04  0.7818609E-02  0.8603464E-01
       -2   -1    0    0    0  501  0.00000000000E+00  0.00000000000E+00  0.72334449991E+03  0.72334449992E+03  0.25500000920E-02 0. -1.
        2   -1    0    0  501    0  0.00000000000E+00  0.00000000000E+00 -0.13918365911E+04  0.13918365911E+04  0.25500000920E-02 0.  1.
    10030    2    1    2    0    0  0.00000000000E+00  0.00000000000E+00 -0.66849209122E+03  0.21151810911E+04  0.20067658986E+04 0.  0.
        5    1    3    3  502    0  0.52163747093E+03  0.78562203631E+03 -0.69546701145E+03  0.11717525716E+04  0.46999998093E+01 0.  1.
       -5    1    3    3    0  502 -0.52163747093E+03 -0.78562203631E+03  0.26974920233E+02  0.94342851946E+03  0.46999998093E+01 0. -1.
</event>
<event>
 5   0  0.2256868E-05  0.1999036E+04  0.7818609E-02  0.8607072E-01
        1   -1    0    0  501    0  0.00000000000E+00  0.00000000000E+00  0.13082950270E+04  0.13082950270E+04  0.50400001928E-02 0. -1.
       -1   -1    0    0    0  501  0.00000000000E+00  0.00000000000E+00 -0.76361679662E+03  0.76361679664E+03  0.50400001928E-02 0.  1.
    10030    2    1    2    0    0  0.00000000000E+00  0.00000000000E+00  0.54467823039E+03  0.20719118237E+04  0.19990358252E+04 0.  0.
        5    1    3    3  502    0 -0.97838608322E+03 -0.11913739285E+03  0.10020970656E+03  0.99070536563E+03  0.46999998093E+01 0. -1.
       -5    1    3    3    0  502  0.97838608322E+03  0.11913739285E+03  0.44446852383E+03  0.10812064580E+04  0.46999998093E+01 0.  1.
</event>
<event>
 5   0  0.4514680E-05  0.1985736E+04  0.7818609E-02  0.8613319E-01
       -2   -1    0    0    0  501  0.00000000000E+00  0.00000000000E+00  0.38321123224E+03  0.38321123225E+03  0.25500000920E-02 0.  1.
        2   -1    0    0  501    0  0.00000000000E+00  0.00000000000E+00 -0.25724364964E+04  0.25724364964E+04  0.25500000920E-02 0. -1.
    10030    2    1    2    0    0  0.00000000000E+00  0.00000000000E+00 -0.21892252642E+04  0.29556477287E+04  0.19857356921E+04 0.  0.
        3    1    3    3  502    0  0.46556036549E+03  0.77058264679E+03 -0.17177028374E+04  0.19393419289E+04  0.10100000352E+00 0.  1.
       -3    1    3    3    0  502 -0.46556036549E+03 -0.77058264679E+03 -0.47152242675E+03  0.10163057997E+04  0.10100000352E+00 0. -1.
</event>
<event>
 5   0  0.2093980E-05  0.1981053E+04  0.7818609E-02  0.8615531E-01
        1   -1    0    0  501    0  0.00000000000E+00  0.00000000000E+00  0.77424803275E+03  0.77424803276E+03  0.50400001928E-02 0. -1.
       -1   -1    0    0    0  501  0.00000000000E+00  0.00000000000E+00 -0.12672202405E+04  0.12672202405E+04  0.50400001928E-02 0.  1.
    10030    2    1    2    0    0  0.00000000000E+00  0.00000000000E+00 -0.49297220775E+03  0.20414682733E+04  0.19810530314E+04 0.  0.
        2    1    3    3  502    0 -0.98534973691E+03 -0.71141115510E+02 -0.17240769464E+03  0.10028457387E+04  0.25500000920E-02 0. -1.
       -2    1    3    3    0  502  0.98534973691E+03  0.71141115510E+02 -0.32056451311E+03  0.10386225346E+04  0.25500000920E-02 0.  1.
</event>
<event>
 5   0  0.2007644E-05  0.2003185E+04  0.7818609E-02  0.8605133E-01
       -1   -1    0    0    0  501  0.00000000000E+00  0.00000000000E+00  0.15872341746E+04  0.15872341746E+04  0.50400001928E-02 0.  1.
        1   -1    0    0  501    0  0.00000000000E+00  0.00000000000E+00 -0.63203525677E+03  0.63203525679E+03  0.50400001928E-02 0. -1.
    10030    2    1    2    0    0  0.00000000000E+00  0.00000000000E+00  0.95519891783E+03  0.22192694314E+04  0.20031854224E+04 0.  0.
        1    1    3    3  502    0 -0.79475656450E+03  0.51737180463E+03  0.12053446131E+03  0.95594986136E+03  0.50400001928E-02 0. -1.
       -1    1    3    3    0  502  0.79475656450E+03 -0.51737180463E+03  0.83466445652E+03  0.12633195700E+04  0.50400001928E-02 0.  1.
</event>
<event>
 5   0  0.2142551E-05  0.1996926E+04  0.7818609E-02  0.8608059E-01
        1   -1    0    0  501    0  0.00000000000E+00  0.00000000000E+00  0.11376007413E+04  0.11376007413E+04  0.50400001928E-02 0.  1.
       -1   -1    0    0    0  501  0.00000000000E+00  0.00000000000E+00 -0.87634300166E+03  0.87634300168E+03  0.50400001928E-02 0. -1.
    10030    2    1    2    0    0  0.00000000000E+00  0.00000000000E+00  0.26125773960E+03  0.20139437430E+04  0.19969260861E+04 0.  0.
        3    1    3    3  502    0 -0.18500410658E+03 -0.38346528533E+03 -0.78020451496E+03  0.88881451376E+03  0.10100000352E+00 0. -1.
       -3    1    3    3    0  502  0.18500410658E+03  0.38346528533E+03  0.10414622546E+04  0.11251292292E+04  0.10100000352E+00 0.  1.
</event>
<event>
 5   0  0.2142551E-05  0.1991319E+04  0.7818609E-02  0.8610690E-01
        1   -1    0    0  501    0  0.00000000000E+00  0.00000000000E+00  0.16727225270E+04  0.16727225271E+04  0.50400001928E-02 0. -1.
       -1   -1    0    0    0  501  0.00000000000E+00  0.00000000000E+00 -0.59264902745E+03  0.59264902747E+03  0.50400001928E-02 0.  1.
    10030    2    1    2    0    0  0.00000000000E+00  0.00000000000E+00  0.10800734996E+04  0.22653715545E+04  0.19913185369E+04 0.  0.
        3    1    3    3  502    0 -0.38089915116E+03 -0.70889384975E+02 -0.50337456151E+03  0.63521289945E+03  0.10100000352E+00 0.  1.
       -3    1    3    3    0  502  0.38089915116E+03  0.70889384975E+02  0.15834480611E+04  0.16301586551E+04  0.10100000352E+00 0. -1.
</event>
<event>
 5   0  0.4473361E-05  0.1992910E+04  0.7818609E-02  0.8609943E-01
        2   -1    0    0  501    0  0.00000000000E+00  0.00000000000E+00  0.62150156621E+03  0.62150156622E+03  0.25500000920E-02 0. -1.
       -2   -1    0    0    0  501  0.00000000000E+00  0.00000000000E+00 -0.15976183384E+04  0.15976183384E+04  0.25500000920E-02 0.  1.
    10030    2    1    2    0    0  0.00000000000E+00  0.00000000000E+00 -0.97611677214E+03  0.22191199046E+04  0.19929097315E+04 0.  0.
        2    1    3    3  502    0 -0.84870286316E+03 -0.18624301126E+03  0.55099665802E+02  0.87064285580E+03  0.25500000920E-02 0. -1.
       -2    1    3    3    0  502  0.84870286316E+03  0.18624301126E+03 -0.10312164379E+04  0.13484770488E+04  0.25500000920E-02 0.  1.
</event>
<event>
 5   0  0.2256868E-05  0.2047959E+04  0.7818609E-02  0.8584521E-01
       -1   -1    0    0    0  501  0.00000000000E+00  0.00000000000E+00  0.66256059353E+03  0.66256059355E+03  0.50400001928E-02 0. -1.
        1   -1    0    0  501    0  0.00000000000E+00  0.00000000000E+00 -0.15825481669E+04  0.15825481669E+04  0.50400001928E-02 0.  1.
    10030    2    1    2    0    0  0.00000000000E+00  0.00000000000E+00 -0.91998757334E+03  0.22451087604E+04  0.20479590355E+04 0.  0.
        5    1    3    3  502    0 -0.10990549339E+03  0.83089109889E+03  0.18489861082E+03  0.85829413488E+03  0.46999998093E+01 0. -1.
       -5    1    3    3    0  502  0.10990549339E+03 -0.83089109889E+03 -0.11048861842E+04  0.13868146255E+04  0.46999998093E+01 0.  1.
</event>
<event>
 5   0  0.4447313E-05  0.1997295E+04  0.7818609E-02  0.8607886E-01
       -2   -1    0    0    0  501  0.00000000000E+00  0.00000000000E+00  0.15799625835E+04  0.15799625835E+04  0.25500000920E-02 0.  1.
        2   -1    0    0  501    0  0.00000000000E+00  0.00000000000E+00 -0.63121569821E+03  0.63121569822E+03  0.25500000920E-02 0. -1.
    10030    2    1    2    0    0  0.00000000000E+00  0.00000000000E+00  0.94874688529E+03  0.22111782817E+04  0.19972953565E+04 0.  0.
        5    1    3    3  502    0  0.98822035153E+03  0.10227741806E+03  0.58637513435E+03  0.11536455355E+04  0.46999998093E+01 0.  1.
       -5    1    3    3    0  502 -0.98822035153E+03 -0.10227741806E+03  0.36237175095E+03  0.10575327462E+04  0.46999998093E+01 0. -1.
</event>
<event>
 5   0  0.2093980E-05  0.1998317E+04  0.7818609E-02  0.8607408E-01
        1   -1    0    0  501    0  0.00000000000E+00  0.00000000000E+00  0.20686035077E+04  0.20686035077E+04  0.50400001928E-02 0.  1.
       -1   -1    0    0    0  501  0.00000000000E+00  0.00000000000E+00 -0.48260446766E+03  0.48260446768E+03  0.50400001928E-02 0. -1.
    10030    2    1    2    0    0  0.00000000000E+00  0.00000000000E+00  0.15859990400E+04  0.25512079754E+04  0.19983165862E+04 0.  0.
        2    1    3    3  502    0  0.21423303118E+02 -0.62691693452E+03 -0.19988670938E+03  0.65836046153E+03  0.25500000920E-02 0. -1.
       -2    1    3    3    0  502 -0.21423303118E+02  0.62691693452E+03  0.17858857494E+04  0.18928475138E+04  0.25500000920E-02 0.  1.
</event>
<event>
 5   0  0.1601500E-05  0.2016605E+04  0.7818609E-02  0.8598896E-01
       -4   -1    0    0    0  501  0.00000000000E+00  0.00000000000E+00  0.95043934969E+03  0.95044019819E+03  0.12699999809E+01 0. -1.
        4   -1    0    0  501    0  0.00000000000E+00  0.00000000000E+00 -0.10696871381E+04  0.10696878920E+04  0.12699999809E+01 0.  1.
    10030    2    1    2    0    0  0.00000000000E+00  0.00000000000E+00 -0.11924778840E+03  0.20201280902E+04  0.20166054313E+04 0.  0.
        3    1    3    3  502    0  0.73157179477E+01  0.30336951987E+03  0.90361064638E+03  0.95320448791E+03  0.10100000352E+00 0. -1.
       -3    1    3    3    0  502 -0.73157179477E+01 -0.30336951987E+03 -0.10228584348E+04  0.10669236023E+04  0.10100000352E+00 0.  1.
</event>
<event>
 5   0  0.2007644E-05  0.2009407E+04  0.7818609E-02  0.8602235E-01
       -1   -1    0    0    0  501  0.00000000000E+00  0.00000000000E+00  0.43232851708E+03  0.43232851711E+03  0.50400001928E-02 0. -1.
        1   -1    0    0  501    0  0.00000000000E+00  0.00000000000E+00 -0.23348667591E+04  0.23348667591E+04  0.50400001928E-02 0.  1.
    10030    2    1    2    0    0  0.00000000000E+00  0.00000000000E+00 -0.19025382420E+04  0.27671952762E+04  0.20094073590E+04 0.  0.
        1    1    3    3  502    0  0.50353537672E+02  0.47253609381E+03 -0.21703149782E+04  0.22217319693E+04  0.50400001928E-02 0.  1.
       -1    1    3    3    0  502 -0.50353537672E+02 -0.47253609381E+03  0.26777673620E+03  0.54546330691E+03  0.50400001928E-02 0. -1.
</event>
<event>
 5   0  0.2093980E-05  0.2000121E+04  0.7818609E-02  0.8606564E-01
       -1   -1    0    0    0  501  0.00000000000E+00  0.00000000000E+00  0.14709121653E+04  0.14709121653E+04  0.50400001928E-02 0.  1.
        1   -1    0    0  501    0  0.00000000000E+00  0.00000000000E+00 -0.67993252404E+03  0.67993252406E+03  0.50400001928E-02 0. -1.
    10030    2    1    2    0    0  0.00000000000E+00  0.00000000000E+00  0.79097964123E+03  0.21508446893E+04  0.20001210175E+04 0.  0.
        2    1    3    3  502    0 -0.32774566659E+03  0.85725537106E+03 -0.31708668714E+02  0.91831880785E+03  0.25500000920E-02 0. -1.
       -2    1    3    3    0  502  0.32774566659E+03 -0.85725537106E+03  0.82268830994E+03  0.12325258815E+04  0.25500000920E-02 0.  1.
</event>
<event>
 5   0  0.4577279E-05  0.1997644E+04  0.7818609E-02  0.8607723E-01
        2   -1    0    0  501    0  0.00000000000E+00  0.00000000000E+00  0.13940146943E+04  0.13940146943E+04  0.25500000920E-02 0.  1.
       -2   -1    0    0    0  501  0.00000000000E+00  0.00000000000E+00 -0.71566351747E+03  0.71566351748E+03  0.25500000920E-02 0. -1.
    10030    2    1    2    0    0  0.00000000000E+00  0.00000000000E+00  0.67835117679E+03  0.21096782117E+04  0.19976440719E+04 0.  0.
        1    1    3    3  502    0  0.29294872560E+03 -0.94460577174E+03  0.48682507402E+03  0.11023146885E+04  0.50400001928E-02 0. -1.
       -1    1    3    3    0  502 -0.29294872560E+03  0.94460577174E+03  0.19152610276E+03  0.10073635232E+04  0.50400001928E-02 0.  1.
</event>
<event>
 5   0  0.4577279E-05  0.2016373E+04  0.7818609E-02  0.8599004E-01
       -2   -1    0    0    0  501  0.00000000000E+00  0.00000000000E+00  0.98330144903E+03  0.98330144904E+03  0.25500000920E-02 0.  1.
        2   -1    0    0  501    0  0.00000000000E+00  0.00000000000E+00 -0.10337011619E+04  0.10337011619E+04  0.25500000920E-02 0. -1.
    10030    2    1    2    0    0  0.00000000000E+00  0.00000000000E+00 -0.50399712878E+02  0.20170026110E+04  0.20163728330E+04 0.  0.
        1    1    3    3  502    0 -0.62873362206E+03  0.76013316125E+03 -0.23342697251E+03  0.10137043661E+04  0.50400001928E-02 0. -1.
       -1    1    3    3    0  502  0.62873362206E+03 -0.76013316125E+03  0.18302725964E+03  0.10032982449E+04  0.50400001928E-02 0.  1.
</event>
<event>
 5   0  0.1601500E-05  0.2009397E+04  0.7818609E-02  0.8602240E-01
        3   -1    0    0  501    0  0.00000000000E+00  0.00000000000E+00  0.12496185723E+04  0.12496185764E+04  0.10100000352E+00 0. -1.
       -3   -1    0    0    0  501  0.00000000000E+00  0.00000000000E+00 -0.80778179213E+03  0.80778179845E+03  0.10100000352E+00 0.  1.
    10030    2    1    2    0    0  0.00000000000E+00  0.00000000000E+00  0.44183678021E+03  0.20574003749E+04  0.20093970643E+04 0.  0.
        1    1    3    3  502    0  0.38873990684E+02 -0.90928116377E+03 -0.21482531597E+03  0.93512209809E+03  0.50400001928E-02 0.  1.
       -1    1    3    3    0  502 -0.38873990684E+02  0.90928116377E+03  0.65666209618E+03  0.11222782768E+04  0.50400001928E-02 0. -1.
</event>
<event>
 5   0  0.2110896E-05  0.2013015E+04  0.7818609E-02  0.8600560E-01
        1   -1    0    0  501    0  0.00000000000E+00  0.00000000000E+00  0.11706339074E+04  0.11706339074E+04  0.50400001928E-02 0. -1.
       -1   -1    0    0    0  501  0.00000000000E+00  0.00000000000E+00 -0.86539201633E+03  0.86539201634E+03  0.50400001928E-02 0.  1.
    10030    2    1    2    0    0  0.00000000000E+00  0.00000000000E+00  0.30524189104E+03  0.20360259237E+04  0.20130148907E+04 0.  0.
        4    1    3    3  502    0  0.29112058085E+02 -0.71543734383E+03 -0.56282451334E+03  0.91075306784E+03  0.12699999809E+01 0.  1.
       -4    1    3    3    0  502 -0.29112058085E+02  0.71543734383E+03  0.86806640438E+03  0.11252728559E+04  0.12699999809E+01 0. -1.
</event>
<event>
 5   0  0.4447313E-05  0.2013109E+04  0.7818609E-02  0.8600516E-01
       -2   -1    0    0    0  501  0.00000000000E+00  0.00000000000E+00  0.96653257633E+03  0.96653257634E+03  0.25500000920E-02 0. -1.
        2   -1    0    0  501    0  0.00000000000E+00  0.00000000000E+00 -0.10482337557E+04  0.10482337557E+04  0.25500000920E-02 0.  1.
    10030    2    1    2    0    0  0.00000000000E+00  0.00000000000E+00 -0.81701179336E+02  0.20147663320E+04  0.20131091103E+04 0.  0.
        5    1    3    3  502    0  0.74677378529E+03 -0.66053943841E+03 -0.17933554484E+03  0.10129988962E+04  0.46999998093E+01 0.  1.
       -5    1    3    3    0  502 -0.74677378529E+03  0.66053943841E+03  0.97634365509E+02  0.10017674358E+04  0.46999998093E+01 0. -1.
</event>
<event>
 5   0  0.2256868E-05  0.1995711E+04  0.7818609E-02  0.8608629E-01
       -1   -1    0    0    0  501  0.00000000000E+00  0.00000000000E+00  0.38634252985E+03  0.38634252989E+03  0.50400001928E-02 0. -1.
        1   -1    0    0  501    0  0.00000000000E+00  0.00000000000E+00 -0.25772870494E+04  0.25772870494E+04  0.50400001928E-02 0.  1.
    10030    2    1    2    0    0  0.00000000000E+00  0.00000000000E+00 -0.21909445196E+04  0.29636295793E+04  0.19957110000E+04 0.  0.
        5    1    3    3  502    0 -0.79911122405E+03  0.25232632396E+03 -0.18999064204E+04  0.20765148250E+04  0.46999998093E+01 0.  1.
       -5    1    3    3    0  502  0.79911122405E+03 -0.25232632396E+03 -0.29103809918E+03  0.88711475432E+03  0.46999998093E+01 0. -1.
</event>
<event>
 5   0  0.2093980E-05  0.2029880E+04  0.7818609E-02  0.8592777E-01
       -1   -1    0    0    0  501  0.00000000000E+00  0.00000000000E+00  0.97955286583E+03  0.97955286585E+03  0.50400001928E-02 0. -1.
        1   -1    0    0  501    0  0.00000000000E+00  0.00000000000E+00 -0.10516051768E+04  0.10516051768E+04  0.50400001928E-02 0.  1.
    10030    2    1    2    0    0  0.00000000000E+00  0.00000000000E+00 -0.72052310945E+02  0.20311580426E+04  0.20298796661E+04 0.  0.
        2    1    3    3  502    0 -0.99261475626E+01  0.43002894206E+03  0.88383481654E+03  0.98294832130E+03  0.25500000920E-02 0. -1.
       -2    1    3    3    0  502  0.99261475626E+01 -0.43002894206E+03 -0.95588712748E+03  0.10482097213E+04  0.25500000920E-02 0.  1.
</event>
<event>
 5   0  0.4447313E-05  0.1995589E+04  0.7818609E-02  0.8608686E-01
        2   -1    0    0  501    0  0.00000000000E+00  0.00000000000E+00  0.16889061584E+04  0.16889061584E+04  0.25500000920E-02 0.  1.
       -2   -1    0    0    0  501  0.00000000000E+00  0.00000000000E+00 -0.58949025144E+03  0.58949025145E+03  0.25500000920E-02 0. -1.
    10030    2    1    2    0    0  0.00000000000E+00  0.00000000000E+00  0.10994159070E+04  0.22783964099E+04  0.19955888514E+04 0.  0.
        5    1    3    3  502    0  0.22632426172E+03 -0.93765370725E+03  0.25828056838E+03  0.99857302596E+03  0.46999998093E+01 0. -1.
       -5    1    3    3    0  502 -0.22632426172E+03  0.93765370725E+03  0.84113533860E+03  0.12798233839E+04  0.46999998093E+01 0.  1.
</event>
<event>
 5   0  0.4577279E-05  0.2004802E+04  0.7818609E-02  0.8604379E-01
       -2   -1    0    0    0  501  0.00000000000E+00  0.00000000000E+00  0.10229048348E+04  0.10229048348E+04  0.25500000920E-02 0.  1.
        2   -1    0    0  501    0  0.00000000000E+00  0.00000000000E+00 -0.98230841243E+03  0.98230841243E+03  0.25500000920E-02 0. -1.
    10030    2    1    2    0    0  0.00000000000E+00  0.00000000000E+00  0.40596422409E+02  0.20052132473E+04  0.20048022590E+04 0.  0.
        1    1    3    3  502    0  0.79037356356E+03 -0.38607122463E+03 -0.46049427191E+03  0.99287276877E+03  0.50400001928E-02 0. -1.
       -1    1    3    3    0  502 -0.79037356356E+03  0.38607122463E+03  0.50109069432E+03  0.10123404785E+04  0.50400001928E-02 0.  1.
</event>
<event>
 5   0  0.2093980E-05  0.1993301E+04  0.7818609E-02  0.8609759E-01
        1   -1    0    0  501    0  0.00000000000E+00  0.00000000000E+00  0.10194162437E+04  0.10194162437E+04  0.50400001928E-02 0. -1.
       -1   -1    0    0    0  501  0.00000000000E+00  0.00000000000E+00 -0.97439300950E+03  0.97439300951E+03  0.50400001928E-02 0.  1.
    10030    2    1    2    0    0  0.00000000000E+00  0.00000000000E+00  0.45023234194E+02  0.19938092532E+04  0.19933008420E+04 0.  0.
        2    1    3    3  502    0  0.99438007163E+02  0.98403298380E+03  0.14543816678E+03  0.99968049437E+03  0.25500000920E-02 0. -1.
       -2    1    3    3    0  502 -0.99438007163E+02 -0.98403298380E+03 -0.10041493259E+03  0.99412875884E+03  0.25500000920E-02 0.  1.
</event>
<event>
 5   0  0.2256868E-05  0.2011682E+04  0.7818609E-02  0.8601179E-01
        1   -1    0    0  501    0  0.00000000000E+00  0.00000000000E+00  0.15553475376E+04  0.15553475376E+04  0.50400001928E-02 0.  1.
       -1   -1    0    0    0  501  0.00000000000E+00  0.00000000000E+00 -0.65047560977E+03  0.65047560979E+03  0.50400001928E-02 0. -1.
    10030    2    1    2    0    0  0.00000000000E+00  0.00000000000E+00  0.90487192784E+03  0.22058231474E+04  0.20116815235E+04 0.  0.
        5    1    3    3  502    0 -0.76444133261E+03  0.55927334995E+03  0.81342701220E+02  0.95068183742E+03  0.46999998093E+01 0. -1.
       -5    1    3    3    0  502  0.76444133261E+03 -0.55927334995E+03  0.82352922662E+03  0.12551413100E+04  0.46999998093E+01 0.  1.
</event>
<event>
 5   0  0.2142551E-05  0.1990949E+04  0.7818609E-02  0.8610864E-01
       -1   -1    0    0    0  501  0.00000000000E+00  0.00000000000E+00  0.92869919159E+03  0.92869919160E+03  0.50400001928E-02 0.  1.
        1   -1    0    0  501    0  0.00000000000E+00  0.00000000000E+00 -0.10670509838E+04  0.10670509838E+04  0.50400001928E-02 0. -1.
    10030    2    1    2    0    0  0.00000000000E+00  0.00000000000E+00 -0.13835179223E+03  0.19957501754E+04  0.19909489055E+04 0.  0.
        3    1    3    3  502    0 -0.66220763894E+03  0.38076032469E+03 -0.70905060307E+03  0.10422332512E+04  0.10100000352E+00 0. -1.
       -3    1    3    3    0  502  0.66220763894E+03 -0.38076032469E+03  0.57069881084E+03  0.95351692425E+03  0.10100000352E+00 0.  1.
</event>
<event>
 5   0  0.2142551E-05  0.2011495E+04  0.7818609E-02  0.8601265E-01
       -1   -1    0    0    0  501  0.00000000000E+00  0.00000000000E+00  0.64185293057E+03  0.64185293059E+03  0.50400001928E-02 0.  1.
        1   -1    0    0  501    0  0.00000000000E+00  0.00000000000E+00 -0.15759494587E+04  0.15759494587E+04  0.50400001928E-02 0. -1.
    10030    2    1    2    0    0  0.00000000000E+00  0.00000000000E+00 -0.93409652808E+03  0.22178023893E+04  0.20114947462E+04 0.  0.
        3    1    3    3  502    0 -0.80467877693E+03 -0.27615187632E+03 -0.10584997651E+04  0.13580094093E+04  0.10100000352E+00 0. -1.
       -3    1    3    3    0  502  0.80467877693E+03  0.27615187632E+03  0.12440323699E+03  0.85979297998E+03  0.10100000352E+00 0.  1.
</event>
<event>
 5   0  0.2256868E-05  0.1999349E+04  0.7818609E-02  0.8606925E-01
       -1   -1    0    0    0  501  0.00000000000E+00  0.00000000000E+00  0.53281415007E+03  0.53281415009E+03  0.50400001928E-02 0. -1.
        1   -1    0    0  501    0  0.00000000000E+00  0.00000000000E+00 -0.18756060124E+04  0.18756060124E+04  0.50400001928E-02 0.  1.
    10030    2    1    2    0    0  0.00000000000E+00  0.00000000000E+00 -0.13427918623E+04  0.24084201625E+04  0.19993493176E+04 0.  0.
        5    1    3    3  502    0 -0.95794958416E+03 -0.48827801813E+02 -0.10105631103E+04  0.13933095312E+04  0.46999998093E+01 0.  1.
       -5    1    3    3    0  502  0.95794958416E+03  0.48827801813E+02 -0.33222875208E+03  0.10151106313E+04  0.46999998093E+01 0. -1.
</event>
<event>
 5   0  0.2110896E-05  0.1995128E+04  0.7818609E-02  0.8608902E-01
       -1   -1    0    0    0  501  0.00000000000E+00  0.00000000000E+00  0.52227634672E+03  0.52227634674E+03  0.50400001928E-02 0. -1.
        1   -1    0    0  501    0  0.00000000000E+00  0.00000000000E+00 -0.19053789534E+04  0.19053789534E+04  0.50400001928E-02 0.  1.
    10030    2    1    2    0    0  0.00000000000E+00  0.00000000000E+00 -0.13831026067E+04  0.24276553001E+04  0.19951284259E+04 0.  0.
        4    1    3    3  502    0  0.12296608899E+02  0.76932750476E+03 -0.14641101617E+04  0.16539758749E+04  0.12699999809E+01 0.  1.
       -4    1    3    3    0  502 -0.12296608899E+02 -0.76932750476E+03  0.81007555052E+02  0.77367942524E+03  0.12699999809E+01 0. -1.
</event>
<event>
 5   0  0.2256868E-05  0.2042062E+04  0.7818609E-02  0.8587204E-01
       -1   -1    0    0    0  501  0.00000000000E+00  0.00000000000E+00  0.13101540690E+04  0.13101540690E+04  0.50400001928E-02 0.  1.
        1   -1    0    0  501    0  0.00000000000E+00  0.00000000000E+00 -0.79571105533E+03  0.79571105534E+03  0.50400001928E-02 0. -1.
    10030    2    1    2    0    0  0.00000000000E+00  0.00000000000E+00  0.51444301370E+03  0.21058651244E+04  0.20420617786E+04 0.  0.
        5    1    3    3  502    0 -0.83835026858E+03 -0.42972800353E+03  0.66320280591E+03  0.11521099694E+04  0.46999998093E+01 0.  1.
       -5    1    3    3    0  502  0.83835026858E+03  0.42972800353E+03 -0.14875979221E+03  0.95375515497E+03  0.46999998093E+01 0. -1.
</event>
<event>
 5   0  0.4412054E-05  0.1999428E+04  0.7818609E-02  0.8606888E-01
        2   -1    0    0  501    0  0.00000000000E+00  0.00000000000E+00  0.12731397034E+04  0.12731397034E+04  0.25500000920E-02 0.  1.
       -2   -1    0    0    0  501  0.00000000000E+00  0.00000000000E+00 -0.78501058883E+03  0.78501058884E+03  0.25500000920E-02 0. -1.
    10030    2    1    2    0    0  0.00000000000E+00  0.00000000000E+00  0.48812911456E+03  0.20581502922E+04  0.19994280665E+04 0.  0.
        4    1    3    3  502    0  0.69652310055E+03 -0.57693943561E+03 -0.19438280842E+03  0.92508909359E+03  0.12699999809E+01 0. -1.
       -4    1    3    3    0  502 -0.69652310055E+03  0.57693943561E+03  0.68251192298E+03  0.11330611986E+04  0.12699999809E+01 0.  1.
</event>
<event>
 5   0  0.2142551E-05  0.2006432E+04  0.7818609E-02  0.8603619E-01
        1   -1    0    0  501    0  0.00000000000E+00  0.00000000000E+00  0.77118572325E+03  0.77118572326E+03  0.50400001928E-02 0.  1.
       -1   -1    0    0    0  501  0.00000000000E+00  0.00000000000E+00 -0.13050586505E+04  0.13050586505E+04  0.50400001928E-02 0. -1.
    10030    2    1    2    0    0  0.00000000000E+00  0.00000000000E+00 -0.53387292724E+03  0.20762443738E+04  0.20064322558E+04 0.  0.
        3    1    3    3  502    0 -0.61543891787E+03 -0.78066160826E+03 -0.40671023179E+03  0.10740627687E+04  0.10100000352E+00 0. -1.
       -3    1    3    3    0  502  0.61543891787E+03  0.78066160826E+03 -0.12716269545E+03  0.10021816051E+04  0.10100000352E+00 0.  1.
</event>
<event>
 5   0  0.4514680E-05  0.1998310E+04  0.7818609E-02  0.8607411E-01
       -2   -1    0    0    0  501  0.00000000000E+00  0.00000000000E+00  0.76494917922E+03  0.76494917922E+03  0.25500000920E-02 0.  1.
        2   -1    0    0  501    0  0.00000000000E+00  0.00000000000E+00 -0.13050682772E+04  0.13050682772E+04  0.25500000920E-02 0. -1.
    10030    2    1    2    0    0  0.00000000000E+00  0.00000000000E+00 -0.54011909801E+03  0.20700174565E+04  0.19983101936E+04 0.  0.
        3    1    3    3  502    0  0.49983788040E+03  0.83621698380E+03 -0.40256342896E+02  0.97504734963E+03  0.10100000352E+00 0.  1.
       -3    1    3    3    0  502 -0.49983788040E+03 -0.83621698380E+03 -0.49986275511E+03  0.10949701068E+04  0.10100000352E+00 0. -1.
</event>
<event>
 5   0  0.4514680E-05  0.2006811E+04  0.7818609E-02  0.8603443E-01
        2   -1    0    0  501    0  0.00000000000E+00  0.00000000000E+00  0.15438977269E+04  0.15438977269E+04  0.25500000920E-02 0. -1.
       -2   -1    0    0    0  501  0.00000000000E+00  0.00000000000E+00 -0.65213063782E+03  0.65213063782E+03  0.25500000920E-02 0.  1.
    10030    2    1    2    0    0  0.00000000000E+00  0.00000000000E+00  0.89176708912E+03  0.21960283648E+04  0.20068114106E+04 0.  0.
        3    1    3    3  502    0  0.27257367274E+03  0.41152294787E+03 -0.51008495272E+03  0.70981280129E+03  0.10100000352E+00 0.  1.
       -3    1    3    3    0  502 -0.27257367274E+03 -0.41152294787E+03  0.14018520418E+04  0.14862155635E+04  0.10100000352E+00 0. -1.
</event>
<event>
 5   0  0.1601500E-05  0.1998795E+04  0.7818609E-02  0.8607184E-01
       -4   -1    0    0    0  501  0.00000000000E+00  0.00000000000E+00  0.20551491209E+04  0.20551495133E+04  0.12699999809E+01 0. -1.
        4   -1    0    0  501    0  0.00000000000E+00  0.00000000000E+00 -0.48599507618E+03  0.48599673556E+03  0.12699999809E+01 0.  1.
    10030    2    1    2    0    0  0.00000000000E+00  0.00000000000E+00  0.15691540447E+04  0.25411462488E+04  0.19987945973E+04 0.  0.
        5    1    3    3  502    0 -0.76624446745E+03 -0.53247357167E+03  0.12396280481E+04  0.15515664588E+04  0.46999998093E+01 0.  1.
       -5    1    3    3    0  502  0.76624446745E+03  0.53247357167E+03  0.32952599658E+03  0.98957979004E+03  0.46999998093E+01 0. -1.
</event>
<event>
 5   0  0.4447313E-05  0.1999142E+04  0.7818609E-02  0.8607022E-01
        2   -1    0    0  501    0  0.00000000000E+00  0.00000000000E+00  0.90485416502E+03  0.90485416502E+03  0.25500000920E-02 0. -1.
       -2   -1    0    0    0  501  0.00000000000E+00  0.00000000000E+00 -0.11042024741E+04  0.11042024741E+04  0.25500000920E-02 0.  1.
    10030    2    1    2    0    0  0.00000000000E+00  0.00000000000E+00 -0.19934830907E+03  0.20090566391E+04  0.19991420237E+04 0.  0.
        5    1    3    3  502    0 -0.35820151714E+03  0.56319251198E+03 -0.84742474579E+03  0.10787237469E+04  0.46999998093E+01 0.  1.
       -5    1    3    3    0  502  0.35820151714E+03 -0.56319251198E+03  0.64807643672E+03  0.93033289217E+03  0.46999998093E+01 0. -1.
</event>
<event>
 5   0  0.2256868E-05  0.1993822E+04  0.7818609E-02  0.8609515E-01
        1   -1    0    0  501    0  0.00000000000E+00  0.00000000000E+00  0.97900908368E+03  0.97900908369E+03  0.50400001928E-02 0.  1.
       -1   -1    0    0    0  501  0.00000000000E+00  0.00000000000E+00 -0.10151400544E+04  0.10151400544E+04  0.50400001928E-02 0. -1.
    10030    2    1    2    0    0  0.00000000000E+00  0.00000000000E+00 -0.36130970679E+02  0.19941491381E+04  0.19938217919E+04 0.  0.
        5    1    3    3  502    0  0.36604795655E+03  0.38998461907E+03 -0.85947058668E+03  0.10123195587E+04  0.46999998093E+01 0. -1.
       -5    1    3    3    0  502 -0.36604795655E+03 -0.38998461907E+03  0.82333961600E+03  0.98182957934E+03  0.46999998093E+01 0.  1.
</event>
<event>
 5   0  0.2093980E-05  0.1997788E+04  0.7818609E-02  0.8607656E-01
        1   -1    0    0  501    0  0.00000000000E+00  0.00000000000E+00  0.30004680711E+04  0.30004680711E+04  0.50400001928E-02 0.  1.
       -1   -1    0    0    0  501  0.00000000000E+00  0.00000000000E+00 -0.33254435873E+03  0.33254435877E+03  0.50400001928E-02 0. -1.
    10030    2    1    2    0    0  0.00000000000E+00  0.00000000000E+00  0.26679237123E+04  0.33330124298E+04  0.19977875069E+04 0.  0.
        2    1    3    3  502    0  0.80799533014E+03  0.52296658563E+03  0.17798777737E+04  0.20234414725E+04  0.25500000920E-02 0.  1.
       -2    1    3    3    0  502 -0.80799533014E+03 -0.52296658563E+03  0.88804593858E+03  0.13095709573E+04  0.25500000920E-02 0. -1.
</event>
<event>
 5   0  0.4447313E-05  0.1999590E+04  0.7818609E-02  0.8606812E-01
       -2   -1    0    0    0  501  0.00000000000E+00  0.00000000000E+00  0.57728029979E+03  0.57728029980E+03  0.25500000920E-02 0. -1.
        2   -1    0    0  501    0  0.00000000000E+00  0.00000000000E+00 -0.17315502065E+04  0.17315502065E+04  0.25500000920E-02 0.  1.
    10030    2    1    2    0    0  0.00000000000E+00  0.00000000000E+00 -0.11542699067E+04  0.23088305063E+04  0.19995897803E+04 0.  0.
        5    1    3    3  502    0 -0.44460305127E+03  0.15572238135E+03  0.44108646049E+03  0.64536864572E+03  0.46999998093E+01 0. -1.
       -5    1    3    3    0  502  0.44460305127E+03 -0.15572238135E+03 -0.15953563672E+04  0.16634618606E+04  0.46999998093E+01 0.  1.
</event>
<event>
 5   0  0.4577279E-05  0.1991030E+04  0.7818609E-02  0.8610826E-01
       -2   -1    0    0    0  501  0.00000000000E+00  0.00000000000E+00  0.82562707050E+03  0.82562707051E+03  0.25500000920E-02 0.  1.
        2   -1    0    0  501    0  0.00000000000E+00  0.00000000000E+00 -0.12003602603E+04  0.12003602603E+04  0.25500000920E-02 0. -1.
    10030    2    1    2    0    0  0.00000000000E+00  0.00000000000E+00 -0.37473318977E+03  0.20259873308E+04  0.19910298092E+04 0.  0.
        1    1    3    3  502    0 -0.17415817813E+02  0.79195918048E+03  0.42616849655E+03  0.89951222434E+03  0.50400001928E-02 0.  1.
       -1    1    3    3    0  502  0.17415817813E+02 -0.79195918048E+03 -0.80090168632E+03  0.11264751064E+04  0.50400001928E-02 0. -1.
</event>
<event>
 5   0  0.2093980E-05  0.2003568E+04  0.7818609E-02  0.8604954E-01
       -1   -1    0    0    0  501  0.00000000000E+00  0.00000000000E+00  0.48279209100E+03  0.48279209102E+03  0.50400001928E-02 0. -1.
        1   -1    0    0  501    0  0.00000000000E+00  0.00000000000E+00 -0.20786817924E+04  0.20786817924E+04  0.50400001928E-02 0.  1.
    10030    2    1    2    0    0  0.00000000000E+00  0.00000000000E+00 -0.15958897014E+04  0.25614738834E+04  0.20035679466E+04 0.  0.
        2    1    3    3  502    0  0.85260654731E+03 -0.52291243945E+03 -0.72567208868E+03  0.12357084301E+04  0.25500000920E-02 0.  1.
       -2    1    3    3    0  502 -0.85260654731E+03  0.52291243945E+03 -0.87021761274E+03  0.13257654534E+04  0.25500000920E-02 0. -1.
</event>
<event>
 5   0  0.4577279E-05  0.2000326E+04  0.7818609E-02  0.8606468E-01
       -2   -1    0    0    0  501  0.00000000000E+00  0.00000000000E+00  0.82332357643E+03  0.82332357644E+03  0.25500000920E-02 0. -1.
        2   -1    0    0  501    0  0.00000000000E+00  0.00000000000E+00 -0.12149848029E+04  0.12149848029E+04  0.25500000920E-02 0.  1.
    10030    2    1    2    0    0  0.00000000000E+00  0.00000000000E+00 -0.39166122650E+03  0.20383083794E+04  0.20003256068E+04 0.  0.
        1    1    3    3  502    0  0.91545839413E+03  0.30421435283E+02 -0.60512422859E+03  0.10978000124E+04  0.50400001928E-02 0.  1.
       -1    1    3    3    0  502 -0.91545839413E+03 -0.30421435283E+02  0.21346300209E+03  0.94050836700E+03  0.50400001928E-02 0. -1.
</event>
<event>
 5   0  0.2110896E-05  0.2000095E+04  0.7818609E-02  0.8606576E-01
       -1   -1    0    0    0  501  0.00000000000E+00  0.00000000000E+00  0.53665648475E+03  0.53665648477E+03  0.50400001928E-02 0. -1.
        1   -1    0    0  501    0  0.00000000000E+00  0.00000000000E+00 -0.18635669632E+04  0.18635669632E+04  0.50400001928E-02 0.  1.
    10030    2    1    2    0    0  0.00000000000E+00  0.00000000000E+00 -0.13269104784E+04  0.24002234480E+04  0.20000952933E+04 0.  0.
        4    1    3    3  502    0  0.48450805557E+03  0.39040549953E+03 -0.16029754617E+04  0.17195047118E+04  0.12699999809E+01 0.  1.
       -4    1    3    3    0  502 -0.48450805557E+03 -0.39040549953E+03  0.27606498327E+03  0.68071873623E+03  0.12699999809E+01 0. -1.
</event>
<event>
 5   0  0.4514680E-05  0.1997326E+04  0.7818609E-02  0.8607872E-01
        2   -1    0    0  501    0  0.00000000000E+00  0.00000000000E+00  0.10430999061E+04  0.10430999061E+04  0.25500000920E-02 0. -1.
       -2   -1    0    0    0  501  0.00000000000E+00  0.00000000000E+00 -0.95611901438E+03  0.95611901438E+03  0.25500000920E-02 0.  1.
    10030    2    1    2    0    0  0.00000000000E+00  0.00000000000E+00  0.86980891696E+02  0.19992189205E+04  0.19973258663E+04 0.  0.
        3    1    3    3  502    0 -0.95452219520E+03 -0.29304989721E+03  0.25121471719E+02  0.99881027324E+03  0.10100000352E+00 0. -1.
       -3    1    3    3    0  502  0.95452219520E+03  0.29304989721E+03  0.61859419977E+02  0.10004086472E+04  0.10100000352E+00 0.  1.
</event>
<event>
 5   0  0.2110896E-05  0.2003090E+04  0.7818609E-02  0.8605177E-01
        1   -1    0    0  501    0  0.00000000000E+00  0.00000000000E+00  0.13437349283E+04  0.13437349283E+04  0.50400001928E-02 0. -1.
       -1   -1    0    0    0  501  0.00000000000E+00  0.00000000000E+00 -0.74649576712E+03  0.74649576713E+03  0.50400001928E-02 0.  1.
    10030    2    1    2    0    0  0.00000000000E+00  0.00000000000E+00  0.59723916121E+03  0.20902306955E+04  0.20030900491E+04 0.  0.
        4    1    3    3  502    0 -0.92221379044E+03 -0.23005649730E+03  0.62808667347E+03  0.11392535932E+04  0.12699999809E+01 0.  1.
       -4    1    3    3    0  502  0.92221379044E+03  0.23005649730E+03 -0.30847512257E+02  0.95097710232E+03  0.12699999809E+01 0. -1.
</event>
<event>
 5   0  0.4514680E-05  0.2008795E+04  0.7818609E-02  0.8602520E-01
        2   -1    0    0  501    0  0.00000000000E+00  0.00000000000E+00  0.13162610229E+04  0.13162610229E+04  0.25500000920E-02 0.  1.
       -2   -1    0    0    0  501  0.00000000000E+00  0.00000000000E+00 -0.76642397006E+03  0.76642397006E+03  0.25500000920E-02 0. -1.
    10030    2    1    2    0    0  0.00000000000E+00  0.00000000000E+00  0.54983705286E+03  0.20826849930E+04  0.20087946623E+04 0.  0.
        3    1    3    3  502    0  0.21165498475E+03  0.62833702663E+03 -0.50729229665E+03  0.83483575393E+03  0.10100000352E+00 0. -1.
       -3    1    3    3    0  502 -0.21165498475E+03 -0.62833702663E+03  0.10571293495E+04  0.12478492391E+04  0.10100000352E+00 0.  1.
</event>
<event>
 5   0  0.4412054E-05  0.1973653E+04  0.7818609E-02  0.8619039E-01
       -2   -1    0    0    0  501  0.00000000000E+00  0.00000000000E+00  0.10217343217E+04  0.10217343218E+04  0.25500000920E-02 0.  1.
        2   -1    0    0  501    0  0.00000000000E+00  0.00000000000E+00 -0.95311100387E+03  0.95311100388E+03  0.25500000920E-02 0. -1.
    10030    2    1    2    0    0  0.00000000000E+00  0.00000000000E+00  0.68623317873E+02  0.19748453256E+04  0.19736526798E+04 0.  0.
        4    1    3    3  502    0  0.63023393444E+03  0.23791319735E+03 -0.68725316015E+03  0.96234921969E+03  0.12699999809E+01 0. -1.
       -4    1    3    3    0  502 -0.63023393444E+03 -0.23791319735E+03  0.75587647803E+03  0.10124961059E+04  0.12699999809E+01 0.  1.
</event>
<event>
 5   0  0.4473361E-05  0.2013071E+04  0.7818609E-02  0.8600534E-01
        2   -1    0    0  501    0  0.00000000000E+00  0.00000000000E+00  0.18333461046E+04  0.18333461046E+04  0.25500000920E-02 0.  1.
       -2   -1    0    0    0  501  0.00000000000E+00  0.00000000000E+00 -0.55260382937E+03  0.55260382937E+03  0.25500000920E-02 0. -1.
    10030    2    1    2    0    0  0.00000000000E+00  0.00000000000E+00  0.12807422753E+04  0.23859499340E+04  0.20130713629E+04 0.  0.
        2    1    3    3  502    0  0.22055357572E+03  0.68980402827E+03 -0.18813728958E+03  0.74824402231E+03  0.25500000920E-02 0. -1.
       -2    1    3    3    0  502 -0.22055357572E+03 -0.68980402827E+03  0.14688795648E+04  0.16377059117E+04  0.25500000920E-02 0.  1.
</event>
<event>
 5   0  0.4473361E-05  0.1983005E+04  0.7818609E-02  0.8614608E-01
       -2   -1    0    0    0  501  0.00000000000E+00  0.00000000000E+00  0.50806507800E+03  0.50806507801E+03  0.25500000920E-02 0. -1.
        2   -1    0    0  501    0  0.00000000000E+00  0.00000000000E+00 -0.19349436137E+04  0.19349436137E+04  0.25500000920E-02 0.  1.
    10030    2    1    2    0    0  0.00000000000E+00  0.00000000000E+00 -0.14268785357E+04  0.24430086917E+04  0.19830050711E+04 0.  0.
        2    1    3    3  502    0  0.65021773242E+03  0.36693922824E+03 -0.15172011284E+04  0.16909543934E+04  0.25500000920E-02 0.  1.
       -2    1    3    3    0  502 -0.65021773242E+03 -0.36693922824E+03  0.90322592682E+02  0.75205429826E+03  0.25500000920E-02 0. -1.
</event>
<event>
 5   0  0.2110896E-05  0.2007598E+04  0.7818609E-02  0.8603077E-01
       -1   -1    0    0    0  501  0.00000000000E+00  0.00000000000E+00  0.52442300950E+03  0.52442300952E+03  0.50400001928E-02 0. -1.
        1   -1    0    0  501    0  0.00000000000E+00  0.00000000000E+00 -0.19213725672E+04  0.19213725672E+04  0.50400001928E-02 0.  1.
    10030    2    1    2    0    0  0.00000000000E+00  0.00000000000E+00 -0.13969495577E+04  0.24457955767E+04  0.20075975534E+04 0.  0.
        4    1    3    3  502    0  0.51949628979E+03  0.58921311670E+03  0.62882358394E+02  0.78803825789E+03  0.12699999809E+01 0. -1.
       -4    1    3    3    0  502 -0.51949628979E+03 -0.58921311670E+03 -0.14598319160E+04  0.16577573188E+04  0.12699999809E+01 0.  1.
</event>
<event>
 5   0  0.4473361E-05  0.2008452E+04  0.7818609E-02  0.8602679E-01
        2   -1    0    0  501    0  0.00000000000E+00  0.00000000000E+00  0.20546264254E+04  0.20546264254E+04  0.25500000920E-02 0. -1.
       -2   -1    0    0    0  501  0.00000000000E+00  0.00000000000E+00 -0.49082858482E+03  0.49082858483E+03  0.25500000920E-02 0.  1.
    10030    2    1    2    0    0  0.00000000000E+00  0.00000000000E+00  0.15637978406E+04  0.25454550102E+04  0.20084515237E+04 0.  0.
        2    1    3    3  502    0 -0.50458365485E+03 -0.77619935441E+03  0.28879632700E+03  0.96979040056E+03  0.25500000920E-02 0.  1.
       -2    1    3    3    0  502  0.50458365485E+03  0.77619935441E+03  0.12750015136E+04  0.15756646097E+04  0.25500000920E-02 0. -1.
</event>
<event>
 5   0  0.4447313E-05  0.1997091E+04  0.7818609E-02  0.8607982E-01
        2   -1    0    0  501    0  0.00000000000E+00  0.00000000000E+00  0.18180864250E+04  0.18180864250E+04  0.25500000920E-02 0.  1.
       -2   -1    0    0    0  501  0.00000000000E+00  0.00000000000E+00 -0.54842972634E+03  0.54842972634E+03  0.25500000920E-02 0. -1.
    10030    2    1    2    0    0  0.00000000000E+00  0.00000000000E+00  0.12696566987E+04  0.23665161514E+04  0.19970905243E+04 0.  0.
        5    1    3    3  502    0  0.71484951487E+03 -0.60518193481E+03  0.10450025212E+04  0.14033201212E+04  0.46999998093E+01 0.  1.
       -5    1    3    3    0  502 -0.71484951487E+03  0.60518193481E+03  0.22465417745E+03  0.96319603019E+03  0.46999998093E+01 0. -1.
</event>
<event>
 5   0  0.4447313E-05  0.1998803E+04  0.7818609E-02  0.8607180E-01
       -2   -1    0    0    0  501  0.00000000000E+00  0.00000000000E+00  0.27643765408E+04  0.27643765408E+04  0.25500000920E-02 0.  1.
        2   -1    0    0  501    0  0.00000000000E+00  0.00000000000E+00 -0.36131251628E+03  0.36131251629E+03  0.25500000920E-02 0. -1.
    10030    2    1    2    0    0  0.00000000000E+00  0.00000000000E+00  0.24030640245E+04  0.31256890571E+04  0.19988034860E+04 0.  0.
        5    1    3    3  502    0 -0.15288208791E+02 -0.55329944274E+03 -0.99705679505E+02  0.56243872127E+03  0.46999998093E+01 0. -1.
       -5    1    3    3    0  502  0.15288208791E+02  0.55329944274E+03  0.25027697040E+04  0.25632503358E+04  0.46999998093E+01 0.  1.
</event>
<event>
 5   0  0.4514680E-05  0.1994857E+04  0.7818609E-02  0.8609029E-01
        2   -1    0    0  501    0  0.00000000000E+00  0.00000000000E+00  0.11802770920E+04  0.11802770920E+04  0.25500000920E-02 0.  1.
       -2   -1    0    0    0  501  0.00000000000E+00  0.00000000000E+00 -0.84290715614E+03  0.84290715615E+03  0.25500000920E-02 0. -1.
    10030    2    1    2    0    0  0.00000000000E+00  0.00000000000E+00  0.33736993583E+03  0.20231842481E+04  0.19948573955E+04 0.  0.
        3    1    3    3  502    0  0.15464247969E+03  0.72851040873E+03  0.84159901090E+03  0.11238018586E+04  0.10100000352E+00 0.  1.
       -3    1    3    3    0  502 -0.15464247969E+03 -0.72851040873E+03 -0.50422907507E+03  0.89938238947E+03  0.10100000352E+00 0. -1.
</event>
<event>
 5   0  0.2256868E-05  0.2011968E+04  0.7818609E-02  0.8601046E-01
       -1   -1    0    0    0  501  0.00000000000E+00  0.00000000000E+00  0.87383929241E+03  0.87383929242E+03  0.50400001928E-02 0.  1.
        1   -1    0    0  501    0  0.00000000000E+00  0.00000000000E+00 -0.11581116073E+04  0.11581116073E+04  0.50400001928E-02 0. -1.
    10030    2    1    2    0    0  0.00000000000E+00  0.00000000000E+00 -0.28427231490E+03  0.20319508997E+04  0.20119676215E+04 0.  0.
        5    1    3    3  502    0  0.53137858369E+03 -0.84614407748E+03 -0.24106497232E+02  0.99946296193E+03  0.46999998093E+01 0.  1.
       -5    1    3    3    0  502 -0.53137858369E+03  0.84614407748E+03 -0.26016581767E+03  0.10324879378E+04  0.46999998093E+01 0. -1.
</event>
<event>
 5   0  0.2007644E-05  0.1995099E+04  0.7818609E-02  0.8608915E-01
        1   -1    0    0  501    0  0.00000000000E+00  0.00000000000E+00  0.68358937638E+03  0.68358937640E+03  0.50400001928E-02 0. -1.
       -1   -1    0    0    0  501  0.00000000000E+00  0.00000000000E+00 -0.14557063020E+04  0.14557063020E+04  0.50400001928E-02 0.  1.
    10030    2    1    2    0    0  0.00000000000E+00  0.00000000000E+00 -0.77211692566E+03  0.21392956784E+04  0.19950993592E+04 0.  0.
        1    1    3    3  502    0 -0.18404666388E+03 -0.86837380263E+03  0.10198479946E+03  0.89350273358E+03  0.50400001928E-02 0. -1.
       -1    1    3    3    0  502  0.18404666388E+03  0.86837380263E+03 -0.87410172512E+03  0.12457929449E+04  0.50400001928E-02 0.  1.
</event>
<event>
 5   0  0.4514680E-05  0.1999286E+04  0.7818609E-02  0.8606954E-01
        2   -1    0    0  501    0  0.00000000000E+00  0.00000000000E+00  0.12794928830E+04  0.12794928830E+04  0.25500000920E-02 0.  1.
       -2   -1    0    0    0  501  0.00000000000E+00  0.00000000000E+00 -0.78100193400E+03  0.78100193400E+03  0.25500000920E-02 0. -1.
    10030    2    1    2    0    0  0.00000000000E+00  0.00000000000E+00  0.49849094903E+03  0.20604948170E+04  0.19992862888E+04 0.  0.
        3    1    3    3  502    0  0.85615821179E+03 -0.49744607765E+03  0.10783349465E+03  0.99603592132E+03  0.10100000352E+00 0. -1.
       -3    1    3    3    0  502 -0.85615821179E+03  0.49744607765E+03  0.39065745438E+03  0.10644588957E+04  0.10100000352E+00 0.  1.
</event>
<event>
 5   0  0.2093980E-05  0.2024259E+04  0.7818609E-02  0.8595362E-01
        1   -1    0    0  501    0  0.00000000000E+00  0.00000000000E+00  0.16568918153E+04  0.16568918153E+04  0.50400001928E-02 0. -1.
       -1   -1    0    0    0  501  0.00000000000E+00  0.00000000000E+00 -0.61826964525E+03  0.61826964527E+03  0.50400001928E-02 0.  1.
    10030    2    1    2    0    0  0.00000000000E+00  0.00000000000E+00  0.10386221700E+04  0.22751614606E+04  0.20242587926E+04 0.  0.
        2    1    3    3  502    0 -0.68090511781E+02  0.85595557272E+03  0.11215517632E+04  0.14125065019E+04  0.25500000920E-02 0. -1.
       -2    1    3    3    0  502  0.68090511781E+02 -0.85595557272E+03 -0.82929593200E+02  0.86265495866E+03  0.25500000920E-02 0.  1.
</event>
<event>
 5   0  0.4412054E-05  0.2003850E+04  0.7818609E-02  0.8604823E-01
        2   -1    0    0  501    0  0.00000000000E+00  0.00000000000E+00  0.26412596070E+04  0.26412596070E+04  0.25500000920E-02 0.  1.
       -2   -1    0    0    0  501  0.00000000000E+00  0.00000000000E+00 -0.38006611079E+03  0.38006611080E+03  0.25500000920E-02 0. -1.
    10030    2    1    2    0    0  0.00000000000E+00  0.00000000000E+00  0.22611934963E+04  0.30213257178E+04  0.20038495617E+04 0.  0.
        4    1    3    3  502    0 -0.94590807650E+03 -0.18495083343E+03  0.71794724616E+03  0.12018314196E+04  0.12699999809E+01 0. -1.
       -4    1    3    3    0  502  0.94590807650E+03  0.18495083343E+03  0.15432462501E+04  0.18194942982E+04  0.12699999809E+01 0.  1.
</event>
<event>
 5   0  0.2110896E-05  0.1981304E+04  0.7818609E-02  0.8615412E-01
        1   -1    0    0  501    0  0.00000000000E+00  0.00000000000E+00  0.14214269334E+04  0.14214269334E+04  0.50400001928E-02 0.  1.
       -1   -1    0    0    0  501  0.00000000000E+00  0.00000000000E+00 -0.69042721688E+03  0.69042721690E+03  0.50400001928E-02 0. -1.
    10030    2    1    2    0    0  0.00000000000E+00  0.00000000000E+00  0.73099971650E+03  0.21118541503E+04  0.19813044608E+04 0.  0.
        4    1    3    3  502    0  0.75377922228E+03  0.56962622248E+03  0.47991267004E+02  0.94602427236E+03  0.12699999809E+01 0.  1.
       -4    1    3    3    0  502 -0.75377922228E+03 -0.56962622248E+03  0.68300844949E+03  0.11658298779E+04  0.12699999809E+01 0. -1.
</event>
<event>
 5   0  0.4412054E-05  0.2020858E+04  0.7818609E-02  0.8596931E-01
        2   -1    0    0  501    0  0.00000000000E+00  0.00000000000E+00  0.17814099661E+04  0.17814099661E+04  0.25500000920E-02 0. -1.
       -2   -1    0    0    0  501  0.00000000000E+00  0.00000000000E+00 -0.57312262782E+03  0.57312262782E+03  0.25500000920E-02 0.  1.
    10030    2    1    2    0    0  0.00000000000E+00  0.00000000000E+00  0.12082873383E+04  0.23545325939E+04  0.20208576011E+04 0.  0.
        4    1    3    3  502    0 -0.20220746493E+03  0.63142526084E+03  0.14925234707E+04  0.16331606297E+04  0.12699999809E+01 0.  1.
       -4    1    3    3    0  502  0.20220746493E+03 -0.63142526084E+03 -0.28423613242E+03  0.72137196423E+03  0.12699999809E+01 0. -1.
</event>
<event>
 5   0  0.4577279E-05  0.2002925E+04  0.7818609E-02  0.8605254E-01
        2   -1    0    0  501    0  0.00000000000E+00  0.00000000000E+00  0.94235374358E+03  0.94235374359E+03  0.25500000920E-02 0. -1.
       -2   -1    0    0    0  501  0.00000000000E+00  0.00000000000E+00 -0.10642789429E+04  0.10642789429E+04  0.25500000920E-02 0.  1.
    10030    2    1    2    0    0  0.00000000000E+00  0.00000000000E+00 -0.12192519936E+03  0.20066326865E+04  0.20029251070E+04 0.  0.
        1    1    3    3  502    0  0.32734305981E+03 -0.14407389581E+03 -0.99811730054E+03  0.10602588891E+04  0.50400001928E-02 0.  1.
       -1    1    3    3    0  502 -0.32734305981E+03  0.14407389581E+03  0.87619210118E+03  0.94637379743E+03  0.50400001928E-02 0. -1.
</event>
<event>
 5   0  0.4473361E-05  0.1996329E+04  0.7818609E-02  0.8608339E-01
       -2   -1    0    0    0  501  0.00000000000E+00  0.00000000000E+00  0.98885404041E+03  0.98885404042E+03  0.25500000920E-02 0. -1.
        2   -1    0    0  501    0  0.00000000000E+00  0.00000000000E+00 -0.10075623280E+04  0.10075623280E+04  0.25500000920E-02 0.  1.
    10030    2    1    2    0    0  0.00000000000E+00  0.00000000000E+00 -0.18708287562E+02  0.19964163684E+04  0.19963287094E+04 0.  0.
        2    1    3    3  502    0 -0.35093194045E+03  0.57888219016E+03  0.72421351970E+03  0.99133396947E+03  0.25500000920E-02 0. -1.
       -2    1    3    3    0  502  0.35093194045E+03 -0.57888219016E+03 -0.74292180726E+03  0.10050823989E+04  0.25500000920E-02 0.  1.
</event>
<event>
 5   0  0.2142551E-05  0.2024574E+04  0.7818609E-02  0.8595217E-01
        1   -1    0    0  501    0  0.00000000000E+00  0.00000000000E+00  0.86108633435E+03  0.86108633437E+03  0.50400001928E-02 0. -1.
       -1   -1    0    0    0  501  0.00000000000E+00  0.00000000000E+00 -0.11900377743E+04  0.11900377744E+04  0.50400001928E-02 0.  1.
    10030    2    1    2    0    0  0.00000000000E+00  0.00000000000E+00 -0.32895143999E+03  0.20511241087E+04  0.20245742909E+04 0.  0.
        3    1    3    3  502    0 -0.17817295552E+03 -0.61364367151E+03 -0.95989656616E+03  0.11531286076E+04  0.10100000352E+00 0.  1.
       -3    1    3    3    0  502  0.17817295552E+03  0.61364367151E+03  0.63094512617E+03  0.89799550116E+03  0.10100000352E+00 0. -1.
</event>
<event>
 5   0  0.2007644E-05  0.2003278E+04  0.7818609E-02  0.8605090E-01
       -1   -1    0    0    0  501  0.00000000000E+00  0.00000000000E+00  0.11540433812E+04  0.11540433813E+04  0.50400001928E-02 0. -1.
        1   -1    0    0  501    0  0.00000000000E+00  0.00000000000E+00 -0.86936113495E+03  0.86936113497E+03  0.50400001928E-02 0.  1.
    10030    2    1    2    0    0  0.00000000000E+00  0.00000000000E+00  0.28468224629E+03  0.20234045162E+04  0.20032777778E+04 0.  0.
        1    1    3    3  502    0 -0.26573817891E+03  0.26724278247E+03 -0.79501558795E+03  0.87982115774E+03  0.50400001928E-02 0.  1.
       -1    1    3    3    0  502  0.26573817891E+03 -0.26724278247E+03  0.10796978342E+04  0.11435833585E+04  0.50400001928E-02 0. -1.
</event>
<event>
 5   0  0.2093980E-05  0.1988987E+04  0.7818609E-02  0.8611787E-01
        1   -1    0    0  501    0  0.00000000000E+00  0.00000000000E+00  0.77679551257E+03  0.77679551258E+03  0.50400001928E-02 0.  1.
       -1   -1    0    0    0  501  0.00000000000E+00  0.00000000000E+00 -0.12732010690E+04  0.12732010690E+04  0.50400001928E-02 0. -1.
    10030    2    1    2    0    0  0.00000000000E+00  0.00000000000E+00 -0.49640555645E+03  0.20499965816E+04  0.19889865530E+04 0.  0.
        2    1    3    3  502    0  0.95753826970E+03  0.77714717076E+02 -0.51318373678E+03  0.10891632857E+04  0.25500000920E-02 0. -1.
       -2    1    3    3    0  502 -0.95753826970E+03 -0.77714717076E+02  0.16778180334E+02  0.96083329591E+03  0.25500000920E-02 0.  1.
</event>
<event>
 5   0  0.4473361E-05  0.1981334E+04  0.7818609E-02  0.8615398E-01
       -2   -1    0    0    0  501  0.00000000000E+00  0.00000000000E+00  0.62547044172E+03  0.62547044172E+03  0.25500000920E-02 0. -1.
        2   -1    0    0  501    0  0.00000000000E+00  0.00000000000E+00 -0.15690922538E+04  0.15690922538E+04  0.25500000920E-02 0.  1.
    10030    2    1    2    0    0  0.00000000000E+00  0.00000000000E+00 -0.94362181204E+03  0.21945626955E+04  0.19813337175E+04 0.  0.
        2    1    3    3  502    0 -0.73722079213E+03 -0.48665474148E+03  0.24883615008E+02  0.88371179016E+03  0.25500000920E-02 0. -1.
       -2    1    3    3    0  502  0.73722079213E+03  0.48665474148E+03 -0.96850542704E+03  0.13108509053E+04  0.25500000920E-02 0.  1.
</event>
<event>
 5   0  0.4447313E-05  0.1925740E+04  0.7818609E-02  0.8642149E-01
        2   -1    0    0  501    0  0.00000000000E+00  0.00000000000E+00  0.12427697795E+04  0.12427697795E+04  0.25500000920E-02 0. -1.
       -2   -1    0    0    0  501  0.00000000000E+00  0.00000000000E+00 -0.74601016699E+03  0.74601016700E+03  0.25500000920E-02 0.  1.
    10030    2    1    2    0    0  0.00000000000E+00  0.00000000000E+00  0.49675961248E+03  0.19887799465E+04  0.19257402636E+04 0.  0.
        5    1    3    3  502    0 -0.71556635070E+03 -0.90374734373E+02  0.90714351736E+03  0.11589366876E+04  0.46999998093E+01 0. -1.
       -5    1    3    3    0  502  0.71556635070E+03  0.90374734373E+02 -0.41038390487E+03  0.82984325884E+03  0.46999998093E+01 0.  1.
</event>
<event>
 5   0  0.2007644E-05  0.2003144E+04  0.7818609E-02  0.8605152E-01
        1   -1    0    0  501    0  0.00000000000E+00  0.00000000000E+00  0.13350429383E+04  0.13350429383E+04  0.50400001928E-02 0.  1.
       -1   -1    0    0    0  501  0.00000000000E+00  0.00000000000E+00 -0.75139628958E+03  0.75139628960E+03  0.50400001928E-02 0. -1.
    10030    2    1    2    0    0  0.00000000000E+00  0.00000000000E+00  0.58364664875E+03  0.20864392279E+04  0.20031438394E+04 0.  0.
        1    1    3    3  502    0  0.94681669917E+03  0.30210468077E+03  0.16249415083E+03  0.10070419301E+04  0.50400001928E-02 0. -1.
       -1    1    3    3    0  502 -0.94681669917E+03 -0.30210468077E+03  0.42115249792E+03  0.10793972978E+04  0.50400001928E-02 0.  1.
</event>
<event>
 5   0  0.4577279E-05  0.2003088E+04  0.7818609E-02  0.8605178E-01
       -2   -1    0    0    0  501  0.00000000000E+00  0.00000000000E+00  0.72090694234E+03  0.72090694234E+03  0.25500000920E-02 0. -1.
        2   -1    0    0  501    0  0.00000000000E+00  0.00000000000E+00 -0.13914280076E+04  0.13914280076E+04  0.25500000920E-02 0.  1.
    10030    2    1    2    0    0  0.00000000000E+00  0.00000000000E+00 -0.67052106530E+03  0.21123349500E+04  0.20030877270E+04 0.  0.
        1    1    3    3  502    0 -0.80607797040E+03  0.16993599704E+03  0.26541068147E+03  0.86549567723E+03  0.50400001928E-02 0. -1.
       -1    1    3    3    0  502  0.80607797040E+03 -0.16993599704E+03 -0.93593174677E+03  0.12468392728E+04  0.50400001928E-02 0.  1.
</event>
<event>
 5   0  0.2007644E-05  0.2001922E+04  0.7818609E-02  0.8605722E-01
       -1   -1    0    0    0  501  0.00000000000E+00  0.00000000000E+00  0.53485851457E+03  0.53485851459E+03  0.50400001928E-02 0. -1.
        1   -1    0    0  501    0  0.00000000000E+00  0.00000000000E+00 -0.18732489425E+04  0.18732489425E+04  0.50400001928E-02 0.  1.
    10030    2    1    2    0    0  0.00000000000E+00  0.00000000000E+00 -0.13383904279E+04  0.24081074571E+04  0.20019222231E+04 0.  0.
        1    1    3    3  502    0  0.99204918925E+03  0.10598065809E+03 -0.57199354672E+03  0.11500304828E+04  0.50400001928E-02 0.  1.
       -1    1    3    3    0  502 -0.99204918925E+03 -0.10598065809E+03 -0.76639688121E+03  0.12580769743E+04  0.50400001928E-02 0. -1.
</event>
<event>
 5   0  0.4447313E-05  0.1988394E+04  0.7818609E-02  0.8612066E-01
        2   -1    0    0  501    0  0.00000000000E+00  0.00000000000E+00  0.14328638150E+04  0.14328638150E+04  0.25500000920E-02 0.  1.
       -2   -1    0    0    0  501  0.00000000000E+00  0.00000000000E+00 -0.68982675254E+03  0.68982675255E+03  0.25500000920E-02 0. -1.
    10030    2    1    2    0    0  0.00000000000E+00  0.00000000000E+00  0.74303706244E+03  0.21226905675E+04  0.19883941182E+04 0.  0.
        5    1    3    3  502    0  0.94960177828E+03 -0.23149243949E+03  0.56566242858E+03  0.11293043699E+04  0.46999998093E+01 0.  1.
       -5    1    3    3    0  502 -0.94960177828E+03  0.23149243949E+03  0.17737463387E+03  0.99338619760E+03  0.46999998093E+01 0. -1.
</event>
<event>
 5   0  0.4412054E-05  0.2108707E+04  0.7818609E-02  0.8557418E-01
        2   -1    0    0  501    0  0.00000000000E+00  0.00000000000E+00  0.15760100498E+04  0.15760100498E+04  0.25500000920E-02 0. -1.
       -2   -1    0    0    0  501  0.00000000000E+00  0.00000000000E+00 -0.70536425879E+03  0.70536425880E+03  0.25500000920E-02 0.  1.
    10030    2    1    2    0    0  0.00000000000E+00  0.00000000000E+00  0.87064579103E+03  0.22813743086E+04  0.21087068650E+04 0.  0.
        4    1    3    3  502    0 -0.10426185305E+04 -0.77408456801E+02  0.28771788396E+03  0.10843563358E+04  0.12699999809E+01 0.  1.
       -4    1    3    3    0  502  0.10426185305E+04  0.77408456801E+02  0.58292790707E+03  0.11970179728E+04  0.12699999809E+01 0. -1.
</event>
<event>
 5   0  0.4447313E-05  0.1992003E+04  0.7818609E-02  0.8610369E-01
       -2   -1    0    0    0  501  0.00000000000E+00  0.00000000000E+00  0.66875713170E+03  0.66875713170E+03  0.25500000920E-02 0.  1.
        2   -1    0    0  501    0  0.00000000000E+00  0.00000000000E+00 -0.14833772114E+04  0.14833772114E+04  0.25500000920E-02 0. -1.
    10030    2    1    2    0    0  0.00000000000E+00  0.00000000000E+00 -0.81462007967E+03  0.21521343431E+04  0.19920031015E+04 0.  0.
        5    1    3    3  502    0 -0.67225248614E+03  0.70793302140E+03 -0.62040780870E+03  0.11567283635E+04  0.46999998093E+01 0.  1.
       -5    1    3    3    0  502  0.67225248614E+03 -0.70793302140E+03 -0.19421227097E+03  0.99540597954E+03  0.46999998093E+01 0. -1.
</event>
<event>
 5   0  0.4447313E-05  0.2034089E+04  0.7818609E-02  0.8590847E-01
        2   -1    0    0  501    0  0.00000000000E+00  0.00000000000E+00  0.15507389480E+04  0.15507389480E+04  0.25500000920E-02 0.  1.
       -2   -1    0    0    0  501  0.00000000000E+00  0.00000000000E+00 -0.66702385690E+03  0.66702385691E+03  0.25500000920E-02 0. -1.
    10030    2    1    2    0    0  0.00000000000E+00  0.00000000000E+00  0.88371509111E+03  0.22177628049E+04  0.20340893532E+04 0.  0.
        5    1    3    3  502    0 -0.94313283537E+03 -0.27949549366E+02  0.85570709841E+03  0.12737886209E+04  0.46999998093E+01 0.  1.
       -5    1    3    3    0  502  0.94313283537E+03  0.27949549366E+02  0.28007992703E+02  0.94397418403E+03  0.46999998093E+01 0. -1.
</event>
<event>
 5   0  0.1601500E-05  0.1996480E+04  0.7818609E-02  0.8608268E-01
       -4   -1    0    0    0  501  0.00000000000E+00  0.00000000000E+00  0.82886355013E+03  0.82886452308E+03  0.12699999809E+01 0.  1.
        4   -1    0    0  501    0  0.00000000000E+00  0.00000000000E+00 -0.12022265434E+04  0.12022272142E+04  0.12699999809E+01 0. -1.
    10030    2    1    2    0    0  0.00000000000E+00  0.00000000000E+00 -0.37336299323E+03  0.20310917372E+04  0.19964803331E+04 0.  0.
        5    1    3    3  502    0  0.21153619608E+03  0.84895159266E+02  0.80202411512E+03  0.83379824991E+03  0.46999998093E+01 0.  1.
       -5    1    3    3    0  502 -0.21153619608E+03 -0.84895159266E+02 -0.11753871084E+04  0.11972934873E+04  0.46999998093E+01 0. -1.
</event>
<event>
 5   0  0.4577279E-05  0.1999909E+04  0.7818609E-02  0.8606663E-01
        2   -1    0    0  501    0  0.00000000000E+00  0.00000000000E+00  0.19021792836E+04  0.19021792836E+04  0.25500000920E-02 0. -1.
       -2   -1    0    0    0  501  0.00000000000E+00  0.00000000000E+00 -0.52566522471E+03  0.52566522472E+03  0.25500000920E-02 0.  1.
    10030    2    1    2    0    0  0.00000000000E+00  0.00000000000E+00  0.13765140588E+04  0.24278445083E+04  0.19999094985E+04 0.  0.
        1    1    3    3  502    0 -0.52884280737E+03 -0.69717059559E+03  0.12757366352E+04  0.15470053383E+04  0.50400001928E-02 0. -1.
       -1    1    3    3    0  502  0.52884280737E+03  0.69717059559E+03  0.10077742367E+03  0.88083917000E+03  0.50400001928E-02 0.  1.
</event>
<event>
 5   0  0.2093980E-05  0.1994842E+04  0.7818609E-02  0.8609036E-01
       -1   -1    0    0    0  501  0.00000000000E+00  0.00000000000E+00  0.52032134910E+03  0.52032134913E+03  0.50400001928E-02 0.  1.
        1   -1    0    0  501    0  0.00000000000E+00  0.00000000000E+00 -0.19119898052E+04  0.19119898052E+04  0.50400001928E-02 0. -1.
    10030    2    1    2    0    0  0.00000000000E+00  0.00000000000E+00 -0.13916684561E+04  0.24323111544E+04  0.19948424649E+04 0.  0.
        2    1    3    3  502    0 -0.51521973127E+02 -0.14414627335E+03  0.50591334654E+03  0.52856501591E+03  0.25500000920E-02 0.  1.
       -2    1    3    3    0  502  0.51521973127E+02  0.14414627335E+03 -0.18975818027E+04  0.19037461385E+04  0.25500000920E-02 0. -1.
</event>
<event>
 5   0  0.4412054E-05  0.2003250E+04  0.7818609E-02  0.8605103E-01
        2   -1    0    0  501    0  0.00000000000E+00  0.00000000000E+00  0.59186839830E+03  0.59186839830E+03  0.25500000920E-02 0.  1.
       -2   -1    0    0    0  501  0.00000000000E+00  0.00000000000E+00 -0.16950596365E+04  0.16950596365E+04  0.25500000920E-02 0. -1.
    10030    2    1    2    0    0  0.00000000000E+00  0.00000000000E+00 -0.11031912382E+04  0.22869280348E+04  0.20032495921E+04 0.  0.
        4    1    3    3  502    0  0.13784636854E+03  0.40997137551E+03  0.47975992151E+03  0.64594840757E+03  0.12699999809E+01 0.  1.
       -4    1    3    3    0  502 -0.13784636854E+03 -0.40997137551E+03 -0.15829511597E+04  0.16409796272E+04  0.12699999809E+01 0. -1.
</event>
<event>
 5   0  0.2142551E-05  0.1979176E+04  0.7818609E-02  0.8616419E-01
        1   -1    0    0  501    0  0.00000000000E+00  0.00000000000E+00  0.24808031366E+04  0.24808031366E+04  0.50400001928E-02 0.  1.
       -1   -1    0    0    0  501  0.00000000000E+00  0.00000000000E+00 -0.39474502674E+03  0.39474502678E+03  0.50400001928E-02 0. -1.
    10030    2    1    2    0    0  0.00000000000E+00  0.00000000000E+00  0.20860581098E+04  0.28755481633E+04  0.19791762939E+04 0.  0.
        3    1    3    3  502    0  0.89889069721E+03  0.33151052812E+03  0.14029880705E+04  0.16989053099E+04  0.10100000352E+00 0.  1.
       -3    1    3    3    0  502 -0.89889069721E+03 -0.33151052812E+03  0.68307003935E+03  0.11766428535E+04  0.10100000352E+00 0. -1.
</event>
<event>
 5   0  0.4514680E-05  0.1988220E+04  0.7818609E-02  0.8612148E-01
        2   -1    0    0  501    0  0.00000000000E+00  0.00000000000E+00  0.11598023615E+04  0.11598023615E+04  0.25500000920E-02 0.  1.
       -2   -1    0    0    0  501  0.00000000000E+00  0.00000000000E+00 -0.85208887355E+03  0.85208887355E+03  0.25500000920E-02 0. -1.
    10030    2    1    2    0    0  0.00000000000E+00  0.00000000000E+00  0.30771348794E+03  0.20118912350E+04  0.19882199956E+04 0.  0.
        3    1    3    3  502    0  0.22778436942E+03  0.18852758776E+03 -0.80656192114E+03  0.85905210152E+03  0.10100000352E+00 0. -1.
       -3    1    3    3    0  502 -0.22778436942E+03 -0.18852758776E+03  0.11142754091E+04  0.11528391335E+04  0.10100000352E+00 0.  1.
</event>
<event>
 5   0  0.2110896E-05  0.1999927E+04  0.7818609E-02  0.8606655E-01
        1   -1    0    0  501    0  0.00000000000E+00  0.00000000000E+00  0.27354707500E+04  0.27354707500E+04  0.50400001928E-02 0.  1.
       -1   -1    0    0    0  501  0.00000000000E+00  0.00000000000E+00 -0.36554125112E+03  0.36554125116E+03  0.50400001928E-02 0. -1.
    10030    2    1    2    0    0  0.00000000000E+00  0.00000000000E+00  0.23699294988E+04  0.31010120011E+04  0.19999273991E+04 0.  0.
        4    1    3    3  502    0 -0.85058235782E+03  0.52406059284E+03  0.11192542852E+04  0.15002871792E+04  0.12699999809E+01 0.  1.
       -4    1    3    3    0  502  0.85058235782E+03 -0.52406059284E+03  0.12506752137E+04  0.16007248219E+04  0.12699999809E+01 0. -1.
</event>
<event>
 5   0  0.4577279E-05  0.1999180E+04  0.7818609E-02  0.8607004E-01
        2   -1    0    0  501    0  0.00000000000E+00  0.00000000000E+00  0.11470282562E+04  0.11470282562E+04  0.25500000920E-02 0. -1.
       -2   -1    0    0    0  501  0.00000000000E+00  0.00000000000E+00 -0.87110323842E+03  0.87110323843E+03  0.25500000920E-02 0.  1.
    10030    2    1    2    0    0  0.00000000000E+00  0.00000000000E+00  0.27592501778E+03  0.20181314946E+04  0.19991798604E+04 0.  0.
        1    1    3    3  502    0  0.94424895772E+03 -0.55369590931E+02 -0.18837925520E+03  0.96444731819E+03  0.50400001928E-02 0. -1.
       -1    1    3    3    0  502 -0.94424895772E+03  0.55369590931E+02  0.46430427298E+03  0.10536841764E+04  0.50400001928E-02 0.  1.
</event>
<event>
 5   0  0.2256868E-05  0.1863036E+04  0.7818609E-02  0.8673478E-01
       -1   -1    0    0    0  501  0.00000000000E+00  0.00000000000E+00  0.26190624561E+04  0.26190624561E+04  0.50400001928E-02 0.  1.
        1   -1    0    0  501    0  0.00000000000E+00  0.00000000000E+00 -0.33131164147E+03  0.33131164151E+03  0.50400001928E-02 0. -1.
    10030    2    1    2    0    0  0.00000000000E+00  0.00000000000E+00  0.22877508146E+04  0.29503740976E+04  0.18630361043E+04 0.  0.
        5    1    3    3  502    0  0.86966884918E+03  0.29957500640E+03  0.13768085317E+04  0.16558058203E+04  0.46999998093E+01 0. -1.
       -5    1    3    3    0  502 -0.86966884918E+03 -0.29957500640E+03  0.91094228296E+03  0.12945682773E+04  0.46999998093E+01 0.  1.
</event>
<event>
 5   0  0.2110896E-05  0.2118354E+04  0.7818609E-02  0.8553201E-01
       -1   -1    0    0    0  501  0.00000000000E+00  0.00000000000E+00  0.49682465589E+03  0.49682465591E+03  0.50400001928E-02 0.  1.
        1   -1    0    0  501    0  0.00000000000E+00  0.00000000000E+00 -0.22580520355E+04  0.22580520355E+04  0.50400001928E-02 0. -1.
    10030    2    1    2    0    0  0.00000000000E+00  0.00000000000E+00 -0.17612273796E+04  0.27548766914E+04  0.21183540078E+04 0.  0.
        4    1    3    3  502    0 -0.38479164515E+03  0.66257376735E+03  0.70414786087E+02  0.76943385834E+03  0.12699999809E+01 0.  1.
       -4    1    3    3    0  502  0.38479164515E+03 -0.66257376735E+03 -0.18316421657E+04  0.19854428331E+04  0.12699999809E+01 0. -1.
</event>
<event>
 5   0  0.4514680E-05  0.2000022E+04  0.7818609E-02  0.8606611E-01
       -2   -1    0    0    0  501  0.00000000000E+00  0.00000000000E+00  0.73458462882E+03  0.73458462882E+03  0.25500000920E-02 0.  1.
        2   -1    0    0  501    0  0.00000000000E+00  0.00000000000E+00 -0.13613428633E+04  0.13613428633E+04  0.25500000920E-02 0. -1.
    10030    2    1    2    0    0  0.00000000000E+00  0.00000000000E+00 -0.62675823448E+03  0.20959274921E+04  0.20000215418E+04 0.  0.
        3    1    3    3  502    0  0.26771721434E+03 -0.23448102303E+03 -0.12927341011E+04  0.13408263584E+04  0.10100000352E+00 0. -1.
       -3    1    3    3    0  502 -0.26771721434E+03  0.23448102303E+03  0.66597586663E+03  0.75510113372E+03  0.10100000352E+00 0.  1.
</event>
<event>
 5   0  0.2256868E-05  0.1914001E+04  0.7818609E-02  0.8647918E-01
       -1   -1    0    0    0  501  0.00000000000E+00  0.00000000000E+00  0.82504039257E+03  0.82504039259E+03  0.50400001928E-02 0.  1.
        1   -1    0    0  501    0  0.00000000000E+00  0.00000000000E+00 -0.11100670863E+04  0.11100670863E+04  0.50400001928E-02 0. -1.
    10030    2    1    2    0    0  0.00000000000E+00  0.00000000000E+00 -0.28502669375E+03  0.19351074789E+04  0.19140012379E+04 0.  0.
        5    1    3    3  502    0  0.63049828897E+03  0.71773265014E+03 -0.85680974852E+02  0.95918276096E+03  0.46999998093E+01 0. -1.
       -5    1    3    3    0  502 -0.63049828897E+03 -0.71773265014E+03 -0.19934571890E+03  0.97592471796E+03  0.46999998093E+01 0.  1.
</event>
<event>
 5   0  0.2142551E-05  0.2003352E+04  0.7818609E-02  0.8605055E-01
        1   -1    0    0  501    0  0.00000000000E+00  0.00000000000E+00  0.11783200026E+04  0.11783200026E+04  0.50400001928E-02 0. -1.
       -1   -1    0    0    0  501  0.00000000000E+00  0.00000000000E+00 -0.85151295088E+03  0.85151295089E+03  0.50400001928E-02 0.  1.
    10030    2    1    2    0    0  0.00000000000E+00  0.00000000000E+00  0.32680705176E+03  0.20298329535E+04  0.20033519337E+04 0.  0.
        3    1    3    3  502    0  0.50682128437E+03 -0.82836725869E+03 -0.85391829493E+02  0.97485994087E+03  0.10100000352E+00 0.  1.
       -3    1    3    3    0  502 -0.50682128437E+03  0.82836725869E+03  0.41219888125E+03  0.10549730127E+04  0.10100000352E+00 0. -1.
</event>
<event>
 5   0  0.2093980E-05  0.2000904E+04  0.7818609E-02  0.8606198E-01
        1   -1    0    0  501    0  0.00000000000E+00  0.00000000000E+00  0.20064491498E+04  0.20064491498E+04  0.50400001928E-02 0.  1.
       -1   -1    0    0    0  501  0.00000000000E+00  0.00000000000E+00 -0.49884375184E+03  0.49884375186E+03  0.50400001928E-02 0. -1.
    10030    2    1    2    0    0  0.00000000000E+00  0.00000000000E+00  0.15076053980E+04  0.25052929017E+04  0.20009044173E+04 0.  0.
        2    1    3    3  502    0 -0.99522471245E+03 -0.95680087796E+02  0.79855847062E+03  0.12795790474E+04  0.25500000920E-02 0.  1.
       -2    1    3    3    0  502  0.99522471245E+03  0.95680087796E+02  0.70904692736E+03  0.12257138543E+04  0.25500000920E-02 0. -1.
</event>
<event>
 5   0  0.4473361E-05  0.1993917E+04  0.7818609E-02  0.8609470E-01
       -2   -1    0    0    0  501  0.00000000000E+00  0.00000000000E+00  0.79591815917E+03  0.79591815918E+03  0.25500000920E-02 0. -1.
        2   -1    0    0  501    0  0.00000000000E+00  0.00000000000E+00 -0.12487788836E+04  0.12487788836E+04  0.25500000920E-02 0.  1.
    10030    2    1    2    0    0  0.00000000000E+00  0.00000000000E+00 -0.45286072440E+03  0.20446970428E+04  0.19939165381E+04 0.  0.
        2    1    3    3  502    0 -0.87740498355E+02 -0.14845552386E+03 -0.12333688332E+04  0.12453658564E+04  0.25500000920E-02 0.  1.
       -2    1    3    3    0  502  0.87740498355E+02  0.14845552386E+03  0.78050810878E+03  0.79933118636E+03  0.25500000920E-02 0. -1.
</event>
<event>
 5   0  0.2093980E-05  0.2008691E+04  0.7818609E-02  0.8602568E-01
        1   -1    0    0  501    0  0.00000000000E+00  0.00000000000E+00  0.69340749930E+03  0.69340749931E+03  0.50400001928E-02 0.  1.
       -1   -1    0    0    0  501  0.00000000000E+00  0.00000000000E+00 -0.14547144811E+04  0.14547144811E+04  0.50400001928E-02 0. -1.
    10030    2    1    2    0    0  0.00000000000E+00  0.00000000000E+00 -0.76130698182E+03  0.21481219804E+04  0.20086910470E+04 0.  0.
        2    1    3    3  502    0  0.74682768627E+02 -0.73726763217E+03 -0.11056252492E+04  0.13309952175E+04  0.25500000920E-02 0. -1.
       -2    1    3    3    0  502 -0.74682768627E+02  0.73726763217E+03  0.34431826741E+03  0.81712676290E+03  0.25500000920E-02 0.  1.
</event>
<event>
 5   0  0.2093980E-05  0.2001652E+04  0.7818609E-02  0.8605849E-01
        1   -1    0    0  501    0  0.00000000000E+00  0.00000000000E+00  0.12256008575E+04  0.12256008575E+04  0.50400001928E-02 0. -1.
       -1   -1    0    0    0  501  0.00000000000E+00  0.00000000000E+00 -0.81727451624E+03  0.81727451625E+03  0.50400001928E-02 0.  1.
    10030    2    1    2    0    0  0.00000000000E+00  0.00000000000E+00  0.40832634128E+03  0.20428753738E+04  0.20016516660E+04 0.  0.
        2    1    3    3  502    0 -0.39242810927E+02  0.65278564817E+03 -0.56905665200E+03  0.86688786695E+03  0.25500000920E-02 0.  1.
       -2    1    3    3    0  502  0.39242810927E+02 -0.65278564817E+03  0.97738299328E+03  0.11759875068E+04  0.25500000920E-02 0. -1.
</event>
<event>
 5   0  0.2142551E-05  0.2000964E+04  0.7818609E-02  0.8606170E-01
       -1   -1    0    0    0  501  0.00000000000E+00  0.00000000000E+00  0.11316402390E+04  0.11316402390E+04  0.50400001928E-02 0. -1.
        1   -1    0    0  501    0  0.00000000000E+00  0.00000000000E+00 -0.88452501469E+03  0.88452501470E+03  0.50400001928E-02 0.  1.
    10030    2    1    2    0    0  0.00000000000E+00  0.00000000000E+00  0.24711522434E+03  0.20161652537E+04  0.20009638668E+04 0.  0.
        3    1    3    3  502    0  0.99281809162E+03  0.80343116482E+02  0.21819296556E+03  0.10196817934E+04  0.10100000352E+00 0.  1.
       -3    1    3    3    0  502 -0.99281809162E+03 -0.80343116482E+02  0.28922258778E+02  0.99648346031E+03  0.10100000352E+00 0. -1.
</event>
<event>
 5   0  0.4577279E-05  0.2010461E+04  0.7818609E-02  0.8601746E-01
        2   -1    0    0  501    0  0.00000000000E+00  0.00000000000E+00  0.17181353137E+04  0.17181353137E+04  0.25500000920E-02 0. -1.
       -2   -1    0    0    0  501  0.00000000000E+00  0.00000000000E+00 -0.58813057966E+03  0.58813057967E+03  0.25500000920E-02 0.  1.
    10030    2    1    2    0    0  0.00000000000E+00  0.00000000000E+00  0.11300047340E+04  0.23062658934E+04  0.20104605621E+04 0.  0.
        1    1    3    3  502    0  0.27963606528E+03 -0.64429149795E+03 -0.25996107240E+03  0.74892431028E+03  0.50400001928E-02 0.  1.
       -1    1    3    3    0  502 -0.27963606528E+03  0.64429149795E+03  0.13899658064E+04  0.15573415831E+04  0.50400001928E-02 0. -1.
</event>
<event>
 5   0  0.4412054E-05  0.1972968E+04  0.7818609E-02  0.8619365E-01
       -2   -1    0    0    0  501  0.00000000000E+00  0.00000000000E+00  0.38231586570E+03  0.38231586571E+03  0.25500000920E-02 0. -1.
        2   -1    0    0  501    0  0.00000000000E+00  0.00000000000E+00 -0.25454089047E+04  0.25454089047E+04  0.25500000920E-02 0.  1.
    10030    2    1    2    0    0  0.00000000000E+00  0.00000000000E+00 -0.21630930390E+04  0.29277247704E+04  0.19729675202E+04 0.  0.
        4    1    3    3  502    0 -0.36164212881E+03  0.22923752748E+03  0.23723438157E+03  0.48950652502E+03  0.12699999809E+01 0. -1.
       -4    1    3    3    0  502  0.36164212881E+03 -0.22923752748E+03 -0.24003274206E+04  0.24382182454E+04  0.12699999809E+01 0.  1.
</event>
<event>
 5   0  0.2007644E-05  0.1996040E+04  0.7818609E-02  0.8608474E-01
        1   -1    0    0  501    0  0.00000000000E+00  0.00000000000E+00  0.18242902233E+04  0.18242902234E+04  0.50400001928E-02 0. -1.
       -1   -1    0    0    0  501  0.00000000000E+00  0.00000000000E+00 -0.54598973399E+03  0.54598973402E+03  0.50400001928E-02 0.  1.
    10030    2    1    2    0    0  0.00000000000E+00  0.00000000000E+00  0.12783004893E+04  0.23702799574E+04  0.19960398130E+04 0.  0.
        1    1    3    3  502    0  0.99300912432E+03 -0.67286414299E+01  0.52080949121E+03  0.11213183855E+04  0.50400001928E-02 0. -1.
       -1    1    3    3    0  502 -0.99300912432E+03  0.67286414299E+01  0.75749099813E+03  0.12489615718E+04  0.50400001928E-02 0.  1.
</event>
<event>
 5   0  0.4577279E-05  0.1994117E+04  0.7818609E-02  0.8609376E-01
        2   -1    0    0  501    0  0.00000000000E+00  0.00000000000E+00  0.17619545484E+04  0.17619545484E+04  0.25500000920E-02 0.  1.
       -2   -1    0    0    0  501  0.00000000000E+00  0.00000000000E+00 -0.56421771257E+03  0.56421771258E+03  0.25500000920E-02 0. -1.
    10030    2    1    2    0    0  0.00000000000E+00  0.00000000000E+00  0.11977368358E+04  0.23261722610E+04  0.19941173135E+04 0.  0.
        1    1    3    3  502    0 -0.90592309907E+03  0.14471423652E+03  0.14334814360E+03  0.92854055484E+03  0.50400001928E-02 0. -1.
       -1    1    3    3    0  502  0.90592309907E+03 -0.14471423652E+03  0.10543886922E+04  0.13976317061E+04  0.50400001928E-02 0.  1.
</event>
<event>
 5   0  0.4412054E-05  0.1985067E+04  0.7818609E-02  0.8613634E-01
       -2   -1    0    0    0  501  0.00000000000E+00  0.00000000000E+00  0.52419746235E+03  0.52419746235E+03  0.25500000920E-02 0.  1.
        2   -1    0    0  501    0  0.00000000000E+00  0.00000000000E+00 -0.18792964484E+04  0.18792964484E+04  0.25500000920E-02 0. -1.
    10030    2    1    2    0    0  0.00000000000E+00  0.00000000000E+00 -0.13550989860E+04  0.24034939107E+04  0.19850666782E+04 0.  0.
        4    1    3    3  502    0  0.92703058737E+03  0.18752837150E+02 -0.24881540688E+03  0.96002505093E+03  0.12699999809E+01 0.  1.
       -4    1    3    3    0  502 -0.92703058737E+03 -0.18752837150E+02 -0.11062835792E+04  0.14434688598E+04  0.12699999809E+01 0. -1.
</event>
<event>
 5   0  0.4447313E-05  0.2000568E+04  0.7818609E-02  0.8606355E-01
       -2   -1    0    0    0  501  0.00000000000E+00  0.00000000000E+00  0.85455015017E+03  0.85455015017E+03  0.25500000920E-02 0. -1.
        2   -1    0    0  501    0  0.00000000000E+00  0.00000000000E+00 -0.11708712081E+04  0.11708712081E+04  0.25500000920E-02 0.  1.
    10030    2    1    2    0    0  0.00000000000E+00  0.00000000000E+00 -0.31632105797E+03  0.20254213583E+04  0.20005680861E+04 0.  0.
        5    1    3    3  502    0  0.23111060153E+03 -0.54174927657E+03  0.66036441788E+03  0.88487719102E+03  0.46999998093E+01 0. -1.
       -5    1    3    3    0  502 -0.23111060153E+03  0.54174927657E+03 -0.97668547585E+03  0.11405441673E+04  0.46999998093E+01 0.  1.
</event>
<event>
 5   0  0.4577279E-05  0.2006284E+04  0.7818609E-02  0.8603689E-01
        2   -1    0    0  501    0  0.00000000000E+00  0.00000000000E+00  0.13200956089E+04  0.13200956089E+04  0.25500000920E-02 0. -1.
       -2   -1    0    0    0  501  0.00000000000E+00  0.00000000000E+00 -0.76228831958E+03  0.76228831958E+03  0.25500000920E-02 0.  1.
    10030    2    1    2    0    0  0.00000000000E+00  0.00000000000E+00  0.55780728937E+03  0.20823839285E+04  0.20062835925E+04 0.  0.
        1    1    3    3  502    0 -0.61176993177E+03 -0.82698836512E+02 -0.54177882904E+03  0.82135610219E+03  0.50400001928E-02 0.  1.
       -1    1    3    3    0  502  0.61176993177E+03  0.82698836512E+02  0.10995861184E+04  0.12610278263E+04  0.50400001928E-02 0. -1.
</event>
<event>
 5   0  0.4447313E-05  0.2004325E+04  0.7818609E-02  0.8604601E-01
        2   -1    0    0  501    0  0.00000000000E+00  0.00000000000E+00  0.12801241497E+04  0.12801241497E+04  0.25500000920E-02 0.  1.
       -2   -1    0    0    0  501  0.00000000000E+00  0.00000000000E+00 -0.78455620455E+03  0.78455620456E+03  0.25500000920E-02 0. -1.
    10030    2    1    2    0    0  0.00000000000E+00  0.00000000000E+00  0.49556794519E+03  0.20646803543E+04  0.20043246686E+04 0.  0.
        5    1    3    3  502    0 -0.43098687412E+03  0.17025303544E+03 -0.66755188982E+03  0.81263977096E+03  0.46999998093E+01 0. -1.
       -5    1    3    3    0  502  0.43098687412E+03 -0.17025303544E+03  0.11631198350E+04  0.12520405833E+04  0.46999998093E+01 0.  1.
</event>
<event>
 5   0  0.4577279E-05  0.2006506E+04  0.7818609E-02  0.8603585E-01
       -2   -1    0    0    0  501  0.00000000000E+00  0.00000000000E+00  0.64368476692E+03  0.64368476692E+03  0.25500000920E-02 0. -1.
        2   -1    0    0  501    0  0.00000000000E+00  0.00000000000E+00 -0.15636790907E+04  0.15636790907E+04  0.25500000920E-02 0.  1.
    10030    2    1    2    0    0  0.00000000000E+00  0.00000000000E+00 -0.91999432377E+03  0.22073638576E+04  0.20065058296E+04 0.  0.
        1    1    3    3  502    0 -0.76705256021E+03  0.39909708471E+03  0.99725557595E+02  0.87039835708E+03  0.50400001928E-02 0. -1.
       -1    1    3    3    0  502  0.76705256021E+03 -0.39909708471E+03 -0.10197198814E+04  0.13369655005E+04  0.50400001928E-02 0.  1.
</event>
<event>
 5   0  0.2110896E-05  0.2000639E+04  0.7818609E-02  0.8606322E-01
        1   -1    0    0  501    0  0.00000000000E+00  0.00000000000E+00  0.98235566035E+03  0.98235566036E+03  0.50400001928E-02 0. -1.
       -1   -1    0    0    0  501  0.00000000000E+00  0.00000000000E+00 -0.10186118531E+04  0.10186118531E+04  0.50400001928E-02 0.  1.
    10030    2    1    2    0    0  0.00000000000E+00  0.00000000000E+00 -0.36256192735E+02  0.20009675135E+04  0.20006390175E+04 0.  0.
        4    1    3    3  502    0  0.43834007347E+03  0.27787169848E+03 -0.87341925866E+03  0.10159810604E+04  0.12699999809E+01 0.  1.
       -4    1    3    3    0  502 -0.43834007347E+03 -0.27787169848E+03  0.83716306593E+03  0.98498645304E+03  0.12699999809E+01 0. -1.
</event>
<event>
 5   0  0.2142551E-05  0.2002394E+04  0.7818609E-02  0.8605502E-01
        1   -1    0    0  501    0  0.00000000000E+00  0.00000000000E+00  0.22600267155E+04  0.22600267155E+04  0.50400001928E-02 0.  1.
       -1   -1    0    0    0  501  0.00000000000E+00  0.00000000000E+00 -0.44353267331E+03  0.44353267334E+03  0.50400001928E-02 0. -1.
    10030    2    1    2    0    0  0.00000000000E+00  0.00000000000E+00  0.18164940422E+04  0.27035593889E+04  0.20023942578E+04 0.  0.
        3    1    3    3  502    0 -0.73966608966E+03 -0.26077332290E+03  0.17484859518E+04  0.19163276818E+04  0.10100000352E+00 0.  1.
       -3    1    3    3    0  502  0.73966608966E+03  0.26077332290E+03  0.68008090448E+02  0.78723170712E+03  0.10100000352E+00 0. -1.
</event>
<event>
 5   0  0.4577279E-05  0.1965176E+04  0.7818609E-02  0.8623077E-01
       -2   -1    0    0    0  501  0.00000000000E+00  0.00000000000E+00  0.19718862023E+04  0.19718862023E+04  0.25500000920E-02 0. -1.
        2   -1    0    0  501    0  0.00000000000E+00  0.00000000000E+00 -0.48962216506E+03  0.48962216507E+03  0.25500000920E-02 0.  1.
    10030    2    1    2    0    0  0.00000000000E+00  0.00000000000E+00  0.14822640373E+04  0.24615083674E+04  0.19651760141E+04 0.  0.
        1    1    3    3  502    0 -0.89262184814E+03 -0.24964820246E+03  0.11496698789E+04  0.14767663388E+04  0.50400001928E-02 0.  1.
       -1    1    3    3    0  502  0.89262184814E+03  0.24964820246E+03  0.33259415833E+03  0.98474202863E+03  0.50400001928E-02 0. -1.
</event>
<event>
 5   0  0.2093980E-05  0.1987003E+04  0.7818609E-02  0.8612721E-01
       -1   -1    0    0    0  501  0.00000000000E+00  0.00000000000E+00  0.11183818315E+04  0.11183818315E+04  0.50400001928E-02 0.  1.
        1   -1    0    0  501    0  0.00000000000E+00  0.00000000000E+00 -0.88256532079E+03  0.88256532081E+03  0.50400001928E-02 0. -1.
    10030    2    1    2    0    0  0.00000000000E+00  0.00000000000E+00  0.23581651069E+03  0.20009471523E+04  0.19870027880E+04 0.  0.
        2    1    3    3  502    0 -0.62935591535E+03 -0.25077444616E+03 -0.61387455330E+03  0.91423118423E+03  0.25500000920E-02 0. -1.
       -2    1    3    3    0  502  0.62935591535E+03  0.25077444616E+03  0.84969106398E+03  0.10867159681E+04  0.25500000920E-02 0.  1.
</event>
<event>
 5   0  0.4473361E-05  0.2001664E+04  0.7818609E-02  0.8605843E-01
        2   -1    0    0  501    0  0.00000000000E+00  0.00000000000E+00  0.18141978468E+04  0.18141978468E+04  0.25500000920E-02 0. -1.
       -2   -1    0    0    0  501  0.00000000000E+00  0.00000000000E+00 -0.55212552422E+03  0.55212552422E+03  0.25500000920E-02 0.  1.
    10030    2    1    2    0    0  0.00000000000E+00  0.00000000000E+00  0.12620723225E+04  0.23663233710E+04  0.20016642448E+04 0.  0.
        2    1    3    3  502    0  0.17562896300E+03  0.94088516186E+03  0.97681971449E+03  0.13675844307E+04  0.25500000920E-02 0. -1.
       -2    1    3    3    0  502 -0.17562896300E+03 -0.94088516186E+03  0.28525260805E+03  0.99873894029E+03  0.25500000920E-02 0.  1.
</event>
<event>
 5   0  0.2110896E-05  0.1999233E+04  0.7818609E-02  0.8606980E-01
       -1   -1    0    0    0  501  0.00000000000E+00  0.00000000000E+00  0.37907031452E+03  0.37907031455E+03  0.50400001928E-02 0. -1.
        1   -1    0    0  501    0  0.00000000000E+00  0.00000000000E+00 -0.26360087771E+04  0.26360087771E+04  0.50400001928E-02 0.  1.
    10030    2    1    2    0    0  0.00000000000E+00  0.00000000000E+00 -0.22569384626E+04  0.30150790917E+04  0.19992325290E+04 0.  0.
        4    1    3    3  502    0 -0.44155865239E+02 -0.33508048244E+03 -0.25472249404E+04  0.25695496064E+04  0.12699999809E+01 0.  1.
       -4    1    3    3    0  502  0.44155865239E+02  0.33508048244E+03  0.29028647777E+03  0.44552948525E+03  0.12699999809E+01 0. -1.
</event>
<event>
 5   0  0.4447313E-05  0.1991836E+04  0.7818609E-02  0.8610447E-01
       -2   -1    0    0    0  501  0.00000000000E+00  0.00000000000E+00  0.12450819010E+04  0.12450819010E+04  0.25500000920E-02 0.  1.
        2   -1    0    0  501    0  0.00000000000E+00  0.00000000000E+00 -0.79661643246E+03  0.79661643246E+03  0.25500000920E-02 0. -1.
    10030    2    1    2    0    0  0.00000000000E+00  0.00000000000E+00  0.44846546856E+03  0.20416983335E+04  0.19918360395E+04 0.  0.
        5    1    3    3  502    0 -0.14673418150E+03 -0.76880489007E+02 -0.78238396497E+03  0.79974263876E+03  0.46999998093E+01 0. -1.
       -5    1    3    3    0  502  0.14673418150E+03  0.76880489007E+02  0.12308494335E+04  0.12419556947E+04  0.46999998093E+01 0.  1.
</event>
<event>
 5   0  0.2110896E-05  0.1996699E+04  0.7818609E-02  0.8608166E-01
        1   -1    0    0  501    0  0.00000000000E+00  0.00000000000E+00  0.83664660800E+03  0.83664660801E+03  0.50400001928E-02 0. -1.
       -1   -1    0    0    0  501  0.00000000000E+00  0.00000000000E+00 -0.11913054214E+04  0.11913054214E+04  0.50400001928E-02 0.  1.
    10030    2    1    2    0    0  0.00000000000E+00  0.00000000000E+00 -0.35465881336E+03  0.20279520294E+04  0.19966989156E+04 0.  0.
        4    1    3    3  502    0 -0.82582544476E+03 -0.53184276995E+03  0.39457101397E+01  0.98227367810E+03  0.12699999809E+01 0. -1.
       -4    1    3    3    0  502  0.82582544476E+03  0.53184276995E+03 -0.35860452350E+03  0.10456783513E+04  0.12699999809E+01 0.  1.
</event>
<event>
 5   0  0.4577279E-05  0.1993607E+04  0.7818609E-02  0.8609616E-01
        2   -1    0    0  501    0  0.00000000000E+00  0.00000000000E+00  0.10049370197E+04  0.10049370197E+04  0.25500000920E-02 0. -1.
       -2   -1    0    0    0  501  0.00000000000E+00  0.00000000000E+00 -0.98873542935E+03  0.98873542935E+03  0.25500000920E-02 0.  1.
    10030    2    1    2    0    0  0.00000000000E+00  0.00000000000E+00  0.16201590396E+02  0.19936724491E+04  0.19936066169E+04 0.  0.
        1    1    3    3  502    0  0.85358273598E+03 -0.37249850237E+03  0.36344084768E+03  0.99972389749E+03  0.50400001928E-02 0.  1.
       -1    1    3    3    0  502 -0.85358273598E+03  0.37249850237E+03 -0.34723925729E+03  0.99394855161E+03  0.50400001928E-02 0. -1.
</event>
<event>
 5   0  0.2093980E-05  0.1997978E+04  0.7818609E-02  0.8607567E-01
        1   -1    0    0  501    0  0.00000000000E+00  0.00000000000E+00  0.11123836538E+04  0.11123836538E+04  0.50400001928E-02 0. -1.
       -1   -1    0    0    0  501  0.00000000000E+00  0.00000000000E+00 -0.89715368229E+03  0.89715368231E+03  0.50400001928E-02 0.  1.
    10030    2    1    2    0    0  0.00000000000E+00  0.00000000000E+00  0.21522997149E+03  0.20095373361E+04  0.19979780691E+04 0.  0.
        2    1    3    3  502    0  0.53600555006E+03 -0.54510162613E+03  0.75440728095E+03  0.10740428660E+04  0.25500000920E-02 0. -1.
       -2    1    3    3    0  502 -0.53600555006E+03  0.54510162613E+03 -0.53917730946E+03  0.93549447008E+03  0.25500000920E-02 0.  1.
</event>
<event>
 5   0  0.2093980E-05  0.2005063E+04  0.7818609E-02  0.8604257E-01
        1   -1    0    0  501    0  0.00000000000E+00  0.00000000000E+00  0.18642295891E+04  0.18642295891E+04  0.50400001928E-02 0. -1.
       -1   -1    0    0    0  501  0.00000000000E+00  0.00000000000E+00 -0.53913416895E+03  0.53913416897E+03  0.50400001928E-02 0.  1.
    10030    2    1    2    0    0  0.00000000000E+00  0.00000000000E+00  0.13250954202E+04  0.24033637581E+04  0.20050634606E+04 0.  0.
        2    1    3    3  502    0 -0.21425280830E+03  0.34425590065E+03  0.17615532777E+04  0.18076189701E+04  0.25500000920E-02 0. -1.
       -2    1    3    3    0  502  0.21425280830E+03 -0.34425590065E+03 -0.43645785752E+03  0.59574478797E+03  0.25500000920E-02 0.  1.
</event>
<event>
 5   0  0.2142551E-05  0.1977740E+04  0.7818609E-02  0.8617099E-01
       -1   -1    0    0    0  501  0.00000000000E+00  0.00000000000E+00  0.45415570142E+03  0.45415570145E+03  0.50400001928E-02 0. -1.
        1   -1    0    0  501    0  0.00000000000E+00  0.00000000000E+00 -0.21531462827E+04  0.21531462828E+04  0.50400001928E-02 0.  1.
    10030    2    1    2    0    0  0.00000000000E+00  0.00000000000E+00 -0.16989905813E+04  0.26073019842E+04  0.19777397810E+04 0.  0.
        3    1    3    3  502    0  0.38857791754E+03  0.20567421049E+03  0.31822210532E+03  0.54273381816E+03  0.10100000352E+00 0. -1.
       -3    1    3    3    0  502 -0.38857791754E+03 -0.20567421049E+03 -0.20172126866E+04  0.20645681660E+04  0.10100000352E+00 0.  1.
</event>
<event>
 5   0  0.2256868E-05  0.2020601E+04  0.7818609E-02  0.8597049E-01
       -1   -1    0    0    0  501  0.00000000000E+00  0.00000000000E+00  0.91867322423E+03  0.91867322424E+03  0.50400001928E-02 0. -1.
        1   -1    0    0  501    0  0.00000000000E+00  0.00000000000E+00 -0.11110666445E+04  0.11110666446E+04  0.50400001928E-02 0.  1.
    10030    2    1    2    0    0  0.00000000000E+00  0.00000000000E+00 -0.19239342032E+03  0.20297398688E+04  0.20206010756E+04 0.  0.
        5    1    3    3  502    0 -0.55714613879E+03  0.63222546625E+02 -0.94040007937E+03  0.10948896335E+04  0.46999998093E+01 0.  1.
       -5    1    3    3    0  502  0.55714613879E+03 -0.63222546625E+02  0.74800665905E+03  0.93485023525E+03  0.46999998093E+01 0. -1.
</event>
<event>
 5   0  0.2110896E-05  0.2004331E+04  0.7818609E-02  0.8604598E-01
        1   -1    0    0  501    0  0.00000000000E+00  0.00000000000E+00  0.10036104056E+04  0.10036104056E+04  0.50400001928E-02 0.  1.
       -1   -1    0    0    0  501  0.00000000000E+00  0.00000000000E+00 -0.10007228577E+04  0.10007228577E+04  0.50400001928E-02 0. -1.
    10030    2    1    2    0    0  0.00000000000E+00  0.00000000000E+00  0.28875478979E+01  0.20043332633E+04  0.20043311833E+04 0.  0.
        4    1    3    3  502    0  0.79791157638E+03 -0.13778128075E+03  0.59194222341E+03  0.10030173347E+04  0.12699999809E+01 0.  1.
       -4    1    3    3    0  502 -0.79791157638E+03  0.13778128075E+03 -0.58905467551E+03  0.10013159285E+04  0.12699999809E+01 0. -1.
</event>
<event>
 5   0  0.4412054E-05  0.1989200E+04  0.7818609E-02  0.8611687E-01
        2   -1    0    0  501    0  0.00000000000E+00  0.00000000000E+00  0.14404281315E+04  0.14404281315E+04  0.25500000920E-02 0.  1.
       -2   -1    0    0    0  501  0.00000000000E+00  0.00000000000E+00 -0.68676062665E+03  0.68676062665E+03  0.25500000920E-02 0. -1.
    10030    2    1    2    0    0  0.00000000000E+00  0.00000000000E+00  0.75366750483E+03  0.21271887581E+04  0.19892001671E+04 0.  0.
        4    1    3    3  502    0  0.62370560962E+02  0.19788182343E+03  0.14170281688E+04  0.14321374749E+04  0.12699999809E+01 0.  1.
       -4    1    3    3    0  502 -0.62370560962E+02 -0.19788182343E+03 -0.66336066398E+03  0.69505128324E+03  0.12699999809E+01 0. -1.
</event>
<event>
 5   0  0.4577279E-05  0.1988429E+04  0.7818609E-02  0.8612050E-01
        2   -1    0    0  501    0  0.00000000000E+00  0.00000000000E+00  0.11207346146E+04  0.11207346146E+04  0.25500000920E-02 0. -1.
       -2   -1    0    0    0  501  0.00000000000E+00  0.00000000000E+00 -0.88197686072E+03  0.88197686073E+03  0.25500000920E-02 0.  1.
    10030    2    1    2    0    0  0.00000000000E+00  0.00000000000E+00  0.23875775384E+03  0.20027114753E+04  0.19884285223E+04 0.  0.
        1    1    3    3  502    0  0.38745867312E+02  0.91838255512E+03  0.50095936142E+03  0.10468467135E+04  0.50400001928E-02 0.  1.
       -1    1    3    3    0  502 -0.38745867312E+02 -0.91838255512E+03 -0.26220160757E+03  0.95586476178E+03  0.50400001928E-02 0. -1.
</event>
<event>
 5   0  0.4447313E-05  0.1997140E+04  0.7818609E-02  0.8607959E-01
       -2   -1    0    0    0  501  0.00000000000E+00  0.00000000000E+00  0.61874665803E+03  0.61874665804E+03  0.25500000920E-02 0. -1.
        2   -1    0    0  501    0  0.00000000000E+00  0.00000000000E+00 -0.16115508530E+04  0.16115508530E+04  0.25500000920E-02 0.  1.
    10030    2    1    2    0    0  0.00000000000E+00  0.00000000000E+00 -0.99280419497E+03  0.22302975110E+04  0.19971396592E+04 0.  0.
        5    1    3    3  502    0  0.84568986418E+03 -0.69367084787E+02  0.91473641039E+02  0.85345922915E+03  0.46999998093E+01 0. -1.
       -5    1    3    3    0  502 -0.84568986418E+03  0.69367084787E+02 -0.10842778360E+04  0.13768382819E+04  0.46999998093E+01 0.  1.
</event>
<event>
 5   0  0.4473361E-05  0.2007620E+04  0.7818609E-02  0.8603066E-01
       -2   -1    0    0    0  501  0.00000000000E+00  0.00000000000E+00  0.84590073431E+03  0.84590073431E+03  0.25500000920E-02 0. -1.
        2   -1    0    0  501    0  0.00000000000E+00  0.00000000000E+00 -0.11911973618E+04  0.11911973618E+04  0.25500000920E-02 0.  1.
    10030    2    1    2    0    0  0.00000000000E+00  0.00000000000E+00 -0.34529662744E+03  0.20370980961E+04  0.20076202061E+04 0.  0.
        2    1    3    3  502    0  0.84278726862E+03  0.22760717519E+03 -0.67544326278E+03  0.11037748899E+04  0.25500000920E-02 0.  1.
       -2    1    3    3    0  502 -0.84278726862E+03 -0.22760717519E+03  0.33014663534E+03  0.93332320617E+03  0.25500000920E-02 0. -1.
</event>
<event>
 5   0  0.2093980E-05  0.2000210E+04  0.7818609E-02  0.8606522E-01
        1   -1    0    0  501    0  0.00000000000E+00  0.00000000000E+00  0.62165659414E+03  0.62165659416E+03  0.50400001928E-02 0. -1.
       -1   -1    0    0    0  501  0.00000000000E+00  0.00000000000E+00 -0.16089431047E+04  0.16089431047E+04  0.50400001928E-02 0.  1.
    10030    2    1    2    0    0  0.00000000000E+00  0.00000000000E+00 -0.98728651056E+03  0.22305996989E+04  0.20002100796E+04 0.  0.
        2    1    3    3  502    0 -0.65702748949E+03  0.70783767252E+01  0.34717408857E+03  0.74314539166E+03  0.25500000920E-02 0. -1.
       -2    1    3    3    0  502  0.65702748949E+03 -0.70783767252E+01 -0.13344605991E+04  0.14874543072E+04  0.25500000920E-02 0.  1.
</event>
<event>
 5   0  0.2007644E-05  0.1978823E+04  0.7818609E-02  0.8616586E-01
       -1   -1    0    0    0  501  0.00000000000E+00  0.00000000000E+00  0.54382836169E+03  0.54382836171E+03  0.50400001928E-02 0.  1.
        1   -1    0    0  501    0  0.00000000000E+00  0.00000000000E+00 -0.18000812873E+04  0.18000812873E+04  0.50400001928E-02 0. -1.
    10030    2    1    2    0    0  0.00000000000E+00  0.00000000000E+00 -0.12562529256E+04  0.23439096490E+04  0.19788231426E+04 0.  0.
        1    1    3    3  502    0  0.19204719725E+03  0.26495664300E+03  0.47787333636E+03  0.57917792971E+03  0.50400001928E-02 0.  1.
       -1    1    3    3    0  502 -0.19204719725E+03 -0.26495664300E+03 -0.17341262620E+04  0.17647317193E+04  0.50400001928E-02 0. -1.
</event>
<event>
 5   0  0.4447313E-05  0.2016023E+04  0.7818609E-02  0.8599166E-01
        2   -1    0    0  501    0  0.00000000000E+00  0.00000000000E+00  0.15826518939E+04  0.15826518939E+04  0.25500000920E-02 0.  1.
       -2   -1    0    0    0  501  0.00000000000E+00  0.00000000000E+00 -0.64201556111E+03  0.64201556111E+03  0.25500000920E-02 0. -1.
    10030    2    1    2    0    0  0.00000000000E+00  0.00000000000E+00  0.94063633282E+03  0.22246674550E+04  0.20160229599E+04 0.  0.
        5    1    3    3  502    0  0.98477266633E+02 -0.57672256249E+02  0.15754879747E+04  0.15796228377E+04  0.46999998093E+01 0.  1.
       -5    1    3    3    0  502 -0.98477266633E+02  0.57672256249E+02 -0.63485164184E+03  0.64504461732E+03  0.46999998093E+01 0. -1.
</event>
<event>
 5   0  0.4577279E-05  0.1987401E+04  0.7818609E-02  0.8612534E-01
       -2   -1    0    0    0  501  0.00000000000E+00  0.00000000000E+00  0.67636268833E+03  0.67636268834E+03  0.25500000920E-02 0. -1.
        2   -1    0    0  501    0  0.00000000000E+00  0.00000000000E+00 -0.14599276571E+04  0.14599276571E+04  0.25500000920E-02 0.  1.
    10030    2    1    2    0    0  0.00000000000E+00  0.00000000000E+00 -0.78356496877E+03  0.21362903454E+04  0.19874009107E+04 0.  0.
        1    1    3    3  502    0  0.12329488641E+02 -0.65642213072E+03  0.41002073166E+03  0.77405363536E+03  0.50400001928E-02 0. -1.
       -1    1    3    3    0  502 -0.12329488641E+02  0.65642213072E+03 -0.11935857004E+04  0.13622367101E+04  0.50400001928E-02 0.  1.
</event>
<event>
 5   0  0.2256868E-05  0.1999684E+04  0.7818609E-02  0.8606769E-01
       -1   -1    0    0    0  501  0.00000000000E+00  0.00000000000E+00  0.11687922769E+04  0.11687922769E+04  0.50400001928E-02 0.  1.
        1   -1    0    0  501    0  0.00000000000E+00  0.00000000000E+00 -0.85531345330E+03  0.85531345332E+03  0.50400001928E-02 0. -1.
    10030    2    1    2    0    0  0.00000000000E+00  0.00000000000E+00  0.31347882357E+03  0.20241057302E+04  0.19996837335E+04 0.  0.
        5    1    3    3  502    0  0.63271234504E+03  0.53126655208E+03 -0.41324757329E+03  0.92377741246E+03  0.46999998093E+01 0. -1.
       -5    1    3    3    0  502 -0.63271234504E+03 -0.53126655208E+03  0.72672639686E+03  0.11003283177E+04  0.46999998093E+01 0.  1.
</event>
<event>
 5   0  0.2142551E-05  0.1999041E+04  0.7818609E-02  0.8607069E-01
        1   -1    0    0  501    0  0.00000000000E+00  0.00000000000E+00  0.20873304623E+04  0.20873304623E+04  0.50400001928E-02 0.  1.
       -1   -1    0    0    0  501  0.00000000000E+00  0.00000000000E+00 -0.47862145749E+03  0.47862145752E+03  0.50400001928E-02 0. -1.
    10030    2    1    2    0    0  0.00000000000E+00  0.00000000000E+00  0.16087090048E+04  0.25659519198E+04  0.19990409182E+04 0.  0.
        3    1    3    3  502    0  0.15688820748E+03  0.40178581213E+03  0.19617209077E+04  0.20085802644E+04  0.10100000352E+00 0.  1.
       -3    1    3    3    0  502 -0.15688820748E+03 -0.40178581213E+03 -0.35301190292E+03  0.55737165543E+03  0.10100000352E+00 0. -1.
</event>
<event>
 5   0  0.4447313E-05  0.2009933E+04  0.7818609E-02  0.8601991E-01
        2   -1    0    0  501    0  0.00000000000E+00  0.00000000000E+00  0.63584676964E+03  0.63584676964E+03  0.25500000920E-02 0.  1.
       -2   -1    0    0    0  501  0.00000000000E+00  0.00000000000E+00 -0.15883659675E+04  0.15883659675E+04  0.25500000920E-02 0. -1.
    10030    2    1    2    0    0  0.00000000000E+00  0.00000000000E+00 -0.95251919787E+03  0.22242127372E+04  0.20099327048E+04 0.  0.
        5    1    3    3  502    0  0.80601636390E+03  0.26825558226E+03  0.11793137151E+03  0.85764406059E+03  0.46999998093E+01 0.  1.
       -5    1    3    3    0  502 -0.80601636390E+03 -0.26825558226E+03 -0.10704505694E+04  0.13665686766E+04  0.46999998093E+01 0. -1.
</event>
<event>
 5   0  0.2142551E-05  0.1974490E+04  0.7818609E-02  0.8618641E-01
       -1   -1    0    0    0  501  0.00000000000E+00  0.00000000000E+00  0.94208571500E+03  0.94208571501E+03  0.50400001928E-02 0. -1.
        1   -1    0    0  501    0  0.00000000000E+00  0.00000000000E+00 -0.10345687464E+04  0.10345687464E+04  0.50400001928E-02 0.  1.
    10030    2    1    2    0    0  0.00000000000E+00  0.00000000000E+00 -0.92483031360E+02  0.19766544614E+04  0.19744897439E+04 0.  0.
        3    1    3    3  502    0  0.38618702301E+03  0.85625401041E+03 -0.35045141987E+03  0.10025604994E+04  0.10100000352E+00 0.  1.
       -3    1    3    3    0  502 -0.38618702301E+03 -0.85625401041E+03  0.25796838851E+03  0.97409396197E+03  0.10100000352E+00 0. -1.
</event>
<event>
 5   0  0.4447313E-05  0.2033923E+04  0.7818609E-02  0.8590923E-01
        2   -1    0    0  501    0  0.00000000000E+00  0.00000000000E+00  0.31612767025E+04  0.31612767025E+04  0.25500000920E-02 0. -1.
       -2   -1    0    0    0  501  0.00000000000E+00  0.00000000000E+00 -0.32714956057E+03  0.32714956058E+03  0.25500000920E-02 0.  1.
    10030    2    1    2    0    0  0.00000000000E+00  0.00000000000E+00  0.28341271419E+04  0.34884262631E+04  0.20339225984E+04 0.  0.
        5    1    3    3  502    0 -0.36902818458E+03 -0.45955113870E+03  0.28384636058E+04  0.28990113455E+04  0.46999998093E+01 0. -1.
       -5    1    3    3    0  502  0.36902818458E+03  0.45955113870E+03 -0.43364638719E+01  0.58941491754E+03  0.46999998093E+01 0.  1.
</event>
<event>
 5   0  0.2093980E-05  0.1998699E+04  0.7818609E-02  0.8607229E-01
       -1   -1    0    0    0  501  0.00000000000E+00  0.00000000000E+00  0.39521528999E+03  0.39521529002E+03  0.50400001928E-02 0. -1.
        1   -1    0    0  501    0  0.00000000000E+00  0.00000000000E+00 -0.25269755412E+04  0.25269755413E+04  0.50400001928E-02 0.  1.
    10030    2    1    2    0    0  0.00000000000E+00  0.00000000000E+00 -0.21317602513E+04  0.29221908313E+04  0.19986989482E+04 0.  0.
        2    1    3    3  502    0  0.20669075038E+03 -0.95468586491E+03 -0.75727675681E+03  0.12359669305E+04  0.25500000920E-02 0. -1.
       -2    1    3    3    0  502 -0.20669075038E+03  0.95468586491E+03 -0.13744834944E+04  0.16862239007E+04  0.25500000920E-02 0.  1.
</event>
<event>
 5   0  0.4577279E-05  0.2001682E+04  0.7818609E-02  0.8605835E-01
       -2   -1    0    0    0  501  0.00000000000E+00  0.00000000000E+00  0.13380180925E+04  0.13380180925E+04  0.25500000920E-02 0. -1.
        2   -1    0    0  501    0  0.00000000000E+00  0.00000000000E+00 -0.74863163232E+03  0.74863163232E+03  0.25500000920E-02 0.  1.
    10030    2    1    2    0    0  0.00000000000E+00  0.00000000000E+00  0.58938646015E+03  0.20866497248E+04  0.20016819614E+04 0.  0.
        1    1    3    3  502    0 -0.67436897108E+03 -0.28451181092E+03 -0.41689673554E+03  0.84233210068E+03  0.50400001928E-02 0.  1.
       -1    1    3    3    0  502  0.67436897108E+03  0.28451181092E+03  0.10062831957E+04  0.12443176241E+04  0.50400001928E-02 0. -1.
</event>
<event>
 5   0  0.2093980E-05  0.2003185E+04  0.7818609E-02  0.8605133E-01
       -1   -1    0    0    0  501  0.00000000000E+00  0.00000000000E+00  0.55543933738E+03  0.55543933741E+03  0.50400001928E-02 0.  1.
        1   -1    0    0  501    0  0.00000000000E+00  0.00000000000E+00 -0.18061160763E+04  0.18061160764E+04  0.50400001928E-02 0. -1.
    10030    2    1    2    0    0  0.00000000000E+00  0.00000000000E+00 -0.12506767390E+04  0.23615554138E+04  0.20031853801E+04 0.  0.
        2    1    3    3  502    0 -0.38340230087E+03 -0.74660432337E+03  0.19049513122E+02  0.83951070508E+03  0.25500000920E-02 0.  1.
       -2    1    3    3    0  502  0.38340230087E+03  0.74660432337E+03 -0.12697262521E+04  0.15220447087E+04  0.25500000920E-02 0. -1.
</event>
<event>
 5   0  0.4412054E-05  0.2002506E+04  0.7818609E-02  0.8605450E-01
       -2   -1    0    0    0  501  0.00000000000E+00  0.00000000000E+00  0.70787414575E+03  0.70787414575E+03  0.25500000920E-02 0. -1.
        2   -1    0    0  501    0  0.00000000000E+00  0.00000000000E+00 -0.14162224812E+04  0.14162224812E+04  0.25500000920E-02 0.  1.
    10030    2    1    2    0    0  0.00000000000E+00  0.00000000000E+00 -0.70834833546E+03  0.21240966270E+04  0.20025057094E+04 0.  0.
        4    1    3    3  502    0  0.62736638316E+03 -0.76194206732E+03 -0.53280817301E+03  0.11216195678E+04  0.12699999809E+01 0.  1.
       -4    1    3    3    0  502 -0.62736638316E+03  0.76194206732E+03 -0.17554016244E+03  0.10024770592E+04  0.12699999809E+01 0. -1.
</event>
<event>
 5   0  0.2110896E-05  0.2025859E+04  0.7818609E-02  0.8594625E-01
       -1   -1    0    0    0  501  0.00000000000E+00  0.00000000000E+00  0.12774634725E+04  0.12774634725E+04  0.50400001928E-02 0.  1.
        1   -1    0    0  501    0  0.00000000000E+00  0.00000000000E+00 -0.80317432458E+03  0.80317432460E+03  0.50400001928E-02 0. -1.
    10030    2    1    2    0    0  0.00000000000E+00  0.00000000000E+00  0.47428914793E+03  0.20806377971E+04  0.20258586937E+04 0.  0.
        4    1    3    3  502    0 -0.13593487724E+02 -0.10121722360E+04  0.19945303850E+03  0.10317269724E+04  0.12699999809E+01 0.  1.
       -4    1    3    3    0  502  0.13593487724E+02  0.10121722360E+04  0.27483610943E+03  0.10489108247E+04  0.12699999809E+01 0. -1.
</event>
<event>
 5   0  0.2093980E-05  0.2005404E+04  0.7818609E-02  0.8604099E-01
        1   -1    0    0  501    0  0.00000000000E+00  0.00000000000E+00  0.12600473055E+04  0.12600473055E+04  0.50400001928E-02 0.  1.
       -1   -1    0    0    0  501  0.00000000000E+00  0.00000000000E+00 -0.79791513217E+03  0.79791513219E+03  0.50400001928E-02 0. -1.
    10030    2    1    2    0    0  0.00000000000E+00  0.00000000000E+00  0.46213217332E+03  0.20579624377E+04  0.20054035128E+04 0.  0.
        2    1    3    3  502    0 -0.99501616309E+01  0.66802903800E+02 -0.79557819114E+03  0.79843991127E+03  0.25500000920E-02 0. -1.
       -2    1    3    3    0  502  0.99501616309E+01 -0.66802903800E+02  0.12577103645E+04  0.12595225264E+04  0.25500000920E-02 0.  1.
</event>
<event>
 5   0  0.2256868E-05  0.1998596E+04  0.7818609E-02  0.8607277E-01
       -1   -1    0    0    0  501  0.00000000000E+00  0.00000000000E+00  0.86406279275E+03  0.86406279277E+03  0.50400001928E-02 0. -1.
        1   -1    0    0  501    0  0.00000000000E+00  0.00000000000E+00 -0.11556986458E+04  0.11556986458E+04  0.50400001928E-02 0.  1.
    10030    2    1    2    0    0  0.00000000000E+00  0.00000000000E+00 -0.29163585305E+03  0.20197614386E+04  0.19985957065E+04 0.  0.
        5    1    3    3  502    0 -0.84440207505E+03 -0.49697928628E+01  0.39419537372E+03  0.93190753074E+03  0.46999998093E+01 0. -1.
       -5    1    3    3    0  502  0.84440207505E+03  0.49697928628E+01 -0.68583122678E+03  0.10878539078E+04  0.46999998093E+01 0.  1.
</event>
<event>
 5   0  0.2093980E-05  0.1989999E+04  0.7818609E-02  0.8611311E-01
       -1   -1    0    0    0  501  0.00000000000E+00  0.00000000000E+00  0.13339086745E+04  0.13339086745E+04  0.50400001928E-02 0.  1.
        1   -1    0    0  501    0  0.00000000000E+00  0.00000000000E+00 -0.74219791304E+03  0.74219791306E+03  0.50400001928E-02 0. -1.
    10030    2    1    2    0    0  0.00000000000E+00  0.00000000000E+00  0.59171076149E+03  0.20761065876E+04  0.19899992306E+04 0.  0.
        2    1    3    3  502    0 -0.50865618410E+03 -0.25759414472E+03 -0.55486617591E+03  0.79558929744E+03  0.25500000920E-02 0. -1.
       -2    1    3    3    0  502  0.50865618410E+03  0.25759414472E+03  0.11465769374E+04  0.12805172902E+04  0.25500000920E-02 0.  1.
</event>
<event>
 5   0  0.2142551E-05  0.2007775E+04  0.7818609E-02  0.8602994E-01
       -1   -1    0    0    0  501  0.00000000000E+00  0.00000000000E+00  0.76718185390E+03  0.76718185391E+03  0.50400001928E-02 0.  1.
        1   -1    0    0  501    0  0.00000000000E+00  0.00000000000E+00 -0.13136258236E+04  0.13136258236E+04  0.50400001928E-02 0. -1.
    10030    2    1    2    0    0  0.00000000000E+00  0.00000000000E+00 -0.54644396970E+03  0.20808076775E+04  0.20077747829E+04 0.  0.
        3    1    3    3  502    0  0.54189746673E+03  0.65599626581E+03 -0.82533460066E+03  0.11853949462E+04  0.10100000352E+00 0. -1.
       -3    1    3    3    0  502 -0.54189746673E+03 -0.65599626581E+03  0.27889063096E+03  0.89541273133E+03  0.10100000352E+00 0.  1.
</event>
<event>
 5   0  0.2256868E-05  0.1989805E+04  0.7818609E-02  0.8611402E-01
        1   -1    0    0  501    0  0.00000000000E+00  0.00000000000E+00  0.57165613697E+03  0.57165613699E+03  0.50400001928E-02 0.  1.
       -1   -1    0    0    0  501  0.00000000000E+00  0.00000000000E+00 -0.17315153013E+04  0.17315153013E+04  0.50400001928E-02 0. -1.
    10030    2    1    2    0    0  0.00000000000E+00  0.00000000000E+00 -0.11598591643E+04  0.23031714383E+04  0.19898053656E+04 0.  0.
        5    1    3    3  502    0  0.12569003831E+03  0.32019534318E+03 -0.16604822239E+04  0.16957435978E+04  0.46999998093E+01 0. -1.
       -5    1    3    3    0  502 -0.12569003831E+03 -0.32019534318E+03  0.50062305963E+03  0.60742784045E+03  0.46999998093E+01 0.  1.
</event>
<event>
 5   0  0.2256868E-05  0.2021308E+04  0.7818609E-02  0.8596723E-01
       -1   -1    0    0    0  501  0.00000000000E+00  0.00000000000E+00  0.84539462368E+03  0.84539462370E+03  0.50400001928E-02 0.  1.
        1   -1    0    0  501    0  0.00000000000E+00  0.00000000000E+00 -0.12082186714E+04  0.12082186714E+04  0.50400001928E-02 0. -1.
    10030    2    1    2    0    0  0.00000000000E+00  0.00000000000E+00 -0.36282404774E+03  0.20536132951E+04  0.20213080607E+04 0.  0.
        5    1    3    3  502    0  0.72757422673E+03 -0.32373226775E+02  0.53049166540E+03  0.90103039809E+03  0.46999998093E+01 0.  1.
       -5    1    3    3    0  502 -0.72757422673E+03  0.32373226775E+02 -0.89331571314E+03  0.11525828970E+04  0.46999998093E+01 0. -1.
</event>
<event>
 5   0  0.2256868E-05  0.2010341E+04  0.7818609E-02  0.8601801E-01
        1   -1    0    0  501    0  0.00000000000E+00  0.00000000000E+00  0.12198800805E+04  0.12198800805E+04  0.50400001928E-02 0.  1.
       -1   -1    0    0    0  501  0.00000000000E+00  0.00000000000E+00 -0.82825188605E+03  0.82825188607E+03  0.50400001928E-02 0. -1.
    10030    2    1    2    0    0  0.00000000000E+00  0.00000000000E+00  0.39162819443E+03  0.20481319666E+04  0.20103412421E+04 0.  0.
        5    1    3    3  502    0  0.10868573843E+03  0.99905407986E+03  0.21679845140E+03  0.10280784517E+04  0.46999998093E+01 0.  1.
       -5    1    3    3    0  502 -0.10868573843E+03 -0.99905407986E+03  0.17482974303E+03  0.10200535149E+04  0.46999998093E+01 0. -1.
</event>
<event>
 5   0  0.4412054E-05  0.2001884E+04  0.7818609E-02  0.8605741E-01
        2   -1    0    0  501    0  0.00000000000E+00  0.00000000000E+00  0.91018468420E+03  0.91018468420E+03  0.25500000920E-02 0. -1.
       -2   -1    0    0    0  501  0.00000000000E+00  0.00000000000E+00 -0.11007485028E+04  0.11007485028E+04  0.25500000920E-02 0.  1.
    10030    2    1    2    0    0  0.00000000000E+00  0.00000000000E+00 -0.19056381863E+03  0.20109331870E+04  0.20018835415E+04 0.  0.
        4    1    3    3  502    0  0.89400161417E+03 -0.39409549959E+03  0.12326230746E+03  0.98475649695E+03  0.12699999809E+01 0. -1.
       -4    1    3    3    0  502 -0.89400161417E+03  0.39409549959E+03 -0.31382612609E+03  0.10261766901E+04  0.12699999809E+01 0.  1.
</event>
<event>
 5   0  0.2110896E-05  0.1997237E+04  0.7818609E-02  0.8607914E-01
       -1   -1    0    0    0  501  0.00000000000E+00  0.00000000000E+00  0.85758264362E+03  0.85758264363E+03  0.50400001928E-02 0. -1.
        1   -1    0    0  501    0  0.00000000000E+00  0.00000000000E+00 -0.11628483276E+04  0.11628483276E+04  0.50400001928E-02 0.  1.
    10030    2    1    2    0    0  0.00000000000E+00  0.00000000000E+00 -0.30526568401E+03  0.20204309713E+04  0.19972366339E+04 0.  0.
        4    1    3    3  502    0  0.55627184952E+03 -0.81694333058E+03 -0.81379463539E+01  0.98838383992E+03  0.12699999809E+01 0. -1.
       -4    1    3    3    0  502 -0.55627184952E+03  0.81694333058E+03 -0.29712773766E+03  0.10320471314E+04  0.12699999809E+01 0.  1.
</event>
<event>
 5   0  0.4514680E-05  0.1993190E+04  0.7818609E-02  0.8609811E-01
        2   -1    0    0  501    0  0.00000000000E+00  0.00000000000E+00  0.88490439220E+03  0.88490439220E+03  0.25500000920E-02 0. -1.
       -2   -1    0    0    0  501  0.00000000000E+00  0.00000000000E+00 -0.11223831825E+04  0.11223831825E+04  0.25500000920E-02 0.  1.
    10030    2    1    2    0    0  0.00000000000E+00  0.00000000000E+00 -0.23747879031E+03  0.20072875747E+04  0.19931902146E+04 0.  0.
        3    1    3    3  502    0  0.61241200040E+03 -0.78292515416E+03 -0.46247345055E+02  0.99506737580E+03  0.10100000352E+00 0.  1.
       -3    1    3    3    0  502 -0.61241200040E+03  0.78292515416E+03 -0.19123144526E+03  0.10122201989E+04  0.10100000352E+00 0. -1.
</event>
<event>
 5   0  0.4577279E-05  0.1974289E+04  0.7818609E-02  0.8618737E-01
        2   -1    0    0  501    0  0.00000000000E+00  0.00000000000E+00  0.11126129108E+04  0.11126129108E+04  0.25500000920E-02 0.  1.
       -2   -1    0    0    0  501  0.00000000000E+00  0.00000000000E+00 -0.87582469455E+03  0.87582469456E+03  0.25500000920E-02 0. -1.
    10030    2    1    2    0    0  0.00000000000E+00  0.00000000000E+00  0.23678821624E+03  0.19884376054E+04  0.19742885937E+04 0.  0.
        1    1    3    3  502    0 -0.72838790813E+03  0.17916810872E+02 -0.55239997300E+03  0.91433893443E+03  0.50400001928E-02 0. -1.
       -1    1    3    3    0  502  0.72838790813E+03 -0.17916810872E+02  0.78918818923E+03  0.10740986709E+04  0.50400001928E-02 0.  1.
</event>
<event>
 5   0  0.2110896E-05  0.2003839E+04  0.7818609E-02  0.8604828E-01
        1   -1    0    0  501    0  0.00000000000E+00  0.00000000000E+00  0.13211232273E+04  0.13211232273E+04  0.50400001928E-02 0.  1.
       -1   -1    0    0    0  501  0.00000000000E+00  0.00000000000E+00 -0.75984039003E+03  0.75984039005E+03  0.50400001928E-02 0. -1.
    10030    2    1    2    0    0  0.00000000000E+00  0.00000000000E+00  0.56128283723E+03  0.20809636173E+04  0.20038391036E+04 0.  0.
        4    1    3    3  502    0  0.96150576626E+03 -0.24129152278E+03  0.12969850704E+03  0.99976909991E+03  0.12699999809E+01 0. -1.
       -4    1    3    3    0  502 -0.96150576626E+03  0.24129152278E+03  0.43158433019E+03  0.10811945174E+04  0.12699999809E+01 0.  1.
</event>
<event>
 5   0  0.4577279E-05  0.1990882E+04  0.7818609E-02  0.8610896E-01
        2   -1    0    0  501    0  0.00000000000E+00  0.00000000000E+00  0.22738602287E+04  0.22738602287E+04  0.25500000920E-02 0. -1.
       -2   -1    0    0    0  501  0.00000000000E+00  0.00000000000E+00 -0.43577978404E+03  0.43577978404E+03  0.25500000920E-02 0.  1.
    10030    2    1    2    0    0  0.00000000000E+00  0.00000000000E+00  0.18380804447E+04  0.27096400128E+04  0.19908815328E+04 0.  0.
        1    1    3    3  502    0 -0.17813347563E+03 -0.54677604681E+03 -0.18683507020E+03  0.60465107623E+03  0.50400001928E-02 0.  1.
       -1    1    3    3    0  502  0.17813347563E+03  0.54677604681E+03  0.20249155149E+04  0.21049889365E+04  0.50400001928E-02 0. -1.
</event>
<event>
 5   0  0.4514680E-05  0.2022028E+04  0.7818609E-02  0.8596390E-01
       -2   -1    0    0    0  501  0.00000000000E+00  0.00000000000E+00  0.14051413672E+04  0.14051413672E+04  0.25500000920E-02 0. -1.
        2   -1    0    0  501    0  0.00000000000E+00  0.00000000000E+00 -0.72743545642E+03  0.72743545642E+03  0.25500000920E-02 0.  1.
    10030    2    1    2    0    0  0.00000000000E+00  0.00000000000E+00  0.67770591075E+03  0.21325768236E+04  0.20220283398E+04 0.  0.
        3    1    3    3  502    0 -0.50877402579E+03 -0.70134000238E+03  0.88831669378E+03  0.12409010303E+04  0.10100000352E+00 0. -1.
       -3    1    3    3    0  502  0.50877402579E+03  0.70134000238E+03 -0.21061078304E+03  0.89167579332E+03  0.10100000352E+00 0.  1.
</event>
<event>
 5   0  0.2093980E-05  0.2001935E+04  0.7818609E-02  0.8605717E-01
       -1   -1    0    0    0  501  0.00000000000E+00  0.00000000000E+00  0.35445519185E+03  0.35445519188E+03  0.50400001928E-02 0. -1.
        1   -1    0    0  501    0  0.00000000000E+00  0.00000000000E+00 -0.28266927096E+04  0.28266927096E+04  0.50400001928E-02 0.  1.
    10030    2    1    2    0    0  0.00000000000E+00  0.00000000000E+00 -0.24722375177E+04  0.31811479014E+04  0.20019349707E+04 0.  0.
        2    1    3    3  502    0  0.76569396189E+02  0.69206568427E+03 -0.93427844284E+02  0.70252867975E+03  0.25500000920E-02 0. -1.
       -2    1    3    3    0  502 -0.76569396189E+02 -0.69206568427E+03 -0.23788096734E+04  0.24786192217E+04  0.25500000920E-02 0.  1.
</event>
<event>
 5   0  0.4514680E-05  0.1973872E+04  0.7818609E-02  0.8618935E-01
       -2   -1    0    0    0  501  0.00000000000E+00  0.00000000000E+00  0.16514801687E+04  0.16514801687E+04  0.25500000920E-02 0.  1.
        2   -1    0    0  501    0  0.00000000000E+00  0.00000000000E+00 -0.58979957400E+03  0.58979957400E+03  0.25500000920E-02 0. -1.
    10030    2    1    2    0    0  0.00000000000E+00  0.00000000000E+00  0.10616805947E+04  0.22412797427E+04  0.19738716270E+04 0.  0.
        3    1    3    3  502    0  0.39305896670E+03 -0.59774563703E+03 -0.24115428973E+03  0.75495072657E+03  0.10100000352E+00 0. -1.
       -3    1    3    3    0  502 -0.39305896670E+03  0.59774563703E+03  0.13028348844E+04  0.14863290161E+04  0.10100000352E+00 0.  1.
</event>
<event>
 5   0  0.2110896E-05  0.1991689E+04  0.7818609E-02  0.8610516E-01
        1   -1    0    0  501    0  0.00000000000E+00  0.00000000000E+00  0.68867585979E+03  0.68867585981E+03  0.50400001928E-02 0. -1.
       -1   -1    0    0    0  501  0.00000000000E+00  0.00000000000E+00 -0.14400184840E+04  0.14400184840E+04  0.50400001928E-02 0.  1.
    10030    2    1    2    0    0  0.00000000000E+00  0.00000000000E+00 -0.75134262419E+03  0.21286943438E+04  0.19916886982E+04 0.  0.
        4    1    3    3  502    0  0.29184541801E+03  0.32647314500E+03  0.58025002048E+03  0.72694577624E+03  0.12699999809E+01 0. -1.
       -4    1    3    3    0  502 -0.29184541801E+03 -0.32647314500E+03 -0.13315926447E+04  0.14017485676E+04  0.12699999809E+01 0.  1.
</event>
<event>
 5   0  0.2093980E-05  0.1984354E+04  0.7818609E-02  0.8613971E-01
        1   -1    0    0  501    0  0.00000000000E+00  0.00000000000E+00  0.16090038835E+04  0.16090038835E+04  0.50400001928E-02 0. -1.
       -1   -1    0    0    0  501  0.00000000000E+00  0.00000000000E+00 -0.61181655100E+03  0.61181655102E+03  0.50400001928E-02 0.  1.
    10030    2    1    2    0    0  0.00000000000E+00  0.00000000000E+00  0.99718733249E+03  0.22208204345E+04  0.19843540073E+04 0.  0.
        2    1    3    3  502    0  0.22203708692E+03 -0.21997275544E+03  0.15524688823E+04  0.15836186763E+04  0.25500000920E-02 0. -1.
       -2    1    3    3    0  502 -0.22203708692E+03  0.21997275544E+03 -0.55528154986E+03  0.63720175826E+03  0.25500000920E-02 0.  1.
</event>
<event>
 5   0  0.2007644E-05  0.2004566E+04  0.7818609E-02  0.8604489E-01
       -1   -1    0    0    0  501  0.00000000000E+00  0.00000000000E+00  0.54641767985E+03  0.54641767988E+03  0.50400001928E-02 0. -1.
        1   -1    0    0  501    0  0.00000000000E+00  0.00000000000E+00 -0.18384684524E+04  0.18384684524E+04  0.50400001928E-02 0.  1.
    10030    2    1    2    0    0  0.00000000000E+00  0.00000000000E+00 -0.12920507726E+04  0.23848861323E+04  0.20045664532E+04 0.  0.
        1    1    3    3  502    0  0.58399618334E+03 -0.49816094595E+03 -0.14127816417E+04  0.16078457132E+04  0.50400001928E-02 0.  1.
       -1    1    3    3    0  502 -0.58399618334E+03  0.49816094595E+03  0.12073086910E+03  0.77704041916E+03  0.50400001928E-02 0. -1.
</event>
<event>
 5   0  0.4577279E-05  0.2001729E+04  0.7818609E-02  0.8605813E-01
        2   -1    0    0  501    0  0.00000000000E+00  0.00000000000E+00  0.78814414277E+03  0.78814414278E+03  0.25500000920E-02 0. -1.
       -2   -1    0    0    0  501  0.00000000000E+00  0.00000000000E+00 -0.12709976192E+04  0.12709976192E+04  0.25500000920E-02 0.  1.
    10030    2    1    2    0    0  0.00000000000E+00  0.00000000000E+00 -0.48285347640E+03  0.20591417620E+04  0.20017285820E+04 0.  0.
        1    1    3    3  502    0 -0.60662170576E+03 -0.61480127463E+03 -0.76165791190E+03  0.11515612341E+04  0.50400001928E-02 0.  1.
       -1    1    3    3    0  502  0.60662170576E+03  0.61480127463E+03  0.27880443550E+03  0.90758052781E+03  0.50400001928E-02 0. -1.
</event>
<event>
 5   0  0.2007644E-05  0.1995879E+04  0.7818609E-02  0.8608550E-01
        1   -1    0    0  501    0  0.00000000000E+00  0.00000000000E+00  0.13296143252E+04  0.13296143253E+04  0.50400001928E-02 0.  1.
       -1   -1    0    0    0  501  0.00000000000E+00  0.00000000000E+00 -0.74900157192E+03  0.74900157194E+03  0.50400001928E-02 0. -1.
    10030    2    1    2    0    0  0.00000000000E+00  0.00000000000E+00  0.58061275332E+03  0.20786158972E+04  0.19958789740E+04 0.  0.
        1    1    3    3  502    0  0.90093816010E+03 -0.60275134643E+02  0.73284531262E+03  0.11629208539E+04  0.50400001928E-02 0.  1.
       -1    1    3    3    0  502 -0.90093816010E+03  0.60275134643E+02 -0.15223255930E+03  0.91569504329E+03  0.50400001928E-02 0. -1.
</event>
<event>
 5   0  0.2110896E-05  0.1997024E+04  0.7818609E-02  0.8608013E-01
       -1   -1    0    0    0  501  0.00000000000E+00  0.00000000000E+00  0.54014432539E+03  0.54014432542E+03  0.50400001928E-02 0. -1.
        1   -1    0    0  501    0  0.00000000000E+00  0.00000000000E+00 -0.18458510424E+04  0.18458510424E+04  0.50400001928E-02 0.  1.
    10030    2    1    2    0    0  0.00000000000E+00  0.00000000000E+00 -0.13057067170E+04  0.23859953678E+04  0.19970237516E+04 0.  0.
        4    1    3    3  502    0  0.91842880468E+03  0.37002308879E+03 -0.80676994820E+03  0.12772266509E+04  0.12699999809E+01 0. -1.
       -4    1    3    3    0  502 -0.91842880468E+03 -0.37002308879E+03 -0.49893676881E+03  0.11087687169E+04  0.12699999809E+01 0.  1.
</event>
<event>
 5   0  0.4473361E-05  0.2007439E+04  0.7818609E-02  0.8603151E-01
       -2   -1    0    0    0  501  0.00000000000E+00  0.00000000000E+00  0.36793097595E+03  0.36793097596E+03  0.25500000920E-02 0. -1.
        2   -1    0    0  501    0  0.00000000000E+00  0.00000000000E+00 -0.27381567537E+04  0.27381567537E+04  0.25500000920E-02 0.  1.
    10030    2    1    2    0    0  0.00000000000E+00  0.00000000000E+00 -0.23702257777E+04  0.31060877296E+04  0.20074388526E+04 0.  0.
        2    1    3    3  502    0  0.58455698534E+03 -0.79521140090E+03 -0.14678252364E+04  0.17687789477E+04  0.25500000920E-02 0.  1.
       -2    1    3    3    0  502 -0.58455698534E+03  0.79521140090E+03 -0.90240054136E+03  0.13373087820E+04  0.25500000920E-02 0. -1.
</event>
<event>
 5   0  0.4473361E-05  0.2018805E+04  0.7818609E-02  0.8597879E-01
       -2   -1    0    0    0  501  0.00000000000E+00  0.00000000000E+00  0.99474937236E+03  0.99474937236E+03  0.25500000920E-02 0. -1.
        2   -1    0    0  501    0  0.00000000000E+00  0.00000000000E+00 -0.10242711032E+04  0.10242711032E+04  0.25500000920E-02 0.  1.
    10030    2    1    2    0    0  0.00000000000E+00  0.00000000000E+00 -0.29521730888E+02  0.20190204756E+04  0.20188046335E+04 0.  0.
        2    1    3    3  502    0  0.80044851907E+03 -0.29770844530E+03 -0.55291214914E+03  0.10173789829E+04  0.25500000920E-02 0.  1.
       -2    1    3    3    0  502 -0.80044851907E+03  0.29770844530E+03  0.52339041826E+03  0.10016414928E+04  0.25500000920E-02 0. -1.
</event>
<event>
 5   0  0.4447313E-05  0.2003369E+04  0.7818609E-02  0.8605047E-01
       -2   -1    0    0    0  501  0.00000000000E+00  0.00000000000E+00  0.49844814529E+03  0.49844814530E+03  0.25500000920E-02 0. -1.
        2   -1    0    0  501    0  0.00000000000E+00  0.00000000000E+00 -0.20129909984E+04  0.20129909984E+04  0.25500000920E-02 0.  1.
    10030    2    1    2    0    0  0.00000000000E+00  0.00000000000E+00 -0.15145428531E+04  0.25114391437E+04  0.20033687925E+04 0.  0.
        5    1    3    3  502    0 -0.75994281968E+03  0.32427368712E+03 -0.14671756197E+04  0.16838328012E+04  0.46999998093E+01 0.  1.
       -5    1    3    3    0  502  0.75994281968E+03 -0.32427368712E+03 -0.47367233390E+02  0.82760634249E+03  0.46999998093E+01 0. -1.
</event>
<event>
 5   0  0.4577279E-05  0.2001441E+04  0.7818609E-02  0.8605947E-01
        2   -1    0    0  501    0  0.00000000000E+00  0.00000000000E+00  0.12274080268E+04  0.12274080268E+04  0.25500000920E-02 0. -1.
       -2   -1    0    0    0  501  0.00000000000E+00  0.00000000000E+00 -0.81589980090E+03  0.81589980091E+03  0.25500000920E-02 0.  1.
    10030    2    1    2    0    0  0.00000000000E+00  0.00000000000E+00  0.41150822589E+03  0.20433078277E+04  0.20014414453E+04 0.  0.
        1    1    3    3  502    0 -0.67555179669E+03  0.64049934223E+03 -0.16912213570E+03  0.94615640050E+03  0.50400001928E-02 0.  1.
       -1    1    3    3    0  502  0.67555179669E+03 -0.64049934223E+03  0.58063036160E+03  0.10971514272E+04  0.50400001928E-02 0. -1.
</event>
<event>
 5   0  0.2142551E-05  0.2004206E+04  0.7818609E-02  0.8604657E-01
        1   -1    0    0  501    0  0.00000000000E+00  0.00000000000E+00  0.17507924340E+04  0.17507924340E+04  0.50400001928E-02 0. -1.
       -1   -1    0    0    0  501  0.00000000000E+00  0.00000000000E+00 -0.57357451875E+03  0.57357451878E+03  0.50400001928E-02 0.  1.
    10030    2    1    2    0    0  0.00000000000E+00  0.00000000000E+00  0.11772179153E+04  0.23243669528E+04  0.20042055062E+04 0.  0.
        3    1    3    3  502    0 -0.10217518452E+03 -0.58001731342E+03 -0.35167883185E+03  0.68595762491E+03  0.10100000352E+00 0.  1.
       -3    1    3    3    0  502  0.10217518452E+03  0.58001731342E+03  0.15288967471E+04  0.16384093279E+04  0.10100000352E+00 0. -1.
</event>
<event>
 5   0  0.4412054E-05  0.2000902E+04  0.7818609E-02  0.8606199E-01
        2   -1    0    0  501    0  0.00000000000E+00  0.00000000000E+00  0.17319887328E+04  0.17319887328E+04  0.25500000920E-02 0. -1.
       -2   -1    0    0    0  501  0.00000000000E+00  0.00000000000E+00 -0.57789189024E+03  0.57789189024E+03  0.25500000920E-02 0.  1.
    10030    2    1    2    0    0  0.00000000000E+00  0.00000000000E+00  0.11540968426E+04  0.23098806231E+04  0.20009020393E+04 0.  0.
        4    1    3    3  502    0  0.16022580822E+03  0.99753959553E+02 -0.55715197106E+03  0.58825427650E+03  0.12699999809E+01 0.  1.
       -4    1    3    3    0  502 -0.16022580822E+03 -0.99753959553E+02  0.17112488136E+04  0.17216263465E+04  0.12699999809E+01 0. -1.
</event>
<event>
 5   0  0.4447313E-05  0.1993927E+04  0.7818609E-02  0.8609465E-01
       -2   -1    0    0    0  501  0.00000000000E+00  0.00000000000E+00  0.10066788067E+04  0.10066788067E+04  0.25500000920E-02 0.  1.
        2   -1    0    0  501    0  0.00000000000E+00  0.00000000000E+00 -0.98734162721E+03  0.98734162722E+03  0.25500000920E-02 0. -1.
    10030    2    1    2    0    0  0.00000000000E+00  0.00000000000E+00  0.19337179474E+02  0.19940204339E+04  0.19939266697E+04 0.  0.
        5    1    3    3  502    0  0.91989843553E+03  0.29044537457E+03 -0.24202191711E+03  0.99456942727E+03  0.46999998093E+01 0.  1.
       -5    1    3    3    0  502 -0.91989843553E+03 -0.29044537457E+03  0.26135909658E+03  0.99945100664E+03  0.46999998093E+01 0. -1.
</event>
<event>
 5   0  0.4514680E-05  0.1999151E+04  0.7818609E-02  0.8607018E-01
       -2   -1    0    0    0  501  0.00000000000E+00  0.00000000000E+00  0.10406333610E+04  0.10406333611E+04  0.25500000920E-02 0. -1.
        2   -1    0    0  501    0  0.00000000000E+00  0.00000000000E+00 -0.96013779954E+03  0.96013779954E+03  0.25500000920E-02 0.  1.
    10030    2    1    2    0    0  0.00000000000E+00  0.00000000000E+00  0.80495561509E+02  0.20007711606E+04  0.19991512453E+04 0.  0.
        3    1    3    3  502    0  0.12023661196E+03  0.31053423116E+03 -0.90299299904E+03  0.96243686447E+03  0.10100000352E+00 0.  1.
       -3    1    3    3    0  502 -0.12023661196E+03 -0.31053423116E+03  0.98348856055E+03  0.10383342961E+04  0.10100000352E+00 0. -1.
</event>
<event>
 5   0  0.2007644E-05  0.1974046E+04  0.7818609E-02  0.8618852E-01
        1   -1    0    0  501    0  0.00000000000E+00  0.00000000000E+00  0.12451640110E+04  0.12451640110E+04  0.50400001928E-02 0. -1.
       -1   -1    0    0    0  501  0.00000000000E+00  0.00000000000E+00 -0.78239806332E+03  0.78239806334E+03  0.50400001928E-02 0.  1.
    10030    2    1    2    0    0  0.00000000000E+00  0.00000000000E+00  0.46276594766E+03  0.20275620743E+04  0.19740455017E+04 0.  0.
        1    1    3    3  502    0  0.82975705185E+03 -0.49537668955E+03  0.43762269500E+03  0.10608527008E+04  0.50400001928E-02 0.  1.
       -1    1    3    3    0  502 -0.82975705185E+03  0.49537668955E+03  0.25143252665E+02  0.96670937351E+03  0.50400001928E-02 0. -1.
</event>
<event>
 5   0  0.2093980E-05  0.1996963E+04  0.7818609E-02  0.8608042E-01
        1   -1    0    0  501    0  0.00000000000E+00  0.00000000000E+00  0.17377608084E+04  0.17377608084E+04  0.50400001928E-02 0. -1.
       -1   -1    0    0    0  501  0.00000000000E+00  0.00000000000E+00 -0.57370679558E+03  0.57370679560E+03  0.50400001928E-02 0.  1.
    10030    2    1    2    0    0  0.00000000000E+00  0.00000000000E+00  0.11640540128E+04  0.23114676040E+04  0.19969628789E+04 0.  0.
        2    1    3    3  502    0 -0.74857851373E+03  0.33004948935E+03 -0.80542341720E+02  0.82206418573E+03  0.25500000920E-02 0.  1.
       -2    1    3    3    0  502  0.74857851373E+03 -0.33004948935E+03  0.12445963546E+04  0.14894034183E+04  0.25500000920E-02 0. -1.
</event>
<event>
 5   0  0.2093980E-05  0.1990912E+04  0.7818609E-02  0.8610881E-01
       -1   -1    0    0    0  501  0.00000000000E+00  0.00000000000E+00  0.54872134671E+03  0.54872134674E+03  0.50400001928E-02 0. -1.
        1   -1    0    0  501    0  0.00000000000E+00  0.00000000000E+00 -0.18058944927E+04  0.18058944927E+04  0.50400001928E-02 0.  1.
    10030    2    1    2    0    0  0.00000000000E+00  0.00000000000E+00 -0.12571731460E+04  0.23546158395E+04  0.19909122111E+04 0.  0.
        2    1    3    3  502    0 -0.14796439628E+03  0.93990217182E+03 -0.97465656212E+03  0.13620811170E+04  0.25500000920E-02 0.  1.
       -2    1    3    3    0  502  0.14796439628E+03 -0.93990217182E+03 -0.28251658390E+03  0.99253472249E+03  0.25500000920E-02 0. -1.
</event>
<event>
 5   0  0.4473361E-05  0.2004519E+04  0.7818609E-02  0.8604511E-01
       -2   -1    0    0    0  501  0.00000000000E+00  0.00000000000E+00  0.75831909407E+03  0.75831909408E+03  0.25500000920E-02 0.  1.
        2   -1    0    0  501    0  0.00000000000E+00  0.00000000000E+00 -0.13246725512E+04  0.13246725512E+04  0.25500000920E-02 0. -1.
    10030    2    1    2    0    0  0.00000000000E+00  0.00000000000E+00 -0.56635345712E+03  0.20829916453E+04  0.20045193828E+04 0.  0.
        2    1    3    3  502    0 -0.76033531137E+03  0.66229906441E+02  0.39189210284E+03  0.85794848709E+03  0.25500000920E-02 0.  1.
       -2    1    3    3    0  502  0.76033531137E+03 -0.66229906441E+02 -0.95824555996E+03  0.12250431582E+04  0.25500000920E-02 0. -1.
</event>
<event>
 5   0  0.4412054E-05  0.2023219E+04  0.7818609E-02  0.8595841E-01
        2   -1    0    0  501    0  0.00000000000E+00  0.00000000000E+00  0.52207144405E+03  0.52207144405E+03  0.25500000920E-02 0.  1.
       -2   -1    0    0    0  501  0.00000000000E+00  0.00000000000E+00 -0.19601798872E+04  0.19601798872E+04  0.25500000920E-02 0. -1.
    10030    2    1    2    0    0  0.00000000000E+00  0.00000000000E+00 -0.14381084431E+04  0.24822513312E+04  0.20232191619E+04 0.  0.
        4    1    3    3  502    0 -0.60723238250E+03 -0.68371557390E+03 -0.12498196012E+04  0.15486280382E+04  0.12699999809E+01 0. -1.
       -4    1    3    3    0  502  0.60723238250E+03  0.68371557390E+03 -0.18828884194E+03  0.93362329301E+03  0.12699999809E+01 0.  1.
</event>
<event>
 5   0  0.4447313E-05  0.2009982E+04  0.7818609E-02  0.8601968E-01
        2   -1    0    0  501    0  0.00000000000E+00  0.00000000000E+00  0.79524436796E+03  0.79524436796E+03  0.25500000920E-02 0.  1.
       -2   -1    0    0    0  501  0.00000000000E+00  0.00000000000E+00 -0.12700589029E+04  0.12700589029E+04  0.25500000920E-02 0. -1.
    10030    2    1    2    0    0  0.00000000000E+00  0.00000000000E+00 -0.47481453490E+03  0.20653032708E+04  0.20099822780E+04 0.  0.
        5    1    3    3  502    0 -0.10048005649E+04  0.16042288938E+02 -0.24786426044E+03  0.10350557047E+04  0.46999998093E+01 0.  1.
       -5    1    3    3    0  502  0.10048005649E+04 -0.16042288938E+02 -0.22695027446E+03  0.10302475661E+04  0.46999998093E+01 0. -1.
</event>
<event>
 5   0  0.2007644E-05  0.2035504E+04  0.7818609E-02  0.8590199E-01
        1   -1    0    0  501    0  0.00000000000E+00  0.00000000000E+00  0.15512069096E+04  0.15512069096E+04  0.50400001928E-02 0.  1.
       -1   -1    0    0    0  501  0.00000000000E+00  0.00000000000E+00 -0.66775059235E+03  0.66775059237E+03  0.50400001928E-02 0. -1.
    10030    2    1    2    0    0  0.00000000000E+00  0.00000000000E+00  0.88345631728E+03  0.22189575020E+04  0.20355041958E+04 0.  0.
        1    1    3    3  502    0  0.37735236001E+03  0.87159884650E+03  0.43063617442E+02  0.95075434683E+03  0.50400001928E-02 0.  1.
       -1    1    3    3    0  502 -0.37735236001E+03 -0.87159884650E+03  0.84039269983E+03  0.12682031552E+04  0.50400001928E-02 0. -1.
</event>
<event>
 5   0  0.2110896E-05  0.2002035E+04  0.7818609E-02  0.8605670E-01
        1   -1    0    0  501    0  0.00000000000E+00  0.00000000000E+00  0.10437368206E+04  0.10437368206E+04  0.50400001928E-02 0. -1.
       -1   -1    0    0    0  501  0.00000000000E+00  0.00000000000E+00 -0.96004674166E+03  0.96004674168E+03  0.50400001928E-02 0.  1.
    10030    2    1    2    0    0  0.00000000000E+00  0.00000000000E+00  0.83690078948E+02  0.20037835623E+04  0.20020350984E+04 0.  0.
        4    1    3    3  502    0 -0.86505628872E+03 -0.45323946076E+03  0.26177799976E+03  0.10110775072E+04  0.12699999809E+01 0. -1.
       -4    1    3    3    0  502  0.86505628872E+03  0.45323946076E+03 -0.17808792081E+03  0.99270605513E+03  0.12699999809E+01 0.  1.
</event>
<event>
 5   0  0.4473361E-05  0.1976930E+04  0.7818609E-02  0.8617483E-01
       -2   -1    0    0    0  501  0.00000000000E+00  0.00000000000E+00  0.44520457016E+03  0.44520457017E+03  0.25500000920E-02 0.  1.
        2   -1    0    0  501    0  0.00000000000E+00  0.00000000000E+00 -0.21946390386E+04  0.21946390386E+04  0.25500000920E-02 0. -1.
    10030    2    1    2    0    0  0.00000000000E+00  0.00000000000E+00 -0.17494344684E+04  0.26398436087E+04  0.19769302768E+04 0.  0.
        2    1    3    3  502    0 -0.12379283457E+03 -0.35632944259E+03  0.34531060408E+03  0.51140468402E+03  0.25500000920E-02 0.  1.
       -2    1    3    3    0  502  0.12379283457E+03  0.35632944259E+03 -0.20947450725E+04  0.21284389247E+04  0.25500000920E-02 0. -1.
</event>
<event>
 5   0  0.4577279E-05  0.2003704E+04  0.7818609E-02  0.8604891E-01
        2   -1    0    0  501    0  0.00000000000E+00  0.00000000000E+00  0.14462475538E+04  0.14462475538E+04  0.25500000920E-02 0.  1.
       -2   -1    0    0    0  501  0.00000000000E+00  0.00000000000E+00 -0.69400779310E+03  0.69400779311E+03  0.25500000920E-02 0. -1.
    10030    2    1    2    0    0  0.00000000000E+00  0.00000000000E+00  0.75223976065E+03  0.21402553469E+04  0.20037036438E+04 0.  0.
        1    1    3    3  502    0 -0.71137006821E+03 -0.89317229554E+02  0.11235820742E+04  0.13328396824E+04  0.50400001928E-02 0.  1.
       -1    1    3    3    0  502  0.71137006821E+03  0.89317229554E+02 -0.37134231353E+03  0.80741566450E+03  0.50400001928E-02 0. -1.
</event>
<event>
 5   0  0.4577279E-05  0.1994099E+04  0.7818609E-02  0.8609384E-01
       -2   -1    0    0    0  501  0.00000000000E+00  0.00000000000E+00  0.75819883942E+03  0.75819883943E+03  0.25500000920E-02 0.  1.
        2   -1    0    0  501    0  0.00000000000E+00  0.00000000000E+00 -0.13111443012E+04  0.13111443012E+04  0.25500000920E-02 0. -1.
    10030    2    1    2    0    0  0.00000000000E+00  0.00000000000E+00 -0.55294546180E+03  0.20693431406E+04  0.19940993832E+04 0.  0.
        1    1    3    3  502    0 -0.43982103820E+03  0.43973490327E+03  0.53222627387E+03  0.81858056257E+03  0.50400001928E-02 0.  1.
       -1    1    3    3    0  502  0.43982103820E+03 -0.43973490327E+03 -0.10851717357E+04  0.12507625781E+04  0.50400001928E-02 0. -1.
</event>
<event>
 5   0  0.2093980E-05  0.1993788E+04  0.7818609E-02  0.8609530E-01
        1   -1    0    0  501    0  0.00000000000E+00  0.00000000000E+00  0.11798874871E+04  0.11798874871E+04  0.50400001928E-02 0. -1.
       -1   -1    0    0    0  501  0.00000000000E+00  0.00000000000E+00 -0.84228182472E+03  0.84228182473E+03  0.50400001928E-02 0.  1.
    10030    2    1    2    0    0  0.00000000000E+00  0.00000000000E+00  0.33760566236E+03  0.20221693118E+04  0.19937881388E+04 0.  0.
        2    1    3    3  502    0  0.64827367773E+03  0.75402954836E+03  0.24036544864E+03  0.10230321940E+04  0.25500000920E-02 0.  1.
       -2    1    3    3    0  502 -0.64827367773E+03 -0.75402954836E+03  0.97240213715E+02  0.99913711783E+03  0.25500000920E-02 0. -1.
</event>
<event>
 5   0  0.4447313E-05  0.2027147E+04  0.7818609E-02  0.8594033E-01
        2   -1    0    0  501    0  0.00000000000E+00  0.00000000000E+00  0.13070592173E+04  0.13070592173E+04  0.25500000920E-02 0. -1.
       -2   -1    0    0    0  501  0.00000000000E+00  0.00000000000E+00 -0.78598682350E+03  0.78598682351E+03  0.25500000920E-02 0.  1.
    10030    2    1    2    0    0  0.00000000000E+00  0.00000000000E+00  0.52107239382E+03  0.20930460408E+04  0.20271470814E+04 0.  0.
        5    1    3    3  502    0  0.72058165289E+03  0.56997306504E+03  0.70247145249E+03  0.11565446143E+04  0.46999998093E+01 0.  1.
       -5    1    3    3    0  502 -0.72058165289E+03 -0.56997306504E+03 -0.18139905867E+03  0.93650142651E+03  0.46999998093E+01 0. -1.
</event>
<event>
 5   0  0.2110896E-05  0.1997574E+04  0.7818609E-02  0.8607756E-01
       -1   -1    0    0    0  501  0.00000000000E+00  0.00000000000E+00  0.48136909758E+03  0.48136909761E+03  0.50400001928E-02 0.  1.
        1   -1    0    0  501    0  0.00000000000E+00  0.00000000000E+00 -0.20723706166E+04  0.20723706167E+04  0.50400001928E-02 0. -1.
    10030    2    1    2    0    0  0.00000000000E+00  0.00000000000E+00 -0.15910015191E+04  0.25537397143E+04  0.19975737019E+04 0.  0.
        4    1    3    3  502    0  0.34792144819E+03  0.91256862215E+03 -0.10628794505E+04  0.14434490512E+04  0.12699999809E+01 0. -1.
       -4    1    3    3    0  502 -0.34792144819E+03 -0.91256862215E+03 -0.52812206859E+03  0.11102906631E+04  0.12699999809E+01 0.  1.
</event>
<event>
 5   0  0.2007644E-05  0.1999484E+04  0.7818609E-02  0.8606862E-01
       -1   -1    0    0    0  501  0.00000000000E+00  0.00000000000E+00  0.72977141618E+03  0.72977141620E+03  0.50400001928E-02 0. -1.
        1   -1    0    0  501    0  0.00000000000E+00  0.00000000000E+00 -0.13695852415E+04  0.13695852415E+04  0.50400001928E-02 0.  1.
    10030    2    1    2    0    0  0.00000000000E+00  0.00000000000E+00 -0.63981382529E+03  0.20993566577E+04  0.19994840947E+04 0.  0.
        1    1    3    3  502    0  0.16548297697E+03  0.42499253241E+03  0.61418258781E+03  0.76499903233E+03  0.50400001928E-02 0. -1.
       -1    1    3    3    0  502 -0.16548297697E+03 -0.42499253241E+03 -0.12539964131E+04  0.13343576254E+04  0.50400001928E-02 0.  1.
</event>
<event>
 5   0  0.2007644E-05  0.2004990E+04  0.7818609E-02  0.8604291E-01
        1   -1    0    0  501    0  0.00000000000E+00  0.00000000000E+00  0.13766966750E+04  0.13766966750E+04  0.50400001928E-02 0.  1.
       -1   -1    0    0    0  501  0.00000000000E+00  0.00000000000E+00 -0.73000583452E+03  0.73000583454E+03  0.50400001928E-02 0. -1.
    10030    2    1    2    0    0  0.00000000000E+00  0.00000000000E+00  0.64669084044E+03  0.21067025095E+04  0.20049903791E+04 0.  0.
        1    1    3    3  502    0 -0.78728217404E+03  0.14014551341E+03  0.95861773460E+03  0.12483597028E+04  0.50400001928E-02 0.  1.
       -1    1    3    3    0  502  0.78728217404E+03 -0.14014551341E+03 -0.31192689415E+03  0.85834280670E+03  0.50400001928E-02 0. -1.
</event>
<event>
 5   0  0.2093980E-05  0.1995123E+04  0.7818609E-02  0.8608904E-01
       -1   -1    0    0    0  501  0.00000000000E+00  0.00000000000E+00  0.82650470980E+03  0.82650470982E+03  0.50400001928E-02 0.  1.
        1   -1    0    0  501    0  0.00000000000E+00  0.00000000000E+00 -0.12040205922E+04  0.12040205922E+04  0.50400001928E-02 0. -1.
    10030    2    1    2    0    0  0.00000000000E+00  0.00000000000E+00 -0.37751588235E+03  0.20305253020E+04  0.19951227432E+04 0.  0.
        2    1    3    3  502    0 -0.34561158610E+03  0.80361669174E+03 -0.67672536490E+03  0.11059857030E+04  0.25500000920E-02 0. -1.
       -2    1    3    3    0  502  0.34561158610E+03 -0.80361669174E+03  0.29920948255E+03  0.92453959901E+03  0.25500000920E-02 0.  1.
</event>
<event>
 5   0  0.2007644E-05  0.1993341E+04  0.7818609E-02  0.8609741E-01
        1   -1    0    0  501    0  0.00000000000E+00  0.00000000000E+00  0.13027473491E+04  0.13027473491E+04  0.50400001928E-02 0.  1.
       -1   -1    0    0    0  501  0.00000000000E+00  0.00000000000E+00 -0.76250518616E+03  0.76250518618E+03  0.50400001928E-02 0. -1.
    10030    2    1    2    0    0  0.00000000000E+00  0.00000000000E+00  0.54024216294E+03  0.20652525353E+04  0.19933405228E+04 0.  0.
        1    1    3    3  502    0  0.78165379091E+03  0.12879247109E+01  0.91078762013E+03  0.12002159791E+04  0.50400001928E-02 0.  1.
       -1    1    3    3    0  502 -0.78165379091E+03 -0.12879247109E+01 -0.37054545719E+03  0.86503655614E+03  0.50400001928E-02 0. -1.
</event>
<event>
 5   0  0.4514680E-05  0.2026638E+04  0.7818609E-02  0.8594267E-01
        2   -1    0    0  501    0  0.00000000000E+00  0.00000000000E+00  0.19867701004E+04  0.19867701004E+04  0.25500000920E-02 0. -1.
       -2   -1    0    0    0  501  0.00000000000E+00  0.00000000000E+00 -0.51682637806E+03  0.51682637806E+03  0.25500000920E-02 0.  1.
    10030    2    1    2    0    0  0.00000000000E+00  0.00000000000E+00  0.14699437223E+04  0.25035964785E+04  0.20266378019E+04 0.  0.
        3    1    3    3  502    0  0.83537992730E+03 -0.46782998213E+03  0.11448582056E+04  0.14924559746E+04  0.10100000352E+00 0. -1.
       -3    1    3    3    0  502 -0.83537992730E+03  0.46782998213E+03  0.32508551677E+03  0.10111405038E+04  0.10100000352E+00 0.  1.
</event>
<event>
 5   0  0.2142551E-05  0.1998696E+04  0.7818609E-02  0.8607231E-01
        1   -1    0    0  501    0  0.00000000000E+00  0.00000000000E+00  0.83511089516E+03  0.83511089517E+03  0.50400001928E-02 0.  1.
       -1   -1    0    0    0  501  0.00000000000E+00  0.00000000000E+00 -0.11958849274E+04  0.11958849274E+04  0.50400001928E-02 0. -1.
    10030    2    1    2    0    0  0.00000000000E+00  0.00000000000E+00 -0.36077403224E+03  0.20309958226E+04  0.19986961072E+04 0.  0.
        3    1    3    3  502    0  0.20853430300E+03  0.91135779447E+03  0.17835781077E+03  0.95177261146E+03  0.10100000352E+00 0.  1.
       -3    1    3    3    0  502 -0.20853430300E+03 -0.91135779447E+03 -0.53913184301E+03  0.10792232111E+04  0.10100000352E+00 0. -1.
</event>
<event>
 5   0  0.4412054E-05  0.1961190E+04  0.7818609E-02  0.8624984E-01
        2   -1    0    0  501    0  0.00000000000E+00  0.00000000000E+00  0.89140672992E+03  0.89140672992E+03  0.25500000920E-02 0.  1.
       -2   -1    0    0    0  501  0.00000000000E+00  0.00000000000E+00 -0.10787069544E+04  0.10787069544E+04  0.25500000920E-02 0. -1.
    10030    2    1    2    0    0  0.00000000000E+00  0.00000000000E+00 -0.18730022446E+03  0.19701136843E+04  0.19611900864E+04 0.  0.
        4    1    3    3  502    0 -0.95288669662E+03  0.82920538806E+02 -0.31072628315E+03  0.10056944408E+04  0.12699999809E+01 0. -1.
       -4    1    3    3    0  502  0.95288669662E+03 -0.82920538806E+02  0.12342605869E+03  0.96441924349E+03  0.12699999809E+01 0.  1.
</event>
<event>
 5   0  0.4514680E-05  0.1866239E+04  0.7818609E-02  0.8671846E-01
        2   -1    0    0  501    0  0.00000000000E+00  0.00000000000E+00  0.78306463014E+03  0.78306463015E+03  0.25500000920E-02 0.  1.
       -2   -1    0    0    0  501  0.00000000000E+00  0.00000000000E+00 -0.11119291299E+04  0.11119291299E+04  0.25500000920E-02 0. -1.
    10030    2    1    2    0    0  0.00000000000E+00  0.00000000000E+00 -0.32886449973E+03  0.18949937600E+04  0.18662393982E+04 0.  0.
        3    1    3    3  502    0 -0.71227401003E+03 -0.53958752408E+03 -0.43731708326E+03  0.99485436272E+03  0.10100000352E+00 0. -1.
       -3    1    3    3    0  502  0.71227401003E+03  0.53958752408E+03  0.10845258353E+03  0.90013939731E+03  0.10100000352E+00 0.  1.
</event>
<event>
 5   0  0.4473361E-05  0.2003579E+04  0.7818609E-02  0.8604949E-01
        2   -1    0    0  501    0  0.00000000000E+00  0.00000000000E+00  0.95424563861E+03  0.95424563861E+03  0.25500000920E-02 0. -1.
       -2   -1    0    0    0  501  0.00000000000E+00  0.00000000000E+00 -0.10517023995E+04  0.10517023995E+04  0.25500000920E-02 0.  1.
    10030    2    1    2    0    0  0.00000000000E+00  0.00000000000E+00 -0.97456760858E+02  0.20059480381E+04  0.20035792251E+04 0.  0.
        2    1    3    3  502    0 -0.36569752139E+03  0.70591918805E+03 -0.65897822516E+03  0.10326223310E+04  0.25500000920E-02 0.  1.
       -2    1    3    3    0  502  0.36569752139E+03 -0.70591918805E+03  0.56152146430E+03  0.97332570709E+03  0.25500000920E-02 0. -1.
</event>
<event>
 5   0  0.2256868E-05  0.2000037E+04  0.7818609E-02  0.8606603E-01
       -1   -1    0    0    0  501  0.00000000000E+00  0.00000000000E+00  0.60407992899E+03  0.60407992901E+03  0.50400001928E-02 0. -1.
        1   -1    0    0  501    0  0.00000000000E+00  0.00000000000E+00 -0.16554711531E+04  0.16554711531E+04  0.50400001928E-02 0.  1.
    10030    2    1    2    0    0  0.00000000000E+00  0.00000000000E+00 -0.10513912241E+04  0.22595510821E+04  0.20000368963E+04 0.  0.
        5    1    3    3  502    0  0.19274224341E+03  0.50659654054E+03 -0.14751098825E+04  0.15715472894E+04  0.46999998093E+01 0.  1.
       -5    1    3    3    0  502 -0.19274224341E+03 -0.50659654054E+03  0.42371865843E+03  0.68800379271E+03  0.46999998093E+01 0. -1.
</event>
<event>
 5   0  0.2007644E-05  0.2002078E+04  0.7818609E-02  0.8605650E-01
       -1   -1    0    0    0  501  0.00000000000E+00  0.00000000000E+00  0.72791803489E+03  0.72791803490E+03  0.50400001928E-02 0. -1.
        1   -1    0    0  501    0  0.00000000000E+00  0.00000000000E+00 -0.13766367062E+04  0.13766367062E+04  0.50400001928E-02 0.  1.
    10030    2    1    2    0    0  0.00000000000E+00  0.00000000000E+00 -0.64871867130E+03  0.21045547411E+04  0.20020776068E+04 0.  0.
        1    1    3    3  502    0 -0.77338334649E+03  0.45156728193E+03 -0.79451529789E+03  0.11972006387E+04  0.50400001928E-02 0.  1.
       -1    1    3    3    0  502  0.77338334649E+03 -0.45156728193E+03  0.14579662660E+03  0.90735410238E+03  0.50400001928E-02 0. -1.
</event>
<event>
 5   0  0.4412054E-05  0.2023914E+04  0.7818609E-02  0.8595521E-01
       -2   -1    0    0    0  501  0.00000000000E+00  0.00000000000E+00  0.84164272592E+03  0.84164272592E+03  0.25500000920E-02 0. -1.
        2   -1    0    0  501    0  0.00000000000E+00  0.00000000000E+00 -0.12167358800E+04  0.12167358800E+04  0.25500000920E-02 0.  1.
    10030    2    1    2    0    0  0.00000000000E+00  0.00000000000E+00 -0.37509315406E+03  0.20583786059E+04  0.20239139337E+04 0.  0.
        4    1    3    3  502    0 -0.24577719589E+03  0.88068568180E+03 -0.62856849743E+03  0.11095556178E+04  0.12699999809E+01 0.  1.
       -4    1    3    3    0  502  0.24577719589E+03 -0.88068568180E+03  0.25347534337E+03  0.94882298810E+03  0.12699999809E+01 0. -1.
</event>
<event>
 5   0  0.4412054E-05  0.2003655E+04  0.7818609E-02  0.8604914E-01
       -2   -1    0    0    0  501  0.00000000000E+00  0.00000000000E+00  0.89396629099E+03  0.89396629099E+03  0.25500000920E-02 0.  1.
        2   -1    0    0  501    0  0.00000000000E+00  0.00000000000E+00 -0.11227030593E+04  0.11227030593E+04  0.25500000920E-02 0. -1.
    10030    2    1    2    0    0  0.00000000000E+00  0.00000000000E+00 -0.22873676835E+03  0.20166693503E+04  0.20036553495E+04 0.  0.
        4    1    3    3  502    0 -0.36358571367E+02 -0.65950081475E+03 -0.87251634830E+03  0.10943261220E+04  0.12699999809E+01 0. -1.
       -4    1    3    3    0  502  0.36358571367E+02  0.65950081475E+03  0.64377957995E+03  0.92234322832E+03  0.12699999809E+01 0.  1.
</event>
<event>
 5   0  0.4447313E-05  0.1993504E+04  0.7818609E-02  0.8609664E-01
       -2   -1    0    0    0  501  0.00000000000E+00  0.00000000000E+00  0.72064269571E+03  0.72064269571E+03  0.25500000920E-02 0.  1.
        2   -1    0    0  501    0  0.00000000000E+00  0.00000000000E+00 -0.13786505627E+04  0.13786505627E+04  0.25500000920E-02 0. -1.
    10030    2    1    2    0    0  0.00000000000E+00  0.00000000000E+00 -0.65800786702E+03  0.20992932584E+04  0.19935039082E+04 0.  0.
        5    1    3    3  502    0 -0.65627764508E+01  0.59659364276E+03  0.51181937017E+03  0.78609681484E+03  0.46999998093E+01 0.  1.
       -5    1    3    3    0  502  0.65627764508E+01 -0.59659364276E+03 -0.11698272372E+04  0.13131964436E+04  0.46999998093E+01 0. -1.
</event>
<event>
 5   0  0.4514680E-05  0.1998112E+04  0.7818609E-02  0.8607504E-01
       -2   -1    0    0    0  501  0.00000000000E+00  0.00000000000E+00  0.44903721396E+03  0.44903721397E+03  0.25500000920E-02 0. -1.
        2   -1    0    0  501    0  0.00000000000E+00  0.00000000000E+00 -0.22227843670E+04  0.22227843670E+04  0.25500000920E-02 0.  1.
    10030    2    1    2    0    0  0.00000000000E+00  0.00000000000E+00 -0.17737471530E+04  0.26718215810E+04  0.19981120083E+04 0.  0.
        3    1    3    3  502    0 -0.37030500976E+03  0.68733434962E+03 -0.17203932899E+04  0.18892610700E+04  0.10100000352E+00 0.  1.
       -3    1    3    3    0  502  0.37030500976E+03 -0.68733434962E+03 -0.53353863115E+02  0.78256051097E+03  0.10100000352E+00 0. -1.
</event>
<event>
 5   0  0.4412054E-05  0.2006749E+04  0.7818609E-02  0.8603472E-01
       -2   -1    0    0    0  501  0.00000000000E+00  0.00000000000E+00  0.63817609683E+03  0.63817609683E+03  0.25500000920E-02 0.  1.
        2   -1    0    0  501    0  0.00000000000E+00  0.00000000000E+00 -0.15775592064E+04  0.15775592064E+04  0.25500000920E-02 0. -1.
    10030    2    1    2    0    0  0.00000000000E+00  0.00000000000E+00 -0.93938310955E+03  0.22157353032E+04  0.20067491890E+04 0.  0.
        4    1    3    3  502    0  0.64353570973E+03 -0.76450236043E+03 -0.56941269164E+03  0.11501454235E+04  0.12699999809E+01 0.  1.
       -4    1    3    3    0  502 -0.64353570973E+03  0.76450236043E+03 -0.36997041791E+03  0.10655898798E+04  0.12699999809E+01 0. -1.
</event>
<event>
 5   0  0.2256868E-05  0.1996885E+04  0.7818609E-02  0.8608078E-01
        1   -1    0    0  501    0  0.00000000000E+00  0.00000000000E+00  0.93161594663E+03  0.93161594664E+03  0.50400001928E-02 0.  1.
       -1   -1    0    0    0  501  0.00000000000E+00  0.00000000000E+00 -0.10700631456E+04  0.10700631456E+04  0.50400001928E-02 0. -1.
    10030    2    1    2    0    0  0.00000000000E+00  0.00000000000E+00 -0.13844719901E+03  0.20016790923E+04  0.19968854653E+04 0.  0.
        5    1    3    3  502    0  0.62518945448E+03  0.84589319067E+02 -0.84493435654E+03  0.10544919932E+04  0.46999998093E+01 0. -1.
       -5    1    3    3    0  502 -0.62518945448E+03 -0.84589319067E+02  0.70648715753E+03  0.94718709907E+03  0.46999998093E+01 0.  1.
</event>
<event>
 5   0  0.2093980E-05  0.2001556E+04  0.7818609E-02  0.8605893E-01
        1   -1    0    0  501    0  0.00000000000E+00  0.00000000000E+00  0.65431988929E+03  0.65431988931E+03  0.50400001928E-02 0.  1.
       -1   -1    0    0    0  501  0.00000000000E+00  0.00000000000E+00 -0.15306841636E+04  0.15306841636E+04  0.50400001928E-02 0. -1.
    10030    2    1    2    0    0  0.00000000000E+00  0.00000000000E+00 -0.87636427431E+03  0.21850040529E+04  0.20015564868E+04 0.  0.
        2    1    3    3  502    0 -0.99583524247E+03 -0.22101297152E+02 -0.33245067968E+03  0.10500951156E+04  0.25500000920E-02 0.  1.
       -2    1    3    3    0  502  0.99583524247E+03  0.22101297152E+02 -0.54391359463E+03  0.11349089373E+04  0.25500000920E-02 0. -1.
</event>
<event>
 5   0  0.4412054E-05  0.2002843E+04  0.7818609E-02  0.8605293E-01
       -2   -1    0    0    0  501  0.00000000000E+00  0.00000000000E+00  0.89488585889E+03  0.89488585889E+03  0.25500000920E-02 0. -1.
        2   -1    0    0  501    0  0.00000000000E+00  0.00000000000E+00 -0.11206402761E+04  0.11206402761E+04  0.25500000920E-02 0.  1.
    10030    2    1    2    0    0  0.00000000000E+00  0.00000000000E+00 -0.22575441718E+03  0.20155261350E+04  0.20028431151E+04 0.  0.
        4    1    3    3  502    0  0.79271898334E+03  0.52220056194E+02  0.50066648322E+03  0.93904145869E+03  0.12699999809E+01 0. -1.
       -4    1    3    3    0  502 -0.79271898334E+03 -0.52220056194E+02 -0.72642090040E+03  0.10764846763E+04  0.12699999809E+01 0.  1.
</event>
<event>
 5   0  0.4514680E-05  0.2011702E+04  0.7818609E-02  0.8601169E-01
        2   -1    0    0  501    0  0.00000000000E+00  0.00000000000E+00  0.76009482260E+03  0.76009482260E+03  0.25500000920E-02 0. -1.
       -2   -1    0    0    0  501  0.00000000000E+00  0.00000000000E+00 -0.13310663429E+04  0.13310663429E+04  0.25500000920E-02 0.  1.
    10030    2    1    2    0    0  0.00000000000E+00  0.00000000000E+00 -0.57097152028E+03  0.20911611655E+04  0.20117023992E+04 0.  0.
        3    1    3    3  502    0  0.55189633880E+03  0.80577945737E+03 -0.53554186659E+03  0.11138560068E+04  0.10100000352E+00 0. -1.
       -3    1    3    3    0  502 -0.55189633880E+03 -0.80577945737E+03 -0.35429653690E+02  0.97730515873E+03  0.10100000352E+00 0.  1.
</event>
<event>
 5   0  0.1601500E-05  0.1998933E+04  0.7818609E-02  0.8607120E-01
       -3   -1    0    0    0  501  0.00000000000E+00  0.00000000000E+00  0.26305683750E+04  0.26305683770E+04  0.10100000352E+00 0. -1.
        3   -1    0    0  501    0  0.00000000000E+00  0.00000000000E+00 -0.37974046050E+03  0.37974047393E+03  0.10100000352E+00 0.  1.
    10030    2    1    2    0    0  0.00000000000E+00  0.00000000000E+00  0.22508279145E+04  0.30103088509E+04  0.19989329846E+04 0.  0.
        4    1    3    3  502    0 -0.12802965841E+01  0.23404217874E+03  0.25887170930E+04  0.25992758955E+04  0.12699999809E+01 0. -1.
       -4    1    3    3    0  502  0.12802965841E+01 -0.23404217874E+03 -0.33788917846E+03  0.41103295538E+03  0.12699999809E+01 0.  1.
</event>
<event>
 5   0  0.4473361E-05  0.1996922E+04  0.7818609E-02  0.8608061E-01
       -2   -1    0    0    0  501  0.00000000000E+00  0.00000000000E+00  0.79685249888E+03  0.79685249888E+03  0.25500000920E-02 0.  1.
        2   -1    0    0  501    0  0.00000000000E+00  0.00000000000E+00 -0.12510775737E+04  0.12510775737E+04  0.25500000920E-02 0. -1.
    10030    2    1    2    0    0  0.00000000000E+00  0.00000000000E+00 -0.45422507483E+03  0.20479300726E+04  0.19969219223E+04 0.  0.
        2    1    3    3  502    0 -0.98616259485E+03 -0.13427626014E+03 -0.30901175025E+03  0.10421300491E+04  0.25500000920E-02 0. -1.
       -2    1    3    3    0  502  0.98616259485E+03  0.13427626014E+03 -0.14521332458E+03  0.10058000234E+04  0.25500000920E-02 0.  1.
</event>
<event>
 5   0  0.4412054E-05  0.2003811E+04  0.7818609E-02  0.8604841E-01
        2   -1    0    0  501    0  0.00000000000E+00  0.00000000000E+00  0.74461562908E+03  0.74461562908E+03  0.25500000920E-02 0. -1.
       -2   -1    0    0    0  501  0.00000000000E+00  0.00000000000E+00 -0.13480980057E+04  0.13480980057E+04  0.25500000920E-02 0.  1.
    10030    2    1    2    0    0  0.00000000000E+00  0.00000000000E+00 -0.60348237659E+03  0.20927136348E+04  0.20038112132E+04 0.  0.
        4    1    3    3  502    0 -0.31446087296E+03 -0.92043147326E+03 -0.55267947144E+03  0.11187206750E+04  0.12699999809E+01 0. -1.
       -4    1    3    3    0  502  0.31446087296E+03  0.92043147326E+03 -0.50802905149E+02  0.97399295976E+03  0.12699999809E+01 0.  1.
</event>
<event>
 5   0  0.2007644E-05  0.2011540E+04  0.7818609E-02  0.8601244E-01
       -1   -1    0    0    0  501  0.00000000000E+00  0.00000000000E+00  0.56839833350E+03  0.56839833352E+03  0.50400001928E-02 0. -1.
        1   -1    0    0  501    0  0.00000000000E+00  0.00000000000E+00 -0.17796915176E+04  0.17796915176E+04  0.50400001928E-02 0.  1.
    10030    2    1    2    0    0  0.00000000000E+00  0.00000000000E+00 -0.12112931841E+04  0.23480898511E+04  0.20115403976E+04 0.  0.
        1    1    3    3  502    0 -0.21598292327E+03 -0.75994068976E+03  0.12091810213E+03  0.79923692516E+03  0.50400001928E-02 0. -1.
       -1    1    3    3    0  502  0.21598292327E+03  0.75994068976E+03 -0.13322112862E+04  0.15488529260E+04  0.50400001928E-02 0.  1.
</event>
<event>
 5   0  0.4473361E-05  0.1998512E+04  0.7818609E-02  0.8607317E-01
       -2   -1    0    0    0  501  0.00000000000E+00  0.00000000000E+00  0.13929789268E+04  0.13929789268E+04  0.25500000920E-02 0. -1.
        2   -1    0    0  501    0  0.00000000000E+00  0.00000000000E+00 -0.71681831834E+03  0.71681831834E+03  0.25500000920E-02 0.  1.
    10030    2    1    2    0    0  0.00000000000E+00  0.00000000000E+00  0.67616060848E+03  0.21097972452E+04  0.19985122585E+04 0.  0.
        2    1    3    3  502    0  0.23078045959E+03 -0.34030473097E+03  0.12995330232E+04  0.13630308172E+04  0.25500000920E-02 0. -1.
       -2    1    3    3    0  502 -0.23078045959E+03  0.34030473097E+03 -0.62337241470E+03  0.74676642791E+03  0.25500000920E-02 0.  1.
</event>
<event>
 5   0  0.2256868E-05  0.2000244E+04  0.7818609E-02  0.8606507E-01
        1   -1    0    0  501    0  0.00000000000E+00  0.00000000000E+00  0.22704927722E+04  0.22704927722E+04  0.50400001928E-02 0.  1.
       -1   -1    0    0    0  501  0.00000000000E+00  0.00000000000E+00 -0.44054055544E+03  0.44054055547E+03  0.50400001928E-02 0. -1.
    10030    2    1    2    0    0  0.00000000000E+00  0.00000000000E+00  0.18299522167E+04  0.27110333276E+04  0.20002441321E+04 0.  0.
        5    1    3    3  502    0  0.82931862891E+03 -0.55797827268E+03  0.86976105588E+03  0.13249964247E+04  0.46999998093E+01 0. -1.
       -5    1    3    3    0  502 -0.82931862891E+03  0.55797827268E+03  0.96019116086E+03  0.13860369030E+04  0.46999998093E+01 0.  1.
</event>
<event>
 5   0  0.2142551E-05  0.2002065E+04  0.7818609E-02  0.8605656E-01
        1   -1    0    0  501    0  0.00000000000E+00  0.00000000000E+00  0.21979970482E+04  0.21979970482E+04  0.50400001928E-02 0. -1.
       -1   -1    0    0    0  501  0.00000000000E+00  0.00000000000E+00 -0.45589954745E+03  0.45589954748E+03  0.50400001928E-02 0.  1.
    10030    2    1    2    0    0  0.00000000000E+00  0.00000000000E+00  0.17420975007E+04  0.26538965957E+04  0.20020647938E+04 0.  0.
        3    1    3    3  502    0 -0.60554805300E+03 -0.35650159986E+03 -0.74010623760E+02  0.70658291645E+03  0.10100000352E+00 0.  1.
       -3    1    3    3    0  502  0.60554805300E+03  0.35650159986E+03  0.18161081245E+04  0.19473136792E+04  0.10100000352E+00 0. -1.
</event>
<event>
 5   0  0.4447313E-05  0.2028623E+04  0.7818609E-02  0.8593354E-01
       -2   -1    0    0    0  501  0.00000000000E+00  0.00000000000E+00  0.11764840218E+04  0.11764840218E+04  0.25500000920E-02 0. -1.
        2   -1    0    0  501    0  0.00000000000E+00  0.00000000000E+00 -0.87449369892E+03  0.87449369892E+03  0.25500000920E-02 0.  1.
    10030    2    1    2    0    0  0.00000000000E+00  0.00000000000E+00  0.30199032292E+03  0.20509777208E+04  0.20286230443E+04 0.  0.
        5    1    3    3  502    0  0.57265631241E+03 -0.42633280529E+03 -0.57743789488E+03  0.91823282747E+03  0.46999998093E+01 0.  1.
       -5    1    3    3    0  502 -0.57265631241E+03  0.42633280529E+03  0.87942821781E+03  0.11327448933E+04  0.46999998093E+01 0. -1.
</event>
<event>
 5   0  0.2256868E-05  0.1974204E+04  0.7818609E-02  0.8618777E-01
        1   -1    0    0  501    0  0.00000000000E+00  0.00000000000E+00  0.10364447733E+04  0.10364447733E+04  0.50400001928E-02 0.  1.
       -1   -1    0    0    0  501  0.00000000000E+00  0.00000000000E+00 -0.94010805713E+03  0.94010805715E+03  0.50400001928E-02 0. -1.
    10030    2    1    2    0    0  0.00000000000E+00  0.00000000000E+00  0.96336716193E+02  0.19765528305E+04  0.19742037202E+04 0.  0.
        5    1    3    3  502    0  0.86764405304E+03 -0.93297841047E+02  0.51006024478E+03  0.10107889163E+04  0.46999998093E+01 0.  1.
       -5    1    3    3    0  502 -0.86764405304E+03  0.93297841047E+02 -0.41372352859E+03  0.96576391423E+03  0.46999998093E+01 0. -1.
</event>
<event>
 5   0  0.4514680E-05  0.1990972E+04  0.7818609E-02  0.8610853E-01
       -2   -1    0    0    0  501  0.00000000000E+00  0.00000000000E+00  0.51331351095E+03  0.51331351096E+03  0.25500000920E-02 0. -1.
        2   -1    0    0  501    0  0.00000000000E+00  0.00000000000E+00 -0.19305785509E+04  0.19305785509E+04  0.25500000920E-02 0.  1.
    10030    2    1    2    0    0  0.00000000000E+00  0.00000000000E+00 -0.14172650399E+04  0.24438920619E+04  0.19909716765E+04 0.  0.
        3    1    3    3  502    0 -0.32514088633E+03 -0.86257562740E+03 -0.11699435603E+04  0.14894701250E+04  0.10100000352E+00 0.  1.
       -3    1    3    3    0  502  0.32514088633E+03  0.86257562740E+03 -0.24732147965E+03  0.95442193680E+03  0.10100000352E+00 0. -1.
</event>
<event>
 5   0  0.2007644E-05  0.2005511E+04  0.7818609E-02  0.8604048E-01
        1   -1    0    0  501    0  0.00000000000E+00  0.00000000000E+00  0.70323696196E+03  0.70323696198E+03  0.50400001928E-02 0.  1.
       -1   -1    0    0    0  501  0.00000000000E+00  0.00000000000E+00 -0.14298437760E+04  0.14298437760E+04  0.50400001928E-02 0. -1.
    10030    2    1    2    0    0  0.00000000000E+00  0.00000000000E+00 -0.72660681401E+03  0.21330807380E+04  0.20055113992E+04 0.  0.
        1    1    3    3  502    0 -0.49240660645E+03  0.26807808243E+03  0.52095770664E+03  0.76532807115E+03  0.50400001928E-02 0.  1.
       -1    1    3    3    0  502  0.49240660645E+03 -0.26807808243E+03 -0.12475645206E+04  0.13677526668E+04  0.50400001928E-02 0. -1.
</event>
<event>
 5   0  0.2142551E-05  0.2003164E+04  0.7818609E-02  0.8605143E-01
       -1   -1    0    0    0  501  0.00000000000E+00  0.00000000000E+00  0.87568620343E+03  0.87568620345E+03  0.50400001928E-02 0.  1.
        1   -1    0    0  501    0  0.00000000000E+00  0.00000000000E+00 -0.11455772333E+04  0.11455772333E+04  0.50400001928E-02 0. -1.
    10030    2    1    2    0    0  0.00000000000E+00  0.00000000000E+00 -0.26989102989E+03  0.20212634368E+04  0.20031636760E+04 0.  0.
        3    1    3    3  502    0 -0.21030578695E+02 -0.26005263924E+03  0.84079581519E+03  0.88034497412E+03  0.10100000352E+00 0.  1.
       -3    1    3    3    0  502  0.21030578695E+02  0.26005263924E+03 -0.11106868451E+04  0.11409184627E+04  0.10100000352E+00 0. -1.
</event>
<event>
 5   0  0.4514680E-05  0.1997128E+04  0.7818609E-02  0.8607965E-01
        2   -1    0    0  501    0  0.00000000000E+00  0.00000000000E+00  0.10085602051E+04  0.10085602051E+04  0.25500000920E-02 0.  1.
       -2   -1    0    0    0  501  0.00000000000E+00  0.00000000000E+00 -0.98866692964E+03  0.98866692964E+03  0.25500000920E-02 0. -1.
    10030    2    1    2    0    0  0.00000000000E+00  0.00000000000E+00  0.19893275495E+02  0.19972271348E+04  0.19971280594E+04 0.  0.
        3    1    3    3  502    0  0.66687405248E+03  0.52736161021E+03  0.53370808861E+03  0.10038304657E+04  0.10100000352E+00 0.  1.
       -3    1    3    3    0  502 -0.66687405248E+03 -0.52736161021E+03 -0.51381481311E+03  0.99339666909E+03  0.10100000352E+00 0. -1.
</event>
<event>
 5   0  0.4447313E-05  0.1997040E+04  0.7818609E-02  0.8608006E-01
       -2   -1    0    0    0  501  0.00000000000E+00  0.00000000000E+00  0.57346622922E+03  0.57346622922E+03  0.25500000920E-02 0. -1.
        2   -1    0    0  501    0  0.00000000000E+00  0.00000000000E+00 -0.17386249097E+04  0.17386249097E+04  0.25500000920E-02 0.  1.
    10030    2    1    2    0    0  0.00000000000E+00  0.00000000000E+00 -0.11651586805E+04  0.23120911390E+04  0.19970404813E+04 0.  0.
        5    1    3    3  502    0 -0.56969009828E+03 -0.59629023660E+03  0.69179958044E+02  0.82759700998E+03  0.46999998093E+01 0. -1.
       -5    1    3    3    0  502  0.56969009828E+03  0.59629023660E+03 -0.12343386386E+04  0.14844941290E+04  0.46999998093E+01 0.  1.
</event>
<event>
 5   0  0.4447313E-05  0.2002497E+04  0.7818609E-02  0.8605454E-01
       -2   -1    0    0    0  501  0.00000000000E+00  0.00000000000E+00  0.91355996126E+03  0.91355996127E+03  0.25500000920E-02 0. -1.
        2   -1    0    0  501    0  0.00000000000E+00  0.00000000000E+00 -0.10973537226E+04  0.10973537226E+04  0.25500000920E-02 0.  1.
    10030    2    1    2    0    0  0.00000000000E+00  0.00000000000E+00 -0.18379376138E+03  0.20109136839E+04  0.20024968658E+04 0.  0.
        5    1    3    3  502    0  0.33877890573E+03  0.47917793492E+03 -0.90653635234E+03  0.10799133708E+04  0.46999998093E+01 0.  1.
       -5    1    3    3    0  502 -0.33877890573E+03 -0.47917793492E+03  0.72274259095E+03  0.93100031313E+03  0.46999998093E+01 0. -1.
</event>
<event>
 5   0  0.2110896E-05  0.2013562E+04  0.7818609E-02  0.8600306E-01
        1   -1    0    0  501    0  0.00000000000E+00  0.00000000000E+00  0.21165184266E+04  0.21165184266E+04  0.50400001928E-02 0.  1.
       -1   -1    0    0    0  501  0.00000000000E+00  0.00000000000E+00 -0.47890358027E+03  0.47890358029E+03  0.50400001928E-02 0. -1.
    10030    2    1    2    0    0  0.00000000000E+00  0.00000000000E+00  0.16376148464E+04  0.25954220069E+04  0.20135622685E+04 0.  0.
        4    1    3    3  502    0  0.86158628595E+03 -0.40293106113E+03  0.12442111227E+04  0.15661249308E+04  0.12699999809E+01 0. -1.
       -4    1    3    3    0  502 -0.86158628595E+03  0.40293106113E+03  0.39340372361E+03  0.10292970761E+04  0.12699999809E+01 0.  1.
</event>
<event>
 5   0  0.2256868E-05  0.1999117E+04  0.7818609E-02  0.8607034E-01
       -1   -1    0    0    0  501  0.00000000000E+00  0.00000000000E+00  0.82122567155E+03  0.82122567156E+03  0.50400001928E-02 0.  1.
        1   -1    0    0  501    0  0.00000000000E+00  0.00000000000E+00 -0.12166167861E+04  0.12166167861E+04  0.50400001928E-02 0. -1.
    10030    2    1    2    0    0  0.00000000000E+00  0.00000000000E+00 -0.39539111457E+03  0.20378424577E+04  0.19991167422E+04 0.  0.
        5    1    3    3  502    0 -0.36505457451E+03 -0.30599537411E+03  0.69807433015E+03  0.84512003393E+03  0.46999998093E+01 0.  1.
       -5    1    3    3    0  502  0.36505457451E+03  0.30599537411E+03 -0.10934654447E+04  0.11927224238E+04  0.46999998093E+01 0. -1.
</event>
<event>
 5   0  0.2110896E-05  0.1997016E+04  0.7818609E-02  0.8608017E-01
        1   -1    0    0  501    0  0.00000000000E+00  0.00000000000E+00  0.75768383519E+03  0.75768383521E+03  0.50400001928E-02 0. -1.
       -1   -1    0    0    0  501  0.00000000000E+00  0.00000000000E+00 -0.13158767492E+04  0.13158767492E+04  0.50400001928E-02 0.  1.
    10030    2    1    2    0    0  0.00000000000E+00  0.00000000000E+00 -0.55819291397E+03  0.20735605844E+04  0.19970163164E+04 0.  0.
        4    1    3    3  502    0  0.91778877567E+03 -0.23479276543E+03 -0.60671041745E+03  0.11249724543E+04  0.12699999809E+01 0.  1.
       -4    1    3    3    0  502 -0.91778877567E+03  0.23479276543E+03  0.48517503482E+02  0.94858813006E+03  0.12699999809E+01 0. -1.
</event>
<event>
 5   0  0.2142551E-05  0.1999590E+04  0.7818609E-02  0.8606813E-01
       -1   -1    0    0    0  501  0.00000000000E+00  0.00000000000E+00  0.16450093286E+04  0.16450093287E+04  0.50400001928E-02 0. -1.
        1   -1    0    0  501    0  0.00000000000E+00  0.00000000000E+00 -0.60764988044E+03  0.60764988046E+03  0.50400001928E-02 0.  1.
    10030    2    1    2    0    0  0.00000000000E+00  0.00000000000E+00  0.10373594482E+04  0.22526592091E+04  0.19995896798E+04 0.  0.
        3    1    3    3  502    0 -0.58237994230E+03  0.68763153823E+03  0.10066069259E+04  0.13510222215E+04  0.10100000352E+00 0. -1.
       -3    1    3    3    0  502  0.58237994230E+03 -0.68763153823E+03  0.30752522291E+02  0.90163698759E+03  0.10100000352E+00 0.  1.
</event>
<event>
 5   0  0.2110896E-05  0.2005052E+04  0.7818609E-02  0.8604262E-01
        1   -1    0    0  501    0  0.00000000000E+00  0.00000000000E+00  0.11336896405E+04  0.11336896405E+04  0.50400001928E-02 0.  1.
       -1   -1    0    0    0  501  0.00000000000E+00  0.00000000000E+00 -0.88653725640E+03  0.88653725642E+03  0.50400001928E-02 0. -1.
    10030    2    1    2    0    0  0.00000000000E+00  0.00000000000E+00  0.24715238413E+03  0.20202268970E+04  0.20050517236E+04 0.  0.
        4    1    3    3  502    0  0.26029061216E+03  0.93824082709E+03  0.36414978221E+03  0.10395449626E+04  0.12699999809E+01 0.  1.
       -4    1    3    3    0  502 -0.26029061216E+03 -0.93824082709E+03 -0.11699739809E+03  0.98068193440E+03  0.12699999809E+01 0. -1.
</event>
<event>
 5   0  0.4514680E-05  0.2001779E+04  0.7818609E-02  0.8605789E-01
       -2   -1    0    0    0  501  0.00000000000E+00  0.00000000000E+00  0.74677516412E+03  0.74677516413E+03  0.25500000920E-02 0.  1.
        2   -1    0    0  501    0  0.00000000000E+00  0.00000000000E+00 -0.13414746034E+04  0.13414746034E+04  0.25500000920E-02 0. -1.
    10030    2    1    2    0    0  0.00000000000E+00  0.00000000000E+00 -0.59469943932E+03  0.20882497676E+04  0.20017791258E+04 0.  0.
        3    1    3    3  502    0  0.55635731277E+03 -0.82899585461E+03 -0.22349373323E+03  0.10230919047E+04  0.10100000352E+00 0.  1.
       -3    1    3    3    0  502 -0.55635731277E+03  0.82899585461E+03 -0.37120570609E+03  0.10651578629E+04  0.10100000352E+00 0. -1.
</event>
<event>
 5   0  0.4447313E-05  0.2029630E+04  0.7818609E-02  0.8592892E-01
        2   -1    0    0  501    0  0.00000000000E+00  0.00000000000E+00  0.10407894533E+04  0.10407894533E+04  0.25500000920E-02 0. -1.
       -2   -1    0    0    0  501  0.00000000000E+00  0.00000000000E+00 -0.98948833320E+03  0.98948833321E+03  0.25500000920E-02 0.  1.
    10030    2    1    2    0    0  0.00000000000E+00  0.00000000000E+00  0.51301120127E+02  0.20302777865E+04  0.20296295439E+04 0.  0.
        5    1    3    3  502    0  0.94662242772E+03 -0.15804001151E+03  0.35553803762E+03  0.10234745000E+04  0.46999998093E+01 0. -1.
       -5    1    3    3    0  502 -0.94662242772E+03  0.15804001151E+03 -0.30423691749E+03  0.10068032866E+04  0.46999998093E+01 0.  1.
</event>
<event>
 5   0  0.4447313E-05  0.2000671E+04  0.7818609E-02  0.8606307E-01
        2   -1    0    0  501    0  0.00000000000E+00  0.00000000000E+00  0.18368213109E+04  0.18368213109E+04  0.25500000920E-02 0. -1.
       -2   -1    0    0    0  501  0.00000000000E+00  0.00000000000E+00 -0.54478423112E+03  0.54478423112E+03  0.25500000920E-02 0.  1.
    10030    2    1    2    0    0  0.00000000000E+00  0.00000000000E+00  0.12920370798E+04  0.23816055420E+04  0.20006711730E+04 0.  0.
        5    1    3    3  502    0 -0.40496375804E+03  0.24532189433E+03  0.16949730606E+04  0.17598676778E+04  0.46999998093E+01 0. -1.
       -5    1    3    3    0  502  0.40496375804E+03 -0.24532189433E+03 -0.40293598083E+03  0.62173786422E+03  0.46999998093E+01 0.  1.
</event>
<event>
 5   0  0.2007644E-05  0.1997472E+04  0.7818609E-02  0.8607804E-01
       -1   -1    0    0    0  501  0.00000000000E+00  0.00000000000E+00  0.61299694811E+03  0.61299694813E+03  0.50400001928E-02 0. -1.
        1   -1    0    0  501    0  0.00000000000E+00  0.00000000000E+00 -0.16272079646E+04  0.16272079646E+04  0.50400001928E-02 0.  1.
    10030    2    1    2    0    0  0.00000000000E+00  0.00000000000E+00 -0.10142110165E+04  0.22402049128E+04  0.19974719185E+04 0.  0.
        1    1    3    3  502    0  0.81912320374E+03  0.53255436184E+03 -0.27482208370E+03  0.10149404657E+04  0.50400001928E-02 0. -1.
       -1    1    3    3    0  502 -0.81912320374E+03 -0.53255436184E+03 -0.73938893280E+03  0.12252644470E+04  0.50400001928E-02 0.  1.
</event>
<event>
 5   0  0.4577279E-05  0.1996394E+04  0.7818609E-02  0.8608309E-01
        2   -1    0    0  501    0  0.00000000000E+00  0.00000000000E+00  0.13094969185E+04  0.13094969185E+04  0.25500000920E-02 0.  1.
       -2   -1    0    0    0  501  0.00000000000E+00  0.00000000000E+00 -0.76090042670E+03  0.76090042670E+03  0.25500000920E-02 0. -1.
    10030    2    1    2    0    0  0.00000000000E+00  0.00000000000E+00  0.54859649177E+03  0.20703973452E+04  0.19963935123E+04 0.  0.
        1    1    3    3  502    0  0.77371691803E+03 -0.58467310031E+03  0.29066544004E+02  0.97021923681E+03  0.50400001928E-02 0.  1.
       -1    1    3    3    0  502 -0.77371691803E+03  0.58467310031E+03  0.51952994777E+03  0.11001781084E+04  0.50400001928E-02 0. -1.
</event>
<event>
 5   0  0.4577279E-05  0.2007473E+04  0.7818609E-02  0.8603135E-01
       -2   -1    0    0    0  501  0.00000000000E+00  0.00000000000E+00  0.75806852919E+03  0.75806852920E+03  0.25500000920E-02 0. -1.
        2   -1    0    0  501    0  0.00000000000E+00  0.00000000000E+00 -0.13290187632E+04  0.13290187632E+04  0.25500000920E-02 0.  1.
    10030    2    1    2    0    0  0.00000000000E+00  0.00000000000E+00 -0.57095023402E+03  0.20870872924E+04  0.20074733364E+04 0.  0.
        1    1    3    3  502    0  0.45478218697E+03 -0.52796926667E+03 -0.10365585555E+04  0.12490124191E+04  0.50400001928E-02 0.  1.
       -1    1    3    3    0  502 -0.45478218697E+03  0.52796926667E+03  0.46560832150E+03  0.83807487327E+03  0.50400001928E-02 0. -1.
</event>
<event>
 5   0  0.2142551E-05  0.1947063E+04  0.7818609E-02  0.8631778E-01
       -1   -1    0    0    0  501  0.00000000000E+00  0.00000000000E+00  0.10142291767E+04  0.10142291767E+04  0.50400001928E-02 0.  1.
        1   -1    0    0  501    0  0.00000000000E+00  0.00000000000E+00 -0.93446663412E+03  0.93446663413E+03  0.50400001928E-02 0. -1.
    10030    2    1    2    0    0  0.00000000000E+00  0.00000000000E+00  0.79762542535E+02  0.19486958108E+04  0.19470627365E+04 0.  0.
        3    1    3    3  502    0 -0.34591924397E+03 -0.90500222430E+03  0.13521958199E+03  0.97825022100E+03  0.10100000352E+00 0.  1.
       -3    1    3    3    0  502  0.34591924397E+03  0.90500222430E+03 -0.55457039458E+02  0.97044558980E+03  0.10100000352E+00 0. -1.
</event>
<event>
 5   0  0.4412054E-05  0.1933586E+04  0.7818609E-02  0.8638317E-01
        2   -1    0    0  501    0  0.00000000000E+00  0.00000000000E+00  0.16593334561E+04  0.16593334561E+04  0.25500000920E-02 0.  1.
       -2   -1    0    0    0  501  0.00000000000E+00  0.00000000000E+00 -0.56329152279E+03  0.56329152279E+03  0.25500000920E-02 0. -1.
    10030    2    1    2    0    0  0.00000000000E+00  0.00000000000E+00  0.10960419333E+04  0.22226249789E+04  0.19335857564E+04 0.  0.
        4    1    3    3  502    0  0.57014266178E+03  0.47628544102E+03  0.12591940619E+04  0.14620129187E+04  0.12699999809E+01 0.  1.
       -4    1    3    3    0  502 -0.57014266178E+03 -0.47628544102E+03 -0.16315212858E+03  0.76061206017E+03  0.12699999809E+01 0. -1.
</event>
<event>
 5   0  0.2093980E-05  0.1998703E+04  0.7818609E-02  0.8607227E-01
       -1   -1    0    0    0  501  0.00000000000E+00  0.00000000000E+00  0.66320885555E+03  0.66320885557E+03  0.50400001928E-02 0.  1.
        1   -1    0    0  501    0  0.00000000000E+00  0.00000000000E+00 -0.15058659408E+04  0.15058659409E+04  0.50400001928E-02 0. -1.
    10030    2    1    2    0    0  0.00000000000E+00  0.00000000000E+00 -0.84265708530E+03  0.21690747964E+04  0.19987032069E+04 0.  0.
        2    1    3    3  502    0 -0.15981417807E+03 -0.11482049131E+03  0.64197474193E+03  0.67145802997E+03  0.25500000920E-02 0.  1.
       -2    1    3    3    0  502  0.15981417807E+03  0.11482049131E+03 -0.14846318272E+04  0.14976167665E+04  0.25500000920E-02 0. -1.
</event>
<event>
 5   0  0.4473361E-05  0.1993319E+04  0.7818609E-02  0.8609751E-01
        2   -1    0    0  501    0  0.00000000000E+00  0.00000000000E+00  0.11069140157E+04  0.11069140157E+04  0.25500000920E-02 0.  1.
       -2   -1    0    0    0  501  0.00000000000E+00  0.00000000000E+00 -0.89738699003E+03  0.89738699003E+03  0.25500000920E-02 0. -1.
    10030    2    1    2    0    0  0.00000000000E+00  0.00000000000E+00  0.20952702569E+03  0.20043010058E+04  0.19933190781E+04 0.  0.
        2    1    3    3  502    0  0.11408721508E+03  0.64466521601E+03 -0.65085593953E+03  0.92315902607E+03  0.25500000920E-02 0. -1.
       -2    1    3    3    0  502 -0.11408721508E+03 -0.64466521601E+03  0.86038296522E+03  0.10811419797E+04  0.25500000920E-02 0.  1.
</event>
<event>
 5   0  0.2007644E-05  0.2000593E+04  0.7818609E-02  0.8606344E-01
        1   -1    0    0  501    0  0.00000000000E+00  0.00000000000E+00  0.13915018201E+04  0.13915018201E+04  0.50400001928E-02 0.  1.
       -1   -1    0    0    0  501  0.00000000000E+00  0.00000000000E+00 -0.71907403124E+03  0.71907403126E+03  0.50400001928E-02 0. -1.
    10030    2    1    2    0    0  0.00000000000E+00  0.00000000000E+00  0.67242778885E+03  0.21105758514E+04  0.20005927354E+04 0.  0.
        1    1    3    3  502    0  0.31952053083E+03  0.72987474270E+03 -0.30183451234E+03  0.85200621038E+03  0.50400001928E-02 0. -1.
       -1    1    3    3    0  502 -0.31952053083E+03 -0.72987474270E+03  0.97426230119E+03  0.12585696410E+04  0.50400001928E-02 0.  1.
</event>
<event>
 5   0  0.4473361E-05  0.2001483E+04  0.7818609E-02  0.8605928E-01
       -2   -1    0    0    0  501  0.00000000000E+00  0.00000000000E+00  0.11026464435E+04  0.11026464435E+04  0.25500000920E-02 0. -1.
        2   -1    0    0  501    0  0.00000000000E+00  0.00000000000E+00 -0.90825449325E+03  0.90825449326E+03  0.25500000920E-02 0.  1.
    10030    2    1    2    0    0  0.00000000000E+00  0.00000000000E+00  0.19439195022E+03  0.20109009367E+04  0.20014830369E+04 0.  0.
        2    1    3    3  502    0 -0.74011824091E+03  0.43892886528E+03  0.61053068926E+03  0.10550740646E+04  0.25500000920E-02 0.  1.
       -2    1    3    3    0  502  0.74011824091E+03 -0.43892886528E+03 -0.41613873905E+03  0.95582687211E+03  0.25500000920E-02 0. -1.
</event>
<event>
 5   0  0.4447313E-05  0.1899200E+04  0.7818609E-02  0.8655255E-01
        2   -1    0    0  501    0  0.00000000000E+00  0.00000000000E+00  0.79335428165E+03  0.79335428166E+03  0.25500000920E-02 0. -1.
       -2   -1    0    0    0  501  0.00000000000E+00  0.00000000000E+00 -0.11366168097E+04  0.11366168097E+04  0.25500000920E-02 0.  1.
    10030    2    1    2    0    0  0.00000000000E+00  0.00000000000E+00 -0.34326252803E+03  0.19299710913E+04  0.18991996341E+04 0.  0.
        5    1    3    3  502    0 -0.11832230358E+03  0.93810231102E+03 -0.26069610306E+03  0.98082651964E+03  0.46999998093E+01 0. -1.
       -5    1    3    3    0  502  0.11832230358E+03 -0.93810231102E+03 -0.82566424976E+02  0.94914457171E+03  0.46999998093E+01 0.  1.
</event>
<event>
 5   0  0.4447313E-05  0.1982609E+04  0.7818609E-02  0.8614795E-01
        2   -1    0    0  501    0  0.00000000000E+00  0.00000000000E+00  0.89784672687E+03  0.89784672688E+03  0.25500000920E-02 0.  1.
       -2   -1    0    0    0  501  0.00000000000E+00  0.00000000000E+00 -0.10944908750E+04  0.10944908750E+04  0.25500000920E-02 0. -1.
    10030    2    1    2    0    0  0.00000000000E+00  0.00000000000E+00 -0.19664414811E+03  0.19923376019E+04  0.19826094418E+04 0.  0.
        5    1    3    3  502    0 -0.80282324970E+03  0.31284403823E+03 -0.59089697600E+03  0.10447860493E+04  0.46999998093E+01 0. -1.
       -5    1    3    3    0  502  0.80282324970E+03 -0.31284403823E+03  0.39425282789E+03  0.94755155259E+03  0.46999998093E+01 0.  1.
</event>
<event>
 5   0  0.4447313E-05  0.1965960E+04  0.7818609E-02  0.8622703E-01
       -2   -1    0    0    0  501  0.00000000000E+00  0.00000000000E+00  0.63107382285E+03  0.63107382286E+03  0.25500000920E-02 0. -1.
        2   -1    0    0  501    0  0.00000000000E+00  0.00000000000E+00 -0.15311203450E+04  0.15311203450E+04  0.25500000920E-02 0.  1.
    10030    2    1    2    0    0  0.00000000000E+00  0.00000000000E+00 -0.90004652212E+03  0.21621941678E+04  0.19659602940E+04 0.  0.
        5    1    3    3  502    0  0.25185910896E+02  0.58673528851E+03  0.41690457125E+03  0.72022506234E+03  0.46999998093E+01 0. -1.
       -5    1    3    3    0  502 -0.25185910896E+02 -0.58673528851E+03 -0.13169510934E+04  0.14419691055E+04  0.46999998093E+01 0.  1.
</event>
<event>
 5   0  0.2007644E-05  0.2004284E+04  0.7818609E-02  0.8604621E-01
        1   -1    0    0  501    0  0.00000000000E+00  0.00000000000E+00  0.15460121931E+04  0.15460121931E+04  0.50400001928E-02 0.  1.
       -1   -1    0    0    0  501  0.00000000000E+00  0.00000000000E+00 -0.64959917362E+03  0.64959917364E+03  0.50400001928E-02 0. -1.
    10030    2    1    2    0    0  0.00000000000E+00  0.00000000000E+00  0.89641301946E+03  0.21956113667E+04  0.20042836556E+04 0.  0.
        1    1    3    3  502    0 -0.66207774779E+03  0.52120050143E+03  0.10424781754E+04  0.13404318905E+04  0.50400001928E-02 0.  1.
       -1    1    3    3    0  502  0.66207774779E+03 -0.52120050143E+03 -0.14606515592E+03  0.85517947626E+03  0.50400001928E-02 0. -1.
</event>
<event>
 5   0  0.2142551E-05  0.2001397E+04  0.7818609E-02  0.8605968E-01
        1   -1    0    0  501    0  0.00000000000E+00  0.00000000000E+00  0.16288623901E+04  0.16288623901E+04  0.50400001928E-02 0.  1.
       -1   -1    0    0    0  501  0.00000000000E+00  0.00000000000E+00 -0.61478338769E+03  0.61478338771E+03  0.50400001928E-02 0. -1.
    10030    2    1    2    0    0  0.00000000000E+00  0.00000000000E+00  0.10140790024E+04  0.22436457778E+04  0.20013970504E+04 0.  0.
        3    1    3    3  502    0 -0.32475191481E+03 -0.29242883910E+03 -0.50215731091E+03  0.66568792028E+03  0.10100000352E+00 0. -1.
       -3    1    3    3    0  502  0.32475191481E+03  0.29242883910E+03  0.15162363134E+04  0.15779578576E+04  0.10100000352E+00 0.  1.
</event>
<event>
 5   0  0.2142551E-05  0.1988707E+04  0.7818609E-02  0.8611919E-01
        1   -1    0    0  501    0  0.00000000000E+00  0.00000000000E+00  0.76142519860E+03  0.76142519861E+03  0.50400001928E-02 0. -1.
       -1   -1    0    0    0  501  0.00000000000E+00  0.00000000000E+00 -0.12985374651E+04  0.12985374651E+04  0.50400001928E-02 0.  1.
    10030    2    1    2    0    0  0.00000000000E+00  0.00000000000E+00 -0.53711226646E+03  0.20599626637E+04  0.19887072658E+04 0.  0.
        3    1    3    3  502    0  0.73121608938E+03 -0.20504636466E+03 -0.93344133273E+03  0.12033427246E+04  0.10100000352E+00 0.  1.
       -3    1    3    3    0  502 -0.73121608938E+03  0.20504636466E+03  0.39632906628E+03  0.85661993906E+03  0.10100000352E+00 0. -1.
</event>
<event>
 5   0  0.4577279E-05  0.1995846E+04  0.7818609E-02  0.8608565E-01
        2   -1    0    0  501    0  0.00000000000E+00  0.00000000000E+00  0.12780043700E+04  0.12780043700E+04  0.25500000920E-02 0.  1.
       -2   -1    0    0    0  501  0.00000000000E+00  0.00000000000E+00 -0.77922319149E+03  0.77922319149E+03  0.25500000920E-02 0. -1.
    10030    2    1    2    0    0  0.00000000000E+00  0.00000000000E+00  0.49878117847E+03  0.20572275614E+04  0.19958463307E+04 0.  0.
        1    1    3    3  502    0 -0.27228160327E+03  0.34245174940E+03 -0.67509917946E+03  0.80446837992E+03  0.50400001928E-02 0. -1.
       -1    1    3    3    0  502  0.27228160327E+03 -0.34245174940E+03  0.11738803579E+04  0.12527591815E+04  0.50400001928E-02 0.  1.
</event>
<event>
 5   0  0.2256868E-05  0.1980155E+04  0.7818609E-02  0.8615955E-01
       -1   -1    0    0    0  501  0.00000000000E+00  0.00000000000E+00  0.11154257287E+04  0.11154257287E+04  0.50400001928E-02 0.  1.
        1   -1    0    0  501    0  0.00000000000E+00  0.00000000000E+00 -0.87881569184E+03  0.87881569185E+03  0.50400001928E-02 0. -1.
    10030    2    1    2    0    0  0.00000000000E+00  0.00000000000E+00  0.23661003683E+03  0.19942414205E+04  0.19801551792E+04 0.  0.
        5    1    3    3  502    0 -0.49712002067E+03 -0.67441934944E+03  0.64956276725E+03  0.10601526553E+04  0.46999998093E+01 0.  1.
       -5    1    3    3    0  502  0.49712002067E+03  0.67441934944E+03 -0.41295273042E+03  0.93408876527E+03  0.46999998093E+01 0. -1.
</event>
<event>
 5   0  0.4577279E-05  0.2001295E+04  0.7818609E-02  0.8606016E-01
       -2   -1    0    0    0  501  0.00000000000E+00  0.00000000000E+00  0.69311206082E+03  0.69311206083E+03  0.25500000920E-02 0.  1.
        2   -1    0    0  501    0  0.00000000000E+00  0.00000000000E+00 -0.14446364522E+04  0.14446364522E+04  0.25500000920E-02 0. -1.
    10030    2    1    2    0    0  0.00000000000E+00  0.00000000000E+00 -0.75152439141E+03  0.21377485131E+04  0.20012945296E+04 0.  0.
        1    1    3    3  502    0 -0.38671672798E+03  0.13371772917E+03  0.59966171366E+03  0.72596448236E+03  0.50400001928E-02 0.  1.
       -1    1    3    3    0  502  0.38671672798E+03 -0.13371772917E+03 -0.13511861051E+04  0.14117840307E+04  0.50400001928E-02 0. -1.
</event>
<event>
 5   0  0.4514680E-05  0.1998552E+04  0.7818609E-02  0.8607298E-01
        2   -1    0    0  501    0  0.00000000000E+00  0.00000000000E+00  0.20265701866E+04  0.20265701866E+04  0.25500000920E-02 0.  1.
       -2   -1    0    0    0  501  0.00000000000E+00  0.00000000000E+00 -0.49273005678E+03  0.49273005679E+03  0.25500000920E-02 0. -1.
    10030    2    1    2    0    0  0.00000000000E+00  0.00000000000E+00  0.15338401298E+04  0.25193002434E+04  0.19985515186E+04 0.  0.
        3    1    3    3  502    0  0.46474738991E+03  0.88284130331E+03  0.69613600070E+03  0.12165542507E+04  0.10100000352E+00 0. -1.
       -3    1    3    3    0  502 -0.46474738991E+03 -0.88284130331E+03  0.83770412909E+03  0.13027459926E+04  0.10100000352E+00 0.  1.
</event>
<event>
 5   0  0.4473361E-05  0.2000573E+04  0.7818609E-02  0.8606353E-01
       -2   -1    0    0    0  501  0.00000000000E+00  0.00000000000E+00  0.66893476027E+03  0.66893476027E+03  0.25500000920E-02 0. -1.
        2   -1    0    0  501    0  0.00000000000E+00  0.00000000000E+00 -0.14957700968E+04  0.14957700968E+04  0.25500000920E-02 0.  1.
    10030    2    1    2    0    0  0.00000000000E+00  0.00000000000E+00 -0.82683533653E+03  0.21647048571E+04  0.20005725292E+04 0.  0.
        2    1    3    3  502    0 -0.96551949866E+03 -0.23436636058E+03 -0.53875314234E+03  0.11302258366E+04  0.25500000920E-02 0. -1.
       -2    1    3    3    0  502  0.96551949866E+03  0.23436636058E+03 -0.28808219419E+03  0.10344790205E+04  0.25500000920E-02 0.  1.
</event>
<event>
 5   0  0.2093980E-05  0.2005171E+04  0.7818609E-02  0.8604207E-01
        1   -1    0    0  501    0  0.00000000000E+00  0.00000000000E+00  0.74435569043E+03  0.74435569044E+03  0.50400001928E-02 0.  1.
       -1   -1    0    0    0  501  0.00000000000E+00  0.00000000000E+00 -0.13504002643E+04  0.13504002643E+04  0.50400001928E-02 0. -1.
    10030    2    1    2    0    0  0.00000000000E+00  0.00000000000E+00 -0.60604457390E+03  0.20947559548E+04  0.20051714352E+04 0.  0.
        2    1    3    3  502    0  0.21881042492E+03 -0.94723286108E+03 -0.47023136409E+02  0.97331355201E+03  0.25500000920E-02 0.  1.
       -2    1    3    3    0  502 -0.21881042492E+03  0.94723286108E+03 -0.55902143749E+03  0.11214424028E+04  0.25500000920E-02 0. -1.
</event>
<event>
 5   0  0.4447313E-05  0.2001324E+04  0.7818609E-02  0.8606002E-01
       -2   -1    0    0    0  501  0.00000000000E+00  0.00000000000E+00  0.52600460483E+03  0.52600460484E+03  0.25500000920E-02 0.  1.
        2   -1    0    0  501    0  0.00000000000E+00  0.00000000000E+00 -0.19036414604E+04  0.19036414604E+04  0.25500000920E-02 0. -1.
    10030    2    1    2    0    0  0.00000000000E+00  0.00000000000E+00 -0.13776368555E+04  0.24296460652E+04  0.20013237360E+04 0.  0.
        5    1    3    3  502    0 -0.30983125508E+03 -0.17862160577E+03 -0.18233915973E+04  0.18581388785E+04  0.46999998093E+01 0. -1.
       -5    1    3    3    0  502  0.30983125508E+03  0.17862160577E+03  0.44575474175E+03  0.57150718672E+03  0.46999998093E+01 0.  1.
</event>
<event>
 5   0  0.1601500E-05  0.1935486E+04  0.7818609E-02  0.8637391E-01
       -3   -1    0    0    0  501  0.00000000000E+00  0.00000000000E+00  0.10386536196E+04  0.10386536245E+04  0.10100000352E+00 0. -1.
        3   -1    0    0  501    0  0.00000000000E+00  0.00000000000E+00 -0.90167375282E+03  0.90167375847E+03  0.10100000352E+00 0.  1.
    10030    2    1    2    0    0  0.00000000000E+00  0.00000000000E+00  0.13697986675E+03  0.19403273830E+04  0.19354862100E+04 0.  0.
        1    1    3    3  502    0 -0.29085089421E+03  0.82426739610E+03 -0.34789910392E+03  0.94076818052E+03  0.50400001928E-02 0.  1.
       -1    1    3    3    0  502  0.29085089421E+03 -0.82426739610E+03  0.48487897068E+03  0.99955920243E+03  0.50400001928E-02 0. -1.
</event>
<event>
 5   0  0.4447313E-05  0.1997479E+04  0.7818609E-02  0.8607800E-01
        2   -1    0    0  501    0  0.00000000000E+00  0.00000000000E+00  0.23475052057E+04  0.23475052057E+04  0.25500000920E-02 0. -1.
       -2   -1    0    0    0  501  0.00000000000E+00  0.00000000000E+00 -0.42491097626E+03  0.42491097627E+03  0.25500000920E-02 0.  1.
    10030    2    1    2    0    0  0.00000000000E+00  0.00000000000E+00  0.19225942295E+04  0.27724161820E+04  0.19974791401E+04 0.  0.
        5    1    3    3  502    0 -0.27183670584E+03  0.81714140378E+03  0.25925485370E+03  0.89936112745E+03  0.46999998093E+01 0.  1.
       -5    1    3    3    0  502  0.27183670584E+03 -0.81714140378E+03  0.16633393758E+04  0.18730550546E+04  0.46999998093E+01 0. -1.
</event>
<event>
 5   0  0.4577279E-05  0.2042252E+04  0.7818609E-02  0.8587117E-01
       -2   -1    0    0    0  501  0.00000000000E+00  0.00000000000E+00  0.13806283081E+04  0.13806283081E+04  0.25500000920E-02 0. -1.
        2   -1    0    0  501    0  0.00000000000E+00  0.00000000000E+00 -0.75523498370E+03  0.75523498370E+03  0.25500000920E-02 0.  1.
    10030    2    1    2    0    0  0.00000000000E+00  0.00000000000E+00  0.62539332444E+03  0.21358632918E+04  0.20422524798E+04 0.  0.
        1    1    3    3  502    0 -0.31763958855E+03  0.25318307461E+03 -0.66710375080E+03  0.78104032664E+03  0.50400001928E-02 0.  1.
       -1    1    3    3    0  502  0.31763958855E+03 -0.25318307461E+03  0.12924970752E+04  0.13548229652E+04  0.50400001928E-02 0. -1.
</event>
<event>
 5   0  0.4412054E-05  0.2005104E+04  0.7818609E-02  0.8604238E-01
        2   -1    0    0  501    0  0.00000000000E+00  0.00000000000E+00  0.13728221802E+04  0.13728221802E+04  0.25500000920E-02 0. -1.
       -2   -1    0    0    0  501  0.00000000000E+00  0.00000000000E+00 -0.73214938321E+03  0.73214938321E+03  0.25500000920E-02 0.  1.
    10030    2    1    2    0    0  0.00000000000E+00  0.00000000000E+00  0.64067279703E+03  0.21049715635E+04  0.20051043988E+04 0.  0.
        4    1    3    3  502    0 -0.41865627515E+03  0.34974765141E+03  0.12033683029E+04  0.13212469041E+04  0.12699999809E+01 0. -1.
       -4    1    3    3    0  502  0.41865627515E+03 -0.34974765141E+03 -0.56269550586E+03  0.78372465931E+03  0.12699999809E+01 0.  1.
</event>
<event>
 5   0  0.2093980E-05  0.1987192E+04  0.7818609E-02  0.8612633E-01
        1   -1    0    0  501    0  0.00000000000E+00  0.00000000000E+00  0.11537967340E+04  0.11537967340E+04  0.50400001928E-02 0. -1.
       -1   -1    0    0    0  501  0.00000000000E+00  0.00000000000E+00 -0.85563818701E+03  0.85563818703E+03  0.50400001928E-02 0.  1.
    10030    2    1    2    0    0  0.00000000000E+00  0.00000000000E+00  0.29815854700E+03  0.20094349210E+04  0.19871915315E+04 0.  0.
        2    1    3    3  502    0  0.17575192721E+03 -0.53825650960E+03 -0.67653007930E+03  0.88221412268E+03  0.25500000920E-02 0.  1.
       -2    1    3    3    0  502 -0.17575192721E+03  0.53825650960E+03  0.97468862630E+03  0.11272207984E+04  0.25500000920E-02 0. -1.
</event>
<event>
 5   0  0.2093980E-05  0.2036125E+04  0.7818609E-02  0.8589915E-01
       -1   -1    0    0    0  501  0.00000000000E+00  0.00000000000E+00  0.67765548460E+03  0.67765548462E+03  0.50400001928E-02 0. -1.
        1   -1    0    0  501    0  0.00000000000E+00  0.00000000000E+00 -0.15294665861E+04  0.15294665861E+04  0.50400001928E-02 0.  1.
    10030    2    1    2    0    0  0.00000000000E+00  0.00000000000E+00 -0.85181110147E+03  0.22071220707E+04  0.20361251637E+04 0.  0.
        2    1    3    3  502    0  0.29945693832E+03  0.35416957431E+03  0.55648369765E+03  0.72442021716E+03  0.25500000920E-02 0. -1.
       -2    1    3    3    0  502 -0.29945693832E+03 -0.35416957431E+03 -0.14082947991E+04  0.14827018535E+04  0.25500000920E-02 0.  1.
</event>
<event>
 5   0  0.4447313E-05  0.2014970E+04  0.7818609E-02  0.8599653E-01
        2   -1    0    0  501    0  0.00000000000E+00  0.00000000000E+00  0.25113761963E+04  0.25113761963E+04  0.25500000920E-02 0. -1.
       -2   -1    0    0    0  501  0.00000000000E+00  0.00000000000E+00 -0.40417126259E+03  0.40417126259E+03  0.25500000920E-02 0.  1.
    10030    2    1    2    0    0  0.00000000000E+00  0.00000000000E+00  0.21072049337E+04  0.29155474589E+04  0.20149700624E+04 0.  0.
        5    1    3    3  502    0 -0.39989107008E+03 -0.62769381976E+03  0.71074045589E+02  0.74765366932E+03  0.46999998093E+01 0.  1.
       -5    1    3    3    0  502  0.39989107008E+03  0.62769381976E+03  0.20361308881E+04  0.21678937896E+04  0.46999998093E+01 0. -1.
</event>
<event>
 5   0  0.4514680E-05  0.2012933E+04  0.7818609E-02  0.8600598E-01
       -2   -1    0    0    0  501  0.00000000000E+00  0.00000000000E+00  0.56382922978E+03  0.56382922978E+03  0.25500000920E-02 0.  1.
        2   -1    0    0  501    0  0.00000000000E+00  0.00000000000E+00 -0.17965982587E+04  0.17965982587E+04  0.25500000920E-02 0. -1.
    10030    2    1    2    0    0  0.00000000000E+00  0.00000000000E+00 -0.12327690289E+04  0.23604274885E+04  0.20129327981E+04 0.  0.
        3    1    3    3  502    0  0.78705924171E+03  0.51529711211E+03 -0.19688202565E+03  0.96112221176E+03  0.10100000352E+00 0.  1.
       -3    1    3    3    0  502 -0.78705924171E+03 -0.51529711211E+03 -0.10358870032E+04  0.13993052767E+04  0.10100000352E+00 0. -1.
</event>
<event>
 5   0  0.2093980E-05  0.2002285E+04  0.7818609E-02  0.8605553E-01
        1   -1    0    0  501    0  0.00000000000E+00  0.00000000000E+00  0.91742470009E+03  0.91742470011E+03  0.50400001928E-02 0. -1.
       -1   -1    0    0    0  501  0.00000000000E+00  0.00000000000E+00 -0.10924997534E+04  0.10924997534E+04  0.50400001928E-02 0.  1.
    10030    2    1    2    0    0  0.00000000000E+00  0.00000000000E+00 -0.17507505330E+03  0.20099244535E+04  0.20022849534E+04 0.  0.
        2    1    3    3  502    0  0.51178481858E+03  0.70479726187E+02  0.77328621367E+03  0.92997992483E+03  0.25500000920E-02 0. -1.
       -2    1    3    3    0  502 -0.51178481858E+03 -0.70479726187E+02 -0.94836126696E+03  0.10799445287E+04  0.25500000920E-02 0.  1.
</event>
<event>
 5   0  0.4412054E-05  0.1994170E+04  0.7818609E-02  0.8609351E-01
       -2   -1    0    0    0  501  0.00000000000E+00  0.00000000000E+00  0.66051006257E+03  0.66051006257E+03  0.25500000920E-02 0. -1.
        2   -1    0    0  501    0  0.00000000000E+00  0.00000000000E+00 -0.15051685243E+04  0.15051685243E+04  0.25500000920E-02 0.  1.
    10030    2    1    2    0    0  0.00000000000E+00  0.00000000000E+00 -0.84465846174E+03  0.21656785869E+04  0.19941704603E+04 0.  0.
        4    1    3    3  502    0 -0.71080247127E+03 -0.63505395871E+03 -0.10451061484E+03  0.95888360355E+03  0.12699999809E+01 0.  1.
       -4    1    3    3    0  502  0.71080247127E+03  0.63505395871E+03 -0.74014784690E+03  0.12067949833E+04  0.12699999809E+01 0. -1.
</event>
<event>
 5   0  0.2110896E-05  0.2000929E+04  0.7818609E-02  0.8606187E-01
        1   -1    0    0  501    0  0.00000000000E+00  0.00000000000E+00  0.20000168143E+04  0.20000168143E+04  0.50400001928E-02 0. -1.
       -1   -1    0    0    0  501  0.00000000000E+00  0.00000000000E+00 -0.50046025026E+03  0.50046025028E+03  0.50400001928E-02 0.  1.
    10030    2    1    2    0    0  0.00000000000E+00  0.00000000000E+00  0.14995565641E+04  0.25004770646E+04  0.20009286998E+04 0.  0.
        4    1    3    3  502    0 -0.50712173835E+03 -0.68902148361E+03  0.13979212667E+04  0.16389351858E+04  0.12699999809E+01 0. -1.
       -4    1    3    3    0  502  0.50712173835E+03  0.68902148361E+03  0.10163529733E+03  0.86154187881E+03  0.12699999809E+01 0.  1.
</event>
<event>
 5   0  0.2142551E-05  0.1994506E+04  0.7818609E-02  0.8609194E-01
       -1   -1    0    0    0  501  0.00000000000E+00  0.00000000000E+00  0.61750895023E+03  0.61750895026E+03  0.50400001928E-02 0.  1.
        1   -1    0    0  501    0  0.00000000000E+00  0.00000000000E+00 -0.16105244872E+04  0.16105244873E+04  0.50400001928E-02 0. -1.
    10030    2    1    2    0    0  0.00000000000E+00  0.00000000000E+00 -0.99301553701E+03  0.22280334375E+04  0.19945057388E+04 0.  0.
        3    1    3    3  502    0 -0.23649552838E+03 -0.39038400353E+02  0.58485127201E+03  0.63206419944E+03  0.10100000352E+00 0.  1.
       -3    1    3    3    0  502  0.23649552838E+03  0.39038400353E+02 -0.15778668090E+04  0.15959692381E+04  0.10100000352E+00 0. -1.
</event>
<event>
 5   0  0.4577279E-05  0.2000449E+04  0.7818609E-02  0.8606411E-01
       -2   -1    0    0    0  501  0.00000000000E+00  0.00000000000E+00  0.67622005006E+03  0.67622005007E+03  0.25500000920E-02 0. -1.
        2   -1    0    0  501    0  0.00000000000E+00  0.00000000000E+00 -0.14794723751E+04  0.14794723751E+04  0.25500000920E-02 0.  1.
    10030    2    1    2    0    0  0.00000000000E+00  0.00000000000E+00 -0.80325232507E+03  0.21556924252E+04  0.20004488332E+04 0.  0.
        1    1    3    3  502    0  0.60463884971E+03  0.45661464361E+03  0.30201221154E+03  0.81565706475E+03  0.50400001928E-02 0. -1.
       -1    1    3    3    0  502 -0.60463884971E+03 -0.45661464361E+03 -0.11052645366E+04  0.13400353605E+04  0.50400001928E-02 0.  1.
</event>
<event>
 5   0  0.2093980E-05  0.1998616E+04  0.7818609E-02  0.8607268E-01
        1   -1    0    0  501    0  0.00000000000E+00  0.00000000000E+00  0.22414364905E+04  0.22414364905E+04  0.50400001928E-02 0.  1.
       -1   -1    0    0    0  501  0.00000000000E+00  0.00000000000E+00 -0.44552516878E+03  0.44552516881E+03  0.50400001928E-02 0. -1.
    10030    2    1    2    0    0  0.00000000000E+00  0.00000000000E+00  0.17959113217E+04  0.26869616593E+04  0.19986158918E+04 0.  0.
        2    1    3    3  502    0 -0.45458236424E+03 -0.68283701716E+03  0.16652186472E+04  0.18563040324E+04  0.25500000920E-02 0.  1.
       -2    1    3    3    0  502  0.45458236424E+03  0.68283701716E+03  0.13069267452E+03  0.83065762687E+03  0.25500000920E-02 0. -1.
</event>
<event>
 5   0  0.4577279E-05  0.1999508E+04  0.7818609E-02  0.8606851E-01
       -2   -1    0    0    0  501  0.00000000000E+00  0.00000000000E+00  0.37248560261E+03  0.37248560262E+03  0.25500000920E-02 0. -1.
        2   -1    0    0  501    0  0.00000000000E+00  0.00000000000E+00 -0.26833473313E+04  0.26833473313E+04  0.25500000920E-02 0.  1.
    10030    2    1    2    0    0  0.00000000000E+00  0.00000000000E+00 -0.23108617287E+04  0.30558329340E+04  0.19995081873E+04 0.  0.
        1    1    3    3  502    0 -0.12912021579E+02 -0.13090361519E+03  0.35920299492E+03  0.38253008817E+03  0.50400001928E-02 0. -1.
       -1    1    3    3    0  502  0.12912021579E+02  0.13090361519E+03 -0.26700647237E+04  0.26733028458E+04  0.50400001928E-02 0.  1.
</event>
<event>
 5   0  0.4514680E-05  0.1964968E+04  0.7818609E-02  0.8623177E-01
       -2   -1    0    0    0  501  0.00000000000E+00  0.00000000000E+00  0.10988083918E+04  0.10988083918E+04  0.25500000920E-02 0.  1.
        2   -1    0    0  501    0  0.00000000000E+00  0.00000000000E+00 -0.87847426864E+03  0.87847426865E+03  0.25500000920E-02 0. -1.
    10030    2    1    2    0    0  0.00000000000E+00  0.00000000000E+00  0.22033412313E+03  0.19772826604E+04  0.19649680897E+04 0.  0.
        3    1    3    3  502    0  0.74535753198E+03  0.37853527169E+03 -0.40923450852E+03  0.93076296422E+03  0.10100000352E+00 0. -1.
       -3    1    3    3    0  502 -0.74535753198E+03 -0.37853527169E+03  0.62956863165E+03  0.10465196962E+04  0.10100000352E+00 0.  1.
</event>
<event>
 5   0  0.2007644E-05  0.1997077E+04  0.7818609E-02  0.8607988E-01
        1   -1    0    0  501    0  0.00000000000E+00  0.00000000000E+00  0.21418899126E+04  0.21418899126E+04  0.50400001928E-02 0. -1.
       -1   -1    0    0    0  501  0.00000000000E+00  0.00000000000E+00 -0.46551380328E+03  0.46551380331E+03  0.50400001928E-02 0.  1.
    10030    2    1    2    0    0  0.00000000000E+00  0.00000000000E+00  0.16763761094E+04  0.26074037159E+04  0.19970771838E+04 0.  0.
        1    1    3    3  502    0 -0.44337028318E+03  0.90793586693E+02  0.20002972059E+04  0.20508558202E+04  0.50400001928E-02 0. -1.
       -1    1    3    3    0  502  0.44337028318E+03 -0.90793586693E+02 -0.32392109656E+03  0.55654789571E+03  0.50400001928E-02 0.  1.
</event>
<event>
 5   0  0.2007644E-05  0.1943893E+04  0.7818609E-02  0.8633311E-01
       -1   -1    0    0    0  501  0.00000000000E+00  0.00000000000E+00  0.45241080791E+03  0.45241080794E+03  0.50400001928E-02 0.  1.
        1   -1    0    0  501    0  0.00000000000E+00  0.00000000000E+00 -0.20881013729E+04  0.20881013729E+04  0.50400001928E-02 0. -1.
    10030    2    1    2    0    0  0.00000000000E+00  0.00000000000E+00 -0.16356905650E+04  0.25405121808E+04  0.19438926196E+04 0.  0.
        1    1    3    3  502    0  0.20627117364E+03  0.65915878314E+02  0.42048259438E+03  0.47296755945E+03  0.50400001928E-02 0.  1.
       -1    1    3    3    0  502 -0.20627117364E+03 -0.65915878314E+02 -0.20561731593E+04  0.20675446214E+04  0.50400001928E-02 0. -1.
</event>
<event>
 5   0  0.4577279E-05  0.1989409E+04  0.7818609E-02  0.8611588E-01
       -2   -1    0    0    0  501  0.00000000000E+00  0.00000000000E+00  0.42126244083E+03  0.42126244084E+03  0.25500000920E-02 0. -1.
        2   -1    0    0  501    0  0.00000000000E+00  0.00000000000E+00 -0.23487422624E+04  0.23487422624E+04  0.25500000920E-02 0.  1.
    10030    2    1    2    0    0  0.00000000000E+00  0.00000000000E+00 -0.19274798216E+04  0.27700047032E+04  0.19894088553E+04 0.  0.
        1    1    3    3  502    0  0.58224646305E+03  0.59190168774E+03 -0.17264751098E+04  0.19157439434E+04  0.50400001928E-02 0.  1.
       -1    1    3    3    0  502 -0.58224646305E+03 -0.59190168774E+03 -0.20100471176E+03  0.85426075988E+03  0.50400001928E-02 0. -1.
</event>
<event>
 5   0  0.2093980E-05  0.2002537E+04  0.7818609E-02  0.8605436E-01
       -1   -1    0    0    0  501  0.00000000000E+00  0.00000000000E+00  0.26191106936E+04  0.26191106936E+04  0.50400001928E-02 0.  1.
        1   -1    0    0  501    0  0.00000000000E+00  0.00000000000E+00 -0.38277817631E+03  0.38277817634E+03  0.50400001928E-02 0. -1.
    10030    2    1    2    0    0  0.00000000000E+00  0.00000000000E+00  0.22363325173E+04  0.30018888699E+04  0.20025368060E+04 0.  0.
        2    1    3    3  502    0  0.62466637301E+03  0.52906036175E+03  0.19824597647E+04  0.21448215923E+04  0.25500000920E-02 0.  1.
       -2    1    3    3    0  502 -0.62466637301E+03 -0.52906036175E+03  0.25387275257E+03  0.85706727767E+03  0.25500000920E-02 0. -1.
</event>
<event>
 5   0  0.2007644E-05  0.1990391E+04  0.7818609E-02  0.8611126E-01
       -1   -1    0    0    0  501  0.00000000000E+00  0.00000000000E+00  0.56540227419E+03  0.56540227422E+03  0.50400001928E-02 0.  1.
        1   -1    0    0  501    0  0.00000000000E+00  0.00000000000E+00 -0.17516982117E+04  0.17516982117E+04  0.50400001928E-02 0. -1.
    10030    2    1    2    0    0  0.00000000000E+00  0.00000000000E+00 -0.11862959375E+04  0.23171004859E+04  0.19903910698E+04 0.  0.
        1    1    3    3  502    0 -0.32064288302E+03 -0.69711861127E+03  0.14461764672E+03  0.78083319626E+03  0.50400001928E-02 0.  1.
       -1    1    3    3    0  502  0.32064288302E+03  0.69711861127E+03 -0.13309135842E+04  0.15362672897E+04  0.50400001928E-02 0. -1.
</event>
<event>
 5   0  0.4514680E-05  0.1995317E+04  0.7818609E-02  0.8608813E-01
       -2   -1    0    0    0  501  0.00000000000E+00  0.00000000000E+00  0.11737880147E+04  0.11737880147E+04  0.25500000920E-02 0. -1.
        2   -1    0    0  501    0  0.00000000000E+00  0.00000000000E+00 -0.84795799162E+03  0.84795799163E+03  0.25500000920E-02 0.  1.
    10030    2    1    2    0    0  0.00000000000E+00  0.00000000000E+00  0.32583002312E+03  0.20217460064E+04  0.19953174460E+04 0.  0.
        3    1    3    3  502    0 -0.57245067830E+03  0.61952705393E+03 -0.37687886945E+03  0.92387836975E+03  0.10100000352E+00 0.  1.
       -3    1    3    3    0  502  0.57245067830E+03 -0.61952705393E+03  0.70270889257E+03  0.10978676366E+04  0.10100000352E+00 0. -1.
</event>
<event>
 5   0  0.2110896E-05  0.1983732E+04  0.7818609E-02  0.8614264E-01
        1   -1    0    0  501    0  0.00000000000E+00  0.00000000000E+00  0.15477738153E+04  0.15477738154E+04  0.50400001928E-02 0.  1.
       -1   -1    0    0    0  501  0.00000000000E+00  0.00000000000E+00 -0.63562170102E+03  0.63562170104E+03  0.50400001928E-02 0. -1.
    10030    2    1    2    0    0  0.00000000000E+00  0.00000000000E+00  0.91215211432E+03  0.21833955164E+04  0.19837324672E+04 0.  0.
        4    1    3    3  502    0  0.38447599476E+03 -0.78696715440E+03  0.96839049750E+03  0.13057261816E+04  0.12699999809E+01 0.  1.
       -4    1    3    3    0  502 -0.38447599476E+03  0.78696715440E+03 -0.56238383180E+02  0.87766933483E+03  0.12699999809E+01 0. -1.
</event>
<event>
 5   0  0.2007644E-05  0.1964713E+04  0.7818609E-02  0.8623298E-01
        1   -1    0    0  501    0  0.00000000000E+00  0.00000000000E+00  0.17486117287E+04  0.17486117287E+04  0.50400001928E-02 0.  1.
       -1   -1    0    0    0  501  0.00000000000E+00  0.00000000000E+00 -0.55188048039E+03  0.55188048041E+03  0.50400001928E-02 0. -1.
    10030    2    1    2    0    0  0.00000000000E+00  0.00000000000E+00  0.11967312483E+04  0.23004922091E+04  0.19647133948E+04 0.  0.
        1    1    3    3  502    0 -0.14944932600E+03 -0.97045527653E+03  0.56311893934E+03  0.11319105462E+04  0.50400001928E-02 0.  1.
       -1    1    3    3    0  502  0.14944932600E+03  0.97045527653E+03  0.63361230900E+03  0.11685816629E+04  0.50400001928E-02 0. -1.
</event>
<event>
 5   0  0.2110896E-05  0.2009651E+04  0.7818609E-02  0.8602122E-01
        1   -1    0    0  501    0  0.00000000000E+00  0.00000000000E+00  0.16949830228E+04  0.16949830228E+04  0.50400001928E-02 0.  1.
       -1   -1    0    0    0  501  0.00000000000E+00  0.00000000000E+00 -0.59568403325E+03  0.59568403327E+03  0.50400001928E-02 0. -1.
    10030    2    1    2    0    0  0.00000000000E+00  0.00000000000E+00  0.10992989895E+04  0.22906670561E+04  0.20096510377E+04 0.  0.
        4    1    3    3  502    0  0.57671990821E+03  0.13967394726E+03  0.14739397334E+04  0.15889035888E+04  0.12699999809E+01 0.  1.
       -4    1    3    3    0  502 -0.57671990821E+03 -0.13967394726E+03 -0.37464074386E+03  0.70176346722E+03  0.12699999809E+01 0. -1.
</event>
<event>
 5   0  0.4473361E-05  0.2009353E+04  0.7818609E-02  0.8602260E-01
       -2   -1    0    0    0  501  0.00000000000E+00  0.00000000000E+00  0.70408665993E+03  0.70408665993E+03  0.25500000920E-02 0.  1.
        2   -1    0    0  501    0  0.00000000000E+00  0.00000000000E+00 -0.14335941389E+04  0.14335941389E+04  0.25500000920E-02 0. -1.
    10030    2    1    2    0    0  0.00000000000E+00  0.00000000000E+00 -0.72950747898E+03  0.21376807988E+04  0.20093526410E+04 0.  0.
        2    1    3    3  502    0  0.69441006950E+03 -0.72183226841E+03 -0.44803028576E+03  0.10972594521E+04  0.25500000920E-02 0.  1.
       -2    1    3    3    0  502 -0.69441006950E+03  0.72183226841E+03 -0.28147719321E+03  0.10404213467E+04  0.25500000920E-02 0. -1.
</event>
<event>
 5   0  0.4412054E-05  0.2009696E+04  0.7818609E-02  0.8602101E-01
        2   -1    0    0  501    0  0.00000000000E+00  0.00000000000E+00  0.21947745945E+04  0.21947745945E+04  0.25500000920E-02 0. -1.
       -2   -1    0    0    0  501  0.00000000000E+00  0.00000000000E+00 -0.46005618881E+03  0.46005618882E+03  0.25500000920E-02 0.  1.
    10030    2    1    2    0    0  0.00000000000E+00  0.00000000000E+00  0.17347184057E+04  0.26548307833E+04  0.20096961315E+04 0.  0.
        4    1    3    3  502    0 -0.45459934137E+03  0.68956591811E+03  0.11131109572E+03  0.83339875781E+03  0.12699999809E+01 0. -1.
       -4    1    3    3    0  502  0.45459934137E+03 -0.68956591811E+03  0.16234073100E+04  0.18214320255E+04  0.12699999809E+01 0.  1.
</event>
<event>
 5   0  0.4514680E-05  0.2070534E+04  0.7818609E-02  0.8574336E-01
        2   -1    0    0  501    0  0.00000000000E+00  0.00000000000E+00  0.12568321736E+04  0.12568321736E+04  0.25500000920E-02 0. -1.
       -2   -1    0    0    0  501  0.00000000000E+00  0.00000000000E+00 -0.85276122341E+03  0.85276122342E+03  0.25500000920E-02 0.  1.
    10030    2    1    2    0    0  0.00000000000E+00  0.00000000000E+00  0.40407095021E+03  0.21095933970E+04  0.20705339814E+04 0.  0.
        3    1    3    3  502    0 -0.65341949521E+03  0.80160676970E+03  0.25033525679E+03  0.10640480257E+04  0.10100000352E+00 0.  1.
       -3    1    3    3    0  502  0.65341949521E+03 -0.80160676970E+03  0.15373569342E+03  0.10455453714E+04  0.10100000352E+00 0. -1.
</event>
<event>
 5   0  0.2142551E-05  0.2001529E+04  0.7818609E-02  0.8605906E-01
       -1   -1    0    0    0  501  0.00000000000E+00  0.00000000000E+00  0.76740787991E+03  0.76740787992E+03  0.50400001928E-02 0.  1.
        1   -1    0    0  501    0  0.00000000000E+00  0.00000000000E+00 -0.13050810098E+04  0.13050810098E+04  0.50400001928E-02 0. -1.
    10030    2    1    2    0    0  0.00000000000E+00  0.00000000000E+00 -0.53767312986E+03  0.20724888897E+04  0.20015288665E+04 0.  0.
        3    1    3    3  502    0  0.44584790889E+03  0.69605267297E+03 -0.85298231052E+03  0.11877914437E+04  0.10100000352E+00 0. -1.
       -3    1    3    3    0  502 -0.44584790889E+03 -0.69605267297E+03  0.31530918066E+03  0.88469744603E+03  0.10100000352E+00 0.  1.
</event>
<event>
 5   0  0.4447313E-05  0.2013516E+04  0.7818609E-02  0.8600327E-01
        2   -1    0    0  501    0  0.00000000000E+00  0.00000000000E+00  0.49103631533E+03  0.49103631534E+03  0.25500000920E-02 0. -1.
       -2   -1    0    0    0  501  0.00000000000E+00  0.00000000000E+00 -0.20641286257E+04  0.20641286257E+04  0.25500000920E-02 0.  1.
    10030    2    1    2    0    0  0.00000000000E+00  0.00000000000E+00 -0.15730923104E+04  0.25551649410E+04  0.20135164412E+04 0.  0.
        5    1    3    3  502    0 -0.91133221037E+03  0.39406223886E+03 -0.99785981256E+03  0.14076781384E+04  0.46999998093E+01 0.  1.
       -5    1    3    3    0  502  0.91133221037E+03 -0.39406223886E+03 -0.57523249780E+03  0.11474868027E+04  0.46999998093E+01 0. -1.
</event>
<event>
 5   0  0.4473361E-05  0.1999797E+04  0.7818609E-02  0.8606715E-01
        2   -1    0    0  501    0  0.00000000000E+00  0.00000000000E+00  0.15769510341E+04  0.15769510341E+04  0.25500000920E-02 0.  1.
       -2   -1    0    0    0  501  0.00000000000E+00  0.00000000000E+00 -0.63400661069E+03  0.63400661069E+03  0.25500000920E-02 0. -1.
    10030    2    1    2    0    0  0.00000000000E+00  0.00000000000E+00  0.94294442340E+03  0.22109576448E+04  0.19997973701E+04 0.  0.
        2    1    3    3  502    0 -0.72080646031E+02  0.38680201539E+03  0.14877657795E+04  0.15389146933E+04  0.25500000920E-02 0.  1.
       -2    1    3    3    0  502  0.72080646031E+02 -0.38680201539E+03 -0.54482135606E+03  0.67204295150E+03  0.25500000920E-02 0. -1.
</event>
<event>
 5   0  0.2142551E-05  0.2014945E+04  0.7818609E-02  0.8599665E-01
        1   -1    0    0  501    0  0.00000000000E+00  0.00000000000E+00  0.13639032742E+04  0.13639032742E+04  0.50400001928E-02 0. -1.
       -1   -1    0    0    0  501  0.00000000000E+00  0.00000000000E+00 -0.74418848101E+03  0.74418848103E+03  0.50400001928E-02 0.  1.
    10030    2    1    2    0    0  0.00000000000E+00  0.00000000000E+00  0.61971479321E+03  0.21080917553E+04  0.20149452657E+04 0.  0.
        3    1    3    3  502    0  0.85739251650E+03 -0.46998969911E+03  0.56396123491E+03  0.11287446697E+04  0.10100000352E+00 0. -1.
       -3    1    3    3    0  502 -0.85739251650E+03  0.46998969911E+03  0.55753558301E+02  0.97934708560E+03  0.10100000352E+00 0.  1.
</event>
<event>
 5   0  0.4447313E-05  0.2000273E+04  0.7818609E-02  0.8606493E-01
       -2   -1    0    0    0  501  0.00000000000E+00  0.00000000000E+00  0.23842040948E+04  0.23842040948E+04  0.25500000920E-02 0. -1.
        2   -1    0    0  501    0  0.00000000000E+00  0.00000000000E+00 -0.41954189374E+03  0.41954189375E+03  0.25500000920E-02 0.  1.
    10030    2    1    2    0    0  0.00000000000E+00  0.00000000000E+00  0.19646622011E+04  0.28037459886E+04  0.20002734823E+04 0.  0.
        5    1    3    3  502    0 -0.84217971122E+03 -0.55098885844E+02  0.17344854441E+04  0.19289283032E+04  0.46999998093E+01 0. -1.
       -5    1    3    3    0  502  0.84217971122E+03  0.55098885844E+02  0.23017675703E+03  0.87481768540E+03  0.46999998093E+01 0.  1.
</event>
<event>
 5   0  0.1601500E-05  0.2006172E+04  0.7818609E-02  0.8603741E-01
        3   -1    0    0  501    0  0.00000000000E+00  0.00000000000E+00  0.11842711492E+04  0.11842711535E+04  0.10100000352E+00 0.  1.
       -3   -1    0    0    0  501  0.00000000000E+00  0.00000000000E+00 -0.84962076840E+03  0.84962077441E+03  0.10100000352E+00 0. -1.
    10030    2    1    2    0    0  0.00000000000E+00  0.00000000000E+00  0.33465038077E+03  0.20338919279E+04  0.20061718513E+04 0.  0.
        2    1    3    3  502    0 -0.65756360750E+03 -0.68487106906E+03  0.49543743785E+03  0.10709325534E+04  0.25500000920E-02 0.  1.
       -2    1    3    3    0  502  0.65756360750E+03  0.68487106906E+03 -0.16078705708E+03  0.96295937447E+03  0.25500000920E-02 0. -1.
</event>
<event>
 5   0  0.4447313E-05  0.1989918E+04  0.7818609E-02  0.8611349E-01
        2   -1    0    0  501    0  0.00000000000E+00  0.00000000000E+00  0.68530478973E+03  0.68530478974E+03  0.25500000920E-02 0. -1.
       -2   -1    0    0    0  501  0.00000000000E+00  0.00000000000E+00 -0.14445299679E+04  0.14445299679E+04  0.25500000920E-02 0.  1.
    10030    2    1    2    0    0  0.00000000000E+00  0.00000000000E+00 -0.75922517820E+03  0.21298347577E+04  0.19899178937E+04 0.  0.
        5    1    3    3  502    0  0.63642204211E+03 -0.71914064501E+03 -0.65815096874E+03  0.11642083450E+04  0.46999998093E+01 0.  1.
       -5    1    3    3    0  502 -0.63642204211E+03  0.71914064501E+03 -0.10107420947E+03  0.96562641265E+03  0.46999998093E+01 0. -1.
</event>
<event>
 5   0  0.4577279E-05  0.2012048E+04  0.7818609E-02  0.8601008E-01
       -2   -1    0    0    0  501  0.00000000000E+00  0.00000000000E+00  0.64232774229E+03  0.64232774230E+03  0.25500000920E-02 0. -1.
        2   -1    0    0  501    0  0.00000000000E+00  0.00000000000E+00 -0.15756513232E+04  0.15756513232E+04  0.25500000920E-02 0.  1.
    10030    2    1    2    0    0  0.00000000000E+00  0.00000000000E+00 -0.93332358093E+03  0.22179790655E+04  0.20120482669E+04 0.  0.
        1    1    3    3  502    0 -0.58858089574E+03  0.38127402695E+03 -0.12617963315E+04  0.14435814271E+04  0.50400001928E-02 0.  1.
       -1    1    3    3    0  502  0.58858089574E+03 -0.38127402695E+03  0.32847275059E+03  0.77439763840E+03  0.50400001928E-02 0. -1.
</event>
<event>
 5   0  0.4412054E-05  0.2000231E+04  0.7818609E-02  0.8606513E-01
       -2   -1    0    0    0  501  0.00000000000E+00  0.00000000000E+00  0.12082415747E+04  0.12082415747E+04  0.25500000920E-02 0. -1.
        2   -1    0    0  501    0  0.00000000000E+00  0.00000000000E+00 -0.82784033062E+03  0.82784033063E+03  0.25500000920E-02 0.  1.
    10030    2    1    2    0    0  0.00000000000E+00  0.00000000000E+00  0.38040124409E+03  0.20360819053E+04  0.20002310913E+04 0.  0.
        4    1    3    3  502    0  0.31081738470E+03 -0.93970146905E+03  0.44160745659E+02  0.99075631814E+03  0.12699999809E+01 0.  1.
       -4    1    3    3    0  502 -0.31081738470E+03  0.93970146905E+03  0.33624049843E+03  0.10453255872E+04  0.12699999809E+01 0. -1.
</event>
<event>
 5   0  0.2142551E-05  0.2000252E+04  0.7818609E-02  0.8606503E-01
       -1   -1    0    0    0  501  0.00000000000E+00  0.00000000000E+00  0.49544010439E+03  0.49544010441E+03  0.50400001928E-02 0.  1.
        1   -1    0    0  501    0  0.00000000000E+00  0.00000000000E+00 -0.20189164265E+04  0.20189164265E+04  0.50400001928E-02 0. -1.
    10030    2    1    2    0    0  0.00000000000E+00  0.00000000000E+00 -0.15234763221E+04  0.25143565310E+04  0.20002521493E+04 0.  0.
        3    1    3    3  502    0  0.46547130175E+03  0.19148951335E+03 -0.18481119313E+04  0.19154241012E+04  0.10100000352E+00 0. -1.
       -3    1    3    3    0  502 -0.46547130175E+03 -0.19148951335E+03  0.32463560919E+03  0.59893242977E+03  0.10100000352E+00 0.  1.
</event>
<event>
 5   0  0.2110896E-05  0.1989086E+04  0.7818609E-02  0.8611740E-01
       -1   -1    0    0    0  501  0.00000000000E+00  0.00000000000E+00  0.67442894743E+03  0.67442894745E+03  0.50400001928E-02 0.  1.
        1   -1    0    0  501    0  0.00000000000E+00  0.00000000000E+00 -0.14665975482E+04  0.14665975482E+04  0.50400001928E-02 0. -1.
    10030    2    1    2    0    0  0.00000000000E+00  0.00000000000E+00 -0.79216860080E+03  0.21410264957E+04  0.19890860623E+04 0.  0.
        4    1    3    3  502    0 -0.68827863288E+03  0.40497278734E+03 -0.10341410847E+04  0.13065909195E+04  0.12699999809E+01 0. -1.
       -4    1    3    3    0  502  0.68827863288E+03 -0.40497278734E+03  0.24197248387E+03  0.83443557620E+03  0.12699999809E+01 0.  1.
</event>
<event>
 5   0  0.4577279E-05  0.2003750E+04  0.7818609E-02  0.8604869E-01
       -2   -1    0    0    0  501  0.00000000000E+00  0.00000000000E+00  0.72442643140E+03  0.72442643140E+03  0.25500000920E-02 0.  1.
        2   -1    0    0  501    0  0.00000000000E+00  0.00000000000E+00 -0.13855838117E+04  0.13855838117E+04  0.25500000920E-02 0. -1.
    10030    2    1    2    0    0  0.00000000000E+00  0.00000000000E+00 -0.66115738032E+03  0.21100102431E+04  0.20037500205E+04 0.  0.
        1    1    3    3  502    0 -0.70482130246E+03  0.12409219437E+03  0.40773144627E+03  0.82366065428E+03  0.50400001928E-02 0.  1.
       -1    1    3    3    0  502  0.70482130246E+03 -0.12409219437E+03 -0.10688888266E+04  0.12863495889E+04  0.50400001928E-02 0. -1.
</event>
<event>
 5   0  0.2007644E-05  0.2001106E+04  0.7818609E-02  0.8606104E-01
        1   -1    0    0  501    0  0.00000000000E+00  0.00000000000E+00  0.89885395047E+03  0.89885395048E+03  0.50400001928E-02 0. -1.
       -1   -1    0    0    0  501  0.00000000000E+00  0.00000000000E+00 -0.11137581153E+04  0.11137581153E+04  0.50400001928E-02 0.  1.
    10030    2    1    2    0    0  0.00000000000E+00  0.00000000000E+00 -0.21490416484E+03  0.20126120658E+04  0.20011055763E+04 0.  0.
        1    1    3    3  502    0  0.94387955251E+03 -0.31502986307E+03 -0.21271264445E+03  0.10175456223E+04  0.50400001928E-02 0.  1.
       -1    1    3    3    0  502 -0.94387955251E+03  0.31502986307E+03 -0.21915203920E+01  0.99506644354E+03  0.50400001928E-02 0. -1.
</event>
<event>
 5   0  0.4412054E-05  0.1999145E+04  0.7818609E-02  0.8607021E-01
        2   -1    0    0  501    0  0.00000000000E+00  0.00000000000E+00  0.70526773790E+03  0.70526773790E+03  0.25500000920E-02 0.  1.
       -2   -1    0    0    0  501  0.00000000000E+00  0.00000000000E+00 -0.14166888975E+04  0.14166888975E+04  0.25500000920E-02 0. -1.
    10030    2    1    2    0    0  0.00000000000E+00  0.00000000000E+00 -0.71142115964E+03  0.21219566354E+04  0.19991447912E+04 0.  0.
        4    1    3    3  502    0 -0.66168922949E+03 -0.74057758527E+03 -0.23536286786E+03  0.10206297510E+04  0.12699999809E+01 0. -1.
       -4    1    3    3    0  502  0.66168922949E+03  0.74057758527E+03 -0.47605829178E+03  0.11013268844E+04  0.12699999809E+01 0.  1.
</event>
<event>
 5   0  0.4447313E-05  0.2002221E+04  0.7818609E-02  0.8605583E-01
       -2   -1    0    0    0  501  0.00000000000E+00  0.00000000000E+00  0.89269126592E+03  0.89269126592E+03  0.25500000920E-02 0.  1.
        2   -1    0    0  501    0  0.00000000000E+00  0.00000000000E+00 -0.11226978225E+04  0.11226978225E+04  0.25500000920E-02 0. -1.
    10030    2    1    2    0    0  0.00000000000E+00  0.00000000000E+00 -0.23000655658E+03  0.20153890884E+04  0.20022213069E+04 0.  0.
        5    1    3    3  502    0  0.62878551597E+03  0.61842033134E+03 -0.59181205092E+03  0.10621104109E+04  0.46999998093E+01 0. -1.
       -5    1    3    3    0  502 -0.62878551597E+03 -0.61842033134E+03  0.36180549433E+03  0.95327867753E+03  0.46999998093E+01 0.  1.
</event>
<event>
 5   0  0.4447313E-05  0.1999990E+04  0.7818609E-02  0.8606625E-01
        2   -1    0    0  501    0  0.00000000000E+00  0.00000000000E+00  0.65077472317E+03  0.65077472317E+03  0.25500000920E-02 0. -1.
       -2   -1    0    0    0  501  0.00000000000E+00  0.00000000000E+00 -0.15366146599E+04  0.15366146599E+04  0.25500000920E-02 0.  1.
    10030    2    1    2    0    0  0.00000000000E+00  0.00000000000E+00 -0.88583993675E+03  0.21873893831E+04  0.19999899799E+04 0.  0.
        5    1    3    3  502    0 -0.92620236713E+03 -0.21947055180E+03 -0.10768749926E+03  0.95793362791E+03  0.46999998093E+01 0.  1.
       -5    1    3    3    0  502  0.92620236713E+03  0.21947055180E+03 -0.77815243749E+03  0.12294557552E+04  0.46999998093E+01 0. -1.
</event>
<event>
 5   0  0.2110896E-05  0.2020073E+04  0.7818609E-02  0.8597293E-01
        1   -1    0    0  501    0  0.00000000000E+00  0.00000000000E+00  0.18847991597E+04  0.18847991597E+04  0.50400001928E-02 0. -1.
       -1   -1    0    0    0  501  0.00000000000E+00  0.00000000000E+00 -0.54126388259E+03  0.54126388262E+03  0.50400001928E-02 0.  1.
    10030    2    1    2    0    0  0.00000000000E+00  0.00000000000E+00  0.13435352771E+04  0.24260630423E+04  0.20200729800E+04 0.  0.
        4    1    3    3  502    0  0.46607112106E+03  0.65648857079E+03  0.14042387097E+04  0.16186684343E+04  0.12699999809E+01 0. -1.
       -4    1    3    3    0  502 -0.46607112106E+03 -0.65648857079E+03 -0.60703432579E+02  0.80739460804E+03  0.12699999809E+01 0.  1.
</event>
<event>
 5   0  0.2110896E-05  0.1990699E+04  0.7818609E-02  0.8610981E-01
        1   -1    0    0  501    0  0.00000000000E+00  0.00000000000E+00  0.94157989718E+03  0.94157989719E+03  0.50400001928E-02 0.  1.
       -1   -1    0    0    0  501  0.00000000000E+00  0.00000000000E+00 -0.10521899971E+04  0.10521899971E+04  0.50400001928E-02 0. -1.
    10030    2    1    2    0    0  0.00000000000E+00  0.00000000000E+00 -0.11061009990E+03  0.19937698943E+04  0.19906993236E+04 0.  0.
        4    1    3    3  502    0  0.31783729640E+02  0.98204928690E+03  0.10396328198E+03  0.98804907989E+03  0.12699999809E+01 0.  1.
       -4    1    3    3    0  502 -0.31783729640E+02 -0.98204928690E+03 -0.21457338189E+03  0.10057208144E+04  0.12699999809E+01 0. -1.
</event>
<event>
 5   0  0.2007644E-05  0.1999880E+04  0.7818609E-02  0.8606677E-01
        1   -1    0    0  501    0  0.00000000000E+00  0.00000000000E+00  0.18474991447E+04  0.18474991447E+04  0.50400001928E-02 0.  1.
       -1   -1    0    0    0  501  0.00000000000E+00  0.00000000000E+00 -0.54120725103E+03  0.54120725105E+03  0.50400001928E-02 0. -1.
    10030    2    1    2    0    0  0.00000000000E+00  0.00000000000E+00  0.13062918937E+04  0.23887063958E+04  0.19998799298E+04 0.  0.
        1    1    3    3  502    0 -0.27887398502E+03  0.93030172212E+03  0.36886293367E+03  0.10388897235E+04  0.50400001928E-02 0. -1.
       -1    1    3    3    0  502  0.27887398502E+03 -0.93030172212E+03  0.93742896000E+03  0.13498166723E+04  0.50400001928E-02 0.  1.
</event>
<event>
 5   0  0.4447313E-05  0.2004560E+04  0.7818609E-02  0.8604492E-01
        2   -1    0    0  501    0  0.00000000000E+00  0.00000000000E+00  0.17379180982E+04  0.17379180982E+04  0.25500000920E-02 0.  1.
       -2   -1    0    0    0  501  0.00000000000E+00  0.00000000000E+00 -0.57802808390E+03  0.57802808391E+03  0.25500000920E-02 0. -1.
    10030    2    1    2    0    0  0.00000000000E+00  0.00000000000E+00  0.11598900143E+04  0.23159461821E+04  0.20045602693E+04 0.  0.
        5    1    3    3  502    0  0.63116734086E+03 -0.74452715402E+03  0.84302374403E+03  0.12897302114E+04  0.46999998093E+01 0.  1.
       -5    1    3    3    0  502 -0.63116734086E+03  0.74452715402E+03  0.31686627024E+03  0.10262159707E+04  0.46999998093E+01 0. -1.
</event>
<event>
 5   0  0.4412054E-05  0.1980777E+04  0.7818609E-02  0.8615661E-01
        2   -1    0    0  501    0  0.00000000000E+00  0.00000000000E+00  0.21947108894E+04  0.21947108894E+04  0.25500000920E-02 0.  1.
       -2   -1    0    0    0  501  0.00000000000E+00  0.00000000000E+00 -0.44692427654E+03  0.44692427655E+03  0.25500000920E-02 0. -1.
    10030    2    1    2    0    0  0.00000000000E+00  0.00000000000E+00  0.17477866129E+04  0.26416351660E+04  0.19807771974E+04 0.  0.
        4    1    3    3  502    0  0.20993218993E+03  0.84577097577E+03  0.24627934038E+03  0.90556898921E+03  0.12699999809E+01 0. -1.
       -4    1    3    3    0  502 -0.20993218993E+03 -0.84577097577E+03  0.15015072725E+04  0.17360661768E+04  0.12699999809E+01 0.  1.
</event>
<event>
 5   0  0.4577279E-05  0.2005418E+04  0.7818609E-02  0.8604092E-01
       -2   -1    0    0    0  501  0.00000000000E+00  0.00000000000E+00  0.93127246159E+03  0.93127246159E+03  0.25500000920E-02 0.  1.
        2   -1    0    0  501    0  0.00000000000E+00  0.00000000000E+00 -0.10796254103E+04  0.10796254103E+04  0.25500000920E-02 0. -1.
    10030    2    1    2    0    0  0.00000000000E+00  0.00000000000E+00 -0.14835294875E+03  0.20108978719E+04  0.20054180746E+04 0.  0.
        1    1    3    3  502    0  0.93814676129E+03 -0.33950467041E+03  0.26310363036E+02  0.99803557160E+03  0.50400001928E-02 0.  1.
       -1    1    3    3    0  502 -0.93814676129E+03  0.33950467041E+03 -0.17466331179E+03  0.10128623003E+04  0.50400001928E-02 0. -1.
</event>
<event>
 5   0  0.4577279E-05  0.1996109E+04  0.7818609E-02  0.8608442E-01
       -2   -1    0    0    0  501  0.00000000000E+00  0.00000000000E+00  0.11059598678E+04  0.11059598678E+04  0.25500000920E-02 0. -1.
        2   -1    0    0  501    0  0.00000000000E+00  0.00000000000E+00 -0.90067723602E+03  0.90067723602E+03  0.25500000920E-02 0.  1.
    10030    2    1    2    0    0  0.00000000000E+00  0.00000000000E+00  0.20528263182E+03  0.20066371039E+04  0.19961090921E+04 0.  0.
        1    1    3    3  502    0 -0.41174690536E+03  0.22539481142E+03 -0.78278479953E+03  0.91273784708E+03  0.50400001928E-02 0.  1.
       -1    1    3    3    0  502  0.41174690536E+03 -0.22539481142E+03  0.98806743135E+03  0.10938992568E+04  0.50400001928E-02 0. -1.
</event>
<event>
 5   0  0.2093980E-05  0.2007450E+04  0.7818609E-02  0.8603145E-01
        1   -1    0    0  501    0  0.00000000000E+00  0.00000000000E+00  0.12547020062E+04  0.12547020062E+04  0.50400001928E-02 0.  1.
       -1   -1    0    0    0  501  0.00000000000E+00  0.00000000000E+00 -0.80295084721E+03  0.80295084723E+03  0.50400001928E-02 0. -1.
    10030    2    1    2    0    0  0.00000000000E+00  0.00000000000E+00  0.45175115897E+03  0.20576528534E+04  0.20074501627E+04 0.  0.
        2    1    3    3  502    0  0.89260540998E+03 -0.19175838409E+03  0.65337692183E+03  0.11226829908E+04  0.25500000920E-02 0.  1.
       -2    1    3    3    0  502 -0.89260540998E+03  0.19175838409E+03 -0.20162576286E+03  0.93496986264E+03  0.25500000920E-02 0. -1.
</event>
<event>
 5   0  0.2256868E-05  0.1986905E+04  0.7818609E-02  0.8612768E-01
       -1   -1    0    0    0  501  0.00000000000E+00  0.00000000000E+00  0.13823602586E+04  0.13823602586E+04  0.50400001928E-02 0.  1.
        1   -1    0    0  501    0  0.00000000000E+00  0.00000000000E+00 -0.71395858599E+03  0.71395858600E+03  0.50400001928E-02 0. -1.
    10030    2    1    2    0    0  0.00000000000E+00  0.00000000000E+00  0.66840167261E+03  0.20963188446E+04  0.19869051065E+04 0.  0.
        5    1    3    3  502    0 -0.18767834660E+03  0.53131211647E+03  0.11974305118E+04  0.13233962549E+04  0.46999998093E+01 0.  1.
       -5    1    3    3    0  502  0.18767834660E+03 -0.53131211647E+03 -0.52902883924E+03  0.77292258967E+03  0.46999998093E+01 0. -1.
</event>
<event>
 5   0  0.4447313E-05  0.1997714E+04  0.7818609E-02  0.8607690E-01
       -2   -1    0    0    0  501  0.00000000000E+00  0.00000000000E+00  0.11960277323E+04  0.11960277323E+04  0.25500000920E-02 0.  1.
        2   -1    0    0  501    0  0.00000000000E+00  0.00000000000E+00 -0.83419099156E+03  0.83419099157E+03  0.25500000920E-02 0. -1.
    10030    2    1    2    0    0  0.00000000000E+00  0.00000000000E+00  0.36183674074E+03  0.20302187239E+04  0.19977142538E+04 0.  0.
        5    1    3    3  502    0 -0.46926744372E+03 -0.86708155396E+03  0.34368395570E+03  0.10441183392E+04  0.46999998093E+01 0.  1.
       -5    1    3    3    0  502  0.46926744372E+03  0.86708155396E+03  0.18152785038E+02  0.98610038462E+03  0.46999998093E+01 0. -1.
</event>
<event>
 5   0  0.2110896E-05  0.2026196E+04  0.7818609E-02  0.8594470E-01
        1   -1    0    0  501    0  0.00000000000E+00  0.00000000000E+00  0.22955521288E+04  0.22955521288E+04  0.50400001928E-02 0.  1.
       -1   -1    0    0    0  501  0.00000000000E+00  0.00000000000E+00 -0.44711133342E+03  0.44711133345E+03  0.50400001928E-02 0. -1.
    10030    2    1    2    0    0  0.00000000000E+00  0.00000000000E+00  0.18484407954E+04  0.27426634623E+04  0.20261958181E+04 0.  0.
        4    1    3    3  502    0 -0.33728200926E+03  0.93967118090E+03  0.69124077990E+03  0.12143131848E+04  0.12699999809E+01 0. -1.
       -4    1    3    3    0  502  0.33728200926E+03 -0.93967118090E+03  0.11572000155E+04  0.15283502775E+04  0.12699999809E+01 0.  1.
</event>
<event>
 5   0  0.4473361E-05  0.2001726E+04  0.7818609E-02  0.8605814E-01
       -2   -1    0    0    0  501  0.00000000000E+00  0.00000000000E+00  0.66419584263E+03  0.66419584264E+03  0.25500000920E-02 0. -1.
        2   -1    0    0  501    0  0.00000000000E+00  0.00000000000E+00 -0.15081803535E+04  0.15081803535E+04  0.25500000920E-02 0.  1.
    10030    2    1    2    0    0  0.00000000000E+00  0.00000000000E+00 -0.84398451090E+03  0.21723761962E+04  0.20017263757E+04 0.  0.
        2    1    3    3  502    0  0.17897506430E+03  0.46020316612E+03 -0.13667894520E+04  0.14532489236E+04  0.25500000920E-02 0.  1.
       -2    1    3    3    0  502 -0.17897506430E+03 -0.46020316612E+03  0.52280494110E+03  0.71912727260E+03  0.25500000920E-02 0. -1.
</event>
<event>
 5   0  0.2007644E-05  0.1984224E+04  0.7818609E-02  0.8614032E-01
        1   -1    0    0  501    0  0.00000000000E+00  0.00000000000E+00  0.15008744700E+04  0.15008744700E+04  0.50400001928E-02 0. -1.
       -1   -1    0    0    0  501  0.00000000000E+00  0.00000000000E+00 -0.65580833488E+03  0.65580833490E+03  0.50400001928E-02 0.  1.
    10030    2    1    2    0    0  0.00000000000E+00  0.00000000000E+00  0.84506613511E+03  0.21566828049E+04  0.19842237647E+04 0.  0.
        1    1    3    3  502    0  0.53200656358E+03 -0.19468106641E+02  0.13324803287E+04  0.14348915699E+04  0.50400001928E-02 0. -1.
       -1    1    3    3    0  502 -0.53200656358E+03  0.19468106641E+02 -0.48741419358E+03  0.72179123505E+03  0.50400001928E-02 0.  1.
</event>
<event>
 5   0  0.4514680E-05  0.1998165E+04  0.7818609E-02  0.8607479E-01
        2   -1    0    0  501    0  0.00000000000E+00  0.00000000000E+00  0.66560335307E+03  0.66560335308E+03  0.25500000920E-02 0.  1.
       -2   -1    0    0    0  501  0.00000000000E+00  0.00000000000E+00 -0.14996410050E+04  0.14996410050E+04  0.25500000920E-02 0. -1.
    10030    2    1    2    0    0  0.00000000000E+00  0.00000000000E+00 -0.83403765193E+03  0.21652443581E+04  0.19981652398E+04 0.  0.
        3    1    3    3  502    0 -0.56089632022E+03  0.22964616357E+03 -0.12776748835E+04  0.14141411389E+04  0.10100000352E+00 0. -1.
       -3    1    3    3    0  502  0.56089632022E+03 -0.22964616357E+03  0.44363723157E+03  0.75110321922E+03  0.10100000352E+00 0.  1.
</event>
<event>
 5   0  0.4447313E-05  0.1999940E+04  0.7818609E-02  0.8606649E-01
        2   -1    0    0  501    0  0.00000000000E+00  0.00000000000E+00  0.16955720820E+04  0.16955720820E+04  0.25500000920E-02 0. -1.
       -2   -1    0    0    0  501  0.00000000000E+00  0.00000000000E+00 -0.58973594647E+03  0.58973594647E+03  0.25500000920E-02 0.  1.
    10030    2    1    2    0    0  0.00000000000E+00  0.00000000000E+00  0.11058361355E+04  0.22853080284E+04  0.19999398057E+04 0.  0.
        5    1    3    3  502    0 -0.47745780043E+03 -0.52069447818E+03 -0.25575423050E+03  0.75134613010E+03  0.46999998093E+01 0.  1.
       -5    1    3    3    0  502  0.47745780043E+03  0.52069447818E+03  0.13615903660E+04  0.15339618983E+04  0.46999998093E+01 0. -1.
</event>
<event>
 5   0  0.2007644E-05  0.2007878E+04  0.7818609E-02  0.8602946E-01
       -1   -1    0    0    0  501  0.00000000000E+00  0.00000000000E+00  0.97266485992E+03  0.97266485993E+03  0.50400001928E-02 0.  1.
        1   -1    0    0  501    0  0.00000000000E+00  0.00000000000E+00 -0.10362189801E+04  0.10362189801E+04  0.50400001928E-02 0. -1.
    10030    2    1    2    0    0  0.00000000000E+00  0.00000000000E+00 -0.63554120161E+02  0.20088838400E+04  0.20078782723E+04 0.  0.
        1    1    3    3  502    0  0.45163817465E+03  0.30808352690E+03  0.81066677662E+03  0.97778991766E+03  0.50400001928E-02 0.  1.
       -1    1    3    3    0  502 -0.45163817465E+03 -0.30808352690E+03 -0.87422089678E+03  0.10310939224E+04  0.50400001928E-02 0. -1.
</event>
<event>
 5   0  0.2110896E-05  0.1991539E+04  0.7818609E-02  0.8610587E-01
        1   -1    0    0  501    0  0.00000000000E+00  0.00000000000E+00  0.13311349545E+04  0.13311349545E+04  0.50400001928E-02 0. -1.
       -1   -1    0    0    0  501  0.00000000000E+00  0.00000000000E+00 -0.74489600836E+03  0.74489600838E+03  0.50400001928E-02 0.  1.
    10030    2    1    2    0    0  0.00000000000E+00  0.00000000000E+00  0.58623894611E+03  0.20760309629E+04  0.19915392180E+04 0.  0.
        4    1    3    3  502    0 -0.64789826791E+03  0.63752851939E+03  0.71699161962E+03  0.11577104017E+04  0.12699999809E+01 0. -1.
       -4    1    3    3    0  502  0.64789826791E+03 -0.63752851939E+03 -0.13075267352E+03  0.91832056120E+03  0.12699999809E+01 0.  1.
</event>
<event>
 5   0  0.2256868E-05  0.1997106E+04  0.7818609E-02  0.8607975E-01
       -1   -1    0    0    0  501  0.00000000000E+00  0.00000000000E+00  0.10101149558E+04  0.10101149558E+04  0.50400001928E-02 0. -1.
        1   -1    0    0  501    0  0.00000000000E+00  0.00000000000E+00 -0.98712318710E+03  0.98712318711E+03  0.50400001928E-02 0.  1.
    10030    2    1    2    0    0  0.00000000000E+00  0.00000000000E+00  0.22991768665E+02  0.19972381429E+04  0.19971058004E+04 0.  0.
        5    1    3    3  502    0 -0.58496476686E+02 -0.84029613427E+03 -0.52479180629E+03  0.99244544485E+03  0.46999998093E+01 0.  1.
       -5    1    3    3    0  502  0.58496476686E+02  0.84029613427E+03  0.54778357495E+03  0.10047926980E+04  0.46999998093E+01 0. -1.
</event>
<event>
 5   0  0.2256868E-05  0.1998284E+04  0.7818609E-02  0.8607423E-01
        1   -1    0    0  501    0  0.00000000000E+00  0.00000000000E+00  0.13289292324E+04  0.13289292324E+04  0.50400001928E-02 0. -1.
       -1   -1    0    0    0  501  0.00000000000E+00  0.00000000000E+00 -0.75119495858E+03  0.75119495859E+03  0.50400001928E-02 0.  1.
    10030    2    1    2    0    0  0.00000000000E+00  0.00000000000E+00  0.57773427380E+03  0.20801241910E+04  0.19982842037E+04 0.  0.
        5    1    3    3  502    0  0.26206626852E+03  0.90830554279E+03 -0.47741701950E+02  0.94657226257E+03  0.46999998093E+01 0.  1.
       -5    1    3    3    0  502 -0.26206626852E+03 -0.90830554279E+03  0.62547597575E+03  0.11335519284E+04  0.46999998093E+01 0. -1.
</event>
<event>
 5   0  0.4447313E-05  0.2001290E+04  0.7818609E-02  0.8606018E-01
        2   -1    0    0  501    0  0.00000000000E+00  0.00000000000E+00  0.11584983501E+04  0.11584983501E+04  0.25500000920E-02 0. -1.
       -2   -1    0    0    0  501  0.00000000000E+00  0.00000000000E+00 -0.86430061596E+03  0.86430061597E+03  0.25500000920E-02 0.  1.
    10030    2    1    2    0    0  0.00000000000E+00  0.00000000000E+00  0.29419773413E+03  0.20227989661E+04  0.20012904213E+04 0.  0.
        5    1    3    3  502    0  0.83645757326E+02  0.88631438012E+03 -0.31466883312E+03  0.94423956582E+03  0.46999998093E+01 0. -1.
       -5    1    3    3    0  502 -0.83645757326E+02 -0.88631438012E+03  0.60886656725E+03  0.10785594002E+04  0.46999998093E+01 0.  1.
</event>
<event>
 5   0  0.4447313E-05  0.1977449E+04  0.7818609E-02  0.8617237E-01
       -2   -1    0    0    0  501  0.00000000000E+00  0.00000000000E+00  0.42417014436E+03  0.42417014437E+03  0.25500000920E-02 0. -1.
        2   -1    0    0  501    0  0.00000000000E+00  0.00000000000E+00 -0.23046785465E+04  0.23046785465E+04  0.25500000920E-02 0.  1.
    10030    2    1    2    0    0  0.00000000000E+00  0.00000000000E+00 -0.18805084022E+04  0.27288486909E+04  0.19774486914E+04 0.  0.
        5    1    3    3  502    0 -0.58734528196E+03  0.40434219907E+03  0.48958614438E+01  0.71310108234E+03  0.46999998093E+01 0. -1.
       -5    1    3    3    0  502  0.58734528196E+03 -0.40434219907E+03 -0.18854042636E+04  0.20157476085E+04  0.46999998093E+01 0.  1.
</event>
<event>
 5   0  0.4514680E-05  0.1992807E+04  0.7818609E-02  0.8609991E-01
        2   -1    0    0  501    0  0.00000000000E+00  0.00000000000E+00  0.19300181404E+04  0.19300181404E+04  0.25500000920E-02 0.  1.
       -2   -1    0    0    0  501  0.00000000000E+00  0.00000000000E+00 -0.51440967164E+03  0.51440967165E+03  0.25500000920E-02 0. -1.
    10030    2    1    2    0    0  0.00000000000E+00  0.00000000000E+00  0.14156084687E+04  0.24444278120E+04  0.19928070633E+04 0.  0.
        3    1    3    3  502    0  0.19170605407E+03 -0.85543074465E+03  0.12686140838E+03  0.88578033236E+03  0.10100000352E+00 0.  1.
       -3    1    3    3    0  502 -0.19170605407E+03  0.85543074465E+03  0.12887470604E+04  0.15586474797E+04  0.10100000352E+00 0. -1.
</event>
<event>
 5   0  0.4447313E-05  0.1982923E+04  0.7818609E-02  0.8614646E-01
        2   -1    0    0  501    0  0.00000000000E+00  0.00000000000E+00  0.17779297228E+04  0.17779297228E+04  0.25500000920E-02 0. -1.
       -2   -1    0    0    0  501  0.00000000000E+00  0.00000000000E+00 -0.55288812615E+03  0.55288812616E+03  0.25500000920E-02 0.  1.
    10030    2    1    2    0    0  0.00000000000E+00  0.00000000000E+00  0.12250415966E+04  0.23308178489E+04  0.19829233297E+04 0.  0.
        5    1    3    3  502    0  0.54018831028E+03 -0.73636980780E+03  0.15889906344E+03  0.92699239844E+03  0.46999998093E+01 0.  1.
       -5    1    3    3    0  502 -0.54018831028E+03  0.73636980780E+03  0.10661425332E+04  0.14038254505E+04  0.46999998093E+01 0. -1.
</event>
<event>
 5   0  0.2093980E-05  0.2008675E+04  0.7818609E-02  0.8602576E-01
       -1   -1    0    0    0  501  0.00000000000E+00  0.00000000000E+00  0.84639047681E+03  0.84639047682E+03  0.50400001928E-02 0.  1.
        1   -1    0    0  501    0  0.00000000000E+00  0.00000000000E+00 -0.11917594420E+04  0.11917594420E+04  0.50400001928E-02 0. -1.
    10030    2    1    2    0    0  0.00000000000E+00  0.00000000000E+00 -0.34536896522E+03  0.20381499189E+04  0.20086750284E+04 0.  0.
        2    1    3    3  502    0  0.60042265332E+03 -0.55706746762E+03 -0.76247301361E+03  0.11190159170E+04  0.25500000920E-02 0.  1.
       -2    1    3    3    0  502 -0.60042265332E+03  0.55706746762E+03  0.41710404839E+03  0.91913400182E+03  0.25500000920E-02 0. -1.
</event>
<event>
 5   0  0.4514680E-05  0.1996568E+04  0.7818609E-02  0.8608227E-01
        2   -1    0    0  501    0  0.00000000000E+00  0.00000000000E+00  0.84416498406E+03  0.84416498406E+03  0.25500000920E-02 0. -1.
       -2   -1    0    0    0  501  0.00000000000E+00  0.00000000000E+00 -0.11805400750E+04  0.11805400750E+04  0.25500000920E-02 0.  1.
    10030    2    1    2    0    0  0.00000000000E+00  0.00000000000E+00 -0.33637509096E+03  0.20247050591E+04  0.19965676484E+04 0.  0.
        3    1    3    3  502    0 -0.41506768790E+03 -0.85667091165E+03 -0.47309805602E+03  0.10630089450E+04  0.10100000352E+00 0.  1.
       -3    1    3    3    0  502  0.41506768790E+03  0.85667091165E+03  0.13672296506E+03  0.96169611405E+03  0.10100000352E+00 0. -1.
</event>
<event>
 5   0  0.4412054E-05  0.2001289E+04  0.7818609E-02  0.8606018E-01
        2   -1    0    0  501    0  0.00000000000E+00  0.00000000000E+00  0.16688335196E+04  0.16688335196E+04  0.25500000920E-02 0. -1.
       -2   -1    0    0    0  501  0.00000000000E+00  0.00000000000E+00 -0.59999375080E+03  0.59999375081E+03  0.25500000920E-02 0.  1.
    10030    2    1    2    0    0  0.00000000000E+00  0.00000000000E+00  0.10688397688E+04  0.22688272704E+04  0.20012892673E+04 0.  0.
        4    1    3    3  502    0  0.80693208229E+03 -0.13218584565E+03  0.11883058754E+04  0.14424579542E+04  0.12699999809E+01 0. -1.
       -4    1    3    3    0  502 -0.80693208229E+03  0.13218584565E+03 -0.11946610662E+03  0.82636931620E+03  0.12699999809E+01 0.  1.
</event>
<event>
 5   0  0.4514680E-05  0.2004656E+04  0.7818609E-02  0.8604447E-01
        2   -1    0    0  501    0  0.00000000000E+00  0.00000000000E+00  0.79823659292E+03  0.79823659292E+03  0.25500000920E-02 0.  1.
       -2   -1    0    0    0  501  0.00000000000E+00  0.00000000000E+00 -0.12586005173E+04  0.12586005174E+04  0.25500000920E-02 0. -1.
    10030    2    1    2    0    0  0.00000000000E+00  0.00000000000E+00 -0.46036392443E+03  0.20568371103E+04  0.20046555702E+04 0.  0.
        3    1    3    3  502    0  0.46474641443E+03 -0.41936559793E+03 -0.10333769998E+04  0.12081907003E+04  0.10100000352E+00 0.  1.
       -3    1    3    3    0  502 -0.46474641443E+03  0.41936559793E+03  0.57301307534E+03  0.84864640997E+03  0.10100000352E+00 0. -1.
</event>
<event>
 5   0  0.2093980E-05  0.1999963E+04  0.7818609E-02  0.8606638E-01
       -1   -1    0    0    0  501  0.00000000000E+00  0.00000000000E+00  0.60624058728E+03  0.60624058730E+03  0.50400001928E-02 0.  1.
        1   -1    0    0  501    0  0.00000000000E+00  0.00000000000E+00 -0.16494488917E+04  0.16494488917E+04  0.50400001928E-02 0. -1.
    10030    2    1    2    0    0  0.00000000000E+00  0.00000000000E+00 -0.10432083044E+04  0.22556894790E+04  0.19999628645E+04 0.  0.
        2    1    3    3  502    0 -0.81163033294E+03  0.58404558592E+03 -0.53342367927E+03  0.11333110188E+04  0.25500000920E-02 0. -1.
       -2    1    3    3    0  502  0.81163033294E+03 -0.58404558592E+03 -0.50978462514E+03  0.11223784602E+04  0.25500000920E-02 0.  1.
</event>
<event>
 5   0  0.4473361E-05  0.2001519E+04  0.7818609E-02  0.8605911E-01
        2   -1    0    0  501    0  0.00000000000E+00  0.00000000000E+00  0.27524872872E+04  0.27524872872E+04  0.25500000920E-02 0.  1.
       -2   -1    0    0    0  501  0.00000000000E+00  0.00000000000E+00 -0.36385990521E+03  0.36385990522E+03  0.25500000920E-02 0. -1.
    10030    2    1    2    0    0  0.00000000000E+00  0.00000000000E+00  0.23886273820E+04  0.31163471925E+04  0.20015191865E+04 0.  0.
        2    1    3    3  502    0  0.91718705027E+03 -0.14731103064E+03  0.17739392700E+04  0.20024467930E+04  0.25500000920E-02 0.  1.
       -2    1    3    3    0  502 -0.91718705027E+03  0.14731103064E+03  0.61468811202E+03  0.11139003995E+04  0.25500000920E-02 0. -1.
</event>
<event>
 5   0  0.2110896E-05  0.2002386E+04  0.7818609E-02  0.8605506E-01
       -1   -1    0    0    0  501  0.00000000000E+00  0.00000000000E+00  0.86657477512E+03  0.86657477513E+03  0.50400001928E-02 0.  1.
        1   -1    0    0  501    0  0.00000000000E+00  0.00000000000E+00 -0.11567233305E+04  0.11567233305E+04  0.50400001928E-02 0. -1.
    10030    2    1    2    0    0  0.00000000000E+00  0.00000000000E+00 -0.29014855540E+03  0.20232981057E+04  0.20023858370E+04 0.  0.
        4    1    3    3  502    0 -0.53351794795E+03  0.63522852597E+03  0.42134133841E+03  0.93042292391E+03  0.12699999809E+01 0.  1.
       -4    1    3    3    0  502  0.53351794795E+03 -0.63522852597E+03 -0.71148989382E+03  0.10928751818E+04  0.12699999809E+01 0. -1.
</event>
<event>
 5   0  0.2110896E-05  0.2001411E+04  0.7818609E-02  0.8605961E-01
        1   -1    0    0  501    0  0.00000000000E+00  0.00000000000E+00  0.45648255563E+03  0.45648255566E+03  0.50400001928E-02 0. -1.
       -1   -1    0    0    0  501  0.00000000000E+00  0.00000000000E+00 -0.21937572744E+04  0.21937572744E+04  0.50400001928E-02 0.  1.
    10030    2    1    2    0    0  0.00000000000E+00  0.00000000000E+00 -0.17372747188E+04  0.26502398301E+04  0.20014114291E+04 0.  0.
        4    1    3    3  502    0 -0.38127773469E+03 -0.40014908234E+02 -0.20926578117E+04  0.21274849549E+04  0.12699999809E+01 0.  1.
       -4    1    3    3    0  502  0.38127773469E+03  0.40014908234E+02  0.35538309290E+03  0.52275487513E+03  0.12699999809E+01 0. -1.
</event>
<event>
 5   0  0.4412054E-05  0.1997667E+04  0.7818609E-02  0.8607712E-01
       -2   -1    0    0    0  501  0.00000000000E+00  0.00000000000E+00  0.78909474866E+03  0.78909474866E+03  0.25500000920E-02 0.  1.
        2   -1    0    0  501    0  0.00000000000E+00  0.00000000000E+00 -0.12643195803E+04  0.12643195803E+04  0.25500000920E-02 0. -1.
    10030    2    1    2    0    0  0.00000000000E+00  0.00000000000E+00 -0.47522483168E+03  0.20534143290E+04  0.19976665803E+04 0.  0.
        4    1    3    3  502    0  0.61924221150E+02 -0.72207919195E+03  0.46890661172E+03  0.86319638092E+03  0.12699999809E+01 0.  1.
       -4    1    3    3    0  502 -0.61924221150E+02  0.72207919195E+03 -0.94413144340E+03  0.11902179481E+04  0.12699999809E+01 0. -1.
</event>
<event>
 5   0  0.2142551E-05  0.1986722E+04  0.7818609E-02  0.8612854E-01
        1   -1    0    0  501    0  0.00000000000E+00  0.00000000000E+00  0.89049469773E+03  0.89049469775E+03  0.50400001928E-02 0. -1.
       -1   -1    0    0    0  501  0.00000000000E+00  0.00000000000E+00 -0.11081100310E+04  0.11081100310E+04  0.50400001928E-02 0.  1.
    10030    2    1    2    0    0  0.00000000000E+00  0.00000000000E+00 -0.21761533326E+03  0.19986047287E+04  0.19867220310E+04 0.  0.
        3    1    3    3  502    0  0.18584235898E+03  0.96924704438E+03 -0.22257198906E+03  0.10116894365E+04  0.10100000352E+00 0.  1.
       -3    1    3    3    0  502 -0.18584235898E+03 -0.96924704438E+03  0.49566558089E+01  0.98691529224E+03  0.10100000352E+00 0. -1.
</event>
<event>
 5   0  0.2093980E-05  0.2005013E+04  0.7818609E-02  0.8604280E-01
       -1   -1    0    0    0  501  0.00000000000E+00  0.00000000000E+00  0.82375669432E+03  0.82375669434E+03  0.50400001928E-02 0. -1.
        1   -1    0    0  501    0  0.00000000000E+00  0.00000000000E+00 -0.12200442628E+04  0.12200442628E+04  0.50400001928E-02 0.  1.
    10030    2    1    2    0    0  0.00000000000E+00  0.00000000000E+00 -0.39628756848E+03  0.20438009572E+04  0.20050133455E+04 0.  0.
        2    1    3    3  502    0  0.35580716153E+03 -0.93499652847E+03 -0.13206390813E+03  0.10090877664E+04  0.25500000920E-02 0.  1.
       -2    1    3    3    0  502 -0.35580716153E+03  0.93499652847E+03 -0.26422366035E+03  0.10347131908E+04  0.25500000920E-02 0. -1.
</event>
<event>
 5   0  0.4514680E-05  0.1998337E+04  0.7818609E-02  0.8607399E-01
       -2   -1    0    0    0  501  0.00000000000E+00  0.00000000000E+00  0.11751609575E+04  0.11751609575E+04  0.25500000920E-02 0. -1.
        2   -1    0    0  501    0  0.00000000000E+00  0.00000000000E+00 -0.84953273740E+03  0.84953273740E+03  0.25500000920E-02 0.  1.
    10030    2    1    2    0    0  0.00000000000E+00  0.00000000000E+00  0.32562822006E+03  0.20246936949E+04  0.19983370137E+04 0.  0.
        3    1    3    3  502    0  0.78083910217E+03 -0.58677422028E+03 -0.50495341712E+02  0.97804063249E+03  0.10100000352E+00 0.  1.
       -3    1    3    3    0  502 -0.78083910217E+03  0.58677422028E+03  0.37612356178E+03  0.10466530624E+04  0.10100000352E+00 0. -1.
</event>
<event>
 5   0  0.4514680E-05  0.1992717E+04  0.7818609E-02  0.8610033E-01
        2   -1    0    0  501    0  0.00000000000E+00  0.00000000000E+00  0.16427593516E+04  0.16427593516E+04  0.25500000920E-02 0.  1.
       -2   -1    0    0    0  501  0.00000000000E+00  0.00000000000E+00 -0.60430636125E+03  0.60430636126E+03  0.25500000920E-02 0. -1.
    10030    2    1    2    0    0  0.00000000000E+00  0.00000000000E+00  0.10384529904E+04  0.22470657129E+04  0.19927166645E+04 0.  0.
        3    1    3    3  502    0 -0.39519305015E+03  0.65011643927E+02 -0.50954024043E+03  0.64810132506E+03  0.10100000352E+00 0. -1.
       -3    1    3    3    0  502  0.39519305015E+03 -0.65011643927E+02  0.15479932308E+04  0.15989643878E+04  0.10100000352E+00 0.  1.
</event>
<event>
 5   0  0.4412054E-05  0.1995260E+04  0.7818609E-02  0.8608840E-01
       -2   -1    0    0    0  501  0.00000000000E+00  0.00000000000E+00  0.54394507898E+03  0.54394507899E+03  0.25500000920E-02 0.  1.
        2   -1    0    0  501    0  0.00000000000E+00  0.00000000000E+00 -0.18297178961E+04  0.18297178961E+04  0.25500000920E-02 0. -1.
    10030    2    1    2    0    0  0.00000000000E+00  0.00000000000E+00 -0.12857728171E+04  0.23736629750E+04  0.19952604296E+04 0.  0.
        4    1    3    3  502    0  0.48695759326E+02  0.11424478478E+02  0.54245151110E+03  0.54475411928E+03  0.12699999809E+01 0.  1.
       -4    1    3    3    0  502 -0.48695759326E+02 -0.11424478478E+02 -0.18282243282E+04  0.18289088558E+04  0.12699999809E+01 0. -1.
</event>
<event>
 5   0  0.2007644E-05  0.1999583E+04  0.7818609E-02  0.8606816E-01
       -1   -1    0    0    0  501  0.00000000000E+00  0.00000000000E+00  0.11659525729E+04  0.11659525730E+04  0.50400001928E-02 0.  1.
        1   -1    0    0  501    0  0.00000000000E+00  0.00000000000E+00 -0.85731008915E+03  0.85731008916E+03  0.50400001928E-02 0. -1.
    10030    2    1    2    0    0  0.00000000000E+00  0.00000000000E+00  0.30864248379E+03  0.20232626621E+04  0.19995828608E+04 0.  0.
        1    1    3    3  502    0  0.50687619763E+02 -0.78922047631E+03 -0.46459611976E+03  0.91721739492E+03  0.50400001928E-02 0. -1.
       -1    1    3    3    0  502 -0.50687619763E+02  0.78922047631E+03  0.77323860355E+03  0.11060452672E+04  0.50400001928E-02 0.  1.
</event>
<event>
 5   0  0.4412054E-05  0.1992253E+04  0.7818609E-02  0.8610251E-01
        2   -1    0    0  501    0  0.00000000000E+00  0.00000000000E+00  0.13594104618E+04  0.13594104618E+04  0.25500000920E-02 0.  1.
       -2   -1    0    0    0  501  0.00000000000E+00  0.00000000000E+00 -0.72992542152E+03  0.72992542152E+03  0.25500000920E-02 0. -1.
    10030    2    1    2    0    0  0.00000000000E+00  0.00000000000E+00  0.62948504027E+03  0.20893358833E+04  0.19922532513E+04 0.  0.
        4    1    3    3  502    0  0.55672001271E+03 -0.14926343521E+02 -0.55140101471E+03  0.78371210288E+03  0.12699999809E+01 0. -1.
       -4    1    3    3    0  502 -0.55672001271E+03  0.14926343521E+02  0.11808860550E+04  0.13056237804E+04  0.12699999809E+01 0.  1.
</event>
<event>
 5   0  0.2142551E-05  0.1999692E+04  0.7818609E-02  0.8606765E-01
       -1   -1    0    0    0  501  0.00000000000E+00  0.00000000000E+00  0.77517584223E+03  0.77517584225E+03  0.50400001928E-02 0. -1.
        1   -1    0    0  501    0  0.00000000000E+00  0.00000000000E+00 -0.12896323096E+04  0.12896323096E+04  0.50400001928E-02 0.  1.
    10030    2    1    2    0    0  0.00000000000E+00  0.00000000000E+00 -0.51445646736E+03  0.20648081518E+04  0.19996917880E+04 0.  0.
        3    1    3    3  502    0  0.72674200299E+03  0.61759536304E+03 -0.56719302660E+03  0.11096332326E+04  0.10100000352E+00 0.  1.
       -3    1    3    3    0  502 -0.72674200299E+03 -0.61759536304E+03  0.52736559249E+02  0.95517491919E+03  0.10100000352E+00 0. -1.
</event>
<event>
 5   0  0.4514680E-05  0.1991141E+04  0.7818609E-02  0.8610774E-01
       -2   -1    0    0    0  501  0.00000000000E+00  0.00000000000E+00  0.19291872954E+04  0.19291872954E+04  0.25500000920E-02 0.  1.
        2   -1    0    0  501    0  0.00000000000E+00  0.00000000000E+00 -0.51377093294E+03  0.51377093294E+03  0.25500000920E-02 0. -1.
    10030    2    1    2    0    0  0.00000000000E+00  0.00000000000E+00  0.14154163624E+04  0.24429582283E+04  0.19911407349E+04 0.  0.
        3    1    3    3  502    0 -0.46002419821E+03  0.70244280787E+02  0.17875344848E+04  0.18471156072E+04  0.10100000352E+00 0.  1.
       -3    1    3    3    0  502  0.46002419821E+03 -0.70244280787E+02 -0.37211812236E+03  0.59584262109E+03  0.10100000352E+00 0. -1.
</event>
<event>
 5   0  0.4514680E-05  0.1992843E+04  0.7818609E-02  0.8609974E-01
       -2   -1    0    0    0  501  0.00000000000E+00  0.00000000000E+00  0.12085075095E+04  0.12085075095E+04  0.25500000920E-02 0.  1.
        2   -1    0    0  501    0  0.00000000000E+00  0.00000000000E+00 -0.82155553798E+03  0.82155553798E+03  0.25500000920E-02 0. -1.
    10030    2    1    2    0    0  0.00000000000E+00  0.00000000000E+00  0.38695197152E+03  0.20300630475E+04  0.19928432323E+04 0.  0.
        3    1    3    3  502    0 -0.97354765441E+03  0.14991935720E+03  0.40385519019E+02  0.98585082514E+03  0.10100000352E+00 0. -1.
       -3    1    3    3    0  502  0.97354765441E+03 -0.14991935720E+03  0.34656645250E+03  0.10442122223E+04  0.10100000352E+00 0.  1.
</event>
<event>
 5   0  0.2110896E-05  0.1996126E+04  0.7818609E-02  0.8608434E-01
        1   -1    0    0  501    0  0.00000000000E+00  0.00000000000E+00  0.12715150794E+04  0.12715150794E+04  0.50400001928E-02 0. -1.
       -1   -1    0    0    0  501  0.00000000000E+00  0.00000000000E+00 -0.78341915424E+03  0.78341915425E+03  0.50400001928E-02 0.  1.
    10030    2    1    2    0    0  0.00000000000E+00  0.00000000000E+00  0.48809592519E+03  0.20549342337E+04  0.19961255152E+04 0.  0.
        4    1    3    3  502    0 -0.92477276183E+03  0.26675763977E+03  0.51595707547E+03  0.10920520207E+04  0.12699999809E+01 0.  1.
       -4    1    3    3    0  502  0.92477276183E+03 -0.26675763977E+03 -0.27861150280E+02  0.96288221294E+03  0.12699999809E+01 0. -1.
</event>
<event>
 5   0  0.2007644E-05  0.2002785E+04  0.7818609E-02  0.8605320E-01
        1   -1    0    0  501    0  0.00000000000E+00  0.00000000000E+00  0.13875194819E+04  0.13875194819E+04  0.50400001928E-02 0. -1.
       -1   -1    0    0    0  501  0.00000000000E+00  0.00000000000E+00 -0.72271925488E+03  0.72271925490E+03  0.50400001928E-02 0.  1.
    10030    2    1    2    0    0  0.00000000000E+00  0.00000000000E+00  0.66480022699E+03  0.21102387368E+04  0.20027851069E+04 0.  0.
        1    1    3    3  502    0 -0.80555113761E+03  0.18150870028E+03 -0.26450008158E+03  0.86707458547E+03  0.50400001928E-02 0.  1.
       -1    1    3    3    0  502  0.80555113761E+03 -0.18150870028E+03  0.92930030857E+03  0.12431641513E+04  0.50400001928E-02 0. -1.
</event>
<event>
 5   0  0.4577279E-05  0.1997461E+04  0.7818609E-02  0.8607809E-01
       -2   -1    0    0    0  501  0.00000000000E+00  0.00000000000E+00  0.18035738313E+04  0.18035738313E+04  0.25500000920E-02 0.  1.
        2   -1    0    0  501    0  0.00000000000E+00  0.00000000000E+00 -0.55304776598E+03  0.55304776599E+03  0.25500000920E-02 0. -1.
    10030    2    1    2    0    0  0.00000000000E+00  0.00000000000E+00  0.12505260653E+04  0.23566215973E+04  0.19974608664E+04 0.  0.
        1    1    3    3  502    0  0.52431804369E+03 -0.66409985065E+03  0.12512562644E+04  0.15104900734E+04  0.50400001928E-02 0. -1.
       -1    1    3    3    0  502 -0.52431804369E+03  0.66409985065E+03 -0.73019906491E+00  0.84613152393E+03  0.50400001928E-02 0.  1.
</event>
<event>
 5   0  0.2110896E-05  0.1999630E+04  0.7818609E-02  0.8606794E-01
        1   -1    0    0  501    0  0.00000000000E+00  0.00000000000E+00  0.10605003496E+04  0.10605003496E+04  0.50400001928E-02 0. -1.
       -1   -1    0    0    0  501  0.00000000000E+00  0.00000000000E+00 -0.94260212313E+03  0.94260212315E+03  0.50400001928E-02 0.  1.
    10030    2    1    2    0    0  0.00000000000E+00  0.00000000000E+00  0.11789822645E+03  0.20031024727E+04  0.19996298469E+04 0.  0.
        4    1    3    3  502    0  0.26394650422E+03 -0.86149953399E+03  0.49303647488E+03  0.10271006682E+04  0.12699999809E+01 0. -1.
       -4    1    3    3    0  502 -0.26394650422E+03  0.86149953399E+03 -0.37513824842E+03  0.97600180455E+03  0.12699999809E+01 0.  1.
</event>
<event>
 5   0  0.4447313E-05  0.1998527E+04  0.7818609E-02  0.8607310E-01
        2   -1    0    0  501    0  0.00000000000E+00  0.00000000000E+00  0.51417651689E+03  0.51417651690E+03  0.25500000920E-02 0.  1.
       -2   -1    0    0    0  501  0.00000000000E+00  0.00000000000E+00 -0.19419938307E+04  0.19419938307E+04  0.25500000920E-02 0. -1.
    10030    2    1    2    0    0  0.00000000000E+00  0.00000000000E+00 -0.14278173138E+04  0.24561703476E+04  0.19985270813E+04 0.  0.
        5    1    3    3  502    0 -0.85471325283E+03  0.45484597422E+02 -0.80171458235E+02  0.85968200276E+03  0.46999998093E+01 0.  1.
       -5    1    3    3    0  502  0.85471325283E+03 -0.45484597422E+02 -0.13476458556E+04  0.15964883448E+04  0.46999998093E+01 0. -1.
</event>
<event>
 5   0  0.2093980E-05  0.2006699E+04  0.7818609E-02  0.8603495E-01
       -1   -1    0    0    0  501  0.00000000000E+00  0.00000000000E+00  0.11037084501E+04  0.11037084502E+04  0.50400001928E-02 0. -1.
        1   -1    0    0  501    0  0.00000000000E+00  0.00000000000E+00 -0.91211588423E+03  0.91211588425E+03  0.50400001928E-02 0.  1.
    10030    2    1    2    0    0  0.00000000000E+00  0.00000000000E+00  0.19159256591E+03  0.20158243344E+04  0.20066987905E+04 0.  0.
        2    1    3    3  502    0  0.72789198347E+03  0.49650079861E+03 -0.38635538018E+03  0.96208641110E+03  0.25500000920E-02 0.  1.
       -2    1    3    3    0  502 -0.72789198347E+03 -0.49650079861E+03  0.57794794610E+03  0.10537379233E+04  0.25500000920E-02 0. -1.
</event>
<event>
 5   0  0.2256868E-05  0.1934283E+04  0.7818609E-02  0.8637977E-01
        1   -1    0    0  501    0  0.00000000000E+00  0.00000000000E+00  0.17423652632E+04  0.17423652632E+04  0.50400001928E-02 0. -1.
       -1   -1    0    0    0  501  0.00000000000E+00  0.00000000000E+00 -0.53683503931E+03  0.53683503933E+03  0.50400001928E-02 0.  1.
    10030    2    1    2    0    0  0.00000000000E+00  0.00000000000E+00  0.12055302239E+04  0.22792003025E+04  0.19342830451E+04 0.  0.
        5    1    3    3  502    0 -0.35408493384E+03 -0.62176049872E+03  0.13694674814E+04  0.15451296162E+04  0.46999998093E+01 0. -1.
       -5    1    3    3    0  502  0.35408493384E+03  0.62176049872E+03 -0.16393725754E+03  0.73407068634E+03  0.46999998093E+01 0.  1.
</event>
<event>
 5   0  0.2007644E-05  0.2003735E+04  0.7818609E-02  0.8604876E-01
        1   -1    0    0  501    0  0.00000000000E+00  0.00000000000E+00  0.11036242342E+04  0.11036242342E+04  0.50400001928E-02 0.  1.
       -1   -1    0    0    0  501  0.00000000000E+00  0.00000000000E+00 -0.90949312209E+03  0.90949312210E+03  0.50400001928E-02 0. -1.
    10030    2    1    2    0    0  0.00000000000E+00  0.00000000000E+00  0.19413111214E+03  0.20131173563E+04  0.20037351626E+04 0.  0.
        1    1    3    3  502    0  0.93449960859E+03  0.79413088449E+02  0.45105422072E+03  0.10406948963E+04  0.50400001928E-02 0.  1.
       -1    1    3    3    0  502 -0.93449960859E+03 -0.79413088449E+02 -0.25692310858E+03  0.97242246006E+03  0.50400001928E-02 0. -1.
</event>
<event>
 5   0  0.4447313E-05  0.2009886E+04  0.7818609E-02  0.8602013E-01
       -2   -1    0    0    0  501  0.00000000000E+00  0.00000000000E+00  0.57030452258E+03  0.57030452258E+03  0.25500000920E-02 0. -1.
        2   -1    0    0  501    0  0.00000000000E+00  0.00000000000E+00 -0.17708258973E+04  0.17708258973E+04  0.25500000920E-02 0.  1.
    10030    2    1    2    0    0  0.00000000000E+00  0.00000000000E+00 -0.12005213747E+04  0.23411304198E+04  0.20098855867E+04 0.  0.
        5    1    3    3  502    0 -0.52630118904E+02  0.73892938952E+02  0.56551224633E+03  0.57276198075E+03  0.46999998093E+01 0. -1.
       -5    1    3    3    0  502  0.52630118904E+02 -0.73892938952E+02 -0.17660336210E+04  0.17683684391E+04  0.46999998093E+01 0.  1.
</event>
<event>
 5   0  0.2093980E-05  0.2005431E+04  0.7818609E-02  0.8604086E-01
        1   -1    0    0  501    0  0.00000000000E+00  0.00000000000E+00  0.18958969580E+04  0.18958969580E+04  0.50400001928E-02 0.  1.
       -1   -1    0    0    0  501  0.00000000000E+00  0.00000000000E+00 -0.53032312037E+03  0.53032312040E+03  0.50400001928E-02 0. -1.
    10030    2    1    2    0    0  0.00000000000E+00  0.00000000000E+00  0.13655738376E+04  0.24262200784E+04  0.20054306178E+04 0.  0.
        2    1    3    3  502    0 -0.25043075500E+03  0.78332423482E+03  0.13768570638E+04  0.16037605164E+04  0.25500000920E-02 0.  1.
       -2    1    3    3    0  502  0.25043075500E+03 -0.78332423482E+03 -0.11283226165E+02  0.82245956199E+03  0.25500000920E-02 0. -1.
</event>
<event>
 5   0  0.2142551E-05  0.2001067E+04  0.7818609E-02  0.8606122E-01
       -1   -1    0    0    0  501  0.00000000000E+00  0.00000000000E+00  0.64947481296E+03  0.64947481298E+03  0.50400001928E-02 0. -1.
        1   -1    0    0  501    0  0.00000000000E+00  0.00000000000E+00 -0.15413492750E+04  0.15413492750E+04  0.50400001928E-02 0.  1.
    10030    2    1    2    0    0  0.00000000000E+00  0.00000000000E+00 -0.89187446205E+03  0.21908240880E+04  0.20010672474E+04 0.  0.
        3    1    3    3  502    0  0.94873520503E+03  0.28640494599E+03 -0.59661529185E+03  0.11567523931E+04  0.10100000352E+00 0. -1.
       -3    1    3    3    0  502 -0.94873520503E+03 -0.28640494599E+03 -0.29525917020E+03  0.10340716949E+04  0.10100000352E+00 0.  1.
</event>
<event>
 5   0  0.4514680E-05  0.1990401E+04  0.7818609E-02  0.8611122E-01
        2   -1    0    0  501    0  0.00000000000E+00  0.00000000000E+00  0.83800244177E+03  0.83800244177E+03  0.25500000920E-02 0. -1.
       -2   -1    0    0    0  501  0.00000000000E+00  0.00000000000E+00 -0.11818866084E+04  0.11818866084E+04  0.25500000920E-02 0.  1.
    10030    2    1    2    0    0  0.00000000000E+00  0.00000000000E+00 -0.34388416666E+03  0.20198890502E+04  0.19904008277E+04 0.  0.
        3    1    3    3  502    0 -0.33242868296E+02  0.47011282730E+03  0.71757844635E+03  0.85850451109E+03  0.10100000352E+00 0. -1.
       -3    1    3    3    0  502  0.33242868296E+02 -0.47011282730E+03 -0.10614626130E+04  0.11613845391E+04  0.10100000352E+00 0.  1.
</event>
<event>
 5   0  0.4447313E-05  0.1999197E+04  0.7818609E-02  0.8606996E-01
       -2   -1    0    0    0  501  0.00000000000E+00  0.00000000000E+00  0.97434211333E+03  0.97434211333E+03  0.25500000920E-02 0.  1.
        2   -1    0    0  501    0  0.00000000000E+00  0.00000000000E+00 -0.10255095611E+04  0.10255095611E+04  0.25500000920E-02 0. -1.
    10030    2    1    2    0    0  0.00000000000E+00  0.00000000000E+00 -0.51167447787E+02  0.19998516744E+04  0.19991969918E+04 0.  0.
        5    1    3    3  502    0 -0.37361963759E+02  0.10472789473E+03 -0.10192927498E+04  0.10253505001E+04  0.46999998093E+01 0. -1.
       -5    1    3    3    0  502  0.37361963759E+02 -0.10472789473E+03  0.96812530205E+03  0.97450117431E+03  0.46999998093E+01 0.  1.
</event>
<event>
 5   0  0.4577279E-05  0.2003166E+04  0.7818609E-02  0.8605142E-01
       -2   -1    0    0    0  501  0.00000000000E+00  0.00000000000E+00  0.29322430569E+04  0.29322430569E+04  0.25500000920E-02 0.  1.
        2   -1    0    0  501    0  0.00000000000E+00  0.00000000000E+00 -0.34211649760E+03  0.34211649761E+03  0.25500000920E-02 0. -1.
    10030    2    1    2    0    0  0.00000000000E+00  0.00000000000E+00  0.25901265593E+04  0.32743595546E+04  0.20031662185E+04 0.  0.
        1    1    3    3  502    0 -0.62769539035E+03  0.59368054287E+03  0.21232558112E+04  0.22923074248E+04  0.50400001928E-02 0.  1.
       -1    1    3    3    0  502  0.62769539035E+03 -0.59368054287E+03  0.46687074815E+03  0.98205212975E+03  0.50400001928E-02 0. -1.
</event>
<event>
 5   0  0.2110896E-05  0.2001005E+04  0.7818609E-02  0.8606151E-01
        1   -1    0    0  501    0  0.00000000000E+00  0.00000000000E+00  0.82543444754E+03  0.82543444755E+03  0.50400001928E-02 0.  1.
       -1   -1    0    0    0  501  0.00000000000E+00  0.00000000000E+00 -0.12127015382E+04  0.12127015382E+04  0.50400001928E-02 0. -1.
    10030    2    1    2    0    0  0.00000000000E+00  0.00000000000E+00 -0.38726709062E+03  0.20381359857E+04  0.20010053715E+04 0.  0.
        4    1    3    3  502    0 -0.29994425635E+03  0.22598261352E+02  0.77828811891E+03  0.83439274162E+03  0.12699999809E+01 0.  1.
       -4    1    3    3    0  502  0.29994425635E+03 -0.22598261352E+02 -0.11655552095E+04  0.12037432441E+04  0.12699999809E+01 0. -1.
</event>
<event>
 5   0  0.2142551E-05  0.1999229E+04  0.7818609E-02  0.8606981E-01
        1   -1    0    0  501    0  0.00000000000E+00  0.00000000000E+00  0.10541443990E+04  0.10541443990E+04  0.50400001928E-02 0. -1.
       -1   -1    0    0    0  501  0.00000000000E+00  0.00000000000E+00 -0.94790525875E+03  0.94790525877E+03  0.50400001928E-02 0.  1.
    10030    2    1    2    0    0  0.00000000000E+00  0.00000000000E+00  0.10623914027E+03  0.20020496578E+04  0.19992288707E+04 0.  0.
        3    1    3    3  502    0  0.88462553047E+03 -0.40471880895E+03 -0.17713824549E+03  0.98880615476E+03  0.10100000352E+00 0.  1.
       -3    1    3    3    0  502 -0.88462553047E+03  0.40471880895E+03  0.28337738576E+03  0.10132435030E+04  0.10100000352E+00 0. -1.
</event>
<event>
 5   0  0.2007644E-05  0.1954579E+04  0.7818609E-02  0.8628156E-01
       -1   -1    0    0    0  501  0.00000000000E+00  0.00000000000E+00  0.53528264875E+03  0.53528264878E+03  0.50400001928E-02 0.  1.
        1   -1    0    0  501    0  0.00000000000E+00  0.00000000000E+00 -0.17842808915E+04  0.17842808915E+04  0.50400001928E-02 0. -1.
    10030    2    1    2    0    0  0.00000000000E+00  0.00000000000E+00 -0.12489982427E+04  0.23195635403E+04  0.19545788311E+04 0.  0.
        1    1    3    3  502    0  0.77515102784E+03  0.25105342530E+03  0.15905537483E+02  0.81494780475E+03  0.50400001928E-02 0.  1.
       -1    1    3    3    0  502 -0.77515102784E+03 -0.25105342530E+03 -0.12649037802E+04  0.15046157355E+04  0.50400001928E-02 0. -1.
</event>
<event>
 5   0  0.4473361E-05  0.1997304E+04  0.7818609E-02  0.8607882E-01
       -2   -1    0    0    0  501  0.00000000000E+00  0.00000000000E+00  0.49058937265E+03  0.49058937266E+03  0.25500000920E-02 0.  1.
        2   -1    0    0  501    0  0.00000000000E+00  0.00000000000E+00 -0.20328734797E+04  0.20328734797E+04  0.25500000920E-02 0. -1.
    10030    2    1    2    0    0  0.00000000000E+00  0.00000000000E+00 -0.15422841070E+04  0.25234628523E+04  0.19973043084E+04 0.  0.
        2    1    3    3  502    0 -0.36192120130E+03 -0.51316537513E+03 -0.17522217746E+04  0.18613454289E+04  0.25500000920E-02 0. -1.
       -2    1    3    3    0  502  0.36192120130E+03  0.51316537513E+03  0.20993766758E+03  0.66211742347E+03  0.25500000920E-02 0.  1.
</event>
<event>
 5   0  0.2007644E-05  0.1986116E+04  0.7818609E-02  0.8613139E-01
       -1   -1    0    0    0  501  0.00000000000E+00  0.00000000000E+00  0.11136346133E+04  0.11136346133E+04  0.50400001928E-02 0.  1.
        1   -1    0    0  501    0  0.00000000000E+00  0.00000000000E+00 -0.88553674184E+03  0.88553674185E+03  0.50400001928E-02 0. -1.
    10030    2    1    2    0    0  0.00000000000E+00  0.00000000000E+00  0.22809787144E+03  0.19991713551E+04  0.19861161769E+04 0.  0.
        1    1    3    3  502    0  0.22117136724E+03  0.56439828882E+03 -0.67769763232E+03  0.90925039620E+03  0.50400001928E-02 0. -1.
       -1    1    3    3    0  502 -0.22117136724E+03 -0.56439828882E+03  0.90579550375E+03  0.10899209589E+04  0.50400001928E-02 0.  1.
</event>
<event>
 5   0  0.1601500E-05  0.2008540E+04  0.7818609E-02  0.8602638E-01
        4   -1    0    0  501    0  0.00000000000E+00  0.00000000000E+00  0.91457491528E+03  0.91457579705E+03  0.12699999809E+01 0.  1.
       -4   -1    0    0    0  501  0.00000000000E+00  0.00000000000E+00 -0.11027605103E+04  0.11027612416E+04  0.12699999809E+01 0. -1.
    10030    2    1    2    0    0  0.00000000000E+00  0.00000000000E+00 -0.18818559503E+03  0.20173370387E+04  0.20085404923E+04 0.  0.
        5    1    3    3  502    0 -0.95240394024E+03 -0.30865791479E+03 -0.15048293708E+02  0.10012949190E+04  0.46999998093E+01 0.  1.
       -5    1    3    3    0  502  0.95240394024E+03  0.30865791479E+03 -0.17313730133E+03  0.10160421196E+04  0.46999998093E+01 0. -1.
</event>
<event>
 5   0  0.2110896E-05  0.2061226E+04  0.7818609E-02  0.8578518E-01
        1   -1    0    0  501    0  0.00000000000E+00  0.00000000000E+00  0.11202510452E+04  0.11202510453E+04  0.50400001928E-02 0.  1.
       -1   -1    0    0    0  501  0.00000000000E+00  0.00000000000E+00 -0.94814777565E+03  0.94814777566E+03  0.50400001928E-02 0. -1.
    10030    2    1    2    0    0  0.00000000000E+00  0.00000000000E+00  0.17210326960E+03  0.20683988209E+04  0.20612263697E+04 0.  0.
        4    1    3    3  502    0 -0.10151172509E+04 -0.17803770611E+03  0.84836639099E+02  0.10340983155E+04  0.12699999809E+01 0. -1.
       -4    1    3    3    0  502  0.10151172509E+04  0.17803770611E+03  0.87266630499E+02  0.10343005054E+04  0.12699999809E+01 0.  1.
</event>
<event>
 5   0  0.4577279E-05  0.1993308E+04  0.7818609E-02  0.8609756E-01
       -2   -1    0    0    0  501  0.00000000000E+00  0.00000000000E+00  0.90363057766E+03  0.90363057766E+03  0.25500000920E-02 0.  1.
        2   -1    0    0  501    0  0.00000000000E+00  0.00000000000E+00 -0.10992538262E+04  0.10992538262E+04  0.25500000920E-02 0. -1.
    10030    2    1    2    0    0  0.00000000000E+00  0.00000000000E+00 -0.19562324854E+03  0.20028844039E+04  0.19933081748E+04 0.  0.
        1    1    3    3  502    0  0.21709918433E+03  0.77242182184E+03  0.49625784740E+03  0.94341898317E+03  0.50400001928E-02 0.  1.
       -1    1    3    3    0  502 -0.21709918433E+03 -0.77242182184E+03 -0.69188109594E+03  0.10594654207E+04  0.50400001928E-02 0. -1.
</event>
<event>
 5   0  0.4514680E-05  0.1997640E+04  0.7818609E-02  0.8607725E-01
        2   -1    0    0  501    0  0.00000000000E+00  0.00000000000E+00  0.85167872546E+03  0.85167872547E+03  0.25500000920E-02 0. -1.
       -2   -1    0    0    0  501  0.00000000000E+00  0.00000000000E+00 -0.11713825203E+04  0.11713825203E+04  0.25500000920E-02 0.  1.
    10030    2    1    2    0    0  0.00000000000E+00  0.00000000000E+00 -0.31970379485E+03  0.20230612458E+04  0.19976401797E+04 0.  0.
        3    1    3    3  502    0  0.13145049307E+03 -0.18871359434E+01 -0.11625825354E+04  0.11699918612E+04  0.10100000352E+00 0.  1.
       -3    1    3    3    0  502 -0.13145049307E+03  0.18871359434E+01  0.84287874057E+03  0.85306938458E+03  0.10100000352E+00 0. -1.
</event>
<event>
 5   0  0.2093980E-05  0.2010000E+04  0.7818609E-02  0.8601959E-01
        1   -1    0    0  501    0  0.00000000000E+00  0.00000000000E+00  0.15376452263E+04  0.15376452263E+04  0.50400001928E-02 0.  1.
       -1   -1    0    0    0  501  0.00000000000E+00  0.00000000000E+00 -0.65686499752E+03  0.65686499754E+03  0.50400001928E-02 0. -1.
    10030    2    1    2    0    0  0.00000000000E+00  0.00000000000E+00  0.88078022880E+03  0.21945102239E+04  0.20100003262E+04 0.  0.
        2    1    3    3  502    0  0.17549630607E+03  0.17466894697E+03  0.15038224274E+04  0.15240702372E+04  0.25500000920E-02 0.  1.
       -2    1    3    3    0  502 -0.17549630607E+03 -0.17466894697E+03 -0.62304219865E+03  0.67043998671E+03  0.25500000920E-02 0. -1.
</event>
<event>
 5   0  0.1601500E-05  0.1969189E+04  0.7818609E-02  0.8621163E-01
        3   -1    0    0  501    0  0.00000000000E+00  0.00000000000E+00  0.24309008116E+04  0.24309008137E+04  0.10100000352E+00 0.  1.
       -3   -1    0    0    0  501  0.00000000000E+00  0.00000000000E+00 -0.39879318172E+03  0.39879319451E+03  0.10100000352E+00 0. -1.
    10030    2    1    2    0    0  0.00000000000E+00  0.00000000000E+00  0.20321076299E+04  0.28296940082E+04  0.19691893664E+04 0.  0.
        5    1    3    3  502    0 -0.20171874779E+03 -0.38644540940E+03  0.22846546001E+04  0.23258760155E+04  0.46999998093E+01 0.  1.
       -5    1    3    3    0  502  0.20171874779E+03  0.38644540940E+03 -0.25254697020E+03  0.50381799274E+03  0.46999998093E+01 0. -1.
</event>
<event>
 5   0  0.2256868E-05  0.2002227E+04  0.7818609E-02  0.8605580E-01
        1   -1    0    0  501    0  0.00000000000E+00  0.00000000000E+00  0.27671975260E+04  0.27671975260E+04  0.50400001928E-02 0. -1.
       -1   -1    0    0    0  501  0.00000000000E+00  0.00000000000E+00 -0.36218185206E+03  0.36218185210E+03  0.50400001928E-02 0.  1.
    10030    2    1    2    0    0  0.00000000000E+00  0.00000000000E+00  0.24050156739E+04  0.31293793781E+04  0.20022274846E+04 0.  0.
        5    1    3    3  502    0  0.44356463871E+03  0.11772697786E+03  0.25930910381E+04  0.26333918151E+04  0.46999998093E+01 0. -1.
       -5    1    3    3    0  502 -0.44356463871E+03 -0.11772697786E+03 -0.18807536417E+03  0.49598756298E+03  0.46999998093E+01 0.  1.
</event>
<event>
 5   0  0.4447313E-05  0.1998058E+04  0.7818609E-02  0.8607529E-01
       -2   -1    0    0    0  501  0.00000000000E+00  0.00000000000E+00  0.10780459982E+04  0.10780459982E+04  0.25500000920E-02 0.  1.
        2   -1    0    0  501    0  0.00000000000E+00  0.00000000000E+00 -0.92580385674E+03  0.92580385674E+03  0.25500000920E-02 0. -1.
    10030    2    1    2    0    0  0.00000000000E+00  0.00000000000E+00  0.15224214142E+03  0.20038498549E+04  0.19980582002E+04 0.  0.
        5    1    3    3  502    0 -0.47167592917E+03 -0.68546161277E+03  0.63062630367E+03  0.10440533653E+04  0.46999998093E+01 0.  1.
       -5    1    3    3    0  502  0.47167592917E+03  0.68546161277E+03 -0.47838416224E+03  0.95979648959E+03  0.46999998093E+01 0. -1.
</event>
<event>
 5   0  0.4577279E-05  0.2009220E+04  0.7818609E-02  0.8602322E-01
       -2   -1    0    0    0  501  0.00000000000E+00  0.00000000000E+00  0.57903960758E+03  0.57903960759E+03  0.25500000920E-02 0.  1.
        2   -1    0    0  501    0  0.00000000000E+00  0.00000000000E+00 -0.17429573538E+04  0.17429573538E+04  0.25500000920E-02 0. -1.
    10030    2    1    2    0    0  0.00000000000E+00  0.00000000000E+00 -0.11639177462E+04  0.23219969614E+04  0.20092200897E+04 0.  0.
        1    1    3    3  502    0  0.27416891931E+02  0.12861664492E+03 -0.17329671858E+04  0.17379497099E+04  0.50400001928E-02 0. -1.
       -1    1    3    3    0  502 -0.27416891931E+02 -0.12861664492E+03  0.56904943952E+03  0.58404725148E+03  0.50400001928E-02 0.  1.
</event>
<event>
 5   0  0.2256868E-05  0.2050490E+04  0.7818609E-02  0.8583372E-01
       -1   -1    0    0    0  501  0.00000000000E+00  0.00000000000E+00  0.12844482703E+04  0.12844482703E+04  0.50400001928E-02 0. -1.
        1   -1    0    0  501    0  0.00000000000E+00  0.00000000000E+00 -0.81834941878E+03  0.81834941880E+03  0.50400001928E-02 0.  1.
    10030    2    1    2    0    0  0.00000000000E+00  0.00000000000E+00  0.46609885152E+03  0.21027976891E+04  0.20504901809E+04 0.  0.
        5    1    3    3  502    0 -0.83210708086E+03 -0.35272811279E+03  0.72942802518E+03  0.11614244054E+04  0.46999998093E+01 0.  1.
       -5    1    3    3    0  502  0.83210708086E+03  0.35272811279E+03 -0.26332917366E+03  0.94137328370E+03  0.46999998093E+01 0. -1.
</event>
<event>
 5   0  0.2110896E-05  0.1998438E+04  0.7818609E-02  0.8607351E-01
        1   -1    0    0  501    0  0.00000000000E+00  0.00000000000E+00  0.16250707156E+04  0.16250707156E+04  0.50400001928E-02 0.  1.
       -1   -1    0    0    0  501  0.00000000000E+00  0.00000000000E+00 -0.61439730273E+03  0.61439730275E+03  0.50400001928E-02 0. -1.
    10030    2    1    2    0    0  0.00000000000E+00  0.00000000000E+00  0.10106734129E+04  0.22394680184E+04  0.19984384549E+04 0.  0.
        4    1    3    3  502    0 -0.50790184546E+03 -0.23304406016E+02 -0.45860201370E+03  0.68470782078E+03  0.12699999809E+01 0. -1.
       -4    1    3    3    0  502  0.50790184546E+03  0.23304406016E+02  0.14692754266E+04  0.15547601976E+04  0.12699999809E+01 0.  1.
</event>
<event>
 5   0  0.4412054E-05  0.2014073E+04  0.7818609E-02  0.8600069E-01
       -2   -1    0    0    0  501  0.00000000000E+00  0.00000000000E+00  0.72029973705E+03  0.72029973705E+03  0.25500000920E-02 0.  1.
        2   -1    0    0  501    0  0.00000000000E+00  0.00000000000E+00 -0.14079177841E+04  0.14079177841E+04  0.25500000920E-02 0. -1.
    10030    2    1    2    0    0  0.00000000000E+00  0.00000000000E+00 -0.68761804701E+03  0.21282175211E+04  0.20140732952E+04 0.  0.
        4    1    3    3  502    0 -0.68558508417E+03  0.70759953946E+03 -0.56393510477E+03  0.11352305630E+04  0.12699999809E+01 0. -1.
       -4    1    3    3    0  502  0.68558508417E+03 -0.70759953946E+03 -0.12368294224E+03  0.99298695811E+03  0.12699999809E+01 0.  1.
</event>
<event>
 5   0  0.4514680E-05  0.2000682E+04  0.7818609E-02  0.8606302E-01
       -2   -1    0    0    0  501  0.00000000000E+00  0.00000000000E+00  0.72947783694E+03  0.72947783695E+03  0.25500000920E-02 0. -1.
        2   -1    0    0  501    0  0.00000000000E+00  0.00000000000E+00 -0.13717793048E+04  0.13717793049E+04  0.25500000920E-02 0.  1.
    10030    2    1    2    0    0  0.00000000000E+00  0.00000000000E+00 -0.64230146791E+03  0.21012571418E+04  0.20006824836E+04 0.  0.
        3    1    3    3  502    0  0.65932105842E+03 -0.73792413929E+03 -0.16734335013E+03  0.10036135215E+04  0.10100000352E+00 0. -1.
       -3    1    3    3    0  502 -0.65932105842E+03  0.73792413929E+03 -0.47495811778E+03  0.10976436203E+04  0.10100000352E+00 0.  1.
</event>
<event>
 5   0  0.4447313E-05  0.2003106E+04  0.7818609E-02  0.8605170E-01
       -2   -1    0    0    0  501  0.00000000000E+00  0.00000000000E+00  0.10494004308E+04  0.10494004308E+04  0.25500000920E-02 0. -1.
        2   -1    0    0  501    0  0.00000000000E+00  0.00000000000E+00 -0.95588720691E+03  0.95588720692E+03  0.25500000920E-02 0.  1.
    10030    2    1    2    0    0  0.00000000000E+00  0.00000000000E+00  0.93513223885E+02  0.20052876377E+04  0.20031060349E+04 0.  0.
        5    1    3    3  502    0  0.85043449189E+02 -0.35808181808E+03 -0.88572518480E+03  0.95915909508E+03  0.46999998093E+01 0.  1.
       -5    1    3    3    0  502 -0.85043449189E+02  0.35808181808E+03  0.97923840869E+03  0.10461285426E+04  0.46999998093E+01 0. -1.
</event>
<event>
 5   0  0.4447313E-05  0.2008769E+04  0.7818609E-02  0.8602532E-01
       -2   -1    0    0    0  501  0.00000000000E+00  0.00000000000E+00  0.69148162725E+03  0.69148162725E+03  0.25500000920E-02 0. -1.
        2   -1    0    0  501    0  0.00000000000E+00  0.00000000000E+00 -0.14588793600E+04  0.14588793600E+04  0.25500000920E-02 0.  1.
    10030    2    1    2    0    0  0.00000000000E+00  0.00000000000E+00 -0.76739773272E+03  0.21503609872E+04  0.20087690497E+04 0.  0.
        5    1    3    3  502    0  0.11589158325E+03  0.99221553707E+03 -0.49517173157E+03  0.11149617325E+04  0.46999998093E+01 0.  1.
       -5    1    3    3    0  502 -0.11589158325E+03 -0.99221553707E+03 -0.27222600114E+03  0.10353992548E+04  0.46999998093E+01 0. -1.
</event>
<event>
 5   0  0.4447313E-05  0.2003717E+04  0.7818609E-02  0.8604885E-01
       -2   -1    0    0    0  501  0.00000000000E+00  0.00000000000E+00  0.75968332184E+03  0.75968332184E+03  0.25500000920E-02 0.  1.
        2   -1    0    0  501    0  0.00000000000E+00  0.00000000000E+00 -0.13212348662E+04  0.13212348662E+04  0.25500000920E-02 0. -1.
    10030    2    1    2    0    0  0.00000000000E+00  0.00000000000E+00 -0.56155154435E+03  0.20809181880E+04  0.20037166387E+04 0.  0.
        5    1    3    3  502    0  0.77933111711E+03  0.21876632671E+03 -0.89384436455E+03  0.12059003001E+04  0.46999998093E+01 0. -1.
       -5    1    3    3    0  502 -0.77933111711E+03 -0.21876632671E+03  0.33229282020E+03  0.87501788791E+03  0.46999998093E+01 0.  1.
</event>
<event>
 5   0  0.2256868E-05  0.2019727E+04  0.7818609E-02  0.8597453E-01
       -1   -1    0    0    0  501  0.00000000000E+00  0.00000000000E+00  0.95950712034E+03  0.95950712035E+03  0.50400001928E-02 0. -1.
        1   -1    0    0  501    0  0.00000000000E+00  0.00000000000E+00 -0.10628622615E+04  0.10628622615E+04  0.50400001928E-02 0.  1.
    10030    2    1    2    0    0  0.00000000000E+00  0.00000000000E+00 -0.10335514117E+03  0.20223693819E+04  0.20197266230E+04 0.  0.
        5    1    3    3  502    0 -0.53734378168E+03 -0.81145712905E+03 -0.32147549991E+03  0.10249729748E+04  0.46999998093E+01 0.  1.
       -5    1    3    3    0  502  0.53734378168E+03  0.81145712905E+03  0.21812035874E+03  0.99739640710E+03  0.46999998093E+01 0. -1.
</event>
<event>
 5   0  0.4577279E-05  0.2013144E+04  0.7818609E-02  0.8600500E-01
        2   -1    0    0  501    0  0.00000000000E+00  0.00000000000E+00  0.13989121099E+04  0.13989121099E+04  0.25500000920E-02 0. -1.
       -2   -1    0    0    0  501  0.00000000000E+00  0.00000000000E+00 -0.72426811970E+03  0.72426811971E+03  0.25500000920E-02 0.  1.
    10030    2    1    2    0    0  0.00000000000E+00  0.00000000000E+00  0.67464399017E+03  0.21231802296E+04  0.20131442506E+04 0.  0.
        1    1    3    3  502    0 -0.12437260171E+03 -0.78593592916E+03 -0.31283353159E+03  0.85500213293E+03  0.50400001928E-02 0.  1.
       -1    1    3    3    0  502  0.12437260171E+03  0.78593592916E+03  0.98747752176E+03  0.12681780966E+04  0.50400001928E-02 0. -1.
</event>
<event>
 5   0  0.2093980E-05  0.2001284E+04  0.7818609E-02  0.8606021E-01
        1   -1    0    0  501    0  0.00000000000E+00  0.00000000000E+00  0.14421504565E+04  0.14421504565E+04  0.50400001928E-02 0. -1.
       -1   -1    0    0    0  501  0.00000000000E+00  0.00000000000E+00 -0.69429935759E+03  0.69429935761E+03  0.50400001928E-02 0.  1.
    10030    2    1    2    0    0  0.00000000000E+00  0.00000000000E+00  0.74785109894E+03  0.21364498142E+04  0.20012837236E+04 0.  0.
        2    1    3    3  502    0 -0.11908505614E+03  0.25301694125E+03  0.13995891723E+04  0.14272521411E+04  0.25500000920E-02 0. -1.
       -2    1    3    3    0  502  0.11908505614E+03 -0.25301694125E+03 -0.65173807335E+03  0.70919767302E+03  0.25500000920E-02 0.  1.
</event>
<event>
 5   0  0.2093980E-05  0.1991517E+04  0.7818609E-02  0.8610597E-01
       -1   -1    0    0    0  501  0.00000000000E+00  0.00000000000E+00  0.47580598322E+03  0.47580598325E+03  0.50400001928E-02 0. -1.
        1   -1    0    0  501    0  0.00000000000E+00  0.00000000000E+00 -0.20839059353E+04  0.20839059353E+04  0.50400001928E-02 0.  1.
    10030    2    1    2    0    0  0.00000000000E+00  0.00000000000E+00 -0.16080999521E+04  0.25597119186E+04  0.19915169219E+04 0.  0.
        2    1    3    3  502    0  0.45632181952E+03  0.63733597471E+03 -0.14753693329E+02  0.78399261419E+03  0.25500000920E-02 0. -1.
       -2    1    3    3    0  502 -0.45632181952E+03 -0.63733597471E+03 -0.15933462588E+04  0.17757193044E+04  0.25500000920E-02 0.  1.
</event>
<event>
 5   0  0.2142551E-05  0.1956408E+04  0.7818609E-02  0.8627277E-01
        1   -1    0    0  501    0  0.00000000000E+00  0.00000000000E+00  0.12732356006E+04  0.12732356006E+04  0.50400001928E-02 0.  1.
       -1   -1    0    0    0  501  0.00000000000E+00  0.00000000000E+00 -0.75153675203E+03  0.75153675205E+03  0.50400001928E-02 0. -1.
    10030    2    1    2    0    0  0.00000000000E+00  0.00000000000E+00  0.52169884855E+03  0.20247723526E+04  0.19564082885E+04 0.  0.
        3    1    3    3  502    0 -0.47666045268E+03  0.45633597109E+03  0.10081874159E+04  0.12049438084E+04  0.10100000352E+00 0.  1.
       -3    1    3    3    0  502  0.47666045268E+03 -0.45633597109E+03 -0.48648856731E+03  0.81982854426E+03  0.10100000352E+00 0. -1.
</event>
<event>
 5   0  0.4577279E-05  0.1997373E+04  0.7818609E-02  0.8607850E-01
       -2   -1    0    0    0  501  0.00000000000E+00  0.00000000000E+00  0.12509514469E+04  0.12509514469E+04  0.25500000920E-02 0. -1.
        2   -1    0    0  501    0  0.00000000000E+00  0.00000000000E+00 -0.79729283654E+03  0.79729283655E+03  0.25500000920E-02 0.  1.
    10030    2    1    2    0    0  0.00000000000E+00  0.00000000000E+00  0.45365861039E+03  0.20482442835E+04  0.19973729021E+04 0.  0.
        1    1    3    3  502    0  0.84380226669E+02 -0.41641057502E+03  0.11536496794E+04  0.12294004117E+04  0.50400001928E-02 0. -1.
       -1    1    3    3    0  502 -0.84380226669E+02  0.41641057502E+03 -0.69999106897E+03  0.81884387175E+03  0.50400001928E-02 0.  1.
</event>
<event>
 5   0  0.2110896E-05  0.1999591E+04  0.7818609E-02  0.8606812E-01
        1   -1    0    0  501    0  0.00000000000E+00  0.00000000000E+00  0.28578927978E+04  0.28578927978E+04  0.50400001928E-02 0.  1.
       -1   -1    0    0    0  501  0.00000000000E+00  0.00000000000E+00 -0.34976521438E+03  0.34976521442E+03  0.50400001928E-02 0. -1.
    10030    2    1    2    0    0  0.00000000000E+00  0.00000000000E+00  0.25081275834E+04  0.32076580122E+04  0.19995914454E+04 0.  0.
        4    1    3    3  502    0 -0.13959226695E+03  0.18212903293E+03  0.28150763232E+04  0.28244137983E+04  0.12699999809E+01 0.  1.
       -4    1    3    3    0  502  0.13959226695E+03 -0.18212903293E+03 -0.30694873988E+03  0.38324421384E+03  0.12699999809E+01 0. -1.
</event>
<event>
 5   0  0.2110896E-05  0.1993012E+04  0.7818609E-02  0.8609895E-01
       -1   -1    0    0    0  501  0.00000000000E+00  0.00000000000E+00  0.83819960269E+03  0.83819960270E+03  0.50400001928E-02 0.  1.
        1   -1    0    0  501    0  0.00000000000E+00  0.00000000000E+00 -0.11847106874E+04  0.11847106874E+04  0.50400001928E-02 0. -1.
    10030    2    1    2    0    0  0.00000000000E+00  0.00000000000E+00 -0.34651108468E+03  0.20229102901E+04  0.19930118188E+04 0.  0.
        4    1    3    3  502    0  0.85975821437E+03 -0.40582870285E+03  0.12978882066E+03  0.95954566025E+03  0.12699999809E+01 0. -1.
       -4    1    3    3    0  502 -0.85975821437E+03  0.40582870285E+03 -0.47629990534E+03  0.10633646298E+04  0.12699999809E+01 0.  1.
</event>
<event>
 5   0  0.2256868E-05  0.2027777E+04  0.7818609E-02  0.8593743E-01
        1   -1    0    0  501    0  0.00000000000E+00  0.00000000000E+00  0.11300191954E+04  0.11300191954E+04  0.50400001928E-02 0. -1.
       -1   -1    0    0    0  501  0.00000000000E+00  0.00000000000E+00 -0.90969209377E+03  0.90969209379E+03  0.50400001928E-02 0.  1.
    10030    2    1    2    0    0  0.00000000000E+00  0.00000000000E+00  0.22032710166E+03  0.20397112892E+04  0.20277766425E+04 0.  0.
        5    1    3    3  502    0 -0.37198396986E+03  0.94185341454E+03  0.59995068171E+02  0.10144365069E+04  0.46999998093E+01 0. -1.
       -5    1    3    3    0  502  0.37198396986E+03 -0.94185341454E+03  0.16033203349E+03  0.10252747823E+04  0.46999998093E+01 0.  1.
</event>
<event>
 5   0  0.4473361E-05  0.1995811E+04  0.7818609E-02  0.8608582E-01
        2   -1    0    0  501    0  0.00000000000E+00  0.00000000000E+00  0.21014692992E+04  0.21014692992E+04  0.25500000920E-02 0. -1.
       -2   -1    0    0    0  501  0.00000000000E+00  0.00000000000E+00 -0.47386602903E+03  0.47386602904E+03  0.25500000920E-02 0.  1.
    10030    2    1    2    0    0  0.00000000000E+00  0.00000000000E+00  0.16276032702E+04  0.25753353282E+04  0.19958105240E+04 0.  0.
        2    1    3    3  502    0  0.50867978122E+02  0.89064808834E+02 -0.46704631355E+03  0.47817606629E+03  0.25500000920E-02 0.  1.
       -2    1    3    3    0  502 -0.50867978122E+02 -0.89064808834E+02  0.20946495837E+04  0.20971592619E+04  0.25500000920E-02 0. -1.
</event>
<event>
 5   0  0.4412054E-05  0.2010319E+04  0.7818609E-02  0.8601811E-01
       -2   -1    0    0    0  501  0.00000000000E+00  0.00000000000E+00  0.11085433472E+04  0.11085433473E+04  0.25500000920E-02 0. -1.
        2   -1    0    0  501    0  0.00000000000E+00  0.00000000000E+00 -0.91141757448E+03  0.91141757448E+03  0.25500000920E-02 0.  1.
    10030    2    1    2    0    0  0.00000000000E+00  0.00000000000E+00  0.19712577277E+03  0.20199609217E+04  0.20103192669E+04 0.  0.
        4    1    3    3  502    0  0.72725238519E+03 -0.42808863469E+03 -0.45012235610E+03  0.95643486933E+03  0.12699999809E+01 0.  1.
       -4    1    3    3    0  502 -0.72725238519E+03  0.42808863469E+03  0.64724812887E+03  0.10635260524E+04  0.12699999809E+01 0. -1.
</event>
<event>
 5   0  0.4447313E-05  0.2005350E+04  0.7818609E-02  0.8604123E-01
        2   -1    0    0  501    0  0.00000000000E+00  0.00000000000E+00  0.97175987847E+03  0.97175987847E+03  0.25500000920E-02 0.  1.
       -2   -1    0    0    0  501  0.00000000000E+00  0.00000000000E+00 -0.10345739890E+04  0.10345739890E+04  0.25500000920E-02 0. -1.
    10030    2    1    2    0    0  0.00000000000E+00  0.00000000000E+00 -0.62814110502E+02  0.20063338674E+04  0.20053503373E+04 0.  0.
        5    1    3    3  502    0 -0.77191853159E+03  0.46116318565E+03 -0.47525251916E+03  0.10170628054E+04  0.46999998093E+01 0. -1.
       -5    1    3    3    0  502  0.77191853159E+03 -0.46116318565E+03  0.41243840866E+03  0.98927106202E+03  0.46999998093E+01 0.  1.
</event>
<event>
 5   0  0.4514680E-05  0.2014101E+04  0.7818609E-02  0.8600056E-01
       -2   -1    0    0    0  501  0.00000000000E+00  0.00000000000E+00  0.74587462505E+03  0.74587462506E+03  0.25500000920E-02 0. -1.
        2   -1    0    0  501    0  0.00000000000E+00  0.00000000000E+00 -0.13596799479E+04  0.13596799479E+04  0.25500000920E-02 0.  1.
    10030    2    1    2    0    0  0.00000000000E+00  0.00000000000E+00 -0.61380532282E+03  0.21055545729E+04  0.20141010613E+04 0.  0.
        3    1    3    3  502    0  0.98111528740E+03  0.19386406284E+02 -0.54342280927E+03  0.11217269720E+04  0.10100000352E+00 0.  1.
       -3    1    3    3    0  502 -0.98111528740E+03 -0.19386406284E+02 -0.70382513551E+02  0.98382760092E+03  0.10100000352E+00 0. -1.
</event>
<event>
 5   0  0.4447313E-05  0.1996793E+04  0.7818609E-02  0.8608122E-01
        2   -1    0    0  501    0  0.00000000000E+00  0.00000000000E+00  0.92567007331E+03  0.92567007332E+03  0.25500000920E-02 0. -1.
       -2   -1    0    0    0  501  0.00000000000E+00  0.00000000000E+00 -0.10768365879E+04  0.10768365879E+04  0.25500000920E-02 0.  1.
    10030    2    1    2    0    0  0.00000000000E+00  0.00000000000E+00 -0.15116651457E+03  0.20025066612E+04  0.19967928318E+04 0.  0.
        5    1    3    3  502    0  0.28985069717E+03 -0.30055092795E+03 -0.98505702128E+03  0.10699082728E+04  0.46999998093E+01 0.  1.
       -5    1    3    3    0  502 -0.28985069717E+03  0.30055092795E+03  0.83389050671E+03  0.93259838844E+03  0.46999998093E+01 0. -1.
</event>
<event>
 5   0  0.4473361E-05  0.1998826E+04  0.7818609E-02  0.8607170E-01
       -2   -1    0    0    0  501  0.00000000000E+00  0.00000000000E+00  0.70119888956E+03  0.70119888957E+03  0.25500000920E-02 0. -1.
        2   -1    0    0  501    0  0.00000000000E+00  0.00000000000E+00 -0.14244555843E+04  0.14244555843E+04  0.25500000920E-02 0.  1.
    10030    2    1    2    0    0  0.00000000000E+00  0.00000000000E+00 -0.72325669470E+03  0.21256544738E+04  0.19988263295E+04 0.  0.
        2    1    3    3  502    0  0.25678735713E+03  0.87613572816E+03 -0.79396167258E+03  0.12099292122E+04  0.25500000920E-02 0.  1.
       -2    1    3    3    0  502 -0.25678735713E+03 -0.87613572816E+03  0.70704977882E+02  0.91572526166E+03  0.25500000920E-02 0. -1.
</event>
<event>
 5   0  0.2007644E-05  0.1989741E+04  0.7818609E-02  0.8611432E-01
       -1   -1    0    0    0  501  0.00000000000E+00  0.00000000000E+00  0.87461920764E+03  0.87461920765E+03  0.50400001928E-02 0.  1.
        1   -1    0    0  501    0  0.00000000000E+00  0.00000000000E+00 -0.11316549600E+04  0.11316549600E+04  0.50400001928E-02 0. -1.
    10030    2    1    2    0    0  0.00000000000E+00  0.00000000000E+00 -0.25703575237E+03  0.20062741677E+04  0.19897408519E+04 0.  0.
        1    1    3    3  502    0 -0.22277721521E+03 -0.68045303479E+03  0.56796123618E+03  0.91390698980E+03  0.50400001928E-02 0.  1.
       -1    1    3    3    0  502  0.22277721521E+03  0.68045303479E+03 -0.82499698855E+03  0.10923671779E+04  0.50400001928E-02 0. -1.
</event>
<event>
 5   0  0.2110896E-05  0.1999249E+04  0.7818609E-02  0.8606972E-01
        1   -1    0    0  501    0  0.00000000000E+00  0.00000000000E+00  0.11523194998E+04  0.11523194999E+04  0.50400001928E-02 0.  1.
       -1   -1    0    0    0  501  0.00000000000E+00  0.00000000000E+00 -0.86716352932E+03  0.86716352933E+03  0.50400001928E-02 0. -1.
    10030    2    1    2    0    0  0.00000000000E+00  0.00000000000E+00  0.28515597052E+03  0.20194830292E+04  0.19992493035E+04 0.  0.
        4    1    3    3  502    0 -0.31155402278E+02 -0.71181142867E+03  0.85081712866E+03  0.11097466235E+04  0.12699999809E+01 0.  1.
       -4    1    3    3    0  502  0.31155402278E+02  0.71181142867E+03 -0.56566115814E+03  0.90973640567E+03  0.12699999809E+01 0. -1.
</event>
<event>
 5   0  0.4412054E-05  0.1984755E+04  0.7818609E-02  0.8613781E-01
       -2   -1    0    0    0  501  0.00000000000E+00  0.00000000000E+00  0.52070659992E+03  0.52070659992E+03  0.25500000920E-02 0.  1.
        2   -1    0    0  501    0  0.00000000000E+00  0.00000000000E+00 -0.18913019081E+04  0.18913019081E+04  0.25500000920E-02 0. -1.
    10030    2    1    2    0    0  0.00000000000E+00  0.00000000000E+00 -0.13705953082E+04  0.24120085081E+04  0.19847552857E+04 0.  0.
        4    1    3    3  502    0  0.49728879860E+03 -0.84049567037E+03 -0.89955262227E+03  0.13277521057E+04  0.12699999809E+01 0. -1.
       -4    1    3    3    0  502 -0.49728879860E+03  0.84049567037E+03 -0.47104268596E+03  0.10842564023E+04  0.12699999809E+01 0.  1.
</event>
<event>
 5   0  0.4412054E-05  0.2000013E+04  0.7818609E-02  0.8606614E-01
        2   -1    0    0  501    0  0.00000000000E+00  0.00000000000E+00  0.18719353169E+04  0.18719353169E+04  0.25500000920E-02 0.  1.
       -2   -1    0    0    0  501  0.00000000000E+00  0.00000000000E+00 -0.53421367359E+03  0.53421367359E+03  0.25500000920E-02 0. -1.
    10030    2    1    2    0    0  0.00000000000E+00  0.00000000000E+00  0.13377216433E+04  0.24061489905E+04  0.20000134423E+04 0.  0.
        4    1    3    3  502    0  0.52524734820E+03 -0.49816107041E+03  0.14988568523E+04  0.16645187609E+04  0.12699999809E+01 0.  1.
       -4    1    3    3    0  502 -0.52524734820E+03  0.49816107041E+03 -0.16113520904E+03  0.74163022953E+03  0.12699999809E+01 0. -1.
</event>
<event>
 5   0  0.2093980E-05  0.1998644E+04  0.7818609E-02  0.8607255E-01
       -1   -1    0    0    0  501  0.00000000000E+00  0.00000000000E+00  0.72997497335E+03  0.72997497337E+03  0.50400001928E-02 0. -1.
        1   -1    0    0  501    0  0.00000000000E+00  0.00000000000E+00 -0.13680526032E+04  0.13680526032E+04  0.50400001928E-02 0.  1.
    10030    2    1    2    0    0  0.00000000000E+00  0.00000000000E+00 -0.63807762984E+03  0.20980275766E+04  0.19986437027E+04 0.  0.
        2    1    3    3  502    0  0.80677414219E+03  0.55337034626E+03 -0.53298955576E+03  0.11140830863E+04  0.25500000920E-02 0.  1.
       -2    1    3    3    0  502 -0.80677414219E+03 -0.55337034626E+03 -0.10508807408E+03  0.98394449027E+03  0.25500000920E-02 0. -1.
</event>
<event>
 5   0  0.2093980E-05  0.2001060E+04  0.7818609E-02  0.8606125E-01
       -1   -1    0    0    0  501  0.00000000000E+00  0.00000000000E+00  0.91536205866E+03  0.91536205867E+03  0.50400001928E-02 0.  1.
        1   -1    0    0  501    0  0.00000000000E+00  0.00000000000E+00 -0.10936224108E+04  0.10936224108E+04  0.50400001928E-02 0. -1.
    10030    2    1    2    0    0  0.00000000000E+00  0.00000000000E+00 -0.17826035217E+03  0.20089844695E+04  0.20010601804E+04 0.  0.
        2    1    3    3  502    0 -0.78576323634E+03  0.10135546203E+03 -0.70258481772E+03  0.10589250301E+04  0.25500000920E-02 0. -1.
       -2    1    3    3    0  502  0.78576323634E+03 -0.10135546203E+03  0.52432446554E+03  0.95005943943E+03  0.25500000920E-02 0.  1.
</event>
<event>
 5   0  0.4473361E-05  0.2001066E+04  0.7818609E-02  0.8606122E-01
       -2   -1    0    0    0  501  0.00000000000E+00  0.00000000000E+00  0.16482096740E+04  0.16482096740E+04  0.25500000920E-02 0. -1.
        2   -1    0    0  501    0  0.00000000000E+00  0.00000000000E+00 -0.60736579778E+03  0.60736579778E+03  0.25500000920E-02 0.  1.
    10030    2    1    2    0    0  0.00000000000E+00  0.00000000000E+00  0.10408438762E+04  0.22555754717E+04  0.20010658995E+04 0.  0.
        2    1    3    3  502    0 -0.91256964517E+03  0.39492056893E+02  0.98067214830E+03  0.13401719450E+04  0.25500000920E-02 0. -1.
       -2    1    3    3    0  502  0.91256964517E+03 -0.39492056893E+02  0.60171727881E+02  0.91540352669E+03  0.25500000920E-02 0.  1.
</event>
<event>
 5   0  0.4514680E-05  0.2014689E+04  0.7818609E-02  0.8599784E-01
       -2   -1    0    0    0  501  0.00000000000E+00  0.00000000000E+00  0.10054460630E+04  0.10054460630E+04  0.25500000920E-02 0.  1.
        2   -1    0    0  501    0  0.00000000000E+00  0.00000000000E+00 -0.10092467104E+04  0.10092467104E+04  0.25500000920E-02 0. -1.
    10030    2    1    2    0    0  0.00000000000E+00  0.00000000000E+00 -0.38006473977E+01  0.20146927734E+04  0.20146891885E+04 0.  0.
        3    1    3    3  502    0 -0.25435106219E+03 -0.56680395192E+03 -0.79485945018E+03  0.10088422763E+04  0.10100000352E+00 0. -1.
       -3    1    3    3    0  502  0.25435106219E+03  0.56680395192E+03  0.79105880278E+03  0.10058504970E+04  0.10100000352E+00 0.  1.
</event>
<event>
 5   0  0.4473361E-05  0.1995005E+04  0.7818609E-02  0.8608959E-01
        2   -1    0    0  501    0  0.00000000000E+00  0.00000000000E+00  0.11468625896E+04  0.11468625896E+04  0.25500000920E-02 0. -1.
       -2   -1    0    0    0  501  0.00000000000E+00  0.00000000000E+00 -0.86759450955E+03  0.86759450955E+03  0.25500000920E-02 0.  1.
    10030    2    1    2    0    0  0.00000000000E+00  0.00000000000E+00  0.27926808002E+03  0.20144570991E+04  0.19950054495E+04 0.  0.
        2    1    3    3  502    0 -0.34433688847E+03  0.30874379034E+03  0.10320618831E+04  0.11309475458E+04  0.25500000920E-02 0. -1.
       -2    1    3    3    0  502  0.34433688847E+03 -0.30874379034E+03 -0.75279380308E+03  0.88350955331E+03  0.25500000920E-02 0.  1.
</event>
<event>
 5   0  0.4577279E-05  0.1996066E+04  0.7818609E-02  0.8608462E-01
        2   -1    0    0  501    0  0.00000000000E+00  0.00000000000E+00  0.23431983471E+04  0.23431983471E+04  0.25500000920E-02 0. -1.
       -2   -1    0    0    0  501  0.00000000000E+00  0.00000000000E+00 -0.42509006347E+03  0.42509006348E+03  0.25500000920E-02 0.  1.
    10030    2    1    2    0    0  0.00000000000E+00  0.00000000000E+00  0.19181082837E+04  0.27682884106E+04  0.19960664660E+04 0.  0.
        1    1    3    3  502    0 -0.40467440449E+03  0.29848579826E+03  0.21546753892E+04  0.22125734289E+04  0.50400001928E-02 0. -1.
       -1    1    3    3    0  502  0.40467440449E+03 -0.29848579826E+03 -0.23656710556E+03  0.55571498169E+03  0.50400001928E-02 0.  1.
</event>
<event>
 5   0  0.2142551E-05  0.1999321E+04  0.7818609E-02  0.8606938E-01
       -1   -1    0    0    0  501  0.00000000000E+00  0.00000000000E+00  0.66292424378E+03  0.66292424380E+03  0.50400001928E-02 0. -1.
        1   -1    0    0  501    0  0.00000000000E+00  0.00000000000E+00 -0.15074434108E+04  0.15074434108E+04  0.50400001928E-02 0.  1.
    10030    2    1    2    0    0  0.00000000000E+00  0.00000000000E+00 -0.84451916703E+03  0.21703676546E+04  0.19993206678E+04 0.  0.
        3    1    3    3  502    0 -0.59446164672E+03  0.45032654135E+03  0.30038104211E+03  0.80399466661E+03  0.10100000352E+00 0. -1.
       -3    1    3    3    0  502  0.59446164672E+03 -0.45032654135E+03 -0.11449002091E+04  0.13663729880E+04  0.10100000352E+00 0.  1.
</event>
<event>
 5   0  0.4447313E-05  0.1996641E+04  0.7818609E-02  0.8608193E-01
       -2   -1    0    0    0  501  0.00000000000E+00  0.00000000000E+00  0.10153365348E+04  0.10153365348E+04  0.25500000920E-02 0.  1.
        2   -1    0    0  501    0  0.00000000000E+00  0.00000000000E+00 -0.98158975116E+03  0.98158975116E+03  0.25500000920E-02 0. -1.
    10030    2    1    2    0    0  0.00000000000E+00  0.00000000000E+00  0.33746783660E+02  0.19969262860E+04  0.19966411160E+04 0.  0.
        5    1    3    3  502    0 -0.18175081246E+02 -0.73901381238E+03  0.68790147806E+03  0.10098030907E+04  0.46999998093E+01 0.  1.
       -5    1    3    3    0  502  0.18175081246E+02  0.73901381238E+03 -0.65415469440E+03  0.98712319528E+03  0.46999998093E+01 0. -1.
</event>
<event>
 5   0  0.4412054E-05  0.2008180E+04  0.7818609E-02  0.8602806E-01
       -2   -1    0    0    0  501  0.00000000000E+00  0.00000000000E+00  0.47917356634E+03  0.47917356634E+03  0.25500000920E-02 0. -1.
        2   -1    0    0  501    0  0.00000000000E+00  0.00000000000E+00 -0.21040326236E+04  0.21040326236E+04  0.25500000920E-02 0.  1.
    10030    2    1    2    0    0  0.00000000000E+00  0.00000000000E+00 -0.16248590572E+04  0.25832061899E+04  0.20081800875E+04 0.  0.
        4    1    3    3  502    0  0.30759926352E+03  0.82441586804E+03 -0.19029153168E+03  0.90027290880E+03  0.12699999809E+01 0. -1.
       -4    1    3    3    0  502 -0.30759926352E+03 -0.82441586804E+03 -0.14345675256E+04  0.16829332811E+04  0.12699999809E+01 0.  1.
</event>
<event>
 5   0  0.4473361E-05  0.1952803E+04  0.7818609E-02  0.8629010E-01
        2   -1    0    0  501    0  0.00000000000E+00  0.00000000000E+00  0.15528297209E+04  0.15528297209E+04  0.25500000920E-02 0. -1.
       -2   -1    0    0    0  501  0.00000000000E+00  0.00000000000E+00 -0.61395001912E+03  0.61395001912E+03  0.25500000920E-02 0.  1.
    10030    2    1    2    0    0  0.00000000000E+00  0.00000000000E+00  0.93887970177E+03  0.21667797400E+04  0.19528029464E+04 0.  0.
        2    1    3    3  502    0 -0.17253289005E+03 -0.86807925346E+03  0.11909456687E+02  0.88513898547E+03  0.25500000920E-02 0.  1.
       -2    1    3    3    0  502  0.17253289005E+03  0.86807925346E+03  0.92697024508E+03  0.12816407545E+04  0.25500000920E-02 0. -1.
</event>
<event>
 5   0  0.2142551E-05  0.2002070E+04  0.7818609E-02  0.8605653E-01
        1   -1    0    0  501    0  0.00000000000E+00  0.00000000000E+00  0.15079323802E+04  0.15079323802E+04  0.50400001928E-02 0.  1.
       -1   -1    0    0    0  501  0.00000000000E+00  0.00000000000E+00 -0.66453336365E+03  0.66453336367E+03  0.50400001928E-02 0. -1.
    10030    2    1    2    0    0  0.00000000000E+00  0.00000000000E+00  0.84339901655E+03  0.21724657439E+04  0.20020703053E+04 0.  0.
        3    1    3    3  502    0  0.34015329564E+03 -0.23252100742E+03  0.14116508367E+04  0.14705537659E+04  0.10100000352E+00 0.  1.
       -3    1    3    3    0  502 -0.34015329564E+03  0.23252100742E+03 -0.56825182019E+03  0.70191197794E+03  0.10100000352E+00 0. -1.
</event>
<event>
 5   0  0.2256868E-05  0.2002472E+04  0.7818609E-02  0.8605466E-01
        1   -1    0    0  501    0  0.00000000000E+00  0.00000000000E+00  0.21469374000E+04  0.21469374001E+04  0.50400001928E-02 0.  1.
       -1   -1    0    0    0  501  0.00000000000E+00  0.00000000000E+00 -0.46693169302E+03  0.46693169305E+03  0.50400001928E-02 0. -1.
    10030    2    1    2    0    0  0.00000000000E+00  0.00000000000E+00  0.16800057070E+04  0.26138690931E+04  0.20024715879E+04 0.  0.
        5    1    3    3  502    0  0.51031458376E+03 -0.77346936473E+03  0.13349507122E+04  0.16250511766E+04  0.46999998093E+01 0.  1.
       -5    1    3    3    0  502 -0.51031458376E+03  0.77346936473E+03  0.34505499487E+03  0.98881791653E+03  0.46999998093E+01 0. -1.
</event>
<event>
 5   0  0.4577279E-05  0.1998414E+04  0.7818609E-02  0.8607363E-01
        2   -1    0    0  501    0  0.00000000000E+00  0.00000000000E+00  0.64257388858E+03  0.64257388858E+03  0.25500000920E-02 0.  1.
       -2   -1    0    0    0  501  0.00000000000E+00  0.00000000000E+00 -0.15537736842E+04  0.15537736842E+04  0.25500000920E-02 0. -1.
    10030    2    1    2    0    0  0.00000000000E+00  0.00000000000E+00 -0.91119979559E+03  0.21963475727E+04  0.19984137692E+04 0.  0.
        1    1    3    3  502    0  0.70563716993E+03  0.67626131369E+03 -0.68392964830E+03  0.11929010620E+04  0.50400001928E-02 0.  1.
       -1    1    3    3    0  502 -0.70563716993E+03 -0.67626131369E+03 -0.22727014729E+03  0.10034465107E+04  0.50400001928E-02 0. -1.
</event>
<event>
 5   0  0.4447313E-05  0.1996187E+04  0.7818609E-02  0.8608406E-01
        2   -1    0    0  501    0  0.00000000000E+00  0.00000000000E+00  0.12402449150E+04  0.12402449150E+04  0.25500000920E-02 0.  1.
       -2   -1    0    0    0  501  0.00000000000E+00  0.00000000000E+00 -0.80322053822E+03  0.80322053822E+03  0.25500000920E-02 0. -1.
    10030    2    1    2    0    0  0.00000000000E+00  0.00000000000E+00  0.43702437673E+03  0.20434654532E+04  0.19961865525E+04 0.  0.
        5    1    3    3  502    0  0.48704119604E+03 -0.53222601624E+03  0.92455366017E+03  0.11727298152E+04  0.46999998093E+01 0.  1.
       -5    1    3    3    0  502 -0.48704119604E+03  0.53222601624E+03 -0.48752928344E+03  0.87073563795E+03  0.46999998093E+01 0. -1.
</event>
<event>
 5   0  0.4447313E-05  0.1992682E+04  0.7818609E-02  0.8610050E-01
        2   -1    0    0  501    0  0.00000000000E+00  0.00000000000E+00  0.17535149806E+04  0.17535149806E+04  0.25500000920E-02 0.  1.
       -2   -1    0    0    0  501  0.00000000000E+00  0.00000000000E+00 -0.56611758532E+03  0.56611758533E+03  0.25500000920E-02 0. -1.
    10030    2    1    2    0    0  0.00000000000E+00  0.00000000000E+00  0.11873973953E+04  0.23196325660E+04  0.19926822794E+04 0.  0.
        5    1    3    3  502    0  0.59663146294E+03  0.61565765469E+03  0.27998081851E+01  0.85734087694E+03  0.46999998093E+01 0.  1.
       -5    1    3    3    0  502 -0.59663146294E+03 -0.61565765469E+03  0.11845975871E+04  0.14622916890E+04  0.46999998093E+01 0. -1.
</event>
<event>
 5   0  0.2110896E-05  0.2041042E+04  0.7818609E-02  0.8587669E-01
        1   -1    0    0  501    0  0.00000000000E+00  0.00000000000E+00  0.51837250911E+03  0.51837250913E+03  0.50400001928E-02 0. -1.
       -1   -1    0    0    0  501  0.00000000000E+00  0.00000000000E+00 -0.20091025556E+04  0.20091025556E+04  0.50400001928E-02 0.  1.
    10030    2    1    2    0    0  0.00000000000E+00  0.00000000000E+00 -0.14907300465E+04  0.25274750647E+04  0.20410424129E+04 0.  0.
        4    1    3    3  502    0 -0.93489447369E+02 -0.66401894201E+03 -0.16979911967E+04  0.18256059677E+04  0.12699999809E+01 0.  1.
       -4    1    3    3    0  502  0.93489447369E+02  0.66401894201E+03  0.20726115024E+03  0.70186909707E+03  0.12699999809E+01 0. -1.
</event>
<event>
 5   0  0.2110896E-05  0.2000147E+04  0.7818609E-02  0.8606552E-01
       -1   -1    0    0    0  501  0.00000000000E+00  0.00000000000E+00  0.99522077314E+03  0.99522077316E+03  0.50400001928E-02 0. -1.
        1   -1    0    0  501    0  0.00000000000E+00  0.00000000000E+00 -0.10049500093E+04  0.10049500093E+04  0.50400001928E-02 0.  1.
    10030    2    1    2    0    0  0.00000000000E+00  0.00000000000E+00 -0.97292361711E+01  0.20001707825E+04  0.20001471199E+04 0.  0.
        4    1    3    3  502    0 -0.73758383628E+03  0.33736293895E+03  0.58020797866E+03  0.99723947952E+03  0.12699999809E+01 0. -1.
       -4    1    3    3    0  502  0.73758383628E+03 -0.33736293895E+03 -0.58993721483E+03  0.10029313030E+04  0.12699999809E+01 0.  1.
</event>
<event>
 5   0  0.2093980E-05  0.2004641E+04  0.7818609E-02  0.8604454E-01
        1   -1    0    0  501    0  0.00000000000E+00  0.00000000000E+00  0.16879864581E+04  0.16879864581E+04  0.50400001928E-02 0.  1.
       -1   -1    0    0    0  501  0.00000000000E+00  0.00000000000E+00 -0.59517462064E+03  0.59517462066E+03  0.50400001928E-02 0. -1.
    10030    2    1    2    0    0  0.00000000000E+00  0.00000000000E+00  0.10928118375E+04  0.22831610788E+04  0.20046413144E+04 0.  0.
        2    1    3    3  502    0 -0.73037797709E+03 -0.25392300406E+03  0.12727568128E+04  0.14892410100E+04  0.25500000920E-02 0.  1.
       -2    1    3    3    0  502  0.73037797709E+03  0.25392300406E+03 -0.17994497534E+03  0.79392006875E+03  0.25500000920E-02 0. -1.
</event>
<event>
 5   0  0.4577279E-05  0.1965345E+04  0.7818609E-02  0.8622997E-01
        2   -1    0    0  501    0  0.00000000000E+00  0.00000000000E+00  0.11110570033E+04  0.11110570033E+04  0.25500000920E-02 0. -1.
       -2   -1    0    0    0  501  0.00000000000E+00  0.00000000000E+00 -0.86912267563E+03  0.86912267563E+03  0.25500000920E-02 0.  1.
    10030    2    1    2    0    0  0.00000000000E+00  0.00000000000E+00  0.24193432765E+03  0.19801796789E+04  0.19653445860E+04 0.  0.
        1    1    3    3  502    0 -0.72427329118E+03  0.45626559515E+03 -0.36526729592E+03  0.93068270163E+03  0.50400001928E-02 0.  1.
       -1    1    3    3    0  502  0.72427329118E+03 -0.45626559515E+03  0.60720162356E+03  0.10494969773E+04  0.50400001928E-02 0. -1.
</event>
<event>
 5   0  0.4447313E-05  0.1996618E+04  0.7818609E-02  0.8608204E-01
        2   -1    0    0  501    0  0.00000000000E+00  0.00000000000E+00  0.15239112788E+04  0.15239112788E+04  0.25500000920E-02 0.  1.
       -2   -1    0    0    0  501  0.00000000000E+00  0.00000000000E+00 -0.65398863165E+03  0.65398863165E+03  0.25500000920E-02 0. -1.
    10030    2    1    2    0    0  0.00000000000E+00  0.00000000000E+00  0.86992264716E+03  0.21778999105E+04  0.19966177922E+04 0.  0.
        5    1    3    3  502    0 -0.96989132560E+03  0.16445903168E+03  0.24964625006E+03  0.10149292077E+04  0.46999998093E+01 0. -1.
       -5    1    3    3    0  502  0.96989132560E+03 -0.16445903168E+03  0.62027639710E+03  0.11629707027E+04  0.46999998093E+01 0.  1.
</event>
<event>
 5   0  0.4514680E-05  0.1964282E+04  0.7818609E-02  0.8623505E-01
       -2   -1    0    0    0  501  0.00000000000E+00  0.00000000000E+00  0.90956346838E+03  0.90956346839E+03  0.25500000920E-02 0. -1.
        2   -1    0    0  501    0  0.00000000000E+00  0.00000000000E+00 -0.10605096593E+04  0.10605096593E+04  0.25500000920E-02 0.  1.
    10030    2    1    2    0    0  0.00000000000E+00  0.00000000000E+00 -0.15094619087E+03  0.19700731276E+04  0.19642818982E+04 0.  0.
        3    1    3    3  502    0  0.94287610655E+03 -0.27353570992E+03 -0.47756554709E+02  0.98291293390E+03  0.10100000352E+00 0. -1.
       -3    1    3    3    0  502 -0.94287610655E+03  0.27353570992E+03 -0.10318963616E+03  0.98716019375E+03  0.10100000352E+00 0.  1.
</event>
<event>
 5   0  0.2110896E-05  0.1968433E+04  0.7818609E-02  0.8621523E-01
        1   -1    0    0  501    0  0.00000000000E+00  0.00000000000E+00  0.14164516330E+04  0.14164516330E+04  0.50400001928E-02 0.  1.
       -1   -1    0    0    0  501  0.00000000000E+00  0.00000000000E+00 -0.68387963464E+03  0.68387963466E+03  0.50400001928E-02 0. -1.
    10030    2    1    2    0    0  0.00000000000E+00  0.00000000000E+00  0.73257199832E+03  0.21003312676E+04  0.19684333113E+04 0.  0.
        4    1    3    3  502    0 -0.11518971397E+03  0.87156356612E+02 -0.67250718039E+03  0.68784621920E+03  0.12699999809E+01 0. -1.
       -4    1    3    3    0  502  0.11518971397E+03 -0.87156356612E+02  0.14050791787E+04  0.14124850484E+04  0.12699999809E+01 0.  1.
</event>
<event>
 5   0  0.4577279E-05  0.2008143E+04  0.7818609E-02  0.8602823E-01
       -2   -1    0    0    0  501  0.00000000000E+00  0.00000000000E+00  0.13561624258E+04  0.13561624258E+04  0.25500000920E-02 0.  1.
        2   -1    0    0  501    0  0.00000000000E+00  0.00000000000E+00 -0.74339115957E+03  0.74339115957E+03  0.25500000920E-02 0. -1.
    10030    2    1    2    0    0  0.00000000000E+00  0.00000000000E+00  0.61277126621E+03  0.20995535854E+04  0.20081425829E+04 0.  0.
        1    1    3    3  502    0 -0.37345338049E+03  0.75041133785E+03  0.88433662270E+03  0.12184563454E+04  0.50400001928E-02 0.  1.
       -1    1    3    3    0  502  0.37345338049E+03 -0.75041133785E+03 -0.27156535649E+03  0.88109723995E+03  0.50400001928E-02 0. -1.
</event>
<event>
 5   0  0.2110896E-05  0.1997681E+04  0.7818609E-02  0.8607706E-01
       -1   -1    0    0    0  501  0.00000000000E+00  0.00000000000E+00  0.68317420237E+03  0.68317420239E+03  0.50400001928E-02 0. -1.
        1   -1    0    0  501    0  0.00000000000E+00  0.00000000000E+00 -0.14603633240E+04  0.14603633240E+04  0.50400001928E-02 0.  1.
    10030    2    1    2    0    0  0.00000000000E+00  0.00000000000E+00 -0.77718912163E+03  0.21435375264E+04  0.19976812049E+04 0.  0.
        4    1    3    3  502    0 -0.11097317671E+03  0.44079388701E+03  0.56576371175E+03  0.72574409209E+03  0.12699999809E+01 0. -1.
       -4    1    3    3    0  502  0.11097317671E+03 -0.44079388701E+03 -0.13429528334E+04  0.14177934343E+04  0.12699999809E+01 0.  1.
</event>
<event>
 5   0  0.4514680E-05  0.2024113E+04  0.7818609E-02  0.8595429E-01
        2   -1    0    0  501    0  0.00000000000E+00  0.00000000000E+00  0.11984813378E+04  0.11984813378E+04  0.25500000920E-02 0.  1.
       -2   -1    0    0    0  501  0.00000000000E+00  0.00000000000E+00 -0.85462992523E+03  0.85462992523E+03  0.25500000920E-02 0. -1.
    10030    2    1    2    0    0  0.00000000000E+00  0.00000000000E+00  0.34385141253E+03  0.20531112630E+04  0.20241126610E+04 0.  0.
        3    1    3    3  502    0 -0.45463725512E+03 -0.82912530077E+03  0.53780696533E+03  0.10878327722E+04  0.10100000352E+00 0.  1.
       -3    1    3    3    0  502  0.45463725512E+03  0.82912530077E+03 -0.19395555280E+03  0.96527849079E+03  0.10100000352E+00 0. -1.
</event>
<event>
 5   0  0.4412054E-05  0.1996631E+04  0.7818609E-02  0.8608198E-01
        2   -1    0    0  501    0  0.00000000000E+00  0.00000000000E+00  0.20866797359E+04  0.20866797359E+04  0.25500000920E-02 0. -1.
       -2   -1    0    0    0  501  0.00000000000E+00  0.00000000000E+00 -0.47761690997E+03  0.47761690997E+03  0.25500000920E-02 0.  1.
    10030    2    1    2    0    0  0.00000000000E+00  0.00000000000E+00  0.16090628260E+04  0.25642966459E+04  0.19966306895E+04 0.  0.
        4    1    3    3  502    0  0.34429834518E+02 -0.33109665646E+03 -0.40423847283E+03  0.52366092583E+03  0.12699999809E+01 0.  1.
       -4    1    3    3    0  502 -0.34429834518E+02  0.33109665646E+03  0.20133012988E+04  0.20406357201E+04  0.12699999809E+01 0. -1.
</event>
<event>
 5   0  0.2007644E-05  0.2002482E+04  0.7818609E-02  0.8605461E-01
       -1   -1    0    0    0  501  0.00000000000E+00  0.00000000000E+00  0.10115484831E+04  0.10115484831E+04  0.50400001928E-02 0. -1.
        1   -1    0    0  501    0  0.00000000000E+00  0.00000000000E+00 -0.99103861288E+03  0.99103861290E+03  0.50400001928E-02 0.  1.
    10030    2    1    2    0    0  0.00000000000E+00  0.00000000000E+00  0.20509870173E+02  0.20025870960E+04  0.20024820654E+04 0.  0.
        1    1    3    3  502    0 -0.14954725115E+03 -0.11299588489E+03 -0.97333676545E+03  0.99121990968E+03  0.50400001928E-02 0.  1.
       -1    1    3    3    0  502  0.14954725115E+03  0.11299588489E+03  0.99384663563E+03  0.10113671863E+04  0.50400001928E-02 0. -1.
</event>
<event>
 5   0  0.4577279E-05  0.2010336E+04  0.7818609E-02  0.8601803E-01
       -2   -1    0    0    0  501  0.00000000000E+00  0.00000000000E+00  0.59305398342E+03  0.59305398343E+03  0.25500000920E-02 0. -1.
        2   -1    0    0  501    0  0.00000000000E+00  0.00000000000E+00 -0.17036605814E+04  0.17036605814E+04  0.25500000920E-02 0.  1.
    10030    2    1    2    0    0  0.00000000000E+00  0.00000000000E+00 -0.11106065980E+04  0.22967145649E+04  0.20103359861E+04 0.  0.
        1    1    3    3  502    0 -0.71133205615E+03 -0.70798741230E+03 -0.61915021937E+03  0.11792313023E+04  0.50400001928E-02 0.  1.
       -1    1    3    3    0  502  0.71133205615E+03  0.70798741230E+03 -0.49145637865E+03  0.11174832626E+04  0.50400001928E-02 0. -1.
</event>
<event>
 5   0  0.2256868E-05  0.2000981E+04  0.7818609E-02  0.8606162E-01
       -1   -1    0    0    0  501  0.00000000000E+00  0.00000000000E+00  0.10144391935E+04  0.10144391935E+04  0.50400001928E-02 0. -1.
        1   -1    0    0  501    0  0.00000000000E+00  0.00000000000E+00 -0.98673384402E+03  0.98673384403E+03  0.50400001928E-02 0.  1.
    10030    2    1    2    0    0  0.00000000000E+00  0.00000000000E+00  0.27705349458E+02  0.20011730375E+04  0.20009812442E+04 0.  0.
        5    1    3    3  502    0  0.24080436000E+03  0.68387390026E+02  0.98260222918E+03  0.10139984249E+04  0.46999998093E+01 0. -1.
       -5    1    3    3    0  502 -0.24080436000E+03 -0.68387390026E+02 -0.95489687972E+03  0.98717461262E+03  0.46999998093E+01 0.  1.
</event>
<event>
 5   0  0.2256868E-05  0.1983201E+04  0.7818609E-02  0.8614515E-01
        1   -1    0    0  501    0  0.00000000000E+00  0.00000000000E+00  0.86693960008E+03  0.86693960009E+03  0.50400001928E-02 0. -1.
       -1   -1    0    0    0  501  0.00000000000E+00  0.00000000000E+00 -0.11341868769E+04  0.11341868769E+04  0.50400001928E-02 0.  1.
    10030    2    1    2    0    0  0.00000000000E+00  0.00000000000E+00 -0.26724727685E+03  0.20011264770E+04  0.19832009656E+04 0.  0.
        5    1    3    3  502    0  0.71546102016E+03  0.13190625359E+03  0.54623611347E+03  0.90976904364E+03  0.46999998093E+01 0. -1.
       -5    1    3    3    0  502 -0.71546102016E+03 -0.13190625359E+03 -0.81348339032E+03  0.10913574334E+04  0.46999998093E+01 0.  1.
</event>
<event>
 5   0  0.2110896E-05  0.1999523E+04  0.7818609E-02  0.8606844E-01
       -1   -1    0    0    0  501  0.00000000000E+00  0.00000000000E+00  0.15627753295E+04  0.15627753295E+04  0.50400001928E-02 0.  1.
        1   -1    0    0  501    0  0.00000000000E+00  0.00000000000E+00 -0.63958177543E+03  0.63958177545E+03  0.50400001928E-02 0. -1.
    10030    2    1    2    0    0  0.00000000000E+00  0.00000000000E+00  0.92319355408E+03  0.22023571050E+04  0.19995225629E+04 0.  0.
        4    1    3    3  502    0  0.70699019001E+03  0.20371428355E+03 -0.28396307417E+03  0.78865155708E+03  0.12699999809E+01 0. -1.
       -4    1    3    3    0  502 -0.70699019001E+03 -0.20371428355E+03  0.12071566282E+04  0.14137055479E+04  0.12699999809E+01 0.  1.
</event>
<event>
 5   0  0.2142551E-05  0.2019523E+04  0.7818609E-02  0.8597547E-01
        1   -1    0    0  501    0  0.00000000000E+00  0.00000000000E+00  0.16699939592E+04  0.16699939592E+04  0.50400001928E-02 0. -1.
       -1   -1    0    0    0  501  0.00000000000E+00  0.00000000000E+00 -0.61055188286E+03  0.61055188288E+03  0.50400001928E-02 0.  1.
    10030    2    1    2    0    0  0.00000000000E+00  0.00000000000E+00  0.10594420763E+04  0.22805458420E+04  0.20195226725E+04 0.  0.
        3    1    3    3  502    0  0.98225238869E+03  0.19349271184E+03  0.38093936457E+03  0.10711554482E+04  0.10100000352E+00 0.  1.
       -3    1    3    3    0  502 -0.98225238869E+03 -0.19349271184E+03  0.67850271172E+03  0.12093903938E+04  0.10100000352E+00 0. -1.
</event>
<event>
 5   0  0.2142551E-05  0.1996078E+04  0.7818609E-02  0.8608456E-01
       -1   -1    0    0    0  501  0.00000000000E+00  0.00000000000E+00  0.59563585401E+03  0.59563585403E+03  0.50400001928E-02 0.  1.
        1   -1    0    0  501    0  0.00000000000E+00  0.00000000000E+00 -0.16723002534E+04  0.16723002534E+04  0.50400001928E-02 0. -1.
    10030    2    1    2    0    0  0.00000000000E+00  0.00000000000E+00 -0.10766643994E+04  0.22679361074E+04  0.19960781444E+04 0.  0.
        3    1    3    3  502    0  0.56489362065E+03 -0.31849904293E+01 -0.14731716594E+04  0.15777673134E+04  0.10100000352E+00 0. -1.
       -3    1    3    3    0  502 -0.56489362065E+03  0.31849904293E+01  0.39650726004E+03  0.69016879405E+03  0.10100000352E+00 0.  1.
</event>
<event>
 5   0  0.2110896E-05  0.2002655E+04  0.7818609E-02  0.8605380E-01
       -1   -1    0    0    0  501  0.00000000000E+00  0.00000000000E+00  0.70894519352E+03  0.70894519354E+03  0.50400001928E-02 0. -1.
        1   -1    0    0  501    0  0.00000000000E+00  0.00000000000E+00 -0.14142936233E+04  0.14142936233E+04  0.50400001928E-02 0.  1.
    10030    2    1    2    0    0  0.00000000000E+00  0.00000000000E+00 -0.70534842980E+03  0.21232388169E+04  0.20026549044E+04 0.  0.
        4    1    3    3  502    0 -0.48592249682E+03 -0.80272740042E+03 -0.72323781036E+03  0.11847221174E+04  0.12699999809E+01 0.  1.
       -4    1    3    3    0  502  0.48592249682E+03  0.80272740042E+03  0.17889380557E+02  0.93851669944E+03  0.12699999809E+01 0. -1.
</event>
<event>
 5   0  0.2142551E-05  0.2003994E+04  0.7818609E-02  0.8604756E-01
        1   -1    0    0  501    0  0.00000000000E+00  0.00000000000E+00  0.93904850288E+03  0.93904850289E+03  0.50400001928E-02 0.  1.
       -1   -1    0    0    0  501  0.00000000000E+00  0.00000000000E+00 -0.10691653661E+04  0.10691653661E+04  0.50400001928E-02 0. -1.
    10030    2    1    2    0    0  0.00000000000E+00  0.00000000000E+00 -0.13011686324E+03  0.20082138690E+04  0.20039941481E+04 0.  0.
        3    1    3    3  502    0  0.11055389466E+03 -0.51091684755E+03 -0.92169169636E+03  0.10596102029E+04  0.10100000352E+00 0. -1.
       -3    1    3    3    0  502 -0.11055389466E+03  0.51091684755E+03  0.79157483313E+03  0.94860366612E+03  0.10100000352E+00 0.  1.
</event>
<event>
 5   0  0.2007644E-05  0.1986914E+04  0.7818609E-02  0.8612764E-01
       -1   -1    0    0    0  501  0.00000000000E+00  0.00000000000E+00  0.79099569735E+03  0.79099569737E+03  0.50400001928E-02 0. -1.
        1   -1    0    0  501    0  0.00000000000E+00  0.00000000000E+00 -0.12477392481E+04  0.12477392481E+04  0.50400001928E-02 0.  1.
    10030    2    1    2    0    0  0.00000000000E+00  0.00000000000E+00 -0.45674355076E+03  0.20387349455E+04  0.19869135630E+04 0.  0.
        1    1    3    3  502    0 -0.30272729967E+03  0.26459522434E+03 -0.11605269657E+04  0.12282008340E+04  0.50400001928E-02 0.  1.
       -1    1    3    3    0  502  0.30272729967E+03 -0.26459522434E+03  0.70378341489E+03  0.81053411144E+03  0.50400001928E-02 0. -1.
</event>
<event>
 5   0  0.2256868E-05  0.1980041E+04  0.7818609E-02  0.8616010E-01
        1   -1    0    0  501    0  0.00000000000E+00  0.00000000000E+00  0.97640300091E+03  0.97640300092E+03  0.50400001928E-02 0. -1.
       -1   -1    0    0    0  501  0.00000000000E+00  0.00000000000E+00 -0.10038276710E+04  0.10038276711E+04  0.50400001928E-02 0.  1.
    10030    2    1    2    0    0  0.00000000000E+00  0.00000000000E+00 -0.27424670134E+02  0.19802306720E+04  0.19800407576E+04 0.  0.
        5    1    3    3  502    0  0.17482395450E+03 -0.32674278416E+03  0.90441384267E+03  0.97739999533E+03  0.46999998093E+01 0. -1.
       -5    1    3    3    0  502 -0.17482395450E+03  0.32674278416E+03 -0.93183851280E+03  0.10028306766E+04  0.46999998093E+01 0.  1.
</event>
<event>
 5   0  0.4514680E-05  0.1939487E+04  0.7818609E-02  0.8635447E-01
        2   -1    0    0  501    0  0.00000000000E+00  0.00000000000E+00  0.10740310193E+04  0.10740310193E+04  0.25500000920E-02 0. -1.
       -2   -1    0    0    0  501  0.00000000000E+00  0.00000000000E+00 -0.87558243616E+03  0.87558243617E+03  0.25500000920E-02 0.  1.
    10030    2    1    2    0    0  0.00000000000E+00  0.00000000000E+00  0.19844858312E+03  0.19496134555E+04  0.19394872481E+04 0.  0.
        3    1    3    3  502    0  0.29661514666E+03  0.40775148242E+03 -0.73344885441E+03  0.89005002606E+03  0.10100000352E+00 0.  1.
       -3    1    3    3    0  502 -0.29661514666E+03 -0.40775148242E+03  0.93189743753E+03  0.10595634294E+04  0.10100000352E+00 0. -1.
</event>
<event>
 5   0  0.4473361E-05  0.1970648E+04  0.7818609E-02  0.8620468E-01
       -2   -1    0    0    0  501  0.00000000000E+00  0.00000000000E+00  0.67694819778E+03  0.67694819778E+03  0.25500000920E-02 0.  1.
        2   -1    0    0  501    0  0.00000000000E+00  0.00000000000E+00 -0.14341768629E+04  0.14341768629E+04  0.25500000920E-02 0. -1.
    10030    2    1    2    0    0  0.00000000000E+00  0.00000000000E+00 -0.75722866515E+03  0.21111250607E+04  0.19706480585E+04 0.  0.
        2    1    3    3  502    0 -0.62957304247E+03 -0.33638514985E+03  0.34902872901E+03  0.79456795714E+03  0.25500000920E-02 0.  1.
       -2    1    3    3    0  502  0.62957304247E+03  0.33638514985E+03 -0.11062573942E+04  0.13165571036E+04  0.25500000920E-02 0. -1.
</event>
<event>
 5   0  0.2256868E-05  0.2010206E+04  0.7818609E-02  0.8601864E-01
       -1   -1    0    0    0  501  0.00000000000E+00  0.00000000000E+00  0.70822687117E+03  0.70822687118E+03  0.50400001928E-02 0.  1.
        1   -1    0    0  501    0  0.00000000000E+00  0.00000000000E+00 -0.14264243219E+04  0.14264243219E+04  0.50400001928E-02 0. -1.
    10030    2    1    2    0    0  0.00000000000E+00  0.00000000000E+00 -0.71819745073E+03  0.21346511931E+04  0.20102059939E+04 0.  0.
        5    1    3    3  502    0 -0.50735284803E+03  0.44118534437E+03 -0.11524492944E+04  0.13342461867E+04  0.46999998093E+01 0. -1.
       -5    1    3    3    0  502  0.50735284803E+03 -0.44118534437E+03  0.43425184371E+03  0.80040500639E+03  0.46999998093E+01 0.  1.
</event>
<event>
 5   0  0.4514680E-05  0.1996951E+04  0.7818609E-02  0.8608047E-01
       -2   -1    0    0    0  501  0.00000000000E+00  0.00000000000E+00  0.10380831482E+04  0.10380831482E+04  0.25500000920E-02 0. -1.
        2   -1    0    0  501    0  0.00000000000E+00  0.00000000000E+00 -0.96037913416E+03  0.96037913417E+03  0.25500000920E-02 0.  1.
    10030    2    1    2    0    0  0.00000000000E+00  0.00000000000E+00  0.77704014030E+02  0.19984622824E+04  0.19969510711E+04 0.  0.
        3    1    3    3  502    0 -0.71947134178E+01  0.85292585511E+03  0.55830078385E+03  0.10194282975E+04  0.10100000352E+00 0. -1.
       -3    1    3    3    0  502  0.71947134178E+01 -0.85292585511E+03 -0.48059676982E+03  0.97903398490E+03  0.10100000352E+00 0.  1.
</event>
<event>
 5   0  0.4577279E-05  0.1989280E+04  0.7818609E-02  0.8611649E-01
        2   -1    0    0  501    0  0.00000000000E+00  0.00000000000E+00  0.95971071116E+03  0.95971071117E+03  0.25500000920E-02 0.  1.
       -2   -1    0    0    0  501  0.00000000000E+00  0.00000000000E+00 -0.10308405323E+04  0.10308405323E+04  0.25500000920E-02 0. -1.
    10030    2    1    2    0    0  0.00000000000E+00  0.00000000000E+00 -0.71129821149E+02  0.19905512435E+04  0.19892799706E+04 0.  0.
        1    1    3    3  502    0 -0.16411063994E+03  0.52755151653E+03 -0.86317616934E+03  0.10248492592E+04  0.50400001928E-02 0. -1.
       -1    1    3    3    0  502  0.16411063994E+03 -0.52755151653E+03  0.79204634819E+03  0.96570198428E+03  0.50400001928E-02 0.  1.
</event>
<event>
 5   0  0.4412054E-05  0.2020136E+04  0.7818609E-02  0.8597264E-01
        2   -1    0    0  501    0  0.00000000000E+00  0.00000000000E+00  0.10036802280E+04  0.10036802280E+04  0.25500000920E-02 0. -1.
       -2   -1    0    0    0  501  0.00000000000E+00  0.00000000000E+00 -0.10164964995E+04  0.10164964995E+04  0.25500000920E-02 0.  1.
    10030    2    1    2    0    0  0.00000000000E+00  0.00000000000E+00 -0.12816271534E+02  0.20201767275E+04  0.20201360730E+04 0.  0.
        4    1    3    3  502    0  0.43318644248E+03  0.65769125576E+03  0.62608189943E+03  0.10060757623E+04  0.12699999809E+01 0. -1.
       -4    1    3    3    0  502 -0.43318644248E+03 -0.65769125576E+03 -0.63889817096E+03  0.10141009652E+04  0.12699999809E+01 0.  1.
</event>
<event>
 5   0  0.4473361E-05  0.2001091E+04  0.7818609E-02  0.8606111E-01
        2   -1    0    0  501    0  0.00000000000E+00  0.00000000000E+00  0.69349547828E+03  0.69349547829E+03  0.25500000920E-02 0. -1.
       -2   -1    0    0    0  501  0.00000000000E+00  0.00000000000E+00 -0.14435447018E+04  0.14435447018E+04  0.25500000920E-02 0.  1.
    10030    2    1    2    0    0  0.00000000000E+00  0.00000000000E+00 -0.75004922349E+03  0.21370401801E+04  0.20010914256E+04 0.  0.
        2    1    3    3  502    0 -0.11128785622E+03 -0.53274949412E+03  0.52158791597E+03  0.75383085936E+03  0.25500000920E-02 0. -1.
       -2    1    3    3    0  502  0.11128785622E+03  0.53274949412E+03 -0.12716371395E+04  0.13832093207E+04  0.25500000920E-02 0.  1.
</event>
<event>
 5   0  0.2256868E-05  0.1996851E+04  0.7818609E-02  0.8608095E-01
       -1   -1    0    0    0  501  0.00000000000E+00  0.00000000000E+00  0.13988083679E+04  0.13988083679E+04  0.50400001928E-02 0. -1.
        1   -1    0    0  501    0  0.00000000000E+00  0.00000000000E+00 -0.71264452101E+03  0.71264452103E+03  0.50400001928E-02 0.  1.
    10030    2    1    2    0    0  0.00000000000E+00  0.00000000000E+00  0.68616384688E+03  0.21114528889E+04  0.19968506397E+04 0.  0.
        5    1    3    3  502    0 -0.17887316093E+03  0.84528556867E+03  0.87212409678E+03  0.12276505327E+04  0.46999998093E+01 0. -1.
       -5    1    3    3    0  502  0.17887316093E+03 -0.84528556867E+03 -0.18596024990E+03  0.88380235621E+03  0.46999998093E+01 0.  1.
</event>
<event>
 5   0  0.4473361E-05  0.2000330E+04  0.7818609E-02  0.8606467E-01
        2   -1    0    0  501    0  0.00000000000E+00  0.00000000000E+00  0.15012639316E+04  0.15012639316E+04  0.25500000920E-02 0.  1.
       -2   -1    0    0    0  501  0.00000000000E+00  0.00000000000E+00 -0.66632496277E+03  0.66632496277E+03  0.25500000920E-02 0. -1.
    10030    2    1    2    0    0  0.00000000000E+00  0.00000000000E+00  0.83493896882E+03  0.21675888944E+04  0.20003296062E+04 0.  0.
        2    1    3    3  502    0  0.74823471107E+03 -0.60877436697E+02  0.11336144668E+04  0.13596481179E+04  0.25500000920E-02 0.  1.
       -2    1    3    3    0  502 -0.74823471107E+03  0.60877436697E+02 -0.29867549800E+03  0.80794077646E+03  0.25500000920E-02 0. -1.
</event>
<event>
 5   0  0.2256868E-05  0.2058844E+04  0.7818609E-02  0.8579593E-01
        1   -1    0    0  501    0  0.00000000000E+00  0.00000000000E+00  0.17740883566E+04  0.17740883566E+04  0.50400001928E-02 0.  1.
       -1   -1    0    0    0  501  0.00000000000E+00  0.00000000000E+00 -0.59732638006E+03  0.59732638009E+03  0.50400001928E-02 0. -1.
    10030    2    1    2    0    0  0.00000000000E+00  0.00000000000E+00  0.11767619766E+04  0.23714147367E+04  0.20588441184E+04 0.  0.
        5    1    3    3  502    0  0.21774233172E+03 -0.97220200215E+03  0.88674251214E+03  0.13337626584E+04  0.46999998093E+01 0.  1.
       -5    1    3    3    0  502 -0.21774233172E+03  0.97220200215E+03  0.29001946444E+03  0.10376520784E+04  0.46999998093E+01 0. -1.
</event>
<event>
 5   0  0.2110896E-05  0.2002027E+04  0.7818609E-02  0.8605673E-01
        1   -1    0    0  501    0  0.00000000000E+00  0.00000000000E+00  0.22130237844E+04  0.22130237844E+04  0.50400001928E-02 0.  1.
       -1   -1    0    0    0  501  0.00000000000E+00  0.00000000000E+00 -0.45278690643E+03  0.45278690646E+03  0.50400001928E-02 0. -1.
    10030    2    1    2    0    0  0.00000000000E+00  0.00000000000E+00  0.17602368780E+04  0.26658106909E+04  0.20020271659E+04 0.  0.
        4    1    3    3  502    0 -0.48738156235E+03 -0.84535077935E+02 -0.27867139358E+03  0.56775551536E+03  0.12699999809E+01 0. -1.
       -4    1    3    3    0  502  0.48738156235E+03  0.84535077935E+02  0.20389082716E+04  0.20980551755E+04  0.12699999809E+01 0.  1.
</event>
<event>
 5   0  0.2093980E-05  0.1993125E+04  0.7818609E-02  0.8609842E-01
        1   -1    0    0  501    0  0.00000000000E+00  0.00000000000E+00  0.10659076355E+04  0.10659076355E+04  0.50400001928E-02 0. -1.
       -1   -1    0    0    0  501  0.00000000000E+00  0.00000000000E+00 -0.93172831611E+03  0.93172831613E+03  0.50400001928E-02 0.  1.
    10030    2    1    2    0    0  0.00000000000E+00  0.00000000000E+00  0.13417931938E+03  0.19976359516E+04  0.19931245083E+04 0.  0.
        2    1    3    3  502    0  0.56166441133E+03 -0.56676682343E+03 -0.53129168794E+03  0.95862526608E+03  0.25500000920E-02 0.  1.
       -2    1    3    3    0  502 -0.56166441133E+03  0.56676682343E+03  0.66547100731E+03  0.10390106855E+04  0.25500000920E-02 0. -1.
</event>
<event>
 5   0  0.2110896E-05  0.2002741E+04  0.7818609E-02  0.8605340E-01
        1   -1    0    0  501    0  0.00000000000E+00  0.00000000000E+00  0.11702701549E+04  0.11702701549E+04  0.50400001928E-02 0. -1.
       -1   -1    0    0    0  501  0.00000000000E+00  0.00000000000E+00 -0.85684758190E+03  0.85684758191E+03  0.50400001928E-02 0.  1.
    10030    2    1    2    0    0  0.00000000000E+00  0.00000000000E+00  0.31342257296E+03  0.20271177368E+04  0.20027412737E+04 0.  0.
        4    1    3    3  502    0 -0.14489621323E+03  0.26668895834E+03  0.11225921963E+04  0.11628984328E+04  0.12699999809E+01 0. -1.
       -4    1    3    3    0  502  0.14489621323E+03 -0.26668895834E+03 -0.80916962330E+03  0.86421930393E+03  0.12699999809E+01 0.  1.
</event>
<event>
 5   0  0.4577279E-05  0.2017960E+04  0.7818609E-02  0.8598270E-01
        2   -1    0    0  501    0  0.00000000000E+00  0.00000000000E+00  0.18977362046E+04  0.18977362046E+04  0.25500000920E-02 0.  1.
       -2   -1    0    0    0  501  0.00000000000E+00  0.00000000000E+00 -0.53644995561E+03  0.53644995561E+03  0.25500000920E-02 0. -1.
    10030    2    1    2    0    0  0.00000000000E+00  0.00000000000E+00  0.13612862490E+04  0.24341861602E+04  0.20179598635E+04 0.  0.
        1    1    3    3  502    0 -0.32788207258E+03  0.84406525852E+02  0.18271682180E+04  0.18582719963E+04  0.50400001928E-02 0.  1.
       -1    1    3    3    0  502  0.32788207258E+03 -0.84406525852E+02 -0.46588196904E+03  0.57591416394E+03  0.50400001928E-02 0. -1.
</event>
<event>
 5   0  0.4412054E-05  0.2002262E+04  0.7818609E-02  0.8605564E-01
       -2   -1    0    0    0  501  0.00000000000E+00  0.00000000000E+00  0.10418868220E+04  0.10418868220E+04  0.25500000920E-02 0. -1.
        2   -1    0    0  501    0  0.00000000000E+00  0.00000000000E+00 -0.96196960919E+03  0.96196960919E+03  0.25500000920E-02 0.  1.
    10030    2    1    2    0    0  0.00000000000E+00  0.00000000000E+00  0.79917212779E+02  0.20038564312E+04  0.20022621796E+04 0.  0.
        4    1    3    3  502    0  0.95084341830E+03  0.48868375824E+02  0.34967313994E+03  0.10142801595E+04  0.12699999809E+01 0. -1.
       -4    1    3    3    0  502 -0.95084341830E+03 -0.48868375824E+02 -0.26975592716E+03  0.98957627165E+03  0.12699999809E+01 0.  1.
</event>
<event>
 5   0  0.2142551E-05  0.2002814E+04  0.7818609E-02  0.8605306E-01
       -1   -1    0    0    0  501  0.00000000000E+00  0.00000000000E+00  0.78789335369E+03  0.78789335370E+03  0.50400001928E-02 0.  1.
        1   -1    0    0  501    0  0.00000000000E+00  0.00000000000E+00 -0.12727813908E+04  0.12727813908E+04  0.50400001928E-02 0. -1.
    10030    2    1    2    0    0  0.00000000000E+00  0.00000000000E+00 -0.48488803708E+03  0.20606747445E+04  0.20028140188E+04 0.  0.
        3    1    3    3  502    0  0.70428296663E+03 -0.12449727933E+03 -0.96362299180E+03  0.12000347287E+04  0.10100000352E+00 0. -1.
       -3    1    3    3    0  502 -0.70428296663E+03  0.12449727933E+03  0.47873495471E+03  0.86064001575E+03  0.10100000352E+00 0.  1.
</event>
<event>
 5   0  0.4514680E-05  0.2000122E+04  0.7818609E-02  0.8606564E-01
        2   -1    0    0  501    0  0.00000000000E+00  0.00000000000E+00  0.77230243735E+03  0.77230243736E+03  0.25500000920E-02 0. -1.
       -2   -1    0    0    0  501  0.00000000000E+00  0.00000000000E+00 -0.12949868554E+04  0.12949868554E+04  0.25500000920E-02 0.  1.
    10030    2    1    2    0    0  0.00000000000E+00  0.00000000000E+00 -0.52268441802E+03  0.20672892927E+04  0.20001215011E+04 0.  0.
        3    1    3    3  502    0  0.89485624477E+03 -0.31950659006E+03  0.61011631980E+02  0.95214210564E+03  0.10100000352E+00 0. -1.
       -3    1    3    3    0  502 -0.89485624477E+03  0.31950659006E+03 -0.58369605000E+03  0.11151471871E+04  0.10100000352E+00 0.  1.
</event>
<event>
 5   0  0.2142551E-05  0.1980992E+04  0.7818609E-02  0.8615559E-01
       -1   -1    0    0    0  501  0.00000000000E+00  0.00000000000E+00  0.14034375170E+04  0.14034375170E+04  0.50400001928E-02 0. -1.
        1   -1    0    0  501    0  0.00000000000E+00  0.00000000000E+00 -0.69905679194E+03  0.69905679196E+03  0.50400001928E-02 0.  1.
    10030    2    1    2    0    0  0.00000000000E+00  0.00000000000E+00  0.70438072501E+03  0.21024943089E+04  0.19809922042E+04 0.  0.
        3    1    3    3  502    0 -0.70791562317E+03 -0.25131282672E+03  0.10373715342E+04  0.12807975549E+04  0.10100000352E+00 0. -1.
       -3    1    3    3    0  502  0.70791562317E+03  0.25131282672E+03 -0.33299080918E+03  0.82169675404E+03  0.10100000352E+00 0.  1.
</event>
<event>
 5   0  0.2093980E-05  0.2005944E+04  0.7818609E-02  0.8603847E-01
        1   -1    0    0  501    0  0.00000000000E+00  0.00000000000E+00  0.75820288265E+03  0.75820288267E+03  0.50400001928E-02 0. -1.
       -1   -1    0    0    0  501  0.00000000000E+00  0.00000000000E+00 -0.13267591160E+04  0.13267591160E+04  0.50400001928E-02 0.  1.
    10030    2    1    2    0    0  0.00000000000E+00  0.00000000000E+00 -0.56855623331E+03  0.20849619986E+04  0.20059437543E+04 0.  0.
        2    1    3    3  502    0 -0.98596813421E+03 -0.16868386044E+03 -0.20814536336E+03  0.10217200687E+04  0.25500000920E-02 0.  1.
       -2    1    3    3    0  502  0.98596813421E+03  0.16868386044E+03 -0.36041086995E+03  0.10632419300E+04  0.25500000920E-02 0. -1.
</event>
<event>
 5   0  0.4473361E-05  0.1996269E+04  0.7818609E-02  0.8608367E-01
        2   -1    0    0  501    0  0.00000000000E+00  0.00000000000E+00  0.79435726214E+03  0.79435726214E+03  0.25500000920E-02 0.  1.
       -2   -1    0    0    0  501  0.00000000000E+00  0.00000000000E+00 -0.12541864536E+04  0.12541864536E+04  0.25500000920E-02 0. -1.
    10030    2    1    2    0    0  0.00000000000E+00  0.00000000000E+00 -0.45982919151E+03  0.20485437158E+04  0.19962686368E+04 0.  0.
        2    1    3    3  502    0  0.34440229710E+03  0.88777561060E+03 -0.53693756157E+03  0.10931881915E+04  0.25500000920E-02 0. -1.
       -2    1    3    3    0  502 -0.34440229710E+03 -0.88777561060E+03  0.77108370064E+02  0.95535552428E+03  0.25500000920E-02 0.  1.
</event>
<event>
 5   0  0.2256868E-05  0.2004976E+04  0.7818609E-02  0.8604298E-01
       -1   -1    0    0    0  501  0.00000000000E+00  0.00000000000E+00  0.87571494550E+03  0.87571494552E+03  0.50400001928E-02 0.  1.
        1   -1    0    0  501    0  0.00000000000E+00  0.00000000000E+00 -0.11476138658E+04  0.11476138658E+04  0.50400001928E-02 0. -1.
    10030    2    1    2    0    0  0.00000000000E+00  0.00000000000E+00 -0.27189892032E+03  0.20233288114E+04  0.20049764228E+04 0.  0.
        5    1    3    3  502    0 -0.93478996232E+03  0.32290973008E+03 -0.30133230009E+03  0.10338888782E+04  0.46999998093E+01 0.  1.
       -5    1    3    3    0  502  0.93478996232E+03 -0.32290973008E+03  0.29433379762E+02  0.98943993313E+03  0.46999998093E+01 0. -1.
</event>
<event>
 5   0  0.2007644E-05  0.1991051E+04  0.7818609E-02  0.8610816E-01
        1   -1    0    0  501    0  0.00000000000E+00  0.00000000000E+00  0.18065104730E+04  0.18065104730E+04  0.50400001928E-02 0. -1.
       -1   -1    0    0    0  501  0.00000000000E+00  0.00000000000E+00 -0.54861063510E+03  0.54861063512E+03  0.50400001928E-02 0.  1.
    10030    2    1    2    0    0  0.00000000000E+00  0.00000000000E+00  0.12578998379E+04  0.23551211082E+04  0.19910508361E+04 0.  0.
        1    1    3    3  502    0 -0.64500115144E+02 -0.94533274383E+03  0.99016899461E+03  0.13704922106E+04  0.50400001928E-02 0. -1.
       -1    1    3    3    0  502  0.64500115144E+02  0.94533274383E+03  0.26773084332E+03  0.98462889755E+03  0.50400001928E-02 0.  1.
</event>
<event>
 5   0  0.4412054E-05  0.2003221E+04  0.7818609E-02  0.8605116E-01
       -2   -1    0    0    0  501  0.00000000000E+00  0.00000000000E+00  0.99059959894E+03  0.99059959894E+03  0.25500000920E-02 0. -1.
        2   -1    0    0  501    0  0.00000000000E+00  0.00000000000E+00 -0.10127433924E+04  0.10127433924E+04  0.25500000920E-02 0.  1.
    10030    2    1    2    0    0  0.00000000000E+00  0.00000000000E+00 -0.22143793491E+02  0.20033429914E+04  0.20032206053E+04 0.  0.
        4    1    3    3  502    0 -0.94773473140E+03 -0.21243963807E+03 -0.25581090607E+03  0.10043766990E+04  0.12699999809E+01 0. -1.
       -4    1    3    3    0  502  0.94773473140E+03  0.21243963807E+03  0.23366711258E+03  0.99896629238E+03  0.12699999809E+01 0.  1.
</event>
<event>
 5   0  0.2007644E-05  0.1996299E+04  0.7818609E-02  0.8608353E-01
        1   -1    0    0  501    0  0.00000000000E+00  0.00000000000E+00  0.19007898137E+04  0.19007898137E+04  0.50400001928E-02 0.  1.
       -1   -1    0    0    0  501  0.00000000000E+00  0.00000000000E+00 -0.52415169345E+03  0.52415169348E+03  0.50400001928E-02 0. -1.
    10030    2    1    2    0    0  0.00000000000E+00  0.00000000000E+00  0.13766381202E+04  0.24249415072E+04  0.19962987750E+04 0.  0.
        1    1    3    3  502    0 -0.75570288106E+03 -0.75284643673E+02 -0.98484535695E+02  0.76580273297E+03  0.50400001928E-02 0. -1.
       -1    1    3    3    0  502  0.75570288106E+03  0.75284643673E+02  0.14751226559E+04  0.16591387742E+04  0.50400001928E-02 0.  1.
</event>
<event>
 5   0  0.4412054E-05  0.2017754E+04  0.7818609E-02  0.8598365E-01
       -2   -1    0    0    0  501  0.00000000000E+00  0.00000000000E+00  0.14531343814E+04  0.14531343814E+04  0.25500000920E-02 0. -1.
        2   -1    0    0  501    0  0.00000000000E+00  0.00000000000E+00 -0.70043936650E+03  0.70043936651E+03  0.25500000920E-02 0.  1.
    10030    2    1    2    0    0  0.00000000000E+00  0.00000000000E+00  0.75269501489E+03  0.21535737479E+04  0.20177537268E+04 0.  0.
        4    1    3    3  502    0  0.28305216505E+02  0.15559981881E+03 -0.68712558067E+03  0.70509266442E+03  0.12699999809E+01 0.  1.
       -4    1    3    3    0  502 -0.28305216505E+02 -0.15559981881E+03  0.14398205956E+04  0.14484810835E+04  0.12699999809E+01 0. -1.
</event>
<event>
 5   0  0.4447313E-05  0.1992580E+04  0.7818609E-02  0.8610097E-01
        2   -1    0    0  501    0  0.00000000000E+00  0.00000000000E+00  0.13208133987E+04  0.13208133987E+04  0.25500000920E-02 0.  1.
       -2   -1    0    0    0  501  0.00000000000E+00  0.00000000000E+00 -0.75150209660E+03  0.75150209661E+03  0.25500000920E-02 0. -1.
    10030    2    1    2    0    0  0.00000000000E+00  0.00000000000E+00  0.56931130212E+03  0.20723154953E+04  0.19925802753E+04 0.  0.
        5    1    3    3  502    0  0.50495957176E+03 -0.78424364856E+03 -0.79423773775E+02  0.93613700667E+03  0.46999998093E+01 0.  1.
       -5    1    3    3    0  502 -0.50495957176E+03  0.78424364856E+03  0.64873507590E+03  0.11361784887E+04  0.46999998093E+01 0. -1.
</event>
<event>
 5   0  0.2110896E-05  0.2011378E+04  0.7818609E-02  0.8601320E-01
       -1   -1    0    0    0  501  0.00000000000E+00  0.00000000000E+00  0.17563495875E+04  0.17563495875E+04  0.50400001928E-02 0.  1.
        1   -1    0    0  501    0  0.00000000000E+00  0.00000000000E+00 -0.57585925362E+03  0.57585925365E+03  0.50400001928E-02 0. -1.
    10030    2    1    2    0    0  0.00000000000E+00  0.00000000000E+00  0.11804903339E+04  0.23322088412E+04  0.20113777990E+04 0.  0.
        4    1    3    3  502    0  0.22600852794E+03  0.92079461455E+03  0.97909718508E+03  0.13629290105E+04  0.12699999809E+01 0.  1.
       -4    1    3    3    0  502 -0.22600852794E+03 -0.92079461455E+03  0.20139314880E+03  0.96927983068E+03  0.12699999809E+01 0. -1.
</event>
<event>
 5   0  0.4447313E-05  0.1998253E+04  0.7818609E-02  0.8607438E-01
        2   -1    0    0  501    0  0.00000000000E+00  0.00000000000E+00  0.27281280762E+04  0.27281280762E+04  0.25500000920E-02 0.  1.
       -2   -1    0    0    0  501  0.00000000000E+00  0.00000000000E+00 -0.36591144807E+03  0.36591144808E+03  0.25500000920E-02 0. -1.
    10030    2    1    2    0    0  0.00000000000E+00  0.00000000000E+00  0.23622166282E+04  0.30940395243E+04  0.19982525315E+04 0.  0.
        5    1    3    3  502    0  0.60702157830E+03  0.51402803924E+03  0.21172416300E+04  0.22617325729E+04  0.46999998093E+01 0.  1.
       -5    1    3    3    0  502 -0.60702157830E+03 -0.51402803924E+03  0.24497499820E+03  0.83230695142E+03  0.46999998093E+01 0. -1.
</event>
<event>
 5   0  0.2093980E-05  0.1981333E+04  0.7818609E-02  0.8615398E-01
        1   -1    0    0  501    0  0.00000000000E+00  0.00000000000E+00  0.70527397445E+03  0.70527397447E+03  0.50400001928E-02 0. -1.
       -1   -1    0    0    0  501  0.00000000000E+00  0.00000000000E+00 -0.13915440384E+04  0.13915440384E+04  0.50400001928E-02 0.  1.
    10030    2    1    2    0    0  0.00000000000E+00  0.00000000000E+00 -0.68627006392E+03  0.20968180128E+04  0.19813326774E+04 0.  0.
        2    1    3    3  502    0  0.47975862576E+03  0.35219325638E+03  0.49499286507E+03  0.77409712912E+03  0.25500000920E-02 0. -1.
       -2    1    3    3    0  502 -0.47975862576E+03 -0.35219325638E+03 -0.11812629290E+04  0.13227208837E+04  0.25500000920E-02 0.  1.
</event>
<event>
 5   0  0.4473361E-05  0.2018885E+04  0.7818609E-02  0.8597842E-01
       -2   -1    0    0    0  501  0.00000000000E+00  0.00000000000E+00  0.12062394781E+04  0.12062394781E+04  0.25500000920E-02 0. -1.
        2   -1    0    0  501    0  0.00000000000E+00  0.00000000000E+00 -0.84475295979E+03  0.84475295980E+03  0.25500000920E-02 0.  1.
    10030    2    1    2    0    0  0.00000000000E+00  0.00000000000E+00  0.36148651833E+03  0.20509924379E+04  0.20188852066E+04 0.  0.
        2    1    3    3  502    0 -0.80706421693E+02 -0.61830302162E+03  0.98719542632E+03  0.11676330600E+04  0.25500000920E-02 0. -1.
       -2    1    3    3    0  502  0.80706421693E+02  0.61830302162E+03 -0.62570890798E+03  0.88335937793E+03  0.25500000920E-02 0.  1.
</event>
<event>
 5   0  0.2256868E-05  0.2028278E+04  0.7818609E-02  0.8593513E-01
       -1   -1    0    0    0  501  0.00000000000E+00  0.00000000000E+00  0.71490460082E+03  0.71490460084E+03  0.50400001928E-02 0.  1.
        1   -1    0    0  501    0  0.00000000000E+00  0.00000000000E+00 -0.14386231035E+04  0.14386231035E+04  0.50400001928E-02 0. -1.
    10030    2    1    2    0    0  0.00000000000E+00  0.00000000000E+00 -0.72371850269E+03  0.21535277044E+04  0.20282783592E+04 0.  0.
        5    1    3    3  502    0  0.52338906571E+03 -0.55207491185E+03 -0.10738928048E+04  0.13160511649E+04  0.46999998093E+01 0. -1.
       -5    1    3    3    0  502 -0.52338906571E+03  0.55207491185E+03  0.35017430206E+03  0.83747653951E+03  0.46999998093E+01 0.  1.
</event>
</LesHouchesEvents>
